      -----------------------------------------------------------      
     |                   =====================                   |     
     |                           x T B                           |     
     |                   =====================                   |     
     |                         S. Grimme                         |     
     |          Mulliken Center for Theoretical Chemistry        |     
     |                    University of Bonn                     |     
     |                Version 6.1 RC1 (SAW190329)                |     
      -----------------------------------------------------------      

   This program is distributed in the hope that it will be useful,
   but WITHOUT ANY WARRANTY; without even the implied warranty of
   MERCHANTABILITY or FITNESS FOR A PARTICULAR PURPOSE.
   
   FOR NON-COMMERCIAL, ACADEMIA USE ONLY.
   
   Cite this work as:
   S. Grimme, C. Bannwarth, P. Shushkov, J. Comput. Theory Chem., 2017,
   13, 1989-2009. DOI: 10.1021/acs.jctc.7b00118
   C. Bannwarth, S. Ehlert and S. Grimme., J. Comput. Theory Chem., 2019,
   just accepted. DOI: 10.1021/acs.jctc.8b01176
   
   for sTDA-xTB:
   S. Grimme and C. Bannwarth, J. Chem. Phys., 2016, 145, 054103.
   DOI: 10.1063/1.4959605
   
   in the mass-spec context:
   V. Asgeirsson, C. Bauer and S. Grimme, Chem. Sci., 2017, 8, 4879.
   DOI: 10.1039/c7sc00601b
   
   for metadynamics refer to:
   S. Grimme, ChemRxiv, Preprint. DOI: 10.26434/chemrxiv.7660532.v1
   
   with help from (in alphabetical order)
   C. Bannwarth, F. Bohle, G. Brandenburg, E. Caldeweyher, M. Checinski,
   S. Dohm, S. Ehlert, S. Ehrlich, F. März, H. Neugebauer, J. Pisarek,
   P. Pracht, P. Shushkov, and S. Spicher.
   
 * started run on 2019/05/31 at 06:33:43.763     

           -------------------------------------------------
          |                Calculation Setup                |
           -------------------------------------------------

          program call               : /home/lum/qr/xtb-190329/bin/xtb xtb_tmp.xyz --chrg -1 --grad --gfn 2 --etemp 500 --acc 0.1 --gbsa h2o --parallel 2
          hostname                   : cu39
          coordinate file            : xtb_tmp.xyz
          omp threads                :                     2
          number of atoms            :                   287
          number of electrons        :                   758
          charge                     :                    -1
          spin                       :                   0.0
          first test random number   :      0.88566137490851


molecular fragmentation (1/2 indicates fragments):
111111111111111122222222222222222222222222222222222222222222222222222222
222222222222222222222222222222222222222222222222222222222222222222222222
222222222222222222222222222222222222222222222222222222222222222222222222
22222222222222222222222222222222222222222222222222222222222221122222222
# atoms in fragment 1/2:    18   269
 fragment masses (1/2) :      101.15     1804.19
CMA distance (Bohr)    :  18.332
constraining FC (au)   :  0.0500

########################################################################
# WARNING! Please study the warnings concerning your input carefully
#  - XTBPATH is not set, using XTBHOME instead
#  - Process number higher than OMP_NUM_THREADS, I hope you know what you are doing.
########################################################################

           ------------------------------------------------- 
          |                 G F N 2 - x T B                 |
          | Geometry, Frequencies, Noncovalent interactions |
          |            JCTC 2018 parametrisation            |
           ------------------------------------------------- 
 
             k(s)              :                1.8500
             k(p)              :                2.2300
             k(d)              :                2.2300
             k(f)              :                2.0000
             kEN (H0ij)        :               -2.0000
             D4 a1             :                0.5200
             D4 a2             :                5.0000
             D4 s6             :                1.0000
             D4 s8             :                2.7000
             D4 s9             :                5.0000
             alphaj            :                2.0000

  Z AO/shell   Hii/eV     exponent
  1     Wed Apr 25 08:07:45 CEST 2018   EN: 2.200 GM2: 0.406  GM3: 0.0800  RAES: 1.40
     1s    -10.707211    1.230000
  6     Wed Apr 25 08:07:45 CEST 2018   EN: 2.550 GM2: 0.538  GM3: 0.1500  RAES: 3.00
     2s    -13.970922    2.096432
     2p    -10.063292    1.800000
  7     Wed Apr 25 08:07:45 CEST 2018   EN: 3.040 GM2: 0.461  GM3:-0.0640  RAES: 1.90
     2s    -16.686243    2.339881
     2p    -12.523956    2.014332
  8     Wed Apr 25 08:07:45 CEST 2018   EN: 3.440 GM2: 0.452  GM3:-0.0517  RAES: 1.80
     2s    -20.229985    2.439742
     2p    -15.503117    2.137023
 16     Tue Apr 24 11:44:34 CEST 2018   EN: 2.580 GM2: 0.340  GM3:-0.0502  RAES: 3.10
     3s    -20.029654    1.981333
     3p    -11.377694    2.025643
     3d     -0.420282    1.702555

 Solvent             : h2o
 Using internal parameter file: .param_gbsa2_h2o
 Gsolv ref. state (COSMO-RS): gsolv [1 M gas/solution]
 temperature (mdtemp)       :    298.150000000000     
 dielectric constant        :    80.2000000000000     
 rho                        :    1.00000000000000     
 mass                       :    18.0000000000000     
 surface tension            :    15.5689454083859     
 probe radius               :   0.975313790000000     
 vdW radii scaling          :    1.00000000000000     
 Gshift (Eh)                :   1.857443126794793E-003
 c1                         :    1.55243817000000     
 soset                      :   0.130326360000000     
 HB correction              :  T
 Number of grid points      :          230

            Z     q(EN)     CN     RAES       Cart. coordinates
     1  N   5.0   -0.69    3.00    1.93    40.62912    40.00575   101.17343
     2  C   4.0    0.07    3.98    3.59    40.16003    38.10780    99.26422
     3  C   4.0    0.07    3.00    3.02    41.71273    38.81085    96.92750
     4  O   6.0   -0.40    1.00    1.80    41.76035    40.96294    96.08899
     5  C   4.0   -0.09    3.98    3.58    37.33640    37.82500    98.59782
     6  C   4.0   -0.24    3.98    3.59    36.97351    35.34474    97.16914
     7  C   4.0   -0.24    3.98    3.59    35.73310    37.87155   100.99586
     8  H   1.0    0.33    1.00    1.43    40.45170    41.83908   100.64895
     9  H   1.0    0.10    0.99    1.43    40.85068    36.32345   100.05149
    10  H   1.0    0.12    0.99    1.43    36.78553    39.40501    97.38210
    11  H   1.0    0.09    0.99    1.43    34.98666    35.04675    96.76430
    12  H   1.0    0.10    0.99    1.43    38.01261    35.36151    95.39778
    13  H   1.0    0.09    0.99    1.43    37.66930    33.77123    98.29363
    14  H   1.0    0.09    0.99    1.43    33.75689    37.60249   100.51377
    15  H   1.0    0.10    0.99    1.43    36.33519    36.37575   102.26706
    16  H   1.0    0.10    0.99    1.43    35.93763    39.66742   101.97325
    17  N   5.0   -0.70    3.01    1.93    41.07564    42.17722    84.00435
    18  C   4.0    0.06    3.98    3.59    39.23671    42.99734    85.84733
    19  C   4.0    0.07    3.00    3.02    40.61501    43.21294    88.37814
    20  O   6.0   -0.40    1.00    1.80    41.53940    41.37150    89.43164
    21  C   4.0   -0.08    3.98    3.59    37.12704    41.00725    86.07643
    22  C   4.0   -0.23    3.98    3.59    35.21417    41.82284    88.06932
    23  C   4.0   -0.24    3.98    3.59    35.86162    40.52242    83.53405
    24  H   1.0    0.27    1.00    1.43    41.88198    40.47460    84.40055
    25  H   1.0    0.10    0.99    1.43    38.48491    44.83260    85.26240
    26  H   1.0    0.13    0.99    1.43    38.05238    39.27157    86.71285
    27  H   1.0    0.10    0.99    1.43    33.67275    40.46936    88.17256
    28  H   1.0    0.11    0.99    1.43    36.10773    41.93094    89.91675
    29  H   1.0    0.09    0.99    1.43    34.44153    43.67330    87.62361
    30  H   1.0    0.09    0.99    1.43    34.48639    39.01196    83.73042
    31  H   1.0    0.09    0.99    1.43    34.89570    42.21747    82.89214
    32  H   1.0    0.09    0.99    1.43    37.25559    39.97659    82.12755
    33  N   5.0   -0.69    3.00    1.93    39.33842    46.38037    95.50793
    34  C   4.0    0.06    3.98    3.58    37.63050    47.42516    97.38148
    35  C   4.0    0.07    3.00    3.02    39.02410    47.37275    99.91389
    36  O   6.0   -0.44    1.00    1.80    39.98887    45.42576   100.71783
    37  C   4.0   -0.14    3.98    3.59    35.18558    45.87306    97.58742
    38  C   4.0   -0.11    3.97    3.58    33.36013    46.90843    99.59233
    39  C   4.0   -0.22    3.98    3.59    32.31389    49.49437    98.84628
    40  C   4.0   -0.23    3.98    3.59    31.17132    45.06525   100.00209
    41  H   1.0    0.32    1.00    1.43    40.19959    44.72338    95.94672
    42  H   1.0    0.10    0.99    1.43    37.20966    49.36357    96.80882
    43  H   1.0    0.10    0.99    1.43    34.26366    45.85927    95.74107
    44  H   1.0    0.11    0.99    1.43    35.71213    43.93706    98.07862
    45  H   1.0    0.11    0.99    1.43    34.39639    47.09694   101.37812
    46  H   1.0    0.12    0.99    1.43    30.99609    50.16686   100.27220
    47  H   1.0    0.10    0.99    1.43    33.80509    50.89518    98.67978
    48  H   1.0    0.12    0.99    1.43    31.31532    49.39515    97.04923
    49  H   1.0    0.11    0.99    1.43    30.03487    45.64665   101.61220
    50  H   1.0    0.10    0.99    1.43    29.95401    45.05059    98.34644
    51  H   1.0    0.09    0.99    1.43    31.85839    43.16210   100.35323
    52  N   5.0   -0.72    3.00    1.93    18.42497    49.93393    86.49415
    53  C   4.0    0.07    3.98    3.59    18.32650    48.67140    88.91964
    54  C   4.0    0.27    3.01    3.02    20.95586    48.21563    90.04232
    55  O   6.0   -0.46    1.00    1.80    21.28102    48.30267    92.33833
    56  C   4.0   -0.15    3.98    3.59    16.88295    46.16524    88.74960
    57  C   4.0   -0.15    3.98    3.59    14.00744    46.46597    88.80772
    58  C   4.0   -0.04    3.98    3.59    12.90971    47.52671    86.35670
    59  N   5.0   -0.48    3.02    1.93    10.16355    47.52512    86.51128
    60  C   4.0    0.37    3.00    3.02     8.61198    47.82298    84.55000
    61  N   5.0   -0.66    3.02    1.93     6.12248    47.72401    84.94159
    62  N   5.0   -0.65    3.01    1.93     9.47789    48.40960    82.27064
    63  H   1.0    0.25    1.00    1.43    18.35179    48.82523    84.93615
    64  H   1.0    0.11    0.99    1.43    17.38139    49.95127    90.25395
    65  H   1.0    0.12    0.99    1.43    17.47922    45.15149    87.05204
    66  H   1.0    0.13    0.99    1.43    17.43191    44.97919    90.34685
    67  H   1.0    0.13    0.99    1.43    13.21956    44.59074    89.16492
    68  H   1.0    0.11    0.99    1.43    13.51894    47.69228    90.38921
    69  H   1.0    0.10    0.99    1.43    13.57017    49.46377    86.06690
    70  H   1.0    0.11    0.99    1.43    13.55940    46.36600    84.76991
    71  H   1.0    0.23    1.00    1.43     9.43676    46.84543    88.14282
    72  H   1.0    0.25    1.00    1.43     5.39982    47.30491    86.65144
    73  H   1.0    0.25    1.00    1.43     4.92032    47.92265    83.48022
    74  H   1.0    0.25    1.00    1.43    11.33566    48.33435    81.81425
    75  H   1.0    0.25    1.00    1.43     8.27337    48.48806    80.79748
    76  N   5.0   -0.49    3.01    1.93    22.80095    47.70582    88.40829
    77  C   4.0    0.07    3.99    3.61    25.39175    47.35785    89.21887
    78  C   4.0    0.08    3.00    3.02    26.42282    49.81355    90.38125
    79  O   6.0   -0.41    1.00    1.80    27.54974    49.83566    92.39816
    80  C   4.0   -0.10    3.98    3.59    27.03595    46.50337    86.99802
    81  C   4.0   -0.23    3.99    3.60    29.80907    46.41356    87.76407
    82  C   4.0   -0.23    3.98    3.59    26.21103    43.90630    86.05974
    83  H   1.0    0.24    1.00    1.43    22.45384    47.66965    86.53117
    84  H   1.0    0.13    0.99    1.43    25.43911    45.92199    90.71409
    85  H   1.0    0.10    0.99    1.43    26.80147    47.87375    85.46239
    86  H   1.0    0.09    0.99    1.43    30.92033    45.95051    86.10455
    87  H   1.0    0.11    0.99    1.43    30.42430    48.22707    88.50070
    88  H   1.0    0.11    0.99    1.43    30.11697    44.97603    89.20146
    89  H   1.0    0.09    0.99    1.43    27.34625    43.38415    84.43259
    90  H   1.0    0.11    0.99    1.43    26.48717    42.47843    87.51429
    91  H   1.0    0.11    0.99    1.43    24.23009    43.88295    85.50532
    92  N   5.0   -0.68    3.00    1.93    23.92112    54.53401    93.12843
    93  C   4.0    0.10    3.99    3.60    23.09373    55.01810    95.68921
    94  C   4.0    0.29    3.01    3.02    24.07531    52.96000    97.48370
    95  O   6.0   -0.41    1.00    1.80    25.24318    53.45641    99.40244
    96  C   4.0    0.03    3.98    3.58    20.20896    55.24655    95.79581
    97  O   6.0   -0.50    1.99    1.83    19.54784    57.33042    94.26991
    98  C   4.0   -0.22    3.98    3.59    19.31413    55.56868    98.52108
    99  H   1.0    0.27    1.00    1.43    22.63322    54.01507    91.81855
   100  H   1.0    0.12    0.99    1.43    23.94206    56.80419    96.30986
   101  H   1.0    0.12    0.99    1.43    19.40940    53.49972    94.98609
   102  H   1.0    0.24    0.99    1.43    17.76044    57.65140    94.44669
   103  H   1.0    0.09    0.99    1.43    17.28539    55.87636    98.57253
   104  H   1.0    0.13    0.99    1.43    19.78518    53.89961    99.62067
   105  H   1.0    0.11    0.99    1.43    20.25824    57.18442    99.36857
   106  N   5.0   -0.47    3.01    1.93    23.43409    50.61659    96.75843
   107  C   4.0    0.03    3.99    3.61    24.23886    48.39259    98.12242
   108  C   4.0    0.27    3.01    3.02    22.26429    47.70372   100.12243
   109  O   6.0   -0.40    1.00    1.80    22.14479    48.77680   102.15302
   110  H   1.0    0.30    1.00    1.43    22.65101    50.29402    95.04318
   111  H   1.0    0.11    0.99    1.43    24.52727    46.85802    96.78046
   112  H   1.0    0.14    0.99    1.43    26.00839    48.83074    99.09491
   113  N   5.0   -0.48    3.01    1.93    20.59953    45.90655    99.42412
   114  C   4.0    0.07    3.99    3.61    18.84279    44.82322   101.23959
   115  C   4.0    0.26    3.01    3.02    19.80363    42.14203   101.82613
   116  O   6.0   -0.41    1.00    1.80    21.99388    41.85098   102.51702
   117  C   4.0   -0.15    3.98    3.58    16.09730    45.14987   100.39691
   118  C   4.0   -0.16    3.98    3.59    15.57497    47.93903    99.79691
   119  C   4.0   -0.16    3.98    3.58    12.76375    48.41388    99.31386
   120  C   4.0   -0.07    3.98    3.58    12.35404    51.03596    98.17802
   121  N   5.0   -0.73    3.98    2.82     9.59745    51.53753    97.85811
   122  H   1.0    0.25    1.00    1.43    20.82295    45.00832    97.75909
   123  H   1.0    0.14    0.99    1.43    19.16023    45.94151   102.96289
   124  H   1.0    0.14    0.99    1.43    15.69837    43.98971    98.73451
   125  H   1.0    0.10    0.99    1.43    14.86718    44.52599   101.93031
   126  H   1.0    0.11    0.99    1.43    16.23767    49.09447   101.37383
   127  H   1.0    0.13    0.99    1.43    16.67337    48.45899    98.12974
   128  H   1.0    0.11    0.99    1.43    12.08014    46.95470    98.02414
   129  H   1.0    0.10    0.99    1.43    11.74754    48.23381   101.09862
   130  H   1.0    0.10    0.99    1.43    13.17437    52.46866    99.41544
   131  H   1.0    0.10    0.99    1.43    13.27960    51.13200    96.33757
   132  H   1.0    0.22    1.00    1.43     9.29633    53.19184    96.86999
   133  H   1.0    0.23    1.00    1.43     8.78229    50.05435    96.89007
   134  H   1.0    0.22    1.00    1.43     8.73435    51.66907    99.60272
   135  N   5.0   -0.50    3.00    1.93    18.16525    40.21588   101.56348
   136  C   4.0    0.08    3.99    3.61    18.94080    37.61498   101.94861
   137  C   4.0    0.26    3.00    3.02    19.12440    36.12609    99.47600
   138  O   6.0   -0.47    1.00    1.80    20.92894    34.70004    99.06026
   139  C   4.0   -0.09    3.98    3.58    17.21200    36.14835   103.81509
   140  C   4.0   -0.23    3.98    3.59    18.27340    36.27984   106.49818
   141  C   4.0   -0.22    3.98    3.59    14.50095    37.13195   103.75887
   142  H   1.0    0.24    1.00    1.43    16.47012    40.52252   100.73931
   143  H   1.0    0.14    0.99    1.43    20.86243    37.69971   102.71636
   144  H   1.0    0.11    0.99    1.43    17.21927    34.16806   103.20484
   145  H   1.0    0.09    0.99    1.43    17.00211    35.33946   107.80912
   146  H   1.0    0.10    0.99    1.43    20.10718    35.35931   106.59001
   147  H   1.0    0.11    0.99    1.43    18.49647    38.23522   107.08195
   148  H   1.0    0.09    0.99    1.43    13.30547    35.89456   104.87708
   149  H   1.0    0.11    0.99    1.43    14.41869    39.01939   104.56395
   150  H   1.0    0.11    0.99    1.43    13.75676    37.16770   101.84315
   151  N   5.0   -0.48    3.01    1.93    17.16742    36.41874    97.93640
   152  C   4.0    0.07    3.99    3.60    16.88485    35.42417    95.39422
   153  C   4.0    0.28    3.01    3.02    18.76337    36.80852    93.67894
   154  O   6.0   -0.40    1.00    1.80    18.14649    38.43722    92.16650
   155  C   4.0   -0.09    3.98    3.59    14.17792    35.95135    94.55736
   156  C   4.0    0.33    2.99    3.02    13.50181    38.81043    94.73725
   157  O   6.0   -0.47    1.01    1.80    14.10140    39.92305    96.76259
   158  O   6.0   -0.38    1.00    1.80    12.32989    39.80305    92.98412
   159  H   1.0    0.29    1.00    1.43    15.93190    37.96095    98.06754
   160  H   1.0    0.13    0.99    1.43    17.28627    33.38875    95.32969
   161  H   1.0    0.14    0.99    1.43    13.90726    35.30358    92.61824
   162  H   1.0    0.11    0.99    1.43    12.88245    34.90308    95.77824
   163  N   5.0   -0.48    3.01    1.93    21.18532    36.14364    94.11450
   164  C   4.0    0.08    3.99    3.61    23.25632    37.60126    93.04258
   165  C   4.0    0.28    3.01    3.02    24.70986    35.83125    91.27277
   166  O   6.0   -0.42    1.00    1.80    24.29552    35.82828    88.99695
   167  C   4.0   -0.14    4.00    3.63    24.76589    38.92856    95.12644
   168  C   4.0   -0.14    3.98    3.58    26.26488    41.15549    94.09878
   169  S   6.0   -0.16    2.01    3.10    28.91784    40.19949    92.13367
   170  C   4.0   -0.22    3.98    3.58    31.33503    39.95207    94.57845
   171  H   1.0    0.29    1.00    1.43    21.51192    35.11754    95.72186
   172  H   1.0    0.15    0.99    1.43    22.36618    39.01058    91.80619
   173  H   1.0    0.13    0.99    1.43    23.42051    39.62063    96.53641
   174  H   1.0    0.11    0.99    1.43    26.00480    37.60857    96.10967
   175  H   1.0    0.11    0.99    1.43    25.04630    42.30189    92.89702
   176  H   1.0    0.10    0.99    1.43    27.00494    42.30722    95.63741
   177  H   1.0    0.10    0.99    1.43    33.03060    39.30778    93.62741
   178  H   1.0    0.09    0.99    1.43    31.64673    41.79633    95.42157
   179  H   1.0    0.09    0.99    1.43    30.74812    38.59617    96.00260
   180  N   5.0   -0.49    3.00    1.93    26.33102    34.22579    92.37509
   181  C   4.0    0.08    4.00    3.62    27.63418    32.35875    90.86417
   182  C   4.0    0.29    3.01    3.02    25.75360    30.53418    89.65361
   183  O   6.0   -0.44    1.00    1.80    25.92846    29.94047    87.43724
   184  C   4.0   -0.10    3.98    3.58    29.74226    30.97840    92.32562
   185  C   4.0   -0.24    3.98    3.59    31.91143    32.81547    92.84081
   186  C   4.0   -0.23    3.98    3.59    28.83621    29.77864    94.79029
   187  H   1.0    0.22    1.00    1.43    26.50030    34.15174    94.27079
   188  H   1.0    0.13    0.99    1.43    28.49216    33.35452    89.25965
   189  H   1.0    0.10    0.99    1.43    30.41553    29.47591    91.07363
   190  H   1.0    0.09    0.99    1.43    33.46194    31.82141    93.75111
   191  H   1.0    0.10    0.99    1.43    32.58539    33.64004    91.08519
   192  H   1.0    0.10    0.99    1.43    31.27046    34.33150    94.06868
   193  H   1.0    0.09    0.99    1.43    30.38156    28.71431    95.62426
   194  H   1.0    0.10    0.99    1.43    28.25536    31.20168    96.15482
   195  H   1.0    0.11    0.99    1.43    27.27596    28.48466    94.46473
   196  N   5.0   -0.49    3.01    1.93    23.99301    29.52566    91.19707
   197  C   4.0    0.07    4.00    3.61    22.10461    27.81822    90.16735
   198  C   4.0    0.30    3.01    3.02    20.94363    28.93540    87.75556
   199  O   6.0   -0.41    1.00    1.80    20.98422    27.78924    85.75231
   200  C   4.0   -0.16    3.98    3.59    20.08630    27.20409    92.13914
   201  C   4.0   -0.12    3.97    3.58    17.65667    26.25302    90.91795
   202  C   4.0    0.31    2.99    3.02    15.90409    28.49375    90.10276
   203  O   6.0   -0.45    1.00    1.80    15.99023    30.45222    91.43308
   204  O   6.0   -0.39    1.00    1.80    14.53802    28.12940    88.22364
   205  H   1.0    0.24    1.00    1.43    23.61502    30.34675    92.87662
   206  H   1.0    0.12    0.99    1.43    23.05631    26.07387    89.56869
   207  H   1.0    0.09    0.99    1.43    20.82662    25.81788    93.47205
   208  H   1.0    0.13    0.99    1.43    19.59454    28.92232    93.18423
   209  H   1.0    0.12    0.99    1.43    18.02961    25.09710    89.25099
   210  H   1.0    0.11    0.99    1.43    16.54917    25.14086    92.25860
   211  N   5.0   -0.45    3.01    1.93    20.04535    31.30766    88.00771
   212  C   4.0    0.09    4.00    3.63    18.54134    32.35374    85.97162
   213  C   4.0    0.31    3.02    3.02    20.01824    32.35450    83.51591
   214  O   6.0   -0.41    1.00    1.80    19.14543    31.48867    81.53871
   215  C   4.0   -0.08    3.98    3.59    17.75339    35.03772    86.62469
   216  C   4.0    0.32    2.99    3.02    16.66778    36.28336    84.18434
   217  O   6.0   -0.36    1.00    1.80    14.42885    35.80621    83.64794
   218  O   6.0   -0.39    1.00    1.80    18.18022    37.60095    82.95335
   219  H   1.0    0.27    1.00    1.43    19.37753    31.81002    89.73015
   220  H   1.0    0.17    0.99    1.43    16.82290    31.21062    85.66413
   221  H   1.0    0.14    0.99    1.43    16.30219    35.00688    88.09341
   222  H   1.0    0.15    0.99    1.43    19.37266    36.13282    87.28968
   223  N   5.0   -0.47    3.01    1.93    22.34608    33.32386    83.62226
   224  C   4.0    0.08    3.99    3.61    23.69133    33.89627    81.29687
   225  C   4.0    0.27    3.01    3.02    25.04710    31.53585    80.29340
   226  O   6.0   -0.44    1.00    1.80    25.81440    31.45973    78.10453
   227  C   4.0   -0.13    3.98    3.59    25.28460    36.29411    81.66240
   228  C   4.0   -0.10    3.97    3.58    25.63078    37.92803    79.28247
   229  C   4.0   -0.24    3.99    3.60    26.39547    40.59681    80.07189
   230  C   4.0   -0.22    3.98    3.59    27.62288    36.89364    77.47917
   231  H   1.0    0.28    1.00    1.43    22.90260    34.19328    85.22800
   232  H   1.0    0.15    0.99    1.43    22.22967    34.31743    79.87168
   233  H   1.0    0.13    0.99    1.43    24.23160    37.42984    83.03183
   234  H   1.0    0.11    0.99    1.43    27.10681    35.83047    82.50122
   235  H   1.0    0.12    0.99    1.43    23.79844    38.02098    78.31979
   236  H   1.0    0.09    0.99    1.43    26.81195    41.73312    78.41265
   237  H   1.0    0.10    0.99    1.43    24.87117    41.51583    81.09696
   238  H   1.0    0.09    0.99    1.43    28.06680    40.53128    81.26469
   239  H   1.0    0.10    0.99    1.43    27.87778    38.20718    75.91570
   240  H   1.0    0.10    0.99    1.43    29.38017    36.71570    78.51938
   241  H   1.0    0.15    0.99    1.43    27.03796    35.06814    76.75708
   242  N   5.0   -0.48    3.00    1.93    25.31946    29.57524    81.85899
   243  C   4.0    0.09    4.00    3.61    26.06059    27.11065    80.90398
   244  C   4.0    0.28    3.01    3.02    23.78076    25.38352    80.48322
   245  O   6.0   -0.45    1.00    1.80    23.93890    23.08839    80.42593
   246  C   4.0   -0.08    3.98    3.58    28.24952    25.92964    82.42346
   247  C   4.0   -0.16    3.98    3.59    29.66532    23.89197    80.91437
   248  C   4.0   -0.21    3.98    3.59    27.35687    24.82017    84.93193
   249  C   4.0   -0.23    3.98    3.58    30.73624    24.78647    78.39582
   250  H   1.0    0.31    1.00    1.43    24.64515    29.67424    83.64412
   251  H   1.0    0.14    0.99    1.43    26.73071    27.47678    78.96951
   252  H   1.0    0.12    0.99    1.43    29.55162    27.48619    82.83295
   253  H   1.0    0.09    0.99    1.43    31.22121    23.23566    82.09856
   254  H   1.0    0.13    0.99    1.43    28.39803    22.30014    80.61118
   255  H   1.0    0.09    0.99    1.43    28.97473    24.18042    86.02226
   256  H   1.0    0.15    0.99    1.43    26.34016    26.22533    86.02609
   257  H   1.0    0.13    0.99    1.43    26.10212    23.22765    84.60744
   258  H   1.0    0.10    0.99    1.43    31.87415    23.28148    77.58717
   259  H   1.0    0.12    0.99    1.43    29.23498    25.23481    77.06375
   260  H   1.0    0.10    0.99    1.43    31.91949    26.43606    78.69513
   261  N   5.0   -0.46    3.01    1.93    21.64990    26.61270    79.79757
   262  C   4.0    0.07    3.99    3.60    19.48372    25.24799    78.83017
   263  C   4.0    0.08    3.00    3.02    18.74334    26.56975    76.36451
   264  O   6.0   -0.39    1.00    1.80    19.21100    25.60159    74.31846
   265  C   4.0   -0.14    3.98    3.58    17.34913    24.95497    80.76687
   266  C   4.0   -0.12    3.98    3.59    15.59108    22.75881    80.12125
   267  C   4.0    0.28    2.99    3.02    16.62934    20.07981    80.35638
   268  O   6.0   -0.40    1.00    1.80    15.42725    18.29480    79.51134
   269  N   5.0   -0.65    3.00    1.93    18.84077    19.74788    81.53567
   270  H   1.0    0.30    1.00    1.43    21.34337    28.41405    80.34442
   271  H   1.0    0.17    0.99    1.43    20.18965    23.37081    78.30151
   272  H   1.0    0.14    0.99    1.43    18.18915    24.71790    82.64113
   273  H   1.0    0.13    0.99    1.43    16.24860    26.70144    80.88112
   274  H   1.0    0.12    0.99    1.43    13.93412    22.84375    81.35302
   275  H   1.0    0.12    0.99    1.43    14.89280    22.96458    78.18848
   276  H   1.0    0.28    1.00    1.43    19.92361    21.18692    82.13921
   277  H   1.0    0.28    1.00    1.43    19.51413    17.97355    81.70859
   278  H   1.0    0.29    1.00    1.43    39.53951    39.79591   102.46233
   279  H   1.0    0.12    1.00    1.43    42.73034    37.49080    96.03701
   280  H   1.0    0.28    1.00    1.43    40.32959    42.03439    82.48265
   281  H   1.0    0.12    1.00    1.43    40.78248    44.89521    89.22253
   282  H   1.0    0.29    1.00    1.43    38.48726    46.08615    94.06519
   283  H   1.0    0.11    1.00    1.43    39.16193    48.94756   100.94929
   284  H   1.0    0.28    1.00    1.43    17.10953    51.00320    86.35688
   285  H   1.0    0.13    1.00    1.43    26.17978    51.45860    89.48359
   286  H   1.0    0.30    1.00    1.43    24.63554    55.93812    92.48762
   287  H   1.0    0.14    1.00    1.43    17.86734    28.24339    76.41576

           ------------------------------------------------- 
          |        Self-Consistent Charge Iterations        |
           ------------------------------------------------- 

          ...................................................
          :                      SETUP                      :
          :.................................................:
          :  # basis functions                 689          :
          :  # atomic orbitals                 688          :
          :  # shells                          420          :
          :  # electrons                       758          :
          :  max. iterations                   250          :
          :  Hamiltonian                  GFN2-xTB          :
          :  restarted?                      false          :
          :  GBSA solvation                   true          :
          :  PC potential                    false          :
          :  electronic temp.          500.0000000     K    :
          :  accuracy                    0.1000000          :
          :  -> integral cutoff          0.3500000E+02      :
          :  -> integral neglect         0.1000000E-08      :
          :  -> SCF convergence          0.1000000E-06 Eh   :
          :  -> wf. convergence          0.1000000E-04 e    :
          :  Broyden damping             0.4000000          :
          ...................................................

 iter      E             dE          RMSdq      gap      omega  full diag
   1   -432.5253227 -0.432525E+03  0.420E+00    1.76       0.0  T
   2   -433.7521921 -0.122687E+01  0.215E+00    1.43       1.0  T
   3   -433.8067448 -0.545527E-01  0.118E+00    1.87       1.0  T
   4   -433.8262309 -0.194861E-01  0.299E-01    1.48       1.0  T
   5   -433.8370174 -0.107865E-01  0.137E-01    1.57       1.0  T
   6   -433.8376804 -0.662964E-03  0.603E-02    1.50       1.0  T
   7   -433.8377615 -0.810652E-04  0.241E-02    1.49       1.0  T
   8   -433.8377913 -0.298020E-04  0.114E-02    1.49       1.0  T
   9   -433.8377964 -0.511239E-05  0.486E-03    1.48       1.2  T
  10   -433.8377971 -0.771996E-06  0.238E-03    1.48       2.5  T
  11   -433.8377974 -0.221082E-06  0.109E-03    1.48       5.4  T
  12   -433.8377974 -0.492662E-07  0.522E-04    1.48      11.3  T
  13   -433.8377974 -0.733041E-08  0.229E-04    1.48      25.8  T
  14   -433.8377974 -0.218984E-08  0.850E-05    1.48      69.4  T
  15   -433.8377974 -0.281545E-09  0.358E-05    1.48     164.9  T

   *** convergence criteria satisfied after 15 iterations ***

         #    Occupation            Energy/Eh            Energy/eV
      -------------------------------------------------------------
         1        2.0000           -0.7407247             -20.1561
       ...           ...                  ...                  ...
       373        2.0000           -0.3788277             -10.3084
       374        2.0000           -0.3756715             -10.2225
       375        2.0000           -0.3713430             -10.1048
       376        2.0000           -0.3646424              -9.9224
       377        2.0000           -0.3620200              -9.8511
       378        2.0000           -0.3606747              -9.8145
       379        2.0000           -0.3554369              -9.6719 (HOMO)
       380                         -0.3010585              -8.1922 (LUMO)
       381                         -0.2881609              -7.8413
       382                         -0.2845651              -7.7434
       383                         -0.2788382              -7.5876
       384                         -0.2784144              -7.5760
       ...                                ...                  ...
       688                          0.6333520              17.2344
      -------------------------------------------------------------
                  HL-Gap            0.0543784 Eh            1.4797 eV
             Fermi-level           -0.3282053 Eh           -8.9309 eV

 SCC (total)                   0 d,  0 h,  0 min,  6.383 sec
 SCC setup                      ...        0 min,  0.082 sec (  1.287%)
 Dispersion                     ...        0 min,  0.074 sec (  1.161%)
 integral evaluation            ...        0 min,  0.362 sec (  5.663%)
 zeroth order Hamiltonian       ...        0 min,  0.010 sec (  0.159%)
 iterations                     ...        0 min,  4.296 sec ( 67.297%)
 molecular gradient             ...        0 min,  1.525 sec ( 23.897%)
 printout                       ...        0 min,  0.034 sec (  0.533%)

         :::::::::::::::::::::::::::::::::::::::::::::::::::::
         ::                     SUMMARY                     ::
         :::::::::::::::::::::::::::::::::::::::::::::::::::::
         :: total energy             -428.697497535644 Eh   ::
         :: total w/o Gsasa/hb       -428.640611241379 Eh   ::
         :: gradient norm               0.498010393979 Eh/α ::
         :: HOMO-LUMO gap               1.479711838725 eV   ::
         ::.................................................::
         :: SCC energy               -433.850401478736 Eh   ::
         :: -> isotropic ES             1.672899688187 Eh   ::
         :: -> anisotropic ES          -0.082048479600 Eh   ::
         :: -> anisotropic XC           0.146735943132 Eh   ::
         :: -> dispersion              -0.338387060525 Eh   ::
         :: -> Gsolv                   -0.598075766304 Eh   ::
         ::    -> Gborn                -0.541189472039 Eh   ::
         ::    -> Gsasa                -0.014461500799 Eh   ::
         ::    -> Ghb                  -0.044282236592 Eh   ::
         ::    -> Gshift                0.001857443127 Eh   ::
         :: repulsion energy            5.127976724044 Eh   ::
         :: add. restraining            0.000000000000 Eh   ::
         :::::::::::::::::::::::::::::::::::::::::::::::::::::

           -------------------------------------------------
          |                Property Printout                |
           -------------------------------------------------

    * Orbital Energies and Occupations

         #    Occupation            Energy/Eh            Energy/eV
      -------------------------------------------------------------
         1        2.0000           -0.7407247             -20.1561
       ...           ...                  ...                  ...
       367        2.0000           -0.3985291             -10.8445
       368        2.0000           -0.3958757             -10.7723
       369        2.0000           -0.3954009             -10.7594
       370        2.0000           -0.3929923             -10.6939
       371        2.0000           -0.3881636             -10.5625
       372        2.0000           -0.3814782             -10.3805
       373        2.0000           -0.3788277             -10.3084
       374        2.0000           -0.3756715             -10.2225
       375        2.0000           -0.3713430             -10.1048
       376        2.0000           -0.3646424              -9.9224
       377        2.0000           -0.3620200              -9.8511
       378        2.0000           -0.3606747              -9.8145
       379        2.0000           -0.3554369              -9.6719 (HOMO)
       380                         -0.3010585              -8.1922 (LUMO)
       381                         -0.2881609              -7.8413
       382                         -0.2845651              -7.7434
       383                         -0.2788382              -7.5876
       384                         -0.2784144              -7.5760
       385                         -0.2580773              -7.0226
       386                         -0.2542703              -6.9190
       387                         -0.2497219              -6.7953
       388                         -0.2443469              -6.6490
       389                         -0.2422270              -6.5913
       390                         -0.2383893              -6.4869
       ...                                ...                  ...
       688                          0.6333520              17.2344
      -------------------------------------------------------------
                  HL-Gap            0.0543784 Eh            1.4797 eV
             Fermi-level           -0.3282053 Eh           -8.9309 eV

   #   Z        covCN         q      C6AA      α(0)
   1   7 N      2.637    -0.401    30.407     8.190
   2   6 C      3.787     0.036    19.981     6.367
   3   6 C      2.768     0.205    23.655     7.965
   4   8 O      0.856    -0.369    21.064     6.153
   5   6 C      3.851    -0.013    20.779     6.484
   6   6 C      3.757    -0.125    22.945     6.829
   7   6 C      3.756    -0.110    22.665     6.788
   8   1 H      0.860     0.175     1.244     1.747
   9   1 H      0.924     0.050     2.314     2.379
  10   1 H      0.924     0.028     2.615     2.529
  11   1 H      0.925     0.053     2.280     2.361
  12   1 H      0.925     0.036     2.508     2.477
  13   1 H      0.925     0.050     2.316     2.380
  14   1 H      0.925     0.044     2.400     2.423
  15   1 H      0.925     0.048     2.346     2.395
  16   1 H      0.925     0.040     2.450     2.448
  17   7 N      2.640    -0.383    29.898     8.121
  18   6 C      3.786     0.033    20.040     6.376
  19   6 C      2.771     0.207    23.615     7.959
  20   8 O      0.856    -0.372    21.127     6.162
  21   6 C      3.855    -0.018    20.850     6.494
  22   6 C      3.756    -0.118    22.805     6.809
  23   6 C      3.755    -0.114    22.737     6.799
  24   1 H      0.860     0.157     1.355     1.824
  25   1 H      0.924     0.056     2.247     2.344
  26   1 H      0.924     0.037     2.488     2.467
  27   1 H      0.925     0.047     2.362     2.403
  28   1 H      0.925     0.027     2.626     2.534
  29   1 H      0.925     0.052     2.299     2.371
  30   1 H      0.925     0.041     2.437     2.441
  31   1 H      0.925     0.047     2.357     2.401
  32   1 H      0.925     0.043     2.411     2.428
  33   7 N      2.638    -0.383    29.915     8.123
  34   6 C      3.782     0.039    19.943     6.361
  35   6 C      2.770     0.206    23.618     7.959
  36   8 O      0.856    -0.365    20.986     6.142
  37   6 C      3.807    -0.066    21.768     6.642
  38   6 C      3.849    -0.010    20.720     6.475
  39   6 C      3.756    -0.114    22.742     6.800
  40   6 C      3.756    -0.108    22.622     6.782
  41   1 H      0.860     0.168     1.284     1.775
  42   1 H      0.924     0.057     2.231     2.336
  43   1 H      0.924     0.048     2.346     2.395
  44   1 H      0.924     0.041     2.436     2.441
  45   1 H      0.924     0.023     2.692     2.566
  46   1 H      0.925     0.038     2.474     2.460
  47   1 H      0.925     0.040     2.445     2.445
  48   1 H      0.925     0.047     2.359     2.402
  49   1 H      0.925     0.037     2.495     2.470
  50   1 H      0.925     0.033     2.545     2.495
  51   1 H      0.925     0.039     2.467     2.456
  52   7 N      2.634    -0.392    30.153     8.155
  53   6 C      3.785     0.020    20.253     6.410
  54   6 C      2.756     0.263    22.571     7.780
  55   8 O      0.859    -0.503    23.848     6.547
  56   6 C      3.805    -0.060    21.644     6.623
  57   6 C      3.803    -0.076    21.945     6.669
  58   6 C      3.737    -0.019    20.994     6.538
  59   7 N      2.701    -0.145    24.133     7.296
  60   6 C      2.736     0.234    23.093     7.868
  61   7 N      2.654    -0.257    26.670     7.670
  62   7 N      2.650    -0.243    26.343     7.623
  63   1 H      0.860     0.155     1.367     1.831
  64   1 H      0.923     0.077     2.014     2.220
  65   1 H      0.924     0.026     2.643     2.542
  66   1 H      0.924     0.021     2.721     2.579
  67   1 H      0.924     0.044     2.400     2.423
  68   1 H      0.925     0.085     1.930     2.172
  69   1 H      0.924     0.098     1.805     2.101
  70   1 H      0.924     0.057     2.236     2.339
  71   1 H      0.860     0.232     0.956     1.532
  72   1 H      0.860     0.254     0.866     1.458
  73   1 H      0.860     0.259     0.850     1.444
  74   1 H      0.860     0.239     0.926     1.507
  75   1 H      0.860     0.256     0.859     1.452
  76   7 N      2.690    -0.167    24.614     7.368
  77   6 C      3.797     0.026    20.135     6.389
  78   6 C      2.764     0.202    23.694     7.972
  79   8 O      0.856    -0.347    20.646     6.092
  80   6 C      3.854    -0.020    20.888     6.500
  81   6 C      3.758    -0.122    22.894     6.822
  82   6 C      3.757    -0.114    22.735     6.798
  83   1 H      0.860     0.215     1.035     1.593
  84   1 H      0.924     0.066     2.131     2.283
  85   1 H      0.924     0.064     2.157     2.297
  86   1 H      0.925     0.063     2.168     2.303
  87   1 H      0.925     0.048     2.339     2.391
  88   1 H      0.925     0.058     2.228     2.334
  89   1 H      0.925     0.065     2.136     2.286
  90   1 H      0.925     0.036     2.508     2.477
  91   1 H      0.925     0.028     2.618     2.530
  92   7 N      2.636    -0.390    30.108     8.149
  93   6 C      3.790     0.025    20.172     6.396
  94   6 C      2.754     0.275    22.354     7.742
  95   8 O      0.858    -0.488    23.510     6.501
  96   6 C      3.727     0.113    18.827     6.195
  97   8 O      1.656    -0.491    22.698     6.431
  98   6 C      3.753    -0.137    23.195     6.868
  99   1 H      0.860     0.156     1.363     1.829
 100   1 H      0.924     0.048     2.341     2.393
 101   1 H      0.923     0.016     2.788     2.611
 102   1 H      0.805     0.352     0.583     1.200
 103   1 H      0.925     0.075     2.036     2.232
 104   1 H      0.925     0.038     2.470     2.458
 105   1 H      0.925     0.054     2.275     2.359
 106   7 N      2.689    -0.172    24.722     7.385
 107   6 C      3.744    -0.020    21.005     6.538
 108   6 C      2.753     0.282    22.217     7.718
 109   8 O      0.859    -0.458    22.880     6.413
 110   1 H      0.860     0.224     0.992     1.560
 111   1 H      0.925     0.053     2.282     2.363
 112   1 H      0.924     0.086     1.919     2.166
 113   7 N      2.692    -0.165    24.577     7.363
 114   6 C      3.795     0.007    20.472     6.443
 115   6 C      2.755     0.267    22.499     7.767
 116   8 O      0.858    -0.491    23.576     6.510
 117   6 C      3.802    -0.084    22.103     6.693
 118   6 C      3.804    -0.071    21.848     6.654
 119   6 C      3.802    -0.094    22.292     6.722
 120   6 C      3.731    -0.049    21.544     6.625
 121   7 N      3.482    -0.149    24.215     7.309
 122   1 H      0.860     0.176     1.240     1.744
 123   1 H      0.923     0.106     1.729     2.056
 124   1 H      0.924     0.050     2.323     2.384
 125   1 H      0.924     0.066     2.130     2.283
 126   1 H      0.924     0.062     2.172     2.305
 127   1 H      0.924     0.050     2.323     2.383
 128   1 H      0.924     0.070     2.081     2.256
 129   1 H      0.924     0.085     1.930     2.172
 130   1 H      0.924     0.122     1.600     1.978
 131   1 H      0.924     0.114     1.665     2.018
 132   1 H      0.859     0.314     0.674     1.286
 133   1 H      0.859     0.298     0.721     1.330
 134   1 H      0.859     0.303     0.705     1.316
 135   7 N      2.684    -0.180    24.909     7.412
 136   6 C      3.797     0.011    20.402     6.432
 137   6 C      2.750     0.268    22.481     7.764
 138   8 O      0.858    -0.520    24.221     6.598
 139   6 C      3.850    -0.014    20.796     6.486
 140   6 C      3.755    -0.122    22.902     6.824
 141   6 C      3.755    -0.126    22.975     6.835
 142   1 H      0.860     0.209     1.061     1.614
 143   1 H      0.924     0.093     1.848     2.126
 144   1 H      0.924     0.031     2.569     2.507
 145   1 H      0.925     0.067     2.124     2.279
 146   1 H      0.925     0.045     2.379     2.412
 147   1 H      0.925     0.057     2.229     2.335
 148   1 H      0.925     0.065     2.137     2.286
 149   1 H      0.925     0.067     2.115     2.274
 150   1 H      0.925     0.033     2.545     2.495
 151   7 N      2.693    -0.231    26.064     7.582
 152   6 C      3.792     0.050    19.737     6.327
 153   6 C      2.758     0.282    22.226     7.720
 154   8 O      0.858    -0.496    23.686     6.525
 155   6 C      3.805    -0.084    22.096     6.692
 156   6 C      2.684     0.375    20.642     7.435
 157   8 O      0.860    -0.590    25.862     6.818
 158   8 O      0.856    -0.588    25.817     6.812
 159   1 H      0.861     0.257     0.856     1.450
 160   1 H      0.923     0.027     2.624     2.533
 161   1 H      0.924     0.005     2.969     2.695
 162   1 H      0.924     0.034     2.529     2.487
 163   7 N      2.693    -0.235    26.142     7.594
 164   6 C      3.796     0.036    19.982     6.365
 165   6 C      2.761     0.277    22.315     7.736
 166   8 O      0.859    -0.501    23.800     6.541
 167   6 C      3.827    -0.062    21.661     6.622
 168   6 C      3.796    -0.010    20.765     6.489
 169  16 S      1.965    -0.215   150.224    20.629
 170   6 C      3.744    -0.065    21.826     6.665
 171   1 H      0.859     0.223     0.996     1.564
 172   1 H      0.923     0.063     2.159     2.298
 173   1 H      0.924     0.040     2.449     2.447
 174   1 H      0.925     0.059     2.209     2.325
 175   1 H      0.925     0.039     2.462     2.454
 176   1 H      0.925     0.071     2.077     2.254
 177   1 H      0.926     0.084     1.936     2.176
 178   1 H      0.925     0.075     2.029     2.228
 179   1 H      0.925     0.056     2.242     2.342
 180   7 N      2.688    -0.171    24.703     7.382
 181   6 C      3.802     0.017    20.295     6.414
 182   6 C      2.757     0.279    22.272     7.728
 183   8 O      0.859    -0.471    23.154     6.451
 184   6 C      3.850    -0.023    20.944     6.509
 185   6 C      3.756    -0.125    22.960     6.832
 186   6 C      3.754    -0.130    23.055     6.847
 187   1 H      0.860     0.211     1.049     1.605
 188   1 H      0.924     0.090     1.878     2.143
 189   1 H      0.924     0.061     2.184     2.311
 190   1 H      0.925     0.076     2.023     2.224
 191   1 H      0.925     0.055     2.260     2.351
 192   1 H      0.925     0.054     2.273     2.358
 193   1 H      0.925     0.081     1.968     2.194
 194   1 H      0.925     0.048     2.348     2.396
 195   1 H      0.925     0.040     2.453     2.449
 196   7 N      2.688    -0.193    25.180     7.453
 197   6 C      3.799     0.028    20.102     6.384
 198   6 C      2.760     0.302    21.866     7.658
 199   8 O      0.858    -0.488    23.514     6.501
 200   6 C      3.805    -0.064    21.727     6.636
 201   6 C      3.798    -0.096    22.331     6.729
 202   6 C      2.683     0.372    20.699     7.445
 203   8 O      0.856    -0.653    27.456     7.025
 204   8 O      0.856    -0.647    27.292     7.004
 205   1 H      0.860     0.199     1.114     1.653
 206   1 H      0.923     0.078     1.997     2.210
 207   1 H      0.924     0.075     2.031     2.229
 208   1 H      0.924     0.042     2.428     2.437
 209   1 H      0.924     0.019     2.747     2.592
 210   1 H      0.924     0.045     2.380     2.413
 211   7 N      2.690    -0.217    25.737     7.535
 212   6 C      3.806     0.081    19.234     6.243
 213   6 C      2.764     0.296    21.976     7.677
 214   8 O      0.859    -0.523    24.295     6.609
 215   6 C      3.806    -0.074    21.909     6.663
 216   6 C      2.687     0.374    20.668     7.440
 217   8 O      0.856    -0.636    27.018     6.969
 218   8 O      0.856    -0.619    26.579     6.912
 219   1 H      0.860     0.190     1.156     1.684
 220   1 H      0.923     0.011     2.872     2.650
 221   1 H      0.924    -0.002     3.098     2.753
 222   1 H      0.924     0.020     2.729     2.583
 223   7 N      2.691    -0.183    24.972     7.422
 224   6 C      3.796     0.038    19.941     6.359
 225   6 C      2.755     0.273    22.394     7.749
 226   8 O      0.859    -0.480    23.340     6.477
 227   6 C      3.806    -0.065    21.745     6.638
 228   6 C      3.848    -0.005    20.627     6.460
 229   6 C      3.759    -0.120    22.855     6.816
 230   6 C      3.757    -0.127    22.993     6.837
 231   1 H      0.860     0.202     1.095     1.640
 232   1 H      0.923     0.060     2.201     2.320
 233   1 H      0.924     0.049     2.338     2.391
 234   1 H      0.925     0.055     2.254     2.348
 235   1 H      0.924     0.019     2.755     2.595
 236   1 H      0.925     0.064     2.155     2.296
 237   1 H      0.925     0.037     2.487     2.466
 238   1 H      0.925     0.052     2.298     2.371
 239   1 H      0.925     0.055     2.258     2.350
 240   1 H      0.925     0.049     2.332     2.388
 241   1 H      0.925     0.052     2.296     2.369
 242   7 N      2.686    -0.175    24.785     7.394
 243   6 C      3.799     0.017    20.284     6.413
 244   6 C      2.753     0.279    22.284     7.730
 245   8 O      0.859    -0.454    22.795     6.401
 246   6 C      3.849    -0.015    20.815     6.489
 247   6 C      3.804    -0.072    21.865     6.657
 248   6 C      3.756    -0.118    22.808     6.809
 249   6 C      3.751    -0.115    22.762     6.804
 250   1 H      0.860     0.195     1.134     1.668
 251   1 H      0.923     0.100     1.782     2.088
 252   1 H      0.924     0.050     2.318     2.381
 253   1 H      0.924     0.057     2.237     2.339
 254   1 H      0.925     0.054     2.272     2.357
 255   1 H      0.925     0.056     2.245     2.343
 256   1 H      0.925     0.037     2.485     2.465
 257   1 H      0.925     0.038     2.474     2.460
 258   1 H      0.925     0.058     2.218     2.329
 259   1 H      0.925     0.027     2.635     2.539
 260   1 H      0.925     0.048     2.351     2.398
 261   7 N      2.695    -0.189    25.096     7.440
 262   6 C      3.793     0.026    20.143     6.391
 263   6 C      2.769     0.205    23.649     7.964
 264   8 O      0.856    -0.339    20.501     6.071
 265   6 C      3.800    -0.060    21.652     6.625
 266   6 C      3.803    -0.098    22.371     6.734
 267   6 C      2.741     0.290    22.078     7.693
 268   8 O      0.860    -0.500    23.776     6.537
 269   7 N      2.637    -0.277    27.170     7.742
 270   1 H      0.860     0.181     1.206     1.720
 271   1 H      0.924     0.101     1.779     2.086
 272   1 H      0.924     0.048     2.345     2.395
 273   1 H      0.924     0.039     2.458     2.452
 274   1 H      0.924     0.076     2.023     2.224
 275   1 H      0.924     0.074     2.041     2.234
 276   1 H      0.860     0.210     1.056     1.610
 277   1 H      0.860     0.243     0.911     1.495
 278   1 H      0.862     0.182     1.199     1.715
 279   1 H      0.930     0.062     2.173     2.305
 280   1 H      0.862     0.190     1.156     1.684
 281   1 H      0.930     0.068     2.112     2.272
 282   1 H      0.862     0.174     1.249     1.750
 283   1 H      0.930     0.068     2.107     2.270
 284   1 H      0.862     0.203     1.089     1.635
 285   1 H      0.930     0.086     1.914     2.163
 286   1 H      0.862     0.189     1.164     1.690
 287   1 H      0.930     0.069     2.098     2.265

 Mol. C6AA /au·bohr⁶  :     729277.842017
 Mol. C8AA /au·bohr⁸  :   16123009.909170
 Mol. α(0) /au        :       1271.971821


Wiberg/Mayer (AO) data.
largest (>0.10) Wiberg bond orders for each atom
          total WBO             WBO to atom ...
     1  N   2.992        C    2 1.019    H  278 0.943    H    8 0.929
     2  C   3.986        N    1 1.019    C    3 0.983    H    9 0.958    C    5 0.935
     3  C   3.896        O    4 1.892    C    2 0.983    H  279 0.956
     4  O   2.049        C    3 1.892
     5  C   3.994        C    6 1.008    C    7 1.008    H   10 0.967    C    2 0.935
     6  C   3.994        C    5 1.008    H   12 0.986    H   13 0.984    H   11 0.981
     7  C   3.996        C    5 1.008    H   15 0.985    H   14 0.982    H   16 0.978
     8  H   0.969        N    1 0.929
     9  H   0.997        C    2 0.958
    10  H   0.999        C    5 0.967
    11  H   0.997        C    6 0.981
    12  H   0.999        C    6 0.986
    13  H   0.997        C    6 0.984
    14  H   0.998        C    7 0.982
    15  H   0.998        C    7 0.985
    16  H   0.998        C    7 0.978
    17  N   2.996        C   18 1.007    H   24 0.958    H  280 0.942
    18  C   3.983        N   17 1.007    C   19 0.976    H   25 0.964    C   21 0.949
    19  C   3.892        O   20 1.902    C   18 0.976    H  281 0.955
    20  O   2.039        C   19 1.902
    21  C   3.994        C   23 1.010    C   22 1.008    H   26 0.966    C   18 0.949
    22  C   3.995        C   21 1.008    H   27 0.984    H   28 0.984    H   29 0.981
    23  C   3.995        C   21 1.010    H   31 0.986    H   30 0.983    H   32 0.978
    24  H   0.975        N   17 0.958
    25  H   0.997        C   18 0.964
    26  H   0.999        C   21 0.966
    27  H   0.998        C   22 0.984
    28  H   0.999        C   22 0.984
    29  H   0.997        C   22 0.981
    30  H   0.998        C   23 0.983
    31  H   0.998        C   23 0.986
    32  H   0.998        C   23 0.978
    33  N   2.992        C   34 1.010    H  282 0.953    H   41 0.943
    34  C   3.984        N   33 1.010    C   35 0.982    H   42 0.959    C   37 0.955
    35  C   3.892        O   36 1.887    C   34 0.982    H  283 0.955
    36  O   2.059        C   35 1.887
    37  C   3.994        C   38 0.994    H   44 0.972    H   43 0.971    C   34 0.955
    38  C   3.996        C   39 1.010    C   40 1.008    C   37 0.994    H   45 0.966
    39  C   3.994        C   38 1.010    H   46 0.985    H   48 0.985    H   47 0.983
    40  C   3.996        C   38 1.008    H   49 0.986    H   51 0.985    H   50 0.983
    41  H   0.972        N   33 0.943
    42  H   0.997        C   34 0.959
    43  H   0.998        C   37 0.971
    44  H   0.998        C   37 0.972
    45  H   0.999        C   38 0.966
    46  H   0.998        C   39 0.985
    47  H   0.998        C   39 0.983
    48  H   0.998        C   39 0.985
    49  H   0.998        C   40 0.986
    50  H   0.999        C   40 0.983
    51  H   0.998        C   40 0.985
    52  N   2.999        C   53 1.023    H   63 0.956    H  284 0.942
    53  C   3.985        N   52 1.023    C   56 0.972    H   64 0.956    C   54 0.939
    54  C   3.940        O   55 1.604    N   76 1.313    C   53 0.939
    55  O   1.946        C   54 1.604    N   76 0.191
    56  C   3.990        C   57 1.001    H   66 0.974    H   65 0.972    C   53 0.972
    57  C   3.989        C   58 1.009    C   56 1.001    H   67 0.974    H   68 0.969
    58  C   3.961        C   57 1.009    N   59 0.985    H   70 0.963    H   69 0.954
    59  N   3.455        C   60 1.306    C   58 0.985    H   71 0.912
    60  C   3.977        N   62 1.325    N   61 1.317    N   59 1.306
    61  N   3.388        C   60 1.317    H   72 0.916    H   73 0.914    N   62 0.102
    62  N   3.399        C   60 1.325    H   74 0.918    H   75 0.914    N   61 0.102
    63  H   0.976        N   52 0.956
    64  H   0.994        C   53 0.956
    65  H   0.999        C   56 0.972
    66  H   0.999        C   56 0.974
    67  H   0.998        C   57 0.974
    68  H   0.993        C   57 0.969
    69  H   0.990        C   58 0.954
    70  H   0.997        C   58 0.963
    71  H   0.946        N   59 0.912
    72  H   0.935        N   61 0.916
    73  H   0.932        N   61 0.914
    74  H   0.943        N   62 0.918
    75  H   0.934        N   62 0.914
    76  N   3.483        C   54 1.313    C   77 0.978    H   83 0.917    O   55 0.191
    77  C   3.964        N   76 0.978    C   78 0.964    C   80 0.957    H   84 0.947
    78  C   3.902        O   79 1.914    C   77 0.964    H  285 0.950
    79  O   2.055        C   78 1.914
    80  C   3.987        C   82 1.007    C   81 1.007    H   85 0.962    C   77 0.957
    81  C   3.991        C   80 1.007    H   88 0.982    H   87 0.981    H   86 0.981
    82  C   3.992        C   80 1.007    H   90 0.984    H   91 0.983    H   89 0.975
    83  H   0.954        N   76 0.917
    84  H   0.996        C   77 0.947
    85  H   0.996        C   80 0.962
    86  H   0.996        C   81 0.981
    87  H   0.998        C   81 0.981
    88  H   0.997        C   81 0.982
    89  H   0.994        C   82 0.975
    90  H   0.999        C   82 0.984
    91  H   0.999        C   82 0.983
    92  N   2.998        C   93 1.015    H   99 0.956    H  286 0.954
    93  C   3.984        N   92 1.015    H  100 0.964    C   96 0.964    C   94 0.928
    94  C   3.941        O   95 1.652    N  106 1.287    C   93 0.928
    95  O   1.964        C   94 1.652    N  106 0.197
    96  C   3.961        C   98 1.000    O   97 0.992    C   93 0.964    H  101 0.957
    97  O   1.924        C   96 0.992    H  102 0.859
    98  C   3.991        C   96 1.000    H  105 0.985    H  104 0.983    H  103 0.980
    99  H   0.976        N   92 0.956
   100  H   0.997        C   93 0.964
   101  H   1.000        C   96 0.957
   102  H   0.876        O   97 0.859
   103  H   0.994        C   98 0.980
   104  H   0.999        C   98 0.983
   105  H   0.997        C   98 0.985
   106  N   3.462        C   94 1.287    C  107 0.995    H  110 0.895    O   95 0.197
   107  C   3.973        N  106 0.995    H  111 0.971    H  112 0.957    C  108 0.941
   108  C   3.948        O  109 1.672    N  113 1.269    C  107 0.941
   109  O   1.990        C  108 1.672    N  113 0.197
   110  H   0.950        N  106 0.895
   111  H   0.997        C  107 0.971
   112  H   0.992        C  107 0.957
   113  N   3.457        C  108 1.269    C  114 0.971    H  122 0.939    O  109 0.197
   114  C   3.952        C  117 0.988    N  113 0.971    C  115 0.933    H  123 0.933
   115  C   3.942        O  116 1.643    N  135 1.284    C  114 0.933
   116  O   1.960        C  115 1.643    N  135 0.194
   117  C   3.986        C  118 1.001    C  114 0.988    H  125 0.970    H  124 0.970
   118  C   3.990        C  119 1.003    C  117 1.001    H  127 0.975    H  126 0.975
   119  C   3.986        C  120 1.011    C  118 1.003    H  128 0.972    H  129 0.970
   120  C   3.920        C  119 1.011    H  131 0.965    H  130 0.963    N  121 0.962
   121  N   3.662        C  120 0.962    H  133 0.896    H  134 0.894    H  132 0.889
   122  H   0.969        N  113 0.939
   123  H   0.988        C  114 0.933
   124  H   0.998        C  117 0.970
   125  H   0.995        C  117 0.970
   126  H   0.996        C  118 0.975
   127  H   0.998        C  118 0.975
   128  H   0.995        C  119 0.972
   129  H   0.993        C  119 0.970
   130  H   0.985        C  120 0.963
   131  H   0.987        C  120 0.965
   132  H   0.901        N  121 0.889
   133  H   0.911        N  121 0.896
   134  H   0.908        N  121 0.894
   135  N   3.462        C  115 1.284    C  136 0.987    H  142 0.909    O  116 0.194
   136  C   3.959        N  135 0.987    H  143 0.950    C  139 0.946    C  137 0.939
   137  C   3.940        O  138 1.561    N  151 1.343    C  136 0.939
   138  O   1.939        C  137 1.561    N  151 0.187
   139  C   3.985        C  141 1.009    C  140 1.007    H  144 0.967    C  136 0.946
   140  C   3.991        C  139 1.007    H  146 0.986    H  147 0.985    H  145 0.982
   141  C   3.992        C  139 1.009    H  149 0.983    H  150 0.982    H  148 0.982
   142  H   0.956        N  135 0.909
   143  H   0.991        C  136 0.950
   144  H   0.999        C  139 0.967
   145  H   0.995        C  140 0.982
   146  H   0.998        C  140 0.986
   147  H   0.997        C  140 0.985
   148  H   0.996        C  141 0.982
   149  H   0.995        C  141 0.983
   150  H   0.999        C  141 0.982
   151  N   3.445        C  137 1.343    C  152 0.979    H  159 0.779    O  138 0.187
   152  C   3.979        C  155 0.994    N  151 0.979    H  160 0.952    C  153 0.927
   153  C   3.940        O  154 1.653    N  163 1.278    C  152 0.927
   154  O   1.971        C  153 1.653    N  163 0.192
   155  C   3.979        C  152 0.994    H  161 0.977    H  162 0.964    C  156 0.919
   156  C   3.939        O  158 1.571    O  157 1.420    C  155 0.919
   157  O   1.881        C  156 1.420    O  158 0.207    H  159 0.118
   158  O   1.858        C  156 1.571    O  157 0.207
   159  H   0.934        N  151 0.779    O  157 0.118
   160  H   0.999        C  152 0.952
   161  H   0.999        C  155 0.977
   162  H   0.998        C  155 0.964
   163  N   3.420        C  153 1.278    C  164 0.962    H  171 0.871    O  154 0.192
   164  C   3.953        C  167 0.984    N  163 0.962    H  172 0.954    C  165 0.931
   165  C   3.946        O  166 1.636    N  180 1.295    C  164 0.931
   166  O   1.961        C  165 1.636    N  180 0.197
   167  C   3.991        C  168 1.012    C  164 0.984    H  173 0.967    H  174 0.966
   168  C   3.983        C  167 1.012    S  169 0.992    H  175 0.970    H  176 0.968
   169  S   2.093        C  170 1.009    C  168 0.992
   170  C   3.967        S  169 1.009    H  179 0.981    H  178 0.976    H  177 0.975
   171  H   0.950        N  163 0.871
   172  H   0.996        C  164 0.954
   173  H   0.998        C  167 0.967
   174  H   0.996        C  167 0.966
   175  H   0.998        C  168 0.970
   176  H   0.994        C  168 0.968
   177  H   0.993        C  170 0.975
   178  H   0.994        C  170 0.976
   179  H   0.997        C  170 0.981
   180  N   3.466        C  165 1.295    C  181 0.976    H  187 0.910    O  166 0.197
   181  C   3.951        N  180 0.976    C  184 0.956    H  188 0.947    C  182 0.937
   182  C   3.934        O  183 1.652    N  196 1.255    C  181 0.937
   183  O   1.993        C  182 1.652    N  196 0.183
   184  C   3.979        C  186 1.010    C  185 1.004    H  189 0.963    C  181 0.956
   185  C   3.988        C  184 1.004    H  191 0.985    H  192 0.981    H  190 0.980
   186  C   3.991        C  184 1.010    H  195 0.983    H  193 0.979    H  194 0.979
   187  H   0.955        N  180 0.910
   188  H   0.991        C  181 0.947
   189  H   0.996        C  184 0.963
   190  H   0.993        C  185 0.980
   191  H   0.997        C  185 0.985
   192  H   0.997        C  185 0.981
   193  H   0.993        C  186 0.979
   194  H   0.998        C  186 0.979
   195  H   0.998        C  186 0.983
   196  N   3.426        C  182 1.255    C  197 0.980    H  205 0.922    O  183 0.183
   197  C   3.969        C  200 0.985    N  196 0.980    H  206 0.954    C  198 0.931
   198  C   3.929        O  199 1.654    N  211 1.256    C  197 0.931
   199  O   1.964        C  198 1.654    N  211 0.174
   200  C   3.990        C  201 1.009    C  197 0.985    H  207 0.972    H  208 0.964
   201  C   3.991        C  200 1.009    H  209 0.978    H  210 0.965    C  202 0.913
   202  C   3.927        O  204 1.515    O  203 1.470    C  201 0.913
   203  O   1.787        C  202 1.470    O  204 0.208
   204  O   1.808        C  202 1.515    O  203 0.208
   205  H   0.960        N  196 0.922
   206  H   0.993        C  197 0.954
   207  H   0.994        C  200 0.972
   208  H   0.998        C  200 0.964
   209  H   1.000        C  201 0.978
   210  H   0.998        C  201 0.965
   211  N   3.400        C  198 1.256    C  212 0.968    H  219 0.911    O  199 0.174
   212  C   3.969        C  215 0.975    N  211 0.968    H  220 0.954    C  213 0.949
   213  C   3.947        O  214 1.597    N  223 1.316    C  212 0.949
   214  O   1.913        C  213 1.597    N  223 0.184
   215  C   3.977        H  222 0.976    C  212 0.975    H  221 0.974    C  216 0.900
   216  C   3.940        O  217 1.512    O  218 1.506    C  215 0.900
   217  O   1.804        C  216 1.512    O  218 0.222
   218  O   1.801        C  216 1.506    O  217 0.222
   219  H   0.964        N  211 0.911
   220  H   1.000        C  212 0.954
   221  H   1.000        C  215 0.974
   222  H   1.000        C  215 0.976
   223  N   3.463        C  213 1.316    C  224 0.961    H  231 0.918    O  214 0.184
   224  C   3.942        C  227 0.974    N  223 0.961    C  225 0.941    H  232 0.941
   225  C   3.952        O  226 1.619    N  242 1.308    C  224 0.941
   226  O   1.952        C  225 1.619    N  242 0.195
   227  C   3.979        C  228 0.989    H  234 0.975    C  224 0.974    H  233 0.968
   228  C   3.989        C  230 1.010    C  229 1.006    C  227 0.989    H  235 0.968
   229  C   3.993        C  228 1.006    H  237 0.985    H  236 0.983    H  238 0.983
   230  C   3.992        C  228 1.010    H  240 0.986    H  239 0.984    H  241 0.977
   231  H   0.959        N  223 0.918
   232  H   0.996        C  224 0.941
   233  H   0.997        C  227 0.968
   234  H   0.997        C  227 0.975
   235  H   1.000        C  228 0.968
   236  H   0.995        C  229 0.983
   237  H   0.999        C  229 0.985
   238  H   0.997        C  229 0.983
   239  H   0.997        C  230 0.984
   240  H   0.998        C  230 0.986
   241  H   0.997        C  230 0.977
   242  N   3.479        C  225 1.308    C  243 0.973    H  250 0.912    O  226 0.195
   243  C   3.948        N  242 0.973    C  246 0.967    C  244 0.943    H  251 0.914
   244  C   3.941        O  245 1.655    N  261 1.256    C  243 0.943
   245  O   1.981        C  244 1.655    N  261 0.182
   246  C   3.983        C  248 1.009    C  247 0.992    C  243 0.967    H  252 0.965
   247  C   3.991        C  249 1.020    C  246 0.992    H  253 0.974    H  254 0.974
   248  C   3.994        C  246 1.009    H  257 0.985    H  255 0.984    H  256 0.973
   249  C   3.996        C  247 1.020    H  260 0.987    H  258 0.984    H  259 0.982
   250  H   0.962        N  242 0.912
   251  H   0.990        C  243 0.914
   252  H   0.997        C  246 0.965
   253  H   0.996        C  247 0.974
   254  H   0.997        C  247 0.974
   255  H   0.997        C  248 0.984
   256  H   0.998        C  248 0.973
   257  H   0.999        C  248 0.985
   258  H   0.996        C  249 0.984
   259  H   0.999        C  249 0.982
   260  H   0.998        C  249 0.987
   261  N   3.443        C  244 1.256    C  262 0.973    H  270 0.915    O  245 0.182
   262  C   3.961        C  265 0.975    N  261 0.973    C  263 0.965    H  271 0.948
   263  C   3.903        O  264 1.917    C  262 0.965    H  287 0.954
   264  O   2.052        C  263 1.917
   265  C   3.992        C  266 1.008    C  262 0.975    H  273 0.973    H  272 0.965
   266  C   3.991        C  265 1.008    C  267 0.970    H  275 0.961    H  274 0.951
   267  C   3.950        O  268 1.634    N  269 1.317    C  266 0.970
   268  O   1.934        C  267 1.634    N  269 0.199
   269  N   3.406        C  267 1.317    H  276 0.928    H  277 0.919    O  268 0.199
   270  H   0.967        N  261 0.915
   271  H   0.990        C  262 0.948
   272  H   0.998        C  265 0.965
   273  H   0.998        C  265 0.973
   274  H   0.994        C  266 0.951
   275  H   0.994        C  266 0.961
   276  H   0.956        N  269 0.928
   277  H   0.941        N  269 0.919
   278  H   0.967        N    1 0.943
   279  H   0.996        C    3 0.956
   280  H   0.964        N   17 0.942
   281  H   0.995        C   19 0.955
   282  H   0.970        N   33 0.953
   283  H   0.995        C   35 0.955
   284  H   0.959        N   52 0.942
   285  H   0.992        C   78 0.950
   286  H   0.964        N   92 0.954
   287  H   0.995        C  263 0.954
 
molecular dipole:
                 x           y           z       tot (Debye)
 q only:      -30.892      -4.508     -81.013
   full:      -33.948      -5.341     -80.121     221.596
molecular quadrupole (traceless):
                xx          xy          yy          xz          yz          zz
 q only:     1960.022   -1301.290    4837.811   -4044.090    -325.276   -6797.833
  q+dip:     1776.356   -1510.148    4760.575   -4425.032    -433.835   -6536.931
   full:     1781.975   -1508.287    4756.098   -4428.919    -434.627   -6538.074


           -------------------------------------------------
          | TOTAL ENERGY             -428.697497535644 Eh   |
          | GRADIENT NORM               0.498010393979 Eh/α |
          | HOMO-LUMO GAP               1.479711838725 eV   |
           -------------------------------------------------

------------------------------------------------------------------------
 * finished run on 2019/05/31 at 06:33:50.751     
------------------------------------------------------------------------
 total:
 * wall-time:     0 d,  0 h,  0 min,  6.988 sec
 *  cpu-time:     0 d,  0 h,  0 min, 13.640 sec
 * ratio c/w:     1.952 speedup
 SCF:
 * wall-time:     0 d,  0 h,  0 min,  6.386 sec
 *  cpu-time:     0 d,  0 h,  0 min, 12.585 sec
 * ratio c/w:     1.971 speedup

