      -----------------------------------------------------------      
     |                   =====================                   |     
     |                           x T B                           |     
     |                   =====================                   |     
     |                         S. Grimme                         |     
     |          Mulliken Center for Theoretical Chemistry        |     
     |                    University of Bonn                     |     
     |                 Version 6.0.1 (SAW181210)                 |     
      -----------------------------------------------------------      

   This program is distributed in the hope that it will be useful,
   but WITHOUT ANY WARRANTY; without even the implied warranty of
   MERCHANTABILITY or FITNESS FOR A PARTICULAR PURPOSE.
   
   FOR NON-COMMERCIAL, ACADEMIA USE ONLY.
   
   Cite this work as:
   S. Grimme, C. Bannwarth, P. Shushkov, J. Comput. Theory Chem., 2017,
   13, 1989-2009.
   C. Bannwarth, S. Ehlert and S. Grimme., ChemRxiv, 2018, preprint.
   http://doi.org/10.26434/chemrxiv.7246238.v1
   
   for sTDA-xTB:
   S. Grimme and C. Bannwarth, J. Chem. Phys., 2016, 145, 054103.
   
   in the mass-spec context:
   V. Asgeirsson, C. Bauer and S. Grimme, Chem. Sci., 2017, 8, 4879.
   
   if GBSA is used:
   P. Shushkov, F. März and S. Grimme, unpublished.
   
   for ANC optimizer:
   S. Grimme, unpublished.
   Rational Function algorithm used in ANCopt:
   F. Eckert, P. Pulay, H.-J. Werner, J. Comput. Chem., 1997, 18, 1473.
   
   with help from (in alphabetical order)
   C. Bannwarth, F. Bohle, G. Brandenburg, E. Caldeweyher, M. Checinski,
   S. Dohm, S. Ehlert, S. Ehrlich, F. März, H. Neugebauer, J. Pisarek,
   P. Pracht, P. Shushkov, and S. Spicher.
   
 * started run on 2019/03/14 at 15:08:21.459     
========================================================================
 # omp threads = 1
========================================================================
number of atoms            : 644
number of electrons        : 1756
charge                     : -1
spin                       : .0
first test random number   : .0856
           ------------------------------------------------- 
          |                 G F N 2 - x T B                 |
          | Geometry, Frequencies, Noncovalent interactions |
          |            JCTC 2018 parametrisation            |
           ------------------------------------------------- 
 
      method parameters     
 k(s)        :  1.8500
 k(p)        :  2.2300
 k(d)        :  2.2300
 k(f)        :  2.0000
 kEN (H0ij)  : -2.0000
 D4 a1       :  0.5200
 D4 a2       :  5.0000
 D4 s6       :  1.0000
 D4 s8       :  2.7000
 D4 s9       :  5.0000
 alphaj      :  2.0000

 Solvent             : h2o
 Using internal parameter file: .param_gbsa2_h2o
 Gsolv ref. state (COSMO-RS): gsolv [1 M gas/solution]
 temperature (mdtemp)       :    298.150000000000     
 dielectric constant        :    80.2000000000000     
 rho                        :    1.00000000000000     
 mass                       :    18.0000000000000     
 surface tension            :    15.5689454083859     
 probe radius               :   0.975313790000000     
 vdW radii scaling          :    1.00000000000000     
 Gshift (Eh)                :   1.857443126794793E-003
 c1                         :    1.55243817000000     
 soset                      :   0.130326360000000     
 HB correction              :  T

            Z     q(EN)     CN     RAES       Cart. coordinates
     1  N   5.0   -0.22    3.19    1.95   114.18660   102.16091    43.38813
     2  C   4.0    0.03    4.24    4.07   113.67355   100.45402    41.32033
     3  C   4.0    0.07    3.21    3.04   111.04081   101.02011    40.26559
     4  O   6.0   -0.34    1.35    1.80   110.71937   100.81251    37.97053
     5  C   4.0   -0.05    4.28    4.16   114.03701    97.63948    41.86581
     6  C   4.0   -0.03    4.15    3.90   116.78127    96.67118    42.22321
     7  C   4.0   -0.08    4.12    3.83   117.27431    94.34833    40.58241
     8  C   4.0   -0.08    4.13    3.85   118.87877    98.57463    41.70823
     9  H   1.0    0.08    1.02    1.43   114.49856   101.36122    45.10899
    10  H   1.0    0.04    1.07    1.44   114.96386   100.90867    39.75475
    11  H   1.0    0.04    1.03    1.43   112.96139    97.15212    43.54456
    12  H   1.0    0.04    1.04    1.43   113.21621    96.67379    40.23593
    13  H   1.0    0.03    1.06    1.44   116.97206    96.10990    44.20077
    14  H   1.0    0.04    1.00    1.43   119.26992    93.87315    40.67494
    15  H   1.0    0.04    1.01    1.43   116.20564    92.73746    41.24525
    16  H   1.0    0.04    1.00    1.43   116.76868    94.71048    38.62006
    17  H   1.0    0.04    1.00    1.43   120.67814    97.70558    42.19362
    18  H   1.0    0.04    1.00    1.43   118.94220    99.11062    39.72594
    19  H   1.0    0.03    1.01    1.43   118.65137   100.25127    42.85041
    20  N   5.0   -0.21    3.27    1.97   112.93622   105.73680    35.94833
    21  C   4.0    0.03    4.33    4.25   115.02293   104.84778    34.40631
    22  C   4.0    0.15    3.36    3.07   114.18250   102.60265    32.73910
    23  O   6.0   -0.30    1.23    1.80   115.35456   102.01219    30.82663
    24  C   4.0   -0.04    4.30    4.20   117.31823   104.27366    36.08470
    25  C   4.0   -0.01    3.53    3.13   119.80340   103.80039    34.78321
    26  C   4.0   -0.05    3.47    3.10   121.78766   102.72539    36.13940
    27  C   4.0   -0.02    3.50    3.11   120.24474   104.54736    32.31600
    28  C   4.0   -0.04    3.43    3.09   124.12373   102.35968    35.03719
    29  C   4.0   -0.03    3.44    3.09   122.57392   104.21850    31.19205
    30  C   4.0    0.07    3.46    3.10   124.51826   103.09668    32.54391
    31  O   6.0   -0.24    2.11    1.84   126.85087   102.73906    31.51471
    32  H   1.0    0.09    1.03    1.43   112.90615   105.02504    37.73871
    33  H   1.0    0.04    1.06    1.44   115.53803   106.34263    33.07672
    34  H   1.0    0.04    1.03    1.43   117.54293   105.91516    37.32718
    35  H   1.0    0.04    1.03    1.43   116.87454   102.64646    37.26960
    36  H   1.0    0.04    1.03    1.43   121.52420   102.22382    38.10251
    37  H   1.0    0.06    1.04    1.43   118.75919   105.43212    31.24967
    38  H   1.0    0.05    1.03    1.43   125.67994   101.54850    36.07727
    39  H   1.0    0.06    1.03    1.43   122.87673   104.83995    29.26410
    40  H   1.0    0.12    1.04    1.43   126.87233   103.41919    29.82175
    41  N   5.0   -0.14    3.53    2.10   111.98024   101.59187    33.43699
    42  C   4.0    0.04    4.27    4.15   110.55397    99.62826    32.16159
    43  C   4.0    0.08    3.19    3.03   109.14174   100.71215    29.88721
    44  O   6.0   -0.30    1.18    1.80   108.91141    99.41717    27.97206
    45  C   4.0   -0.04    4.40    4.37   108.84629    98.25477    34.08123
    46  C   4.0   -0.02    4.17    3.94   107.70246    95.70048    33.33505
    47  C   4.0   -0.08    4.15    3.90   109.82779    93.84289    32.81498
    48  C   4.0   -0.08    4.12    3.85   106.15310    94.75627    35.58059
    49  H   1.0    0.12    1.21    1.47   111.44593   101.94219    35.25588
    50  H   1.0    0.05    1.06    1.44   111.86867    98.24109    31.35944
    51  H   1.0    0.06    1.07    1.44   110.06727    97.86108    35.68903
    52  H   1.0    0.05    1.03    1.43   107.38677    99.54216    34.75343
    53  H   1.0    0.05    1.05    1.44   106.54622    95.83558    31.64527
    54  H   1.0    0.04    1.00    1.43   109.14325    91.91980    32.59160
    55  H   1.0    0.04    1.00    1.43   110.83737    94.38054    31.11402
    56  H   1.0    0.03    1.01    1.43   111.13878    93.88450    34.38872
    57  H   1.0    0.04    1.00    1.43   105.14488    93.02973    35.12778
    58  H   1.0    0.04    1.01    1.43   107.46623    94.38359    37.11228
    59  H   1.0    0.04    1.00    1.43   104.78644    96.15256    36.20575
    60  N   5.0   -0.20    3.25    1.97   114.13409   101.95443    24.64405
    61  C   4.0    0.04    4.32    4.23   115.27276    99.56202    23.98599
    62  C   4.0    0.15    3.37    3.07   113.37592    97.69505    22.83968
    63  O   6.0   -0.29    1.22    1.80   114.09451    96.00262    21.43158
    64  C   4.0   -0.02    4.28    4.16   116.65707    98.53457    26.28811
    65  C   4.0    0.25    3.14    3.03   119.53248    99.26691    26.25107
    66  O   6.0   -0.29    1.18    1.80   120.53346    99.68922    28.32654
    67  O   6.0   -0.30    1.18    1.80   120.62305    99.34230    24.15560
    68  H   1.0    0.10    1.04    1.43   114.12834   102.34799    26.51253
    69  H   1.0    0.07    1.06    1.44   116.69457    99.86897    22.48867
    70  H   1.0    0.07    1.05    1.44   115.89744    99.28899    28.04278
    71  H   1.0    0.05    1.06    1.44   116.50222    96.48925    26.35224
    72  N   5.0   -0.14    3.46    2.05   110.92962    98.07354    23.40207
    73  C   4.0    0.04    4.23    4.07   108.95200    96.32453    22.62153
    74  C   4.0    0.09    3.21    3.04   106.34354    97.57911    22.74672
    75  O   6.0   -0.28    1.15    1.80   104.75626    96.88911    24.27216
    76  C   4.0   -0.05    4.14    3.88   108.89077    93.98061    24.31147
    77  H   1.0    0.12    1.11    1.45   110.47210    99.23165    24.85697
    78  H   1.0    0.06    1.05    1.44   109.36970    95.77260    20.66703
    79  H   1.0    0.05    1.00    1.43   107.35226    92.75715    23.71935
    80  H   1.0    0.05    1.00    1.43   110.66487    92.96294    24.14533
    81  H   1.0    0.06    1.00    1.43   108.58880    94.56639    26.25746
    82  N   5.0   -0.22    3.22    1.96   113.92352    65.02715    49.12967
    83  C   4.0    0.03    4.24    4.08   115.86283    66.57932    47.97380
    84  C   4.0    0.15    3.46    3.10   117.24386    65.03532    45.96312
    85  O   6.0   -0.32    1.49    1.80   117.24709    65.77012    43.77096
    86  C   4.0   -0.08    4.10    3.80   117.62444    67.70489    49.94212
    87  H   1.0    0.08    1.02    1.43   114.19771    64.50827    50.95762
    88  H   1.0    0.04    1.06    1.44   114.93835    68.09652    46.90142
    89  H   1.0    0.04    1.02    1.43   119.06130    68.81076    48.98215
    90  H   1.0    0.04    1.00    1.43   116.57388    68.93732    51.20609
    91  H   1.0    0.04    1.00    1.43   118.54590    66.23052    51.03102
    92  N   5.0   -0.15    3.44    2.04   118.31533    62.85963    46.63065
    93  C   4.0    0.04    4.30    4.21   119.30883    61.19124    44.69312
    94  C   4.0    0.09    3.31    3.05   117.46358    61.05151    42.48098
    95  O   6.0   -0.32    1.19    1.80   118.18065    61.26110    40.28225
    96  C   4.0    0.03    4.14    3.89   119.81684    58.52385    45.73589
    97  O   6.0   -0.25    2.04    1.83   121.83979    58.45850    47.43810
    98  H   1.0    0.07    1.06    1.44   118.17078    62.15886    48.41093
    99  H   1.0    0.06    1.05    1.44   121.08114    61.96581    43.94890
   100  H   1.0    0.04    1.01    1.43   118.09630    57.80297    46.63518
   101  H   1.0    0.05    1.02    1.43   120.32878    57.28358    44.16632
   102  H   1.0    0.11    1.03    1.43   121.27828    59.23610    48.99697
   103  N   5.0   -0.20    3.32    1.99   112.89536    65.15537    41.44298
   104  C   4.0    0.03    4.26    4.11   112.59591    67.62761    40.30113
   105  C   4.0    0.14    3.42    3.09   114.83545    68.20047    38.53397
   106  O   6.0   -0.33    1.23    1.80   114.84996    70.03076    37.12485
   107  C   4.0   -0.07    4.12    3.85   112.53933    69.73670    42.25936
   108  H   1.0    0.09    1.04    1.43   112.97249    65.10204    43.35400
   109  H   1.0    0.03    1.05    1.44   110.82243    67.67160    39.23005
   110  H   1.0    0.05    1.00    1.43   112.10893    71.50608    41.30731
   111  H   1.0    0.04    1.00    1.43   111.12003    69.34773    43.68631
   112  H   1.0    0.05    1.01    1.43   114.39475    69.87428    43.12702
   113  N   5.0   -0.14    3.60    2.16   116.73017    66.54432    38.77279
   114  C   4.0    0.04    4.40    4.38   119.15878    66.77644    37.55930
   115  C   4.0    0.14    3.41    3.08   119.38092    64.94924    35.29373
   116  O   6.0   -0.31    1.20    1.80   120.81732    65.36870    33.54338
   117  C   4.0   -0.03    4.32    4.24   121.31405    66.25359    39.41733
   118  C   4.0    0.00    3.57    3.15   121.37947    67.72187    41.86562
   119  C   4.0   -0.04    3.54    3.13   122.88311    66.74505    43.79342
   120  C   4.0   -0.03    3.49    3.11   120.04940    69.91984    42.38404
   121  C   4.0   -0.04    3.38    3.07   123.39396    68.06825    45.97853
   122  C   4.0   -0.04    3.43    3.09   120.39437    71.14432    44.67880
   123  C   4.0   -0.05    3.39    3.08   122.18384    70.34210    46.40320
   124  H   1.0    0.12    1.17    1.46   116.67717    65.55874    40.42206
   125  H   1.0    0.05    1.06    1.44   119.36019    68.66118    36.72450
   126  H   1.0    0.06    1.04    1.43   121.27997    64.24477    39.88802
   127  H   1.0    0.04    1.03    1.43   123.06235    66.61744    38.37161
   128  H   1.0    0.05    1.05    1.44   123.66635    64.88223    43.60080
   129  H   1.0    0.05    1.03    1.43   118.67770    70.63232    41.05202
   130  H   1.0    0.05    1.03    1.43   124.66597    67.27784    47.36213
   131  H   1.0    0.04    1.04    1.43   119.22570    72.73621    45.17394
   132  H   1.0    0.04    1.03    1.43   122.55033    71.40382    48.10550
   133  N   5.0   -0.14    3.54    2.11   117.73820    63.01379    35.40432
   134  C   4.0    0.03    4.34    4.28   117.28389    61.06905    33.52009
   135  C   4.0    0.14    3.45    3.10   114.91585    61.79434    31.95265
   136  O   6.0   -0.31    1.26    1.80   114.97765    61.65943    29.62347
   137  C   4.0   -0.03    4.30    4.19   117.13012    58.47850    34.86874
   138  C   4.0   -0.01    3.56    3.14   115.22148    56.68204    33.77722
   139  C   4.0   -0.04    3.46    3.10   115.98028    54.65094    32.29335
   140  C   4.0   -0.04    3.48    3.11   112.66211    56.99581    34.27556
   141  C   4.0   -0.03    3.43    3.09   114.23546    52.95380    31.34509
   142  C   4.0   -0.05    3.43    3.09   110.89681    55.33341    33.31151
   143  C   4.0    0.07    3.45    3.10   111.67144    53.28310    31.86199
   144  O   6.0   -0.25    2.11    1.84   109.98892    51.58051    30.95351
   145  H   1.0    0.10    1.13    1.45   117.03922    62.63694    37.15003
   146  H   1.0    0.06    1.05    1.44   118.84475    61.02723    32.15619
   147  H   1.0    0.05    1.03    1.43   118.99398    57.59958    34.83060
   148  H   1.0    0.06    1.04    1.43   116.68583    58.85856    36.84533
   149  H   1.0    0.05    1.03    1.43   117.96287    54.37363    31.88312
   150  H   1.0    0.05    1.03    1.43   112.03108    58.54790    35.43883
   151  H   1.0    0.06    1.03    1.43   114.80233    51.39004    30.15758
   152  H   1.0    0.05    1.03    1.43   108.90565    55.56982    33.69036
   153  H   1.0    0.11    1.04    1.43   108.39220    51.82818    31.83046
   154  N   5.0   -0.15    3.47    2.06   112.96938    62.74555    33.21676
   155  C   4.0    0.03    4.37    4.33   110.78617    64.00885    32.12423
   156  C   4.0    0.15    3.62    3.18   111.51391    65.83710    30.04479
   157  O   6.0   -0.31    1.39    1.80   110.11148    66.01450    28.17720
   158  C   4.0   -0.05    4.35    4.30   109.27408    65.61969    34.05294
   159  C   4.0   -0.03    4.16    3.92   106.64875    64.61356    34.81011
   160  C   4.0   -0.08    4.09    3.79   106.65911    61.96406    35.94180
   161  C   4.0   -0.08    4.12    3.83   105.51463    66.45944    36.72521
   162  H   1.0    0.07    1.07    1.44   112.93848    62.69708    35.14655
   163  H   1.0    0.05    1.05    1.44   109.48973    62.63971    31.25851
   164  H   1.0    0.04    1.03    1.43   110.43448    65.89230    35.71732
   165  H   1.0    0.05    1.05    1.44   108.96056    67.48356    33.22562
   166  H   1.0    0.05    1.06    1.44   105.52188    64.61432    33.08453
   167  H   1.0    0.03    1.00    1.43   104.75581    61.36289    36.43700
   168  H   1.0    0.04    1.00    1.43   107.48379    60.60218    34.64816
   169  H   1.0    0.04    1.01    1.43   107.78178    61.97938    37.65126
   170  H   1.0    0.04    1.00    1.43   103.56261    65.99555    37.15140
   171  H   1.0    0.04    1.00    1.43   106.59118    66.35368    38.47054
   172  H   1.0    0.04    1.00    1.43   105.59790    68.38378    36.01782
   173  N   5.0   -0.10    3.71    2.28   113.42240    67.46371    30.34419
   174  C   4.0    0.04    4.62    4.68   113.80932    69.31736    28.35936
   175  C   4.0    0.16    3.44    3.09   114.40759    68.03506    25.83312
   176  O   6.0   -0.29    1.21    1.80   113.97128    69.05137    23.80922
   177  C   4.0   -0.05    4.30    4.19   116.03941    70.97381    29.20478
   178  C   4.0   -0.04    4.23    4.05   116.96865    69.85707    31.71347
   179  C   4.0    0.00    4.44    4.44   115.58156    67.34433    32.01493
   180  H   1.0    0.06    1.05    1.44   112.08457    70.42722    28.08719
   181  H   1.0    0.05    1.03    1.43   117.49328    70.95427    27.74848
   182  H   1.0    0.05    1.02    1.43   115.43131    72.92540    29.45155
   183  H   1.0    0.05    1.02    1.43   118.99507    69.49212    31.73057
   184  H   1.0    0.06    1.03    1.43   116.52914    71.14857    33.25267
   185  H   1.0    0.06    1.05    1.44   116.84609    65.82650    31.40881
   186  H   1.0    0.06    1.04    1.43   115.00157    67.01068    33.95724
   187  N   5.0   -0.14    3.52    2.09   115.60567    65.81548    26.08312
   188  C   4.0    0.04    4.23    4.06   116.45281    64.26574    24.00073
   189  C   4.0    0.09    3.21    3.04   114.27766    62.71281    22.89054
   190  O   6.0   -0.28    1.11    1.80   113.69565    62.85112    20.65375
   191  C   4.0   -0.07    4.12    3.83   118.54891    62.53658    24.95185
   192  H   1.0    0.10    1.12    1.45   115.60044    64.90720    27.76469
   193  H   1.0    0.06    1.05    1.44   117.11544    65.52970    22.50039
   194  H   1.0    0.04    1.00    1.43   119.31118    61.41577    23.41298
   195  H   1.0    0.04    1.01    1.43   120.03020    63.68126    25.78382
   196  H   1.0    0.06    1.01    1.43   117.82556    61.26718    26.39576
   197  N   5.0   -0.19    3.25    1.97   108.30560    63.11892    24.34781
   198  C   4.0    0.03    4.30    4.20   105.97749    64.52522    24.12601
   199  C   4.0    0.16    3.43    3.09   106.41601    67.38716    24.05413
   200  O   6.0   -0.30    1.28    1.80   105.30140    68.83962    25.45577
   201  C   4.0    0.04    4.20    3.99   104.18564    63.77948    26.26670
   202  O   6.0   -0.27    2.10    1.84   105.12400    64.24510    28.70654
   203  H   1.0    0.12    1.07    1.44   109.48277    63.67017    25.76526
   204  H   1.0    0.04    1.05    1.44   105.08840    63.95378    22.33922
   205  H   1.0    0.04    1.02    1.43   102.42021    64.82131    25.95719
   206  H   1.0    0.04    1.01    1.43   103.84915    61.74091    26.07207
   207  H   1.0    0.15    1.06    1.44   106.48881    65.47124    28.63022
   208  N   5.0   -0.14    3.39    2.02   107.94889    68.16147    22.19496
   209  C   4.0    0.03    4.25    4.10   108.64027    70.78976    21.92212
   210  C   4.0    0.16    3.33    3.06   106.40316    72.56723    21.53593
   211  O   6.0   -0.29    1.23    1.80   106.60473    74.83194    21.89050
   212  H   1.0    0.09    1.06    1.44   108.88989    66.86899    21.15921
   213  H   1.0    0.07    1.02    1.43   109.70149    71.44362    23.57512
   214  H   1.0    0.06    1.03    1.43   109.87695    70.99114    20.28631
   215  N   5.0   -0.14    3.52    2.09   104.22548    71.48947    20.76991
   216  C   4.0    0.03    4.40    4.38   102.08532    73.00885    19.98441
   217  C   4.0    0.15    3.41    3.08   100.30063    73.66113    22.15776
   218  O   6.0   -0.30    1.25    1.80    98.65459    75.27301    21.91440
   219  C   4.0   -0.04    4.27    4.14   100.67733    71.70144    17.81100
   220  C   4.0   -0.02    4.17    3.95    98.81386    73.41852    16.45830
   221  C   4.0    0.25    3.09    3.02    97.51934    72.08799    14.16038
   222  O   6.0   -0.28    1.18    1.80    98.11982    69.85464    13.71160
   223  O   6.0   -0.28    1.16    1.80    95.97188    73.39776    12.95366
   224  H   1.0    0.08    1.08    1.44   104.20239    69.64503    20.28592
   225  H   1.0    0.06    1.06    1.44   102.81233    74.83101    19.30605
   226  H   1.0    0.06    1.03    1.43   102.06540    71.06514    16.42126
   227  H   1.0    0.06    1.03    1.43    99.64768    70.04068    18.47598
   228  H   1.0    0.07    1.03    1.43    97.31347    74.05171    17.72336
   229  H   1.0    0.06    1.02    1.43    99.75483    75.10480    15.72771
   230  N   5.0   -0.14    3.48    2.07   100.63999    72.39671    24.32382
   231  C   4.0    0.03    4.40    4.38    98.99081    72.85634    26.47323
   232  C   4.0    0.15    3.41    3.08   100.34699    74.48041    28.45485
   233  O   6.0   -0.32    1.29    1.80   100.99493    73.71447    30.52995
   234  C   4.0   -0.04    4.24    4.09    97.89719    70.35448    27.45281
   235  C   4.0   -0.04    4.20    4.01    99.84591    68.59939    28.64987
   236  C   4.0   -0.05    4.15    3.89    98.65421    66.18431    29.72591
   237  C   4.0   -0.04    4.12    3.84   100.34188    65.06915    31.80700
   238  N   5.0   -0.12    4.05    2.99   101.20379    62.45761    31.20158
   239  H   1.0    0.10    1.08    1.44   102.16811    71.26130    24.54614
   240  H   1.0    0.06    1.08    1.44    97.44141    74.01100    25.71158
   241  H   1.0    0.04    1.03    1.43    96.43559    70.78927    28.83652
   242  H   1.0    0.04    1.03    1.43    97.00193    69.43858    25.83537
   243  H   1.0    0.06    1.03    1.43   101.28542    68.14792    27.25907
   244  H   1.0    0.06    1.05    1.44   100.77007    69.62138    30.16616
   245  H   1.0    0.04    1.03    1.43    96.78668    66.64022    30.45892
   246  H   1.0    0.04    1.03    1.43    98.36594    64.82464    28.20703
   247  H   1.0    0.04    1.03    1.43   102.00235    66.26863    32.00226
   248  H   1.0    0.03    1.02    1.43    99.37553    64.99034    33.62325
   249  H   1.0    0.06    1.02    1.43   102.96218    62.10619    31.97688
   250  H   1.0    0.05    1.02    1.43    99.92608    61.14952    31.87587
   251  H   1.0    0.06    1.05    1.44   101.39738    62.23352    29.28027
   252  N   5.0   -0.14    3.48    2.06   100.74554    76.90613    27.78921
   253  C   4.0    0.03    4.45    4.47   102.24945    78.44808    29.47716
   254  C   4.0    0.15    3.44    3.09   100.61394    79.89817    31.37107
   255  O   6.0   -0.32    1.29    1.80   101.45620    80.51955    33.42851
   256  C   4.0   -0.05    4.34    4.27   103.97305    80.31721    28.11763
   257  C   4.0   -0.03    4.04    3.70   105.89196    79.00726    26.43392
   258  S   6.0    0.01    2.57    3.10   108.74802    80.91912    25.84546
   259  C   4.0   -0.06    3.89    3.45   107.47467    84.12319    25.86286
   260  H   1.0    0.09    1.06    1.44   100.43978    77.50199    26.00423
   261  H   1.0    0.06    1.07    1.44   103.41042    77.14130    30.60341
   262  H   1.0    0.04    1.03    1.43   102.85582    81.62549    26.98651
   263  H   1.0    0.05    1.05    1.44   104.97037    81.38545    29.56945
   264  H   1.0    0.06    1.08    1.44   106.66499    77.33029    27.34037
   265  H   1.0    0.07    1.06    1.44   105.11390    78.45985    24.60648
   266  H   1.0    0.06    1.05    1.44   108.89637    85.26419    24.91969
   267  H   1.0    0.05    1.03    1.43   105.72592    84.20813    24.80365
   268  H   1.0    0.04    1.03    1.43   107.23195    84.76225    27.79772
   269  N   5.0   -0.14    3.49    2.07    98.27386    80.48513    30.61697
   270  C   4.0    0.04    4.31    4.22    96.45251    81.46925    32.41208
   271  C   4.0    0.10    3.26    3.05    96.03069    79.46006    34.45343
   272  O   6.0   -0.30    1.13    1.80    95.92121    79.96417    36.69930
   273  C   4.0    0.03    4.14    3.88    93.97121    82.08016    31.05989
   274  O   6.0   -0.25    2.08    1.84    93.16607    79.84760    29.84645
   275  H   1.0    0.09    1.08    1.44    97.62245    79.92734    28.91027
   276  H   1.0    0.05    1.05    1.44    97.20702    83.15257    33.35563
   277  H   1.0    0.04    1.01    1.43    92.59632    82.73778    32.46036
   278  H   1.0    0.04    1.01    1.43    94.30515    83.58207    29.66677
   279  H   1.0    0.12    1.02    1.43    91.40735    79.97729    29.39587
   280  N   5.0   -0.19    3.28    1.98   100.18295    75.22738    36.11263
   281  C   4.0    0.03    4.25    4.10   102.38731    74.97908    37.72118
   282  C   4.0    0.15    3.44    3.09   102.34670    77.14939    39.62330
   283  O   6.0   -0.29    1.23    1.80   102.96037    76.84179    41.83655
   284  C   4.0   -0.07    4.09    3.79   104.77524    74.89578    36.12878
   285  H   1.0    0.11    1.04    1.43   100.44926    75.33232    34.21923
   286  H   1.0    0.05    1.05    1.44   102.18763    73.24544    38.84619
   287  H   1.0    0.04    1.00    1.43   106.40149    74.53760    37.32425
   288  H   1.0    0.05    1.00    1.43   104.62611    73.38598    34.74419
   289  H   1.0    0.05    1.00    1.43   105.05865    76.68057    35.15229
   290  N   5.0   -0.13    3.51    2.08   101.45943    79.31814    38.71871
   291  C   4.0    0.04    4.44    4.44   101.08000    81.46785    40.35610
   292  C   4.0    0.10    3.33    3.06    99.32994    80.76389    42.51500
   293  O   6.0   -0.29    1.12    1.80    99.80479    81.39232    44.68991
   294  C   4.0   -0.02    4.34    4.27   100.07862    83.74109    38.84230
   295  C   4.0   -0.05    4.20    4.00   102.12936    85.77497    38.81798
   296  C   4.0   -0.07    4.16    3.93    97.53531    84.71281    39.80992
   297  C   4.0   -0.08    4.04    3.69   102.34549    87.20113    41.30300
   298  H   1.0    0.11    1.11    1.45   101.31416    79.61969    36.82840
   299  H   1.0    0.06    1.07    1.44   102.88222    81.96132    41.25538
   300  H   1.0    0.06    1.07    1.44    99.80606    83.10300    36.89394
   301  H   1.0    0.04    1.03    1.43   103.92231    84.87535    38.33129
   302  H   1.0    0.04    1.04    1.43   101.69945    87.12186    37.35460
   303  H   1.0    0.04    1.00    1.43    97.06385    86.49823    38.92201
   304  H   1.0    0.06    1.01    1.43    96.03720    83.38455    39.36841
   305  H   1.0    0.05    1.01    1.43    97.55072    85.01957    41.83741
   306  H   1.0    0.03    1.00    1.43   103.85023    88.59421    41.19794
   307  H   1.0    0.04    1.00    1.43   100.58966    88.17912    41.71526
   308  H   1.0    0.05    1.00    1.43   102.74042    85.92607    42.86232
   309  N   5.0   -0.21    3.26    1.97   124.37042    81.02829    50.91071
   310  C   4.0    0.04    4.37    4.33   124.36300    79.47317    48.67692
   311  C   4.0    0.14    3.46    3.10   121.82233    79.74671    47.36761
   312  O   6.0   -0.34    1.44    1.80   121.75916    80.15475    45.08696
   313  C   4.0   -0.04    4.32    4.23   124.93009    76.72372    49.28762
   314  C   4.0    0.15    3.24    3.04   127.65702    76.46297    50.18566
   315  O   6.0   -0.30    1.22    1.80   129.20742    78.15309    50.00448
   316  N   5.0   -0.19    3.18    1.95   128.22599    74.16116    51.08236
   317  H   1.0    0.09    1.03    1.43   124.93537    80.23829    52.56508
   318  H   1.0    0.05    1.06    1.44   125.80503    80.16324    47.34422
   319  H   1.0    0.04    1.03    1.43   123.62353    76.05378    50.73192
   320  H   1.0    0.04    1.03    1.43   124.70670    75.59658    47.57270
   321  H   1.0    0.09    1.03    1.43   129.97174    73.84702    51.77419
   322  H   1.0    0.08    1.03    1.43   126.88877    72.83076    51.27747
   323  N   5.0   -0.15    3.53    2.10   119.75706    79.42719    48.74096
   324  C   4.0    0.03    4.50    4.53   117.24610    79.61023    47.66895
   325  C   4.0    0.16    3.46    3.10   116.95756    82.08443    46.18326
   326  O   6.0   -0.32    1.29    1.80   116.07568    82.06938    44.03759
   327  C   4.0   -0.04    4.11    3.82   115.29976    79.32649    49.76823
   328  S   6.0   -0.07    2.31    3.10   115.03172    76.05215    50.76774
   329  H   1.0    0.07    1.07    1.44   119.89300    79.13629    50.63351
   330  H   1.0    0.05    1.07    1.44   116.97156    78.09159    46.27211
   331  H   1.0    0.04    1.07    1.44   115.80671    80.46209    51.40698
   332  H   1.0    0.05    1.07    1.44   113.42903    79.87962    49.12929
   333  H   1.0    0.04    0.98    1.43   117.39862    75.87176    51.60989
   334  N   5.0   -0.15    3.39    2.02   117.72738    84.17910    47.34583
   335  C   4.0    0.01    4.25    4.10   117.75436    86.60584    46.08592
   336  C   4.0    0.15    3.34    3.06   119.39318    86.63339    43.69524
   337  O   6.0   -0.33    1.27    1.80   118.74237    87.80655    41.80187
   338  H   1.0    0.07    1.06    1.44   118.38996    84.07985    49.14301
   339  H   1.0    0.05    1.02    1.43   115.83651    87.14870    45.52535
   340  H   1.0    0.03    1.03    1.43   118.50320    88.00854    47.39607
   341  N   5.0   -0.14    3.52    2.09   121.53779    85.34195    43.87047
   342  C   4.0    0.04    4.51    4.55   123.28514    85.10472    41.78637
   343  C   4.0    0.15    3.52    3.12   122.21748    83.38708    39.73856
   344  O   6.0   -0.33    1.38    1.80   122.73219    83.77131    37.50291
   345  C   4.0   -0.02    4.34    4.27   125.85070    84.02827    42.64177
   346  C   4.0   -0.05    4.18    3.97   127.16389    85.73085    44.58236
   347  C   4.0   -0.07    4.14    3.89   127.57643    83.53116    40.38284
   348  C   4.0   -0.08    4.02    3.65   127.67150    88.42554    43.70619
   349  H   1.0    0.09    1.08    1.44   122.03119    84.58391    45.56173
   350  H   1.0    0.05    1.06    1.44   123.54270    86.97157    40.91945
   351  H   1.0    0.05    1.06    1.44   125.44117    82.21982    43.56134
   352  H   1.0    0.04    1.03    1.43   125.99171    85.80460    46.27108
   353  H   1.0    0.04    1.03    1.43   128.95285    84.83107    45.08401
   354  H   1.0    0.04    1.00    1.43   129.41505    82.89382    41.03769
   355  H   1.0    0.05    1.01    1.43   126.78710    82.08917    39.15430
   356  H   1.0    0.05    1.00    1.43   127.83148    85.23526    39.26685
   357  H   1.0    0.04    1.00    1.43   128.75363    89.40819    45.14718
   358  H   1.0    0.04    1.00    1.43   128.74169    88.47303    41.95542
   359  H   1.0    0.04    1.00    1.43   125.90451    89.43283    43.43067
   360  N   5.0   -0.14    3.61    2.17   120.79777    81.46707    40.49491
   361  C   4.0    0.04    4.56    4.62   119.62781    79.82922    38.65962
   362  C   4.0    0.16    3.60    3.17   117.55666    81.32527    37.40842
   363  O   6.0   -0.33    1.48    1.80   116.85944    80.90550    35.24642
   364  C   4.0   -0.02    4.30    4.20   118.33766    77.46926    39.73096
   365  C   4.0   -0.07    4.15    3.90   117.57242    75.72241    37.56311
   366  C   4.0   -0.07    4.17    3.93   120.07212    76.03841    41.50000
   367  H   1.0    0.12    1.16    1.46   120.60460    81.07743    42.35841
   368  H   1.0    0.05    1.06    1.44   121.04264    79.28223    37.25046
   369  H   1.0    0.05    1.06    1.44   116.64819    78.11677    40.74060
   370  H   1.0    0.06    1.00    1.43   116.32472    74.22881    38.21757
   371  H   1.0    0.06    1.01    1.43   116.63334    76.73651    36.04765
   372  H   1.0    0.04    1.00    1.43   119.25025    74.84056    36.76774
   373  H   1.0    0.04    1.04    1.43   118.99764    74.53686    42.34734
   374  H   1.0    0.04    1.00    1.43   121.63628    75.20312    40.46608
   375  H   1.0    0.07    1.03    1.43   120.81914    77.23587    42.97311
   376  N   5.0   -0.13    3.60    2.15   116.47819    83.07975    38.85163
   377  C   4.0    0.04    4.46    4.48   114.72141    84.79945    37.68089
   378  C   4.0    0.16    3.57    3.15   116.27257    86.27072    35.69451
   379  O   6.0   -0.32    1.35    1.80   115.61192    86.22059    33.47060
   380  C   4.0   -0.04    4.33    4.25   113.26703    86.30152    39.68522
   381  C   4.0   -0.02    4.22    4.04   113.19093    89.12631    39.13555
   382  C   4.0   -0.08    4.18    3.95   112.01374    89.61343    36.54763
   383  C   4.0   -0.08    4.11    3.81   111.72208    90.56213    41.15811
   384  H   1.0    0.11    1.11    1.45   116.70255    83.08162    40.75661
   385  H   1.0    0.05    1.06    1.44   113.39956    83.67521    36.53481
   386  H   1.0    0.04    1.03    1.43   111.34780    85.56571    39.79507
   387  H   1.0    0.06    1.04    1.43   114.17984    85.98741    41.50309
   388  H   1.0    0.05    1.06    1.44   115.14489    89.78245    39.15324
   389  H   1.0    0.04    1.01    1.43   112.99239    91.14041    35.59509
   390  H   1.0    0.05    1.03    1.43   112.16191    87.97784    35.33152
   391  H   1.0    0.03    1.00    1.43   110.02673    90.09019    36.72228
   392  H   1.0    0.03    1.00    1.43   111.57831    92.54163    40.62810
   393  H   1.0    0.04    1.00    1.43   109.82399    89.80173    41.32730
   394  H   1.0    0.04    1.00    1.43   112.65634    90.44122    42.98371
   395  N   5.0   -0.14    3.49    2.07   118.39853    87.40211    36.44925
   396  C   4.0    0.04    4.45    4.46   119.98044    88.73066    34.63095
   397  C   4.0    0.18    3.53    3.13   120.35536    87.07334    32.27554
   398  O   6.0   -0.30    1.28    1.80   120.02718    87.85364    30.12191
   399  C   4.0   -0.04    4.30    4.19   122.54451    89.42726    35.80064
   400  C   4.0    0.15    3.24    3.04   124.19592    90.72058    33.81976
   401  O   6.0   -0.29    1.21    1.80   125.24576    89.56955    32.12536
   402  N   5.0   -0.19    3.18    1.95   124.49883    93.22793    34.13261
   403  H   1.0    0.11    1.10    1.44   118.79628    87.62356    38.32210
   404  H   1.0    0.05    1.06    1.44   119.00752    90.43764    33.98258
   405  H   1.0    0.04    1.03    1.43   122.22040    90.66411    37.41656
   406  H   1.0    0.07    1.04    1.43   123.49709    87.70094    36.41579
   407  H   1.0    0.10    1.03    1.43   125.33300    94.20231    32.71883
   408  H   1.0    0.08    1.03    1.43   123.36137    94.22087    35.28238
   409  N   5.0   -0.13    3.57    2.13   121.12012    84.74953    32.84148
   410  C   4.0    0.04    4.45    4.46   121.88363    82.92111    30.98258
   411  C   4.0    0.16    3.47    3.10   119.67173    82.01943    29.34354
   412  O   6.0   -0.32    1.34    1.80   119.99059    81.69300    27.06012
   413  C   4.0   -0.03    4.36    4.31   123.05099    80.65936    32.36128
   414  C   4.0   -0.01    3.60    3.17   123.47688    78.49066    30.58678
   415  C   4.0   -0.04    3.48    3.11   125.13086    78.76033    28.56586
   416  C   4.0   -0.04    3.47    3.10   122.15508    76.24337    30.86645
   417  C   4.0   -0.04    3.39    3.07   125.34353    76.87534    26.77723
   418  C   4.0   -0.04    3.38    3.07   122.43073    74.32027    29.11640
   419  C   4.0   -0.04    3.39    3.08   123.97627    74.65805    27.03902
   420  H   1.0    0.12    1.16    1.46   121.45309    84.27988    34.68029
   421  H   1.0    0.06    1.05    1.44   123.26375    83.79615    29.70114
   422  H   1.0    0.05    1.03    1.43   124.80606    81.28150    33.25188
   423  H   1.0    0.05    1.04    1.43   121.70863    80.11053    33.81962
   424  H   1.0    0.05    1.03    1.43   126.22555    80.47187    28.38272
   425  H   1.0    0.05    1.03    1.43   120.87739    75.99825    32.44058
   426  H   1.0    0.05    1.03    1.43   126.59052    77.14987    25.19118
   427  H   1.0    0.05    1.03    1.43   121.40733    72.57546    29.37151
   428  H   1.0    0.05    1.03    1.43   124.09561    73.19292    25.62935
   429  N   5.0   -0.13    3.56    2.12   117.52410    81.58609    30.54884
   430  C   4.0    0.04    4.41    4.40   115.16422    80.87951    29.36283
   431  C   4.0    0.15    3.56    3.14   114.59324    82.87088    27.35475
   432  O   6.0   -0.28    1.31    1.80   114.10026    82.36202    25.15452
   433  C   4.0   -0.03    4.32    4.24   112.94304    80.88209    31.23582
   434  C   4.0    0.06    3.74    3.27   112.60854    78.57985    32.84265
   435  N   5.0   -0.18    2.53    1.90   112.86112    76.16217    31.97537
   436  C   4.0   -0.01    3.62    3.18   111.79285    78.50785    35.30470
   437  C   4.0    0.07    3.64    3.19   112.22774    74.68590    33.85334
   438  N   5.0   -0.12    3.45    2.05   111.55551    76.01578    35.92010
   439  H   1.0    0.13    1.21    1.47   117.43301    81.72095    32.46607
   440  H   1.0    0.06    1.05    1.44   115.31358    79.04021    28.41746
   441  H   1.0    0.06    1.04    1.43   113.10777    82.53801    32.45116
   442  H   1.0    0.04    1.07    1.44   111.22926    81.11047    30.09718
   443  H   1.0    0.05    1.02    1.43   111.35991    79.96900    36.63115
   444  H   1.0    0.05    1.02    1.43   112.30387    72.66584    33.82126
   445  H   1.0    0.07    1.05    1.44   111.03222    75.33598    37.61922
   446  N   5.0   -0.14    3.55    2.12   114.61739    85.23477    28.26810
   447  C   4.0    0.04    4.43    4.43   114.05781    87.32118    26.60375
   448  C   4.0    0.16    3.57    3.15   115.94532    87.28700    24.39128
   449  O   6.0   -0.26    1.23    1.80   115.22771    87.61997    22.21043
   450  C   4.0   -0.04    4.29    4.18   113.84072    89.81640    28.08525
   451  C   4.0   -0.00    3.59    3.16   116.13898    91.46378    27.92700
   452  C   4.0   -0.03    3.59    3.16   117.17251    92.09463    25.59809
   453  C   4.0   -0.03    3.50    3.11   117.23238    92.44561    30.09350
   454  C   4.0   -0.04    3.45    3.10   119.42833    93.40343    25.46327
   455  C   4.0   -0.02    3.39    3.07   119.46894    93.78979    29.96599
   456  C   4.0   -0.02    3.45    3.09   120.62880    94.17252    27.66158
   457  H   1.0    0.11    1.11    1.45   115.19127    85.57147    30.06481
   458  H   1.0    0.05    1.06    1.44   112.23186    86.93185    25.68919
   459  H   1.0    0.04    1.03    1.43   112.21731    90.86885    27.36676
   460  H   1.0    0.05    1.04    1.43   113.46982    89.33744    30.05905
   461  H   1.0    0.08    1.05    1.44   116.18645    91.61175    23.87827
   462  H   1.0    0.05    1.03    1.43   116.28404    92.13445    31.87421
   463  H   1.0    0.06    1.03    1.43   120.13253    93.94211    23.62197
   464  H   1.0    0.06    1.03    1.43   120.29551    94.59081    31.64609
   465  H   1.0    0.07    1.04    1.43   122.37370    95.21175    27.56586
   466  N   5.0   -0.13    3.53    2.10   118.36028    86.81839    24.99954
   467  C   4.0    0.04    4.43    4.43   120.27247    86.84793    23.05014
   468  C   4.0    0.17    3.43    3.09   119.94819    84.68491    21.12921
   469  O   6.0   -0.27    1.22    1.80   120.72237    84.98380    18.95445
   470  C   4.0   -0.04    4.26    4.11   122.95001    86.70614    24.14772
   471  C   4.0   -0.04    4.16    3.92   123.81099    89.18350    25.39697
   472  C   4.0   -0.01    4.19    3.98   126.44110    89.99874    24.47790
   473  N   5.0   -0.14    3.38    2.01   127.32392    92.30973    25.67451
   474  C   4.0    0.09    3.35    3.07   126.59962    94.65226    25.11327
   475  N   5.0   -0.18    3.25    1.97   125.25271    95.17848    23.04921
   476  N   5.0   -0.18    3.25    1.97   127.45547    96.56887    26.50152
   477  H   1.0    0.11    1.10    1.44   118.93590    86.91931    26.83024
   478  H   1.0    0.06    1.05    1.44   120.05673    88.58532    21.92274
   479  H   1.0    0.06    1.03    1.43   122.98258    85.12523    25.46593
   480  H   1.0    0.05    1.04    1.43   124.19710    86.25718    22.56848
   481  H   1.0    0.05    1.07    1.44   122.45081    90.64534    24.91681
   482  H   1.0    0.07    1.02    1.43   123.77442    89.02234    27.45153
   483  H   1.0    0.04    1.03    1.43   127.81072    88.53105    24.92886
   484  H   1.0    0.04    1.02    1.43   126.40069    90.23730    22.42829
   485  H   1.0    0.08    1.07    1.44   128.15621    92.06631    27.37871
   486  H   1.0    0.08    1.04    1.43   124.40032    93.75214    22.12406
   487  H   1.0    0.10    1.03    1.43   124.37109    96.87534    22.95560
   488  H   1.0    0.09    1.03    1.43   128.60220    96.29291    27.99127
   489  H   1.0    0.10    1.03    1.43   126.81569    98.32945    26.15167
   490  N   5.0   -0.12    3.49    2.07   119.12541    82.50433    22.05665
   491  C   4.0    0.04    4.40    4.38   118.75084    80.25993    20.54569
   492  C   4.0    0.26    3.19    3.04   116.74486    80.68192    18.39015
   493  O   6.0   -0.27    1.17    1.80   117.37641    79.85940    16.27323
   494  C   4.0    0.06    4.23    4.06   117.96041    78.06131    22.27299
   495  O   6.0   -0.25    2.12    1.84   119.87050    77.47270    24.04225
   496  C   4.0   -0.05    4.09    3.78   117.38803    75.65755    20.78829
   497  O   6.0   -0.24    1.17    1.80   114.72372    81.73344    18.95810
   498  H   1.0    0.12    1.11    1.45   118.32571    82.50640    23.79076
   499  H   1.0    0.06    1.05    1.44   120.53978    79.84482    19.58218
   500  H   1.0    0.07    1.04    1.43   116.21899    78.67706    23.24320
   501  H   1.0    0.16    1.08    1.44   120.11798    78.94063    25.12171
   502  H   1.0    0.06    1.00    1.43   116.71491    74.19053    22.06033
   503  H   1.0    0.06    1.01    1.43   115.93561    76.08398    19.40459
   504  H   1.0    0.05    1.00    1.43   119.07235    75.00351    19.82171
   505  N   5.0   -0.12    3.99    2.85   127.34666    74.04952    16.72218
   506  C   4.0   -0.02    4.14    3.89   126.83264    71.84416    15.01310
   507  C   4.0    0.15    3.24    3.04   129.22552    70.90598    13.59427
   508  O   6.0   -0.30    1.19    1.80   129.40341    71.00173    11.31137
   509  H   1.0    0.06    1.02    1.43   126.22375    75.56448    16.21492
   510  H   1.0    0.05    1.01    1.43   126.92897    73.65466    18.58622
   511  H   1.0    0.06    1.02    1.43   129.20081    74.64268    16.58524
   512  H   1.0    0.04    1.02    1.43   126.07184    70.27146    16.11205
   513  H   1.0    0.06    1.02    1.43   125.43589    72.38533    13.59705
   514  N   5.0   -0.15    3.51    2.08   131.00126    70.11336    15.24081
   515  C   4.0    0.03    4.36    4.31   133.55165    69.13531    14.82360
   516  C   4.0    0.15    3.45    3.10   134.81613    69.11757    17.43256
   517  O   6.0   -0.26    1.21    1.80   136.13878    67.43821    18.21672
   518  C   4.0   -0.03    4.28    4.17   135.10243    70.77949    13.01109
   519  C   4.0   -0.03    4.21    4.02   135.11252    69.84565    10.28067
   520  C   4.0    0.15    3.22    3.04   137.35894    70.91479     8.83821
   521  O   6.0   -0.29    1.22    1.80   139.24893    71.73645     9.87956
   522  N   5.0   -0.19    3.18    1.95   137.12517    70.83991     6.31381
   523  H   1.0    0.07    1.11    1.44   130.39867    69.69807    17.00731
   524  H   1.0    0.06    1.05    1.44   133.54836    67.16319    14.19265
   525  H   1.0    0.06    1.03    1.43   134.36764    72.70264    13.06766
   526  H   1.0    0.07    1.04    1.43   137.06283    70.80812    13.66043
   527  H   1.0    0.05    1.03    1.43   135.33260    67.79247    10.24969
   528  H   1.0    0.06    1.03    1.43   133.34642    70.31760     9.33478
   529  H   1.0    0.08    1.03    1.43   135.58562    70.11926     5.47174
   530  H   1.0    0.10    1.03    1.43   138.58264    71.42739     5.23383
   531  N   5.0   -0.14    3.59    2.15   134.06139    71.15770    18.82888
   532  C   4.0    0.04    4.46    4.48   134.76860    71.33067    21.45153
   533  C   4.0    0.15    3.47    3.10   133.07121    69.57047    22.97399
   534  O   6.0   -0.31    1.38    1.80   133.96166    68.48236    24.81045
   535  C   4.0    0.05    4.22    4.04   134.58886    74.13845    22.31928
   536  O   6.0   -0.26    2.14    1.85   135.40917    75.70808    20.32710
   537  C   4.0   -0.08    4.08    3.76   136.09988    74.51179    24.72703
   538  H   1.0    0.09    1.09    1.44   133.98928    72.84261    17.91862
   539  H   1.0    0.07    1.05    1.44   136.69866    70.62842    21.77060
   540  H   1.0    0.04    1.04    1.43   132.59034    74.58769    22.64400
   541  H   1.0    0.12    1.03    1.43   136.85409    76.68937    20.85216
   542  H   1.0    0.04    1.00    1.43   135.79546    76.39206    25.49721
   543  H   1.0    0.04    1.01    1.43   135.54265    73.11127    26.11747
   544  H   1.0    0.05    1.00    1.43   138.10375    74.25087    24.34794
   545  N   5.0   -0.15    3.43    2.04   130.65506    69.21669    22.25342
   546  C   4.0    0.03    4.45    4.47   128.92756    67.74920    23.84056
   547  C   4.0    0.17    3.60    3.16   130.30539    65.60724    25.21222
   548  O   6.0   -0.33    1.39    1.80   130.09472    65.43894    27.51689
   549  C   4.0   -0.03    4.28    4.16   126.54874    66.73424    22.43685
   550  C   4.0   -0.05    4.21    4.02   125.19456    64.63314    23.93625
   551  C   4.0   -0.07    4.11    3.82   127.11556    65.71107    19.79422
   552  C   4.0   -0.07    4.02    3.65   124.47319    65.26925    26.65395
   553  H   1.0    0.07    1.06    1.44   129.89933    70.43205    20.99120
   554  H   1.0    0.04    1.06    1.44   128.24570    68.98420    25.37225
   555  H   1.0    0.04    1.05    1.44   125.22916    68.32118    22.28031
   556  H   1.0    0.04    1.03    1.43   123.46911    64.16235    22.90480
   557  H   1.0    0.04    1.03    1.43   126.38878    62.95161    23.95247
   558  H   1.0    0.04    1.00    1.43   125.38919    65.05257    18.89123
   559  H   1.0    0.04    1.00    1.43   127.95158    67.13480    18.58139
   560  H   1.0    0.05    1.00    1.43   128.40993    64.12237    19.90665
   561  H   1.0    0.04    1.00    1.43   123.53787    63.64838    27.50419
   562  H   1.0    0.06    1.02    1.43   126.12828    65.66415    27.79298
   563  H   1.0    0.04    1.00    1.43   123.21439    66.88881    26.75152
   564  N   5.0   -0.14    3.50    2.08   131.29741    63.71928    23.85453
   565  C   4.0    0.04    4.41    4.40   132.11224    61.49609    25.21884
   566  C   4.0    0.11    3.29    3.05   134.26436    62.11308    27.03902
   567  O   6.0   -0.28    1.12    1.80   134.63191    60.78738    28.91326
   568  C   4.0   -0.03    4.26    4.13   132.93018    59.42518    23.38471
   569  C   4.0    0.26    3.19    3.03   135.36711    60.46566    22.09559
   570  O   6.0   -0.27    1.16    1.80   137.39823    59.46327    22.68553
   571  O   6.0   -0.27    1.23    1.80   135.06331    62.34043    20.69428
   572  H   1.0    0.11    1.09    1.44   132.05289    63.90537    22.08967
   573  H   1.0    0.05    1.05    1.44   130.53954    60.84489    26.41479
   574  H   1.0    0.06    1.02    1.43   133.33135    57.68945    24.42085
   575  H   1.0    0.05    1.02    1.43   131.45836    59.06810    21.98646
   576  N   5.0   -0.19    3.30    1.98   134.23265    68.18286    29.90177
   577  C   4.0    0.03    4.34    4.27   133.05448    69.24175    32.13614
   578  C   4.0    0.15    3.44    3.09   132.28308    67.02702    33.81087
   579  O   6.0   -0.32    1.29    1.80   132.69574    67.01887    36.08367
   580  C   4.0   -0.05    4.33    4.25   130.86025    71.00932    31.58941
   581  C   4.0   -0.02    4.20    4.00   131.70583    73.27692    29.97695
   582  C   4.0   -0.08    4.13    3.86   130.24282    73.33087    27.50350
   583  C   4.0   -0.08    4.10    3.80   131.38878    75.77823    31.37257
   584  H   1.0    0.13    1.07    1.44   133.34973    68.18404    28.20318
   585  H   1.0    0.04    1.06    1.44   134.50268    70.28140    33.19505
   586  H   1.0    0.05    1.03    1.43   129.34143    69.97083    30.66022
   587  H   1.0    0.04    1.04    1.43   130.16823    71.66442    33.41668
   588  H   1.0    0.04    1.07    1.44   133.71670    73.04448    29.56351
   589  H   1.0    0.04    1.01    1.43   130.60335    75.10431    26.54460
   590  H   1.0    0.05    1.02    1.43   130.83181    71.78238    26.30476
   591  H   1.0    0.04    1.02    1.43   128.23463    73.16416    27.88673
   592  H   1.0    0.04    1.00    1.43   132.09660    77.31953    30.21379
   593  H   1.0    0.04    1.00    1.43   129.40641    76.12905    31.77961
   594  H   1.0    0.04    1.00    1.43   132.44020    75.76494    33.13754
   595  N   5.0   -0.14    3.51    2.08   131.24346    65.07177    32.58430
   596  C   4.0    0.05    4.31    4.21   130.43740    62.82380    33.91094
   597  C   4.0    0.10    3.24    3.04   132.69340    61.71060    35.32877
   598  O   6.0   -0.29    1.14    1.80   132.62096    61.39131    37.63187
   599  C   4.0    0.04    4.13    3.86   129.13143    60.99732    32.08000
   600  O   6.0   -0.25    2.05    1.83   127.43646    59.51319    33.48435
   601  H   1.0    0.12    1.13    1.45   130.78106    65.21177    30.72873
   602  H   1.0    0.06    1.06    1.44   129.03202    63.30712    35.36668
   603  H   1.0    0.05    1.01    1.43   128.11441    62.16005    30.69218
   604  H   1.0    0.06    1.01    1.43   130.50559    59.79776    31.08535
   605  H   1.0    0.12    1.02    1.43   126.35719    58.58469    32.34509
   606  N   5.0   -0.20    3.23    1.96   134.98656    65.61286    40.46713
   607  C   4.0    0.04    4.30    4.20   132.96686    65.94896    42.28378
   608  C   4.0    0.09    3.30    3.05   132.92552    63.62743    44.00274
   609  O   6.0   -0.29    1.12    1.80   132.59543    63.77440    46.27947
   610  C   4.0   -0.01    4.33    4.25   130.34965    66.32654    41.04594
   611  C   4.0   -0.04    4.18    3.97   129.76711    69.15265    40.81100
   612  C   4.0   -0.07    4.19    3.99   128.30187    64.94929    42.51667
   613  C   4.0   -0.07    4.00    3.63   127.67159    69.78781    38.94171
   614  H   1.0    0.12    1.05    1.44   134.64871    64.32464    39.09626
   615  H   1.0    0.05    1.06    1.44   133.45457    67.57150    43.47174
   616  H   1.0    0.07    1.08    1.44   130.45608    65.49096    39.16612
   617  H   1.0    0.04    1.03    1.43   129.23798    69.85405    42.67763
   618  H   1.0    0.05    1.03    1.43   131.49402    70.10447    40.21284
   619  H   1.0    0.04    1.02    1.43   126.52767    65.11182    41.51681
   620  H   1.0    0.06    1.01    1.43   128.72408    62.94777    42.70101
   621  H   1.0    0.05    1.00    1.43   128.09249    65.76181    44.39277
   622  H   1.0    0.04    1.00    1.43   127.39673    71.82302    38.88758
   623  H   1.0    0.05    1.00    1.43   128.16383    69.12757    37.05884
   624  H   1.0    0.04    1.00    1.43   125.90078    68.92648    39.50479
   625  H   1.0    0.08    1.07    1.44   115.58167   103.06978    43.04127
   626  H   1.0    0.05    1.04    1.43   109.64751   101.53994    41.43159
   627  H   1.0    0.09    1.07    1.44   113.01656   107.42967    36.09085
   628  H   1.0    0.06    1.04    1.43   108.41778   102.45584    29.96783
   629  H   1.0    0.10    1.07    1.44   114.98068   103.21563    23.87907
   630  H   1.0    0.06    1.04    1.44   105.91616    98.99041    21.56493
   631  H   1.0    0.09    1.07    1.44   112.44153    65.86131    49.10904
   632  H   1.0    0.05    1.05    1.44   115.62090    60.78346    42.80310
   633  H   1.0    0.08    1.07    1.44   111.58493    64.16442    41.00325
   634  H   1.0    0.06    1.05    1.44   113.28804    61.54551    23.99921
   635  H   1.0    0.09    1.08    1.44   107.95365    61.47954    24.63260
   636  H   1.0    0.06    1.05    1.44    95.83166    77.64515    33.96604
   637  H   1.0    0.10    1.07    1.44    99.16244    73.88544    36.33689
   638  H   1.0    0.07    1.05    1.44    97.75913    79.77074    42.17255
   639  H   1.0    0.09    1.07    1.44   125.41440    82.35066    50.67839
   640  H   1.0    0.08    1.05    1.44   135.38275    63.60043    26.71031
   641  H   1.0    0.10    1.07    1.44   135.68463    69.00811    29.58037
   642  H   1.0    0.07    1.04    1.44   134.25850    61.22965    34.38526
   643  H   1.0    0.11    1.08    1.44   135.29066    67.08787    39.67691
   644  H   1.0    0.07    1.05    1.44   133.17514    61.90393    43.26905

  Z AO/shell   Hii/eV     exponent
  1     Wed Apr 25 08:07:45 CEST 2018   EN: 2.200 GM2: 0.406  GM3: 0.0800  RAES: 1.40
     1s    -10.707211    1.230000
  6     Wed Apr 25 08:07:45 CEST 2018   EN: 2.550 GM2: 0.538  GM3: 0.1500  RAES: 3.00
     2s    -13.970922    2.096432
     2p    -10.063292    1.800000
  7     Wed Apr 25 08:07:45 CEST 2018   EN: 3.040 GM2: 0.461  GM3:-0.0640  RAES: 1.90
     2s    -16.686243    2.339881
     2p    -12.523956    2.014332
  8     Wed Apr 25 08:07:45 CEST 2018   EN: 3.440 GM2: 0.452  GM3:-0.0517  RAES: 1.80
     2s    -20.229985    2.439742
     2p    -15.503117    2.137023
 16     Tue Apr 24 11:44:34 CEST 2018   EN: 2.580 GM2: 0.340  GM3:-0.0502  RAES: 3.10
     3s    -20.029654    1.981333
     3p    -11.377694    2.025643
     3d     -0.420282    1.702555
 no old-style atom pair restraining (fixing) potential

molecular fragmentation (1/2 indicates fragments):
111111111111111111122222222222222222222222222222222222222222222222222222
222222222222222222222222222222222222222222222222222222222222222222222222
222222222222222222222222222222222222222222222222222222222222222222222222
222222222222222222222222222222222222222222222222222222222222222222222222
222222222222222222222222222222222222222222222222222222222222222222222222
222222222222222222222222222222222222222222222222222222222222222222222222
222222222222222222222222222222222222222222222222222222222222222222222222
222222222222222222222222222222222222222222222222222222222222222222222222
22222222222222222222222222222222222222222222222211222222222222222222
# atoms in fragment 1/2:    21   623
 fragment masses (1/2) :      115.17     4353.08
CMA distance (Bohr)    :  24.156
constraining FC (au)   :  0.0500
           ------------------------------------------------- 
          |        Self-Consistent Charge Iterations        |
           ------------------------------------------------- 

 Ncao       : 1595
 Nao        : 1593
 Nshell     : 959
 Nel        : 1756
 T(el)      :   500.0
 intcut     :    35.0
 scfconv/Eh :  0.100E-06
   qconv/e  :  0.100E-04
 intneglect :  0.100E-08
 broydamp   :      0.400
 iter      E             dE          RMSdq      gap      omega  full diag
   1  -1004.1848607 -0.100418E+04  0.465E+00    3.04       0.0  T
   2  -1006.5636037 -0.237874E+01  0.220E+00    1.62       1.0  T
   3  -1006.7057152 -0.142111E+00  0.124E+00    1.72       1.0  T
   4  -1006.8706314 -0.164916E+00  0.257E-01    1.02       1.0  T
   5  -1006.8802379 -0.960656E-02  0.127E-01    1.19       1.0  T
   6  -1006.8819339 -0.169600E-02  0.560E-02    1.21       1.0  T
   7  -1006.8824958 -0.561875E-03  0.255E-02    1.22       1.0  T
   8  -1006.8825711 -0.752602E-04  0.129E-02    1.24       1.0  T
   9  -1006.8825962 -0.250890E-04  0.620E-03    1.25       1.0  T
  10  -1006.8826012 -0.506852E-05  0.304E-03    1.26       1.3  T
  11  -1006.8826024 -0.116615E-05  0.148E-03    1.26       2.7  T
  12  -1006.8826027 -0.317099E-06  0.782E-04    1.26       5.0  T
  13  -1006.8826028 -0.100215E-06  0.362E-04    1.26      10.9  T
  14  -1006.8826028 -0.128398E-07  0.166E-04    1.26      23.7  T
  15  -1006.8826028 -0.405396E-08  0.669E-05    1.26      58.9  T
  16  -1006.8826028 -0.572641E-09  0.312E-05    1.26     126.3  T
speedup  1.00
cpu  time for SCC   24.96 s
wall time for SCC   24.97 s

   *** convergence criteria satisfied after 16 iterations ***

          eigenvalues
 #    :         866        867        868        869        870        871        872        873
 occ. :        2.000      2.000      2.000      2.000      2.000      2.000      2.000      2.000
 eps  :       -10.145    -10.113    -10.087    -10.018    -10.001     -9.897     -9.632     -9.629
 #    :         874        875        876        877        878        879        880        881
 occ. :        2.000      2.000      2.000      2.000      2.000      0.000      0.000      0.000
 eps  :        -9.551     -9.538     -9.494     -9.480     -9.369     -8.107     -8.064     -7.948
 #    :         882        883        884        885        886        887        888        889
 occ. :        0.000      0.000      0.000      0.000      0.000      0.000      0.000      0.000
 eps  :        -7.901     -7.842     -7.836     -7.819     -7.815     -7.415     -7.212     -7.062


   #   Z            q   n(s)   n(p)   n(d)      C6AA      α(0)
   1   7 N     -0.388  1.318  4.070  0.000    30.037     8.140
   2   6 C      0.039  1.054  2.907  0.000    19.940     6.361
   3   6 C      0.185  1.099  2.716  0.000    24.035     8.029
   4   8 O     -0.370  1.750  4.620  0.000    21.099     6.159
   5   6 C     -0.075  1.060  3.014  0.000    21.929     6.667
   6   6 C     -0.015  1.060  2.956  0.000    20.813     6.489
   7   6 C     -0.121  1.044  3.077  0.000    22.871     6.818
   8   6 C     -0.113  1.038  3.076  0.000    22.719     6.796
   9   1 H      0.174  0.826  0.000  0.000     1.249     1.751
  10   1 H      0.050  0.950  0.000  0.000     2.320     2.382
  11   1 H      0.058  0.942  0.000  0.000     2.221     2.331
  12   1 H      0.044  0.956  0.000  0.000     2.399     2.422
  13   1 H      0.048  0.952  0.000  0.000     2.346     2.395
  14   1 H      0.041  0.959  0.000  0.000     2.433     2.439
  15   1 H      0.059  0.941  0.000  0.000     2.214     2.327
  16   1 H      0.024  0.976  0.000  0.000     2.672     2.556
  17   1 H      0.046  0.954  0.000  0.000     2.366     2.405
  18   1 H      0.030  0.970  0.000  0.000     2.586     2.515
  19   1 H      0.041  0.959  0.000  0.000     2.434     2.440
  20   7 N     -0.396  1.327  4.069  0.000    30.250     8.168
  21   6 C      0.031  1.059  2.910  0.000    20.075     6.382
  22   6 C      0.267  1.049  2.683  0.000    22.484     7.764
  23   8 O     -0.527  1.769  4.758  0.000    24.391     6.621
  24   6 C     -0.068  1.058  3.011  0.000    21.799     6.646
  25   6 C     -0.002  1.078  2.924  0.000    28.073     8.691
  26   6 C     -0.051  1.082  2.969  0.000    29.260     8.871
  27   6 C     -0.026  1.078  2.949  0.000    28.657     8.779
  28   6 C     -0.067  1.075  2.992  0.000    29.663     8.931
  29   6 C     -0.057  1.077  2.980  0.000    29.421     8.895
  30   6 C      0.141  1.046  2.813  0.000    24.926     8.183
  31   8 O     -0.425  1.706  4.719  0.000    21.342     6.236
  32   1 H      0.160  0.840  0.000  0.000     1.332     1.808
  33   1 H      0.041  0.959  0.000  0.000     2.431     2.438
  34   1 H      0.060  0.940  0.000  0.000     2.204     2.322
  35   1 H      0.044  0.956  0.000  0.000     2.390     2.418
  36   1 H      0.052  0.948  0.000  0.000     2.290     2.367
  37   1 H      0.017  0.983  0.000  0.000     2.785     2.609
  38   1 H      0.064  0.936  0.000  0.000     2.147     2.292
  39   1 H      0.014  0.986  0.000  0.000     2.829     2.630
  40   1 H      0.334  0.666  0.000  0.000     0.628     1.245
  41   7 N     -0.201  1.258  3.943  0.000    25.376     7.482
  42   6 C      0.034  1.057  2.909  0.000    20.015     6.373
  43   6 C      0.200  1.090  2.710  0.000    23.732     7.978
  44   8 O     -0.380  1.758  4.622  0.000    21.286     6.186
  45   6 C     -0.082  1.066  3.016  0.000    22.060     6.685
  46   6 C     -0.009  1.051  2.958  0.000    20.705     6.472
  47   6 C     -0.116  1.041  3.075  0.000    22.767     6.802
  48   6 C     -0.124  1.044  3.080  0.000    22.917     6.824
  49   1 H      0.269  0.731  0.000  0.000     0.813     1.412
  50   1 H      0.066  0.934  0.000  0.000     2.133     2.284
  51   1 H      0.092  0.908  0.000  0.000     1.855     2.130
  52   1 H      0.072  0.928  0.000  0.000     2.061     2.245
  53   1 H      0.029  0.971  0.000  0.000     2.606     2.525
  54   1 H      0.044  0.956  0.000  0.000     2.397     2.421
  55   1 H      0.015  0.985  0.000  0.000     2.817     2.625
  56   1 H      0.051  0.949  0.000  0.000     2.301     2.372
  57   1 H      0.050  0.950  0.000  0.000     2.321     2.382
  58   1 H      0.056  0.944  0.000  0.000     2.248     2.345
  59   1 H      0.052  0.948  0.000  0.000     2.298     2.370
  60   7 N     -0.402  1.315  4.087  0.000    30.420     8.191
  61   6 C      0.048  1.054  2.898  0.000    19.784     6.336
  62   6 C      0.271  1.054  2.675  0.000    22.423     7.754
  63   8 O     -0.522  1.759  4.763  0.000    24.284     6.607
  64   6 C     -0.101  1.069  3.031  0.000    22.416     6.741
  65   6 C      0.370  1.028  2.602  0.000    20.727     7.450
  66   8 O     -0.606  1.758  4.849  0.000    26.274     6.872
  67   8 O     -0.653  1.765  4.889  0.000    27.463     7.026
  68   1 H      0.158  0.842  0.000  0.000     1.349     1.819
  69   1 H      0.029  0.971  0.000  0.000     2.603     2.523
  70   1 H      0.045  0.955  0.000  0.000     2.386     2.415
  71   1 H      0.002  0.998  0.000  0.000     3.020     2.718
  72   7 N     -0.180  1.254  3.926  0.000    24.908     7.412
  73   6 C      0.034  1.056  2.910  0.000    20.014     6.372
  74   6 C      0.199  1.085  2.716  0.000    23.767     7.984
  75   8 O     -0.336  1.745  4.590  0.000    20.435     6.061
  76   6 C     -0.108  1.035  3.073  0.000    22.624     6.781
  77   1 H      0.226  0.774  0.000  0.000     0.983     1.553
  78   1 H      0.075  0.925  0.000  0.000     2.034     2.230
  79   1 H      0.060  0.940  0.000  0.000     2.199     2.319
  80   1 H      0.029  0.971  0.000  0.000     2.601     2.522
  81   1 H      0.072  0.928  0.000  0.000     2.062     2.246
  82   7 N     -0.395  1.315  4.081  0.000    30.246     8.168
  83   6 C      0.031  1.055  2.913  0.000    20.068     6.381
  84   6 C      0.261  1.049  2.689  0.000    22.599     7.785
  85   8 O     -0.460  1.743  4.717  0.000    22.911     6.417
  86   6 C     -0.136  1.043  3.093  0.000    23.163     6.862
  87   1 H      0.169  0.831  0.000  0.000     1.279     1.772
  88   1 H      0.049  0.951  0.000  0.000     2.329     2.387
  89   1 H      0.056  0.944  0.000  0.000     2.247     2.344
  90   1 H      0.062  0.938  0.000  0.000     2.173     2.305
  91   1 H      0.053  0.947  0.000  0.000     2.285     2.364
  92   7 N     -0.161  1.239  3.921  0.000    24.476     7.348
  93   6 C      0.010  1.063  2.927  0.000    20.417     6.434
  94   6 C      0.195  1.088  2.716  0.000    23.830     7.995
  95   8 O     -0.367  1.748  4.620  0.000    21.042     6.150
  96   6 C      0.068  1.037  2.895  0.000    19.647     6.350
  97   8 O     -0.467  1.731  4.736  0.000    22.202     6.361
  98   1 H      0.217  0.783  0.000  0.000     1.022     1.584
  99   1 H      0.094  0.906  0.000  0.000     1.844     2.124
 100   1 H      0.059  0.941  0.000  0.000     2.214     2.327
 101   1 H      0.072  0.928  0.000  0.000     2.067     2.248
 102   1 H      0.347  0.653  0.000  0.000     0.595     1.212
 103   7 N     -0.388  1.312  4.076  0.000    30.036     8.140
 104   6 C      0.028  1.057  2.915  0.000    20.116     6.388
 105   6 C      0.261  1.049  2.690  0.000    22.607     7.786
 106   8 O     -0.502  1.753  4.749  0.000    23.833     6.545
 107   6 C     -0.113  1.039  3.074  0.000    22.712     6.794
 108   1 H      0.166  0.834  0.000  0.000     1.295     1.783
 109   1 H      0.039  0.961  0.000  0.000     2.459     2.452
 110   1 H      0.040  0.960  0.000  0.000     2.445     2.445
 111   1 H      0.057  0.943  0.000  0.000     2.238     2.340
 112   1 H      0.055  0.945  0.000  0.000     2.260     2.351
 113   7 N     -0.202  1.258  3.943  0.000    25.379     7.482
 114   6 C      0.019  1.059  2.922  0.000    20.263     6.410
 115   6 C      0.268  1.049  2.683  0.000    22.474     7.763
 116   8 O     -0.485  1.752  4.734  0.000    23.459     6.494
 117   6 C     -0.073  1.052  3.021  0.000    21.894     6.660
 118   6 C      0.024  1.083  2.893  0.000    27.459     8.595
 119   6 C     -0.044  1.081  2.963  0.000    29.104     8.848
 120   6 C     -0.032  1.078  2.954  0.000    28.787     8.799
 121   6 C     -0.037  1.079  2.958  0.000    28.917     8.818
 122   6 C     -0.040  1.079  2.961  0.000    28.996     8.831
 123   6 C     -0.044  1.077  2.967  0.000    29.092     8.845
 124   1 H      0.254  0.746  0.000  0.000     0.867     1.459
 125   1 H      0.069  0.931  0.000  0.000     2.102     2.267
 126   1 H      0.070  0.930  0.000  0.000     2.087     2.259
 127   1 H      0.055  0.945  0.000  0.000     2.259     2.351
 128   1 H      0.039  0.961  0.000  0.000     2.455     2.450
 129   1 H      0.034  0.966  0.000  0.000     2.525     2.485
 130   1 H      0.044  0.956  0.000  0.000     2.401     2.423
 131   1 H      0.045  0.955  0.000  0.000     2.389     2.417
 132   1 H      0.045  0.955  0.000  0.000     2.386     2.415
 133   7 N     -0.204  1.255  3.949  0.000    25.435     7.490
 134   6 C      0.016  1.070  2.914  0.000    20.326     6.422
 135   6 C      0.268  1.050  2.681  0.000    22.469     7.762
 136   8 O     -0.498  1.753  4.744  0.000    23.734     6.532
 137   6 C     -0.088  1.059  3.028  0.000    22.163     6.701
 138   6 C     -0.004  1.076  2.928  0.000    28.120     8.698
 139   6 C     -0.040  1.085  2.955  0.000    29.002     8.832
 140   6 C     -0.051  1.084  2.967  0.000    29.275     8.873
 141   6 C     -0.060  1.077  2.983  0.000    29.489     8.905
 142   6 C     -0.080  1.079  3.001  0.000    30.002     8.982
 143   6 C      0.143  1.046  2.811  0.000    24.881     8.175
 144   8 O     -0.442  1.730  4.713  0.000    21.689     6.287
 145   1 H      0.234  0.766  0.000  0.000     0.948     1.525
 146   1 H      0.076  0.924  0.000  0.000     2.021     2.223
 147   1 H      0.066  0.934  0.000  0.000     2.128     2.281
 148   1 H      0.082  0.918  0.000  0.000     1.955     2.187
 149   1 H      0.037  0.963  0.000  0.000     2.483     2.464
 150   1 H      0.057  0.943  0.000  0.000     2.233     2.337
 151   1 H      0.041  0.959  0.000  0.000     2.442     2.443
 152   1 H      0.061  0.939  0.000  0.000     2.183     2.310
 153   1 H      0.358  0.642  0.000  0.000     0.569     1.185
 154   7 N     -0.168  1.242  3.926  0.000    24.643     7.373
 155   6 C      0.013  1.063  2.924  0.000    20.380     6.430
 156   6 C      0.259  1.047  2.694  0.000    22.642     7.794
 157   8 O     -0.514  1.754  4.761  0.000    24.107     6.583
 158   6 C     -0.078  1.061  3.017  0.000    21.984     6.674
 159   6 C     -0.033  1.063  2.970  0.000    21.123     6.537
 160   6 C     -0.138  1.042  3.096  0.000    23.217     6.870
 161   6 C     -0.127  1.043  3.084  0.000    22.993     6.836
 162   1 H      0.216  0.784  0.000  0.000     1.026     1.587
 163   1 H      0.104  0.896  0.000  0.000     1.746     2.067
 164   1 H      0.059  0.941  0.000  0.000     2.211     2.325
 165   1 H      0.050  0.950  0.000  0.000     2.323     2.383
 166   1 H      0.064  0.936  0.000  0.000     2.158     2.297
 167   1 H      0.074  0.926  0.000  0.000     2.045     2.236
 168   1 H      0.051  0.949  0.000  0.000     2.303     2.373
 169   1 H      0.050  0.950  0.000  0.000     2.323     2.383
 170   1 H      0.070  0.930  0.000  0.000     2.086     2.258
 171   1 H      0.046  0.954  0.000  0.000     2.376     2.411
 172   1 H      0.035  0.965  0.000  0.000     2.516     2.480
 173   7 N     -0.092  1.240  3.852  0.000    23.034     7.128
 174   6 C      0.029  1.064  2.907  0.000    20.067     6.373
 175   6 C      0.280  1.040  2.680  0.000    22.258     7.725
 176   8 O     -0.499  1.757  4.741  0.000    23.757     6.535
 177   6 C     -0.068  1.052  3.016  0.000    21.789     6.643
 178   6 C     -0.069  1.049  3.020  0.000    21.808     6.647
 179   6 C      0.000  1.050  2.950  0.000    20.621     6.473
 180   1 H      0.056  0.944  0.000  0.000     2.242     2.341
 181   1 H      0.045  0.955  0.000  0.000     2.379     2.412
 182   1 H      0.067  0.933  0.000  0.000     2.124     2.279
 183   1 H      0.063  0.937  0.000  0.000     2.168     2.303
 184   1 H      0.081  0.919  0.000  0.000     1.972     2.196
 185   1 H      0.052  0.948  0.000  0.000     2.297     2.370
 186   1 H      0.073  0.927  0.000  0.000     2.057     2.243
 187   7 N     -0.181  1.246  3.935  0.000    24.917     7.414
 188   6 C      0.031  1.055  2.914  0.000    20.060     6.379
 189   6 C      0.202  1.089  2.709  0.000    23.712     7.975
 190   8 O     -0.365  1.760  4.606  0.000    20.998     6.144
 191   6 C     -0.142  1.043  3.098  0.000    23.284     6.879
 192   1 H      0.217  0.783  0.000  0.000     1.025     1.586
 193   1 H      0.081  0.919  0.000  0.000     1.973     2.196
 194   1 H      0.070  0.930  0.000  0.000     2.083     2.257
 195   1 H      0.084  0.916  0.000  0.000     1.934     2.174
 196   1 H      0.083  0.917  0.000  0.000     1.951     2.184
 197   7 N     -0.409  1.328  4.081  0.000    30.618     8.218
 198   6 C      0.017  1.058  2.925  0.000    20.306     6.419
 199   6 C      0.270  1.046  2.683  0.000    22.432     7.756
 200   8 O     -0.474  1.734  4.740  0.000    23.215     6.460
 201   6 C      0.051  1.042  2.907  0.000    19.926     6.394
 202   8 O     -0.446  1.671  4.775  0.000    21.763     6.297
 203   1 H      0.173  0.827  0.000  0.000     1.257     1.756
 204   1 H      0.048  0.952  0.000  0.000     2.345     2.395
 205   1 H      0.046  0.954  0.000  0.000     2.367     2.406
 206   1 H      0.057  0.943  0.000  0.000     2.232     2.337
 207   1 H      0.314  0.686  0.000  0.000     0.680     1.296
 208   7 N     -0.174  1.241  3.933  0.000    24.760     7.390
 209   6 C     -0.019  1.046  2.974  0.000    20.990     6.535
 210   6 C      0.286  1.038  2.677  0.000    22.160     7.708
 211   8 O     -0.494  1.756  4.737  0.000    23.644     6.519
 212   1 H      0.215  0.785  0.000  0.000     1.034     1.593
 213   1 H      0.086  0.914  0.000  0.000     1.920     2.167
 214   1 H      0.085  0.915  0.000  0.000     1.932     2.174
 215   7 N     -0.188  1.245  3.943  0.000    25.079     7.438
 216   6 C      0.026  1.060  2.914  0.000    20.147     6.392
 217   6 C      0.273  1.043  2.684  0.000    22.387     7.748
 218   8 O     -0.501  1.749  4.752  0.000    23.799     6.541
 219   6 C     -0.049  1.051  2.998  0.000    21.454     6.594
 220   6 C     -0.089  1.063  3.026  0.000    22.208     6.710
 221   6 C      0.370  1.026  2.604  0.000    20.732     7.451
 222   8 O     -0.638  1.767  4.871  0.000    27.073     6.976
 223   8 O     -0.656  1.776  4.880  0.000    27.535     7.035
 224   1 H      0.205  0.795  0.000  0.000     1.079     1.627
 225   1 H      0.057  0.943  0.000  0.000     2.231     2.336
 226   1 H      0.043  0.957  0.000  0.000     2.405     2.425
 227   1 H      0.051  0.949  0.000  0.000     2.309     2.376
 228   1 H      0.035  0.965  0.000  0.000     2.515     2.480
 229   1 H      0.009  0.991  0.000  0.000     2.909     2.667
 230   7 N     -0.176  1.245  3.931  0.000    24.805     7.397
 231   6 C      0.012  1.064  2.924  0.000    20.377     6.428
 232   6 C      0.268  1.049  2.683  0.000    22.468     7.762
 233   8 O     -0.437  1.725  4.712  0.000    22.439     6.351
 234   6 C     -0.076  1.054  3.022  0.000    21.946     6.669
 235   6 C     -0.089  1.052  3.037  0.000    22.199     6.708
 236   6 C     -0.093  1.056  3.037  0.000    22.271     6.719
 237   6 C     -0.054  1.063  2.991  0.000    21.648     6.642
 238   7 N     -0.142  1.230  3.912  0.000    24.061     7.285
 239   1 H      0.215  0.785  0.000  0.000     1.034     1.593
 240   1 H      0.081  0.919  0.000  0.000     1.968     2.194
 241   1 H      0.074  0.926  0.000  0.000     2.042     2.235
 242   1 H      0.054  0.946  0.000  0.000     2.268     2.355
 243   1 H      0.056  0.944  0.000  0.000     2.251     2.346
 244   1 H      0.079  0.921  0.000  0.000     1.987     2.204
 245   1 H      0.084  0.916  0.000  0.000     1.937     2.176
 246   1 H      0.074  0.926  0.000  0.000     2.046     2.237
 247   1 H      0.118  0.882  0.000  0.000     1.632     1.998
 248   1 H      0.127  0.873  0.000  0.000     1.557     1.951
 249   1 H      0.288  0.712  0.000  0.000     0.750     1.357
 250   1 H      0.306  0.694  0.000  0.000     0.695     1.306
 251   1 H      0.277  0.723  0.000  0.000     0.787     1.389
 252   7 N     -0.186  1.246  3.939  0.000    25.024     7.429
 253   6 C      0.016  1.061  2.923  0.000    20.307     6.415
 254   6 C      0.268  1.043  2.689  0.000    22.470     7.763
 255   8 O     -0.460  1.729  4.731  0.000    22.913     6.418
 256   6 C     -0.072  1.053  3.019  0.000    21.863     6.653
 257   6 C     -0.008  1.063  2.945  0.000    20.731     6.484
 258  16 S     -0.251  1.944  4.232  0.075   151.835    20.739
 259   6 C     -0.053  1.051  3.003  0.000    21.605     6.631
 260   1 H      0.188  0.812  0.000  0.000     1.172     1.696
 261   1 H      0.098  0.902  0.000  0.000     1.805     2.101
 262   1 H      0.060  0.940  0.000  0.000     2.201     2.320
 263   1 H      0.083  0.917  0.000  0.000     1.950     2.184
 264   1 H      0.065  0.935  0.000  0.000     2.146     2.291
 265   1 H      0.044  0.956  0.000  0.000     2.394     2.420
 266   1 H      0.032  0.968  0.000  0.000     2.555     2.499
 267   1 H      0.065  0.935  0.000  0.000     2.140     2.287
 268   1 H      0.075  0.925  0.000  0.000     2.030     2.228
 269   7 N     -0.161  1.238  3.923  0.000    24.476     7.348
 270   6 C      0.021  1.060  2.919  0.000    20.231     6.405
 271   6 C      0.205  1.084  2.711  0.000    23.654     7.965
 272   8 O     -0.333  1.745  4.588  0.000    20.384     6.053
 273   6 C      0.069  1.040  2.891  0.000    19.640     6.348
 274   8 O     -0.482  1.718  4.764  0.000    22.514     6.405
 275   1 H      0.218  0.782  0.000  0.000     1.018     1.580
 276   1 H      0.100  0.900  0.000  0.000     1.782     2.088
 277   1 H      0.064  0.936  0.000  0.000     2.150     2.293
 278   1 H      0.061  0.939  0.000  0.000     2.190     2.314
 279   1 H      0.355  0.645  0.000  0.000     0.577     1.194
 280   7 N     -0.401  1.315  4.086  0.000    30.396     8.188
 281   6 C      0.034  1.056  2.909  0.000    20.009     6.371
 282   6 C      0.269  1.046  2.685  0.000    22.454     7.760
 283   8 O     -0.522  1.752  4.770  0.000    24.274     6.606
 284   6 C     -0.115  1.040  3.075  0.000    22.755     6.802
 285   1 H      0.158  0.842  0.000  0.000     1.350     1.820
 286   1 H      0.047  0.953  0.000  0.000     2.361     2.403
 287   1 H      0.043  0.957  0.000  0.000     2.410     2.428
 288   1 H      0.061  0.939  0.000  0.000     2.189     2.313
 289   1 H      0.037  0.963  0.000  0.000     2.485     2.465
 290   7 N     -0.177  1.253  3.924  0.000    24.823     7.400
 291   6 C      0.028  1.060  2.912  0.000    20.107     6.384
 292   6 C      0.221  1.081  2.698  0.000    23.337     7.911
 293   8 O     -0.380  1.751  4.629  0.000    21.280     6.185
 294   6 C     -0.023  1.068  2.955  0.000    20.949     6.510
 295   6 C     -0.066  1.050  3.017  0.000    21.766     6.641
 296   6 C     -0.125  1.037  3.088  0.000    22.958     6.832
 297   6 C     -0.115  1.036  3.079  0.000    22.752     6.802
 298   1 H      0.229  0.771  0.000  0.000     0.969     1.542
 299   1 H      0.075  0.925  0.000  0.000     2.031     2.229
 300   1 H      0.061  0.939  0.000  0.000     2.183     2.310
 301   1 H      0.035  0.965  0.000  0.000     2.518     2.481
 302   1 H      0.048  0.952  0.000  0.000     2.351     2.398
 303   1 H      0.056  0.944  0.000  0.000     2.248     2.345
 304   1 H      0.062  0.938  0.000  0.000     2.179     2.308
 305   1 H      0.041  0.959  0.000  0.000     2.431     2.438
 306   1 H      0.045  0.955  0.000  0.000     2.389     2.417
 307   1 H      0.049  0.951  0.000  0.000     2.336     2.390
 308   1 H      0.039  0.961  0.000  0.000     2.463     2.454
 309   7 N     -0.384  1.297  4.086  0.000    29.925     8.124
 310   6 C      0.037  1.049  2.914  0.000    19.958     6.362
 311   6 C      0.260  1.048  2.692  0.000    22.617     7.788
 312   8 O     -0.485  1.738  4.747  0.000    23.455     6.493
 313   6 C     -0.110  1.063  3.047  0.000    22.599     6.767
 314   6 C      0.293  1.033  2.675  0.000    22.034     7.686
 315   8 O     -0.494  1.754  4.740  0.000    23.646     6.520
 316   7 N     -0.291  1.267  4.024  0.000    27.510     7.790
 317   1 H      0.169  0.831  0.000  0.000     1.278     1.771
 318   1 H      0.054  0.946  0.000  0.000     2.273     2.358
 319   1 H      0.081  0.919  0.000  0.000     1.970     2.195
 320   1 H      0.081  0.919  0.000  0.000     1.966     2.193
 321   1 H      0.230  0.770  0.000  0.000     0.965     1.539
 322   1 H      0.230  0.770  0.000  0.000     0.965     1.539
 323   7 N     -0.160  1.237  3.923  0.000    24.463     7.346
 324   6 C      0.009  1.065  2.926  0.000    20.397     6.426
 325   6 C      0.269  1.041  2.690  0.000    22.454     7.760
 326   8 O     -0.476  1.746  4.730  0.000    23.250     6.465
 327   6 C     -0.026  1.064  2.962  0.000    21.047     6.532
 328  16 S     -0.281  1.946  4.293  0.041   153.182    20.831
 329   1 H      0.231  0.769  0.000  0.000     0.963     1.537
 330   1 H      0.098  0.902  0.000  0.000     1.799     2.098
 331   1 H      0.085  0.915  0.000  0.000     1.929     2.172
 332   1 H      0.077  0.923  0.000  0.000     2.010     2.217
 333   1 H      0.198  0.802  0.000  0.000     1.109     1.647
 334   7 N     -0.166  1.236  3.930  0.000    24.587     7.364
 335   6 C     -0.044  1.055  2.989  0.000    21.429     6.603
 336   6 C      0.268  1.039  2.694  0.000    22.481     7.764
 337   8 O     -0.474  1.741  4.733  0.000    23.219     6.461
 338   1 H      0.231  0.769  0.000  0.000     0.962     1.536
 339   1 H      0.101  0.899  0.000  0.000     1.772     2.082
 340   1 H      0.118  0.882  0.000  0.000     1.630     1.997
 341   7 N     -0.164  1.237  3.927  0.000    24.551     7.359
 342   6 C      0.012  1.064  2.924  0.000    20.369     6.426
 343   6 C      0.270  1.042  2.687  0.000    22.432     7.757
 344   8 O     -0.503  1.741  4.762  0.000    23.860     6.549
 345   6 C     -0.027  1.066  2.961  0.000    21.009     6.519
 346   6 C     -0.067  1.051  3.015  0.000    21.779     6.644
 347   6 C     -0.116  1.037  3.079  0.000    22.779     6.805
 348   6 C     -0.119  1.036  3.083  0.000    22.849     6.817
 349   1 H      0.210  0.790  0.000  0.000     1.056     1.610
 350   1 H      0.083  0.917  0.000  0.000     1.948     2.183
 351   1 H      0.058  0.942  0.000  0.000     2.226     2.333
 352   1 H      0.041  0.959  0.000  0.000     2.433     2.439
 353   1 H      0.053  0.947  0.000  0.000     2.284     2.364
 354   1 H      0.056  0.944  0.000  0.000     2.243     2.342
 355   1 H      0.037  0.963  0.000  0.000     2.485     2.465
 356   1 H      0.050  0.950  0.000  0.000     2.326     2.385
 357   1 H      0.051  0.949  0.000  0.000     2.311     2.378
 358   1 H      0.046  0.954  0.000  0.000     2.375     2.410
 359   1 H      0.041  0.959  0.000  0.000     2.438     2.442
 360   7 N     -0.194  1.252  3.942  0.000    25.208     7.457
 361   6 C      0.022  1.056  2.922  0.000    20.201     6.397
 362   6 C      0.275  1.038  2.686  0.000    22.347     7.743
 363   8 O     -0.493  1.743  4.751  0.000    23.630     6.518
 364   6 C     -0.014  1.059  2.955  0.000    20.787     6.484
 365   6 C     -0.114  1.037  3.077  0.000    22.731     6.797
 366   6 C     -0.140  1.042  3.098  0.000    23.238     6.872
 367   1 H      0.256  0.744  0.000  0.000     0.862     1.454
 368   1 H      0.064  0.936  0.000  0.000     2.148     2.292
 369   1 H      0.043  0.957  0.000  0.000     2.407     2.426
 370   1 H      0.059  0.941  0.000  0.000     2.213     2.326
 371   1 H      0.036  0.964  0.000  0.000     2.500     2.473
 372   1 H      0.038  0.962  0.000  0.000     2.478     2.462
 373   1 H      0.072  0.928  0.000  0.000     2.066     2.248
 374   1 H      0.043  0.957  0.000  0.000     2.411     2.428
 375   1 H      0.070  0.930  0.000  0.000     2.085     2.258
 376   7 N     -0.196  1.254  3.942  0.000    25.255     7.464
 377   6 C      0.028  1.063  2.909  0.000    20.096     6.382
 378   6 C      0.285  1.045  2.670  0.000    22.172     7.711
 379   8 O     -0.510  1.751  4.758  0.000    23.997     6.568
 380   6 C     -0.083  1.060  3.022  0.000    22.070     6.687
 381   6 C     -0.022  1.056  2.966  0.000    20.923     6.506
 382   6 C     -0.122  1.041  3.081  0.000    22.893     6.821
 383   6 C     -0.120  1.043  3.076  0.000    22.847     6.815
 384   1 H      0.238  0.762  0.000  0.000     0.930     1.511
 385   1 H      0.058  0.942  0.000  0.000     2.219     2.330
 386   1 H      0.063  0.937  0.000  0.000     2.169     2.303
 387   1 H      0.073  0.927  0.000  0.000     2.049     2.239
 388   1 H      0.047  0.953  0.000  0.000     2.360     2.402
 389   1 H      0.026  0.974  0.000  0.000     2.644     2.543
 390   1 H      0.028  0.972  0.000  0.000     2.611     2.527
 391   1 H      0.058  0.942  0.000  0.000     2.218     2.329
 392   1 H      0.051  0.949  0.000  0.000     2.310     2.377
 393   1 H      0.049  0.951  0.000  0.000     2.327     2.386
 394   1 H      0.049  0.951  0.000  0.000     2.330     2.387
 395   7 N     -0.193  1.259  3.934  0.000    25.180     7.453
 396   6 C      0.028  1.060  2.912  0.000    20.095     6.382
 397   6 C      0.293  1.034  2.673  0.000    22.024     7.685
 398   8 O     -0.509  1.752  4.757  0.000    23.977     6.565
 399   6 C     -0.118  1.067  3.052  0.000    22.759     6.791
 400   6 C      0.288  1.037  2.675  0.000    22.121     7.701
 401   8 O     -0.476  1.747  4.729  0.000    23.261     6.466
 402   7 N     -0.276  1.269  4.006  0.000    27.127     7.735
 403   1 H      0.245  0.755  0.000  0.000     0.903     1.489
 404   1 H      0.062  0.938  0.000  0.000     2.176     2.307
 405   1 H      0.083  0.917  0.000  0.000     1.950     2.184
 406   1 H      0.104  0.896  0.000  0.000     1.753     2.070
 407   1 H      0.222  0.778  0.000  0.000     1.001     1.567
 408   1 H      0.222  0.778  0.000  0.000     0.999     1.565
 409   7 N     -0.206  1.257  3.949  0.000    25.472     7.496
 410   6 C      0.037  1.057  2.906  0.000    19.958     6.361
 411   6 C      0.278  1.041  2.681  0.000    22.292     7.731
 412   8 O     -0.534  1.754  4.780  0.000    24.541     6.642
 413   6 C     -0.078  1.056  3.022  0.000    21.977     6.672
 414   6 C      0.006  1.079  2.915  0.000    27.878     8.661
 415   6 C     -0.041  1.080  2.961  0.000    29.024     8.835
 416   6 C     -0.042  1.081  2.962  0.000    29.056     8.840
 417   6 C     -0.034  1.082  2.952  0.000    28.845     8.807
 418   6 C     -0.033  1.080  2.953  0.000    28.824     8.804
 419   6 C     -0.034  1.081  2.953  0.000    28.840     8.807
 420   1 H      0.249  0.751  0.000  0.000     0.888     1.476
 421   1 H      0.060  0.940  0.000  0.000     2.194     2.317
 422   1 H      0.079  0.921  0.000  0.000     1.994     2.208
 423   1 H      0.056  0.944  0.000  0.000     2.248     2.345
 424   1 H      0.041  0.959  0.000  0.000     2.436     2.441
 425   1 H      0.029  0.971  0.000  0.000     2.598     2.521
 426   1 H      0.057  0.943  0.000  0.000     2.230     2.335
 427   1 H      0.036  0.964  0.000  0.000     2.501     2.473
 428   1 H      0.047  0.953  0.000  0.000     2.351     2.398
 429   7 N     -0.203  1.261  3.942  0.000    25.405     7.486
 430   6 C      0.046  1.053  2.901  0.000    19.814     6.338
 431   6 C      0.294  1.037  2.669  0.000    22.007     7.683
 432   8 O     -0.515  1.775  4.741  0.000    24.123     6.585
 433   6 C     -0.073  1.051  3.022  0.000    21.894     6.660
 434   6 C      0.071  1.062  2.868  0.000    26.026     8.329
 435   7 N     -0.310  1.493  3.817  0.000    28.881     7.968
 436   6 C     -0.028  1.062  2.967  0.000    28.664     8.781
 437   6 C      0.088  1.061  2.851  0.000    25.796     8.309
 438   7 N     -0.083  1.235  3.849  0.000    22.862     7.101
 439   1 H      0.264  0.736  0.000  0.000     0.831     1.428
 440   1 H      0.054  0.946  0.000  0.000     2.273     2.358
 441   1 H      0.063  0.937  0.000  0.000     2.164     2.300
 442   1 H      0.053  0.947  0.000  0.000     2.278     2.360
 443   1 H      0.040  0.960  0.000  0.000     2.446     2.446
 444   1 H      0.063  0.937  0.000  0.000     2.169     2.303
 445   1 H      0.198  0.802  0.000  0.000     1.119     1.657
 446   7 N     -0.211  1.258  3.953  0.000    25.590     7.513
 447   6 C      0.047  1.056  2.897  0.000    19.787     6.334
 448   6 C      0.305  1.038  2.658  0.000    21.825     7.650
 449   8 O     -0.540  1.770  4.770  0.000    24.694     6.663
 450   6 C     -0.075  1.055  3.020  0.000    21.930     6.666
 451   6 C      0.015  1.078  2.907  0.000    27.663     8.627
 452   6 C     -0.032  1.075  2.957  0.000    28.796     8.800
 453   6 C     -0.032  1.078  2.955  0.000    28.804     8.802
 454   6 C     -0.022  1.075  2.948  0.000    28.562     8.764
 455   6 C     -0.028  1.076  2.952  0.000    28.708     8.786
 456   6 C     -0.025  1.077  2.948  0.000    28.630     8.775
 457   1 H      0.240  0.760  0.000  0.000     0.923     1.505
 458   1 H      0.036  0.964  0.000  0.000     2.507     2.476
 459   1 H      0.054  0.946  0.000  0.000     2.267     2.355
 460   1 H      0.080  0.920  0.000  0.000     1.982     2.202
 461   1 H     -0.001  1.001  0.000  0.000     3.083     2.746
 462   1 H      0.043  0.957  0.000  0.000     2.416     2.430
 463   1 H      0.019  0.981  0.000  0.000     2.741     2.589
 464   1 H      0.052  0.948  0.000  0.000     2.289     2.366
 465   1 H      0.045  0.955  0.000  0.000     2.385     2.415
 466   7 N     -0.206  1.262  3.944  0.000    25.486     7.498
 467   6 C      0.046  1.057  2.897  0.000    19.813     6.338
 468   6 C      0.280  1.042  2.677  0.000    22.252     7.724
 469   8 O     -0.536  1.749  4.788  0.000    24.600     6.650
 470   6 C     -0.075  1.056  3.019  0.000    21.927     6.666
 471   6 C     -0.083  1.052  3.030  0.000    22.075     6.690
 472   6 C     -0.030  1.058  2.972  0.000    21.196     6.570
 473   7 N     -0.134  1.213  3.921  0.000    23.909     7.262
 474   6 C      0.236  1.020  2.744  0.000    23.057     7.862
 475   7 N     -0.237  1.239  3.998  0.000    26.205     7.603
 476   7 N     -0.245  1.228  4.017  0.000    26.378     7.628
 477   1 H      0.230  0.770  0.000  0.000     0.966     1.539
 478   1 H      0.035  0.965  0.000  0.000     2.519     2.482
 479   1 H      0.064  0.936  0.000  0.000     2.157     2.297
 480   1 H      0.070  0.930  0.000  0.000     2.085     2.258
 481   1 H      0.043  0.957  0.000  0.000     2.413     2.429
 482   1 H      0.075  0.925  0.000  0.000     2.032     2.229
 483   1 H      0.110  0.890  0.000  0.000     1.696     2.036
 484   1 H      0.083  0.917  0.000  0.000     1.953     2.186
 485   1 H      0.246  0.754  0.000  0.000     0.897     1.484
 486   1 H      0.221  0.779  0.000  0.000     1.004     1.569
 487   1 H      0.234  0.766  0.000  0.000     0.948     1.525
 488   1 H      0.262  0.738  0.000  0.000     0.837     1.433
 489   1 H      0.239  0.761  0.000  0.000     0.928     1.509
 490   7 N     -0.182  1.254  3.928  0.000    24.942     7.417
 491   6 C      0.011  1.080  2.908  0.000    20.401     6.433
 492   6 C      0.374  1.024  2.602  0.000    20.667     7.440
 493   8 O     -0.629  1.757  4.872  0.000    26.852     6.948
 494   6 C      0.131  1.041  2.828  0.000    18.546     6.149
 495   8 O     -0.463  1.699  4.764  0.000    22.119     6.349
 496   6 C     -0.114  1.040  3.074  0.000    22.739     6.800
 497   8 O     -0.649  1.786  4.864  0.000    27.367     7.014
 498   1 H      0.207  0.793  0.000  0.000     1.070     1.620
 499   1 H      0.041  0.959  0.000  0.000     2.440     2.443
 500   1 H     -0.012  1.012  0.000  0.000     3.275     2.830
 501   1 H      0.315  0.685  0.000  0.000     0.678     1.293
 502   1 H      0.064  0.936  0.000  0.000     2.155     2.295
 503   1 H      0.017  0.983  0.000  0.000     2.777     2.606
 504   1 H      0.078  0.922  0.000  0.000     2.001     2.212
 505   7 N     -0.137  1.222  3.915  0.000    23.952     7.269
 506   6 C     -0.098  1.072  3.025  0.000    22.462     6.765
 507   6 C      0.279  1.028  2.693  0.000    22.283     7.729
 508   8 O     -0.415  1.747  4.667  0.000    21.973     6.285
 509   1 H      0.314  0.686  0.000  0.000     0.674     1.286
 510   1 H      0.296  0.704  0.000  0.000     0.725     1.334
 511   1 H      0.296  0.704  0.000  0.000     0.726     1.335
 512   1 H      0.141  0.859  0.000  0.000     1.451     1.884
 513   1 H      0.154  0.846  0.000  0.000     1.362     1.825
 514   7 N     -0.177  1.244  3.933  0.000    24.828     7.400
 515   6 C      0.003  1.071  2.926  0.000    20.544     6.455
 516   6 C      0.280  1.040  2.681  0.000    22.270     7.728
 517   8 O     -0.445  1.768  4.677  0.000    22.598     6.374
 518   6 C     -0.063  1.048  3.016  0.000    21.713     6.633
 519   6 C     -0.107  1.060  3.047  0.000    22.537     6.758
 520   6 C      0.291  1.038  2.672  0.000    22.069     7.692
 521   8 O     -0.509  1.756  4.753  0.000    23.982     6.566
 522   7 N     -0.294  1.267  4.027  0.000    27.586     7.800
 523   1 H      0.198  0.802  0.000  0.000     1.116     1.655
 524   1 H      0.081  0.919  0.000  0.000     1.969     2.194
 525   1 H      0.077  0.923  0.000  0.000     2.007     2.215
 526   1 H      0.065  0.935  0.000  0.000     2.136     2.286
 527   1 H      0.070  0.930  0.000  0.000     2.084     2.258
 528   1 H      0.094  0.906  0.000  0.000     1.837     2.119
 529   1 H      0.231  0.769  0.000  0.000     0.960     1.535
 530   1 H      0.229  0.771  0.000  0.000     0.969     1.542
 531   7 N     -0.222  1.269  3.953  0.000    25.838     7.549
 532   6 C      0.012  1.065  2.923  0.000    20.388     6.430
 533   6 C      0.272  1.046  2.682  0.000    22.402     7.751
 534   8 O     -0.476  1.756  4.720  0.000    23.265     6.467
 535   6 C      0.103  1.051  2.846  0.000    18.976     6.220
 536   8 O     -0.472  1.710  4.763  0.000    22.298     6.375
 537   6 C     -0.137  1.042  3.095  0.000    23.197     6.868
 538   1 H      0.242  0.758  0.000  0.000     0.916     1.499
 539   1 H      0.069  0.931  0.000  0.000     2.100     2.266
 540   1 H      0.059  0.941  0.000  0.000     2.213     2.327
 541   1 H      0.351  0.649  0.000  0.000     0.585     1.202
 542   1 H      0.075  0.925  0.000  0.000     2.028     2.227
 543   1 H      0.055  0.945  0.000  0.000     2.257     2.349
 544   1 H      0.056  0.944  0.000  0.000     2.247     2.344
 545   7 N     -0.187  1.256  3.932  0.000    25.061     7.435
 546   6 C      0.012  1.071  2.917  0.000    20.385     6.430
 547   6 C      0.297  1.039  2.664  0.000    21.954     7.674
 548   8 O     -0.488  1.733  4.755  0.000    23.520     6.502
 549   6 C     -0.040  1.074  2.966  0.000    21.249     6.557
 550   6 C     -0.071  1.053  3.018  0.000    21.859     6.656
 551   6 C     -0.131  1.042  3.089  0.000    23.066     6.848
 552   6 C     -0.118  1.036  3.083  0.000    22.831     6.814
 553   1 H      0.215  0.785  0.000  0.000     1.033     1.592
 554   1 H      0.082  0.918  0.000  0.000     1.956     2.187
 555   1 H      0.073  0.927  0.000  0.000     2.058     2.243
 556   1 H      0.062  0.938  0.000  0.000     2.179     2.308
 557   1 H      0.034  0.966  0.000  0.000     2.534     2.489
 558   1 H      0.074  0.926  0.000  0.000     2.040     2.234
 559   1 H      0.048  0.952  0.000  0.000     2.347     2.395
 560   1 H      0.044  0.956  0.000  0.000     2.393     2.419
 561   1 H      0.044  0.956  0.000  0.000     2.401     2.423
 562   1 H      0.047  0.953  0.000  0.000     2.358     2.401
 563   1 H      0.041  0.959  0.000  0.000     2.441     2.443
 564   7 N     -0.182  1.250  3.932  0.000    24.938     7.417
 565   6 C      0.050  1.053  2.896  0.000    19.721     6.321
 566   6 C      0.217  1.086  2.697  0.000    23.412     7.924
 567   8 O     -0.378  1.749  4.629  0.000    21.239     6.179
 568   6 C     -0.102  1.070  3.032  0.000    22.441     6.744
 569   6 C      0.372  1.020  2.608  0.000    20.690     7.444
 570   8 O     -0.640  1.776  4.864  0.000    27.133     6.984
 571   8 O     -0.618  1.766  4.852  0.000    26.560     6.910
 572   1 H      0.218  0.782  0.000  0.000     1.020     1.582
 573   1 H      0.077  0.923  0.000  0.000     2.006     2.215
 574   1 H      0.041  0.959  0.000  0.000     2.440     2.443
 575   1 H      0.055  0.945  0.000  0.000     2.254     2.348
 576   7 N     -0.413  1.319  4.095  0.000    30.744     8.235
 577   6 C      0.041  1.057  2.902  0.000    19.897     6.353
 578   6 C      0.267  1.050  2.683  0.000    22.495     7.767
 579   8 O     -0.486  1.739  4.746  0.000    23.471     6.496
 580   6 C     -0.073  1.058  3.015  0.000    21.884     6.659
 581   6 C     -0.010  1.056  2.953  0.000    20.715     6.474
 582   6 C     -0.125  1.044  3.082  0.000    22.952     6.830
 583   6 C     -0.119  1.044  3.076  0.000    22.840     6.814
 584   1 H      0.180  0.820  0.000  0.000     1.216     1.727
 585   1 H      0.034  0.966  0.000  0.000     2.527     2.486
 586   1 H      0.040  0.960  0.000  0.000     2.455     2.450
 587   1 H      0.042  0.958  0.000  0.000     2.422     2.434
 588   1 H      0.027  0.973  0.000  0.000     2.631     2.537
 589   1 H      0.052  0.948  0.000  0.000     2.289     2.366
 590   1 H      0.027  0.973  0.000  0.000     2.625     2.534
 591   1 H      0.050  0.950  0.000  0.000     2.325     2.385
 592   1 H      0.048  0.952  0.000  0.000     2.340     2.392
 593   1 H      0.042  0.958  0.000  0.000     2.423     2.434
 594   1 H      0.039  0.961  0.000  0.000     2.462     2.454
 595   7 N     -0.196  1.258  3.938  0.000    25.260     7.464
 596   6 C      0.034  1.057  2.909  0.000    20.007     6.370
 597   6 C      0.209  1.083  2.708  0.000    23.563     7.950
 598   8 O     -0.354  1.747  4.607  0.000    20.778     6.111
 599   6 C      0.077  1.040  2.883  0.000    19.511     6.329
 600   8 O     -0.477  1.719  4.758  0.000    22.400     6.389
 601   1 H      0.237  0.763  0.000  0.000     0.937     1.517
 602   1 H      0.089  0.911  0.000  0.000     1.887     2.148
 603   1 H      0.053  0.947  0.000  0.000     2.280     2.361
 604   1 H      0.036  0.964  0.000  0.000     2.500     2.473
 605   1 H      0.357  0.643  0.000  0.000     0.571     1.187
 606   7 N     -0.391  1.319  4.071  0.000    30.111     8.150
 607   6 C      0.035  1.063  2.902  0.000    20.001     6.370
 608   6 C      0.211  1.090  2.699  0.000    23.522     7.943
 609   8 O     -0.384  1.744  4.640  0.000    21.366     6.197
 610   6 C     -0.024  1.067  2.956  0.000    20.962     6.512
 611   6 C     -0.057  1.052  3.006  0.000    21.604     6.617
 612   6 C     -0.117  1.041  3.075  0.000    22.792     6.807
 613   6 C     -0.103  1.034  3.069  0.000    22.528     6.769
 614   1 H      0.156  0.844  0.000  0.000     1.359     1.826
 615   1 H      0.057  0.943  0.000  0.000     2.238     2.340
 616   1 H      0.056  0.944  0.000  0.000     2.249     2.345
 617   1 H      0.041  0.959  0.000  0.000     2.436     2.441
 618   1 H      0.032  0.968  0.000  0.000     2.563     2.503
 619   1 H      0.056  0.944  0.000  0.000     2.252     2.347
 620   1 H      0.030  0.970  0.000  0.000     2.580     2.512
 621   1 H      0.048  0.952  0.000  0.000     2.345     2.395
 622   1 H      0.038  0.962  0.000  0.000     2.476     2.461
 623   1 H      0.023  0.977  0.000  0.000     2.692     2.566
 624   1 H      0.042  0.958  0.000  0.000     2.428     2.437
 625   1 H      0.178  0.822  0.000  0.000     1.224     1.733
 626   1 H      0.092  0.908  0.000  0.000     1.856     2.130
 627   1 H      0.193  0.807  0.000  0.000     1.145     1.676
 628   1 H      0.080  0.920  0.000  0.000     1.977     2.198
 629   1 H      0.180  0.820  0.000  0.000     1.214     1.726
 630   1 H      0.082  0.918  0.000  0.000     1.953     2.185
 631   1 H      0.181  0.819  0.000  0.000     1.206     1.720
 632   1 H      0.092  0.908  0.000  0.000     1.862     2.134
 633   1 H      0.181  0.819  0.000  0.000     1.206     1.720
 634   1 H      0.084  0.916  0.000  0.000     1.936     2.176
 635   1 H      0.195  0.805  0.000  0.000     1.133     1.667
 636   1 H      0.088  0.912  0.000  0.000     1.900     2.155
 637   1 H      0.187  0.813  0.000  0.000     1.174     1.697
 638   1 H      0.069  0.931  0.000  0.000     2.096     2.264
 639   1 H      0.181  0.819  0.000  0.000     1.211     1.723
 640   1 H      0.058  0.942  0.000  0.000     2.227     2.334
 641   1 H      0.164  0.836  0.000  0.000     1.308     1.791
 642   1 H      0.064  0.936  0.000  0.000     2.157     2.296
 643   1 H      0.182  0.818  0.000  0.000     1.204     1.718
 644   1 H      0.060  0.940  0.000  0.000     2.199     2.319

 Mol. C6AA /au·bohr⁶  :    3920086.362850
 Mol. C8AA /au·bohr⁸  :   88298256.757897
 Mol. α(0) /au        :       2976.045680

 
molecular dipole:
                 x           y           z       tot (Debye)
 q only:     -119.420     -85.375      21.330
   full:     -119.108     -84.056      20.920     374.343
molecular quadrupole (traceless):
                xx          xy          yy          xz          yz          zz
 q only:   -12084.727  -14416.834   -1059.072    3023.807    2196.106   13143.799
  q+dip:   -12144.039  -14142.675    -853.370    2981.542    2211.484   12997.409
   full:   -12143.032  -14140.767    -843.836    2983.327    2210.698   12986.868
speedup  1.00
cpu  time for grad   30.17 s
wall time for grad   30.17 s

SCC energy    :   -1006.9073033
rep           :      12.2201199
ES            :       3.3017533
AES           :      -0.1174020
AXC           :       0.3315181
disp          :      -0.9028306
XB            :       0.0000000
fix           :       0.0000000
Gborn         :       0.0000000
Gsasa         :       0.0000000
Ghb           :       0.0000000
Gshift        :       0.0000000
Gsolv         :      -0.9234921     -579.50
Etot ala COSMO:   -1006.9073033
grad norm     :       0.7075867
total E       :    -994.5953770
atomizationE  :     181.5260484   113909.32
(atE without considering molecular charge,
 total energy contains solvation terms)
H-L gap (eV)  :          1.2628

------------------------------------------------------------------------
 * finished run on 2019/03/14 at 15:08:53.179     
------------------------------------------------------------------------
 total:
 * wall-time:     0 d,  0 h,  0 min, 31.719 sec
 *  cpu-time:     0 d,  0 h,  0 min, 31.584 sec
 * ratio c/w:     0.996 speedup
 SCF:
 * wall-time:     0 d,  0 h,  0 min, 31.184 sec
 *  cpu-time:     0 d,  0 h,  0 min, 31.181 sec
 * ratio c/w:     1.000 speedup

