      -----------------------------------------------------------      
     |                   =====================                   |     
     |                           x T B                           |     
     |                   =====================                   |     
     |                         S. Grimme                         |     
     |          Mulliken Center for Theoretical Chemistry        |     
     |                    University of Bonn                     |     
     |                 Version 6.0.1 (SAW181210)                 |     
      -----------------------------------------------------------      

   This program is distributed in the hope that it will be useful,
   but WITHOUT ANY WARRANTY; without even the implied warranty of
   MERCHANTABILITY or FITNESS FOR A PARTICULAR PURPOSE.
   
   FOR NON-COMMERCIAL, ACADEMIA USE ONLY.
   
   Cite this work as:
   S. Grimme, C. Bannwarth, P. Shushkov, J. Comput. Theory Chem., 2017,
   13, 1989-2009.
   C. Bannwarth, S. Ehlert and S. Grimme., ChemRxiv, 2018, preprint.
   http://doi.org/10.26434/chemrxiv.7246238.v1
   
   for sTDA-xTB:
   S. Grimme and C. Bannwarth, J. Chem. Phys., 2016, 145, 054103.
   
   in the mass-spec context:
   V. Asgeirsson, C. Bauer and S. Grimme, Chem. Sci., 2017, 8, 4879.
   
   if GBSA is used:
   P. Shushkov, F. März and S. Grimme, unpublished.
   
   for ANC optimizer:
   S. Grimme, unpublished.
   Rational Function algorithm used in ANCopt:
   F. Eckert, P. Pulay, H.-J. Werner, J. Comput. Chem., 1997, 18, 1473.
   
   with help from (in alphabetical order)
   C. Bannwarth, F. Bohle, G. Brandenburg, E. Caldeweyher, M. Checinski,
   S. Dohm, S. Ehlert, S. Ehrlich, F. März, H. Neugebauer, J. Pisarek,
   P. Pracht, P. Shushkov, and S. Spicher.
   
 * started run on 2019/03/15 at 00:15:17.741     
========================================================================
 # omp threads = 1
========================================================================
number of atoms            : 436
number of electrons        : 1228
charge                     : -1
spin                       : .0
first test random number   : .3570
           ------------------------------------------------- 
          |                 G F N 2 - x T B                 |
          | Geometry, Frequencies, Noncovalent interactions |
          |            JCTC 2018 parametrisation            |
           ------------------------------------------------- 
 
      method parameters     
 k(s)        :  1.8500
 k(p)        :  2.2300
 k(d)        :  2.2300
 k(f)        :  2.0000
 kEN (H0ij)  : -2.0000
 D4 a1       :  0.5200
 D4 a2       :  5.0000
 D4 s6       :  1.0000
 D4 s8       :  2.7000
 D4 s9       :  5.0000
 alphaj      :  2.0000

 Solvent             : h2o
 Using internal parameter file: .param_gbsa2_h2o
 Gsolv ref. state (COSMO-RS): gsolv [1 M gas/solution]
 temperature (mdtemp)       :    298.150000000000     
 dielectric constant        :    80.2000000000000     
 rho                        :    1.00000000000000     
 mass                       :    18.0000000000000     
 surface tension            :    15.5689454083859     
 probe radius               :   0.975313790000000     
 vdW radii scaling          :    1.00000000000000     
 Gshift (Eh)                :   1.857443126794793E-003
 c1                         :    1.55243817000000     
 soset                      :   0.130326360000000     
 HB correction              :  T

            Z     q(EN)     CN     RAES       Cart. coordinates
     1  N   5.0   -0.22    3.29    1.98    41.67939    28.25575    28.69049
     2  C   4.0    0.02    4.44    4.44    39.36101    29.63299    28.92812
     3  C   4.0    0.15    3.51    3.12    38.79482    29.84687    31.70293
     4  O   6.0   -0.31    1.30    1.80    38.46176    31.90306    32.69006
     5  C   4.0   -0.05    4.42    4.42    37.29621    28.72130    27.20590
     6  C   4.0   -0.02    3.65    3.20    37.23119    29.90310    24.67792
     7  C   4.0   -0.05    3.59    3.16    38.15563    28.70624    22.56032
     8  C   4.0   -0.04    3.59    3.16    36.36702    32.33228    24.33297
     9  C   4.0   -0.05    3.49    3.11    38.23609    29.84475    20.29797
    10  C   4.0   -0.04    3.48    3.11    36.45038    33.47399    22.06309
    11  C   4.0   -0.04    3.49    3.11    37.38952    32.24086    20.03074
    12  H   1.0    0.08    1.07    1.44    41.42298    26.53300    28.43943
    13  H   1.0    0.05    1.14    1.45    39.55421    31.44912    28.27818
    14  H   1.0    0.04    1.09    1.44    37.47028    26.81610    27.00223
    15  H   1.0    0.04    1.08    1.44    35.58952    28.98551    28.06267
    16  H   1.0    0.05    1.08    1.44    38.78503    26.91658    22.77073
    17  H   1.0    0.05    1.08    1.44    35.66544    33.22999    25.86544
    18  H   1.0    0.05    1.07    1.44    38.93627    28.90161    18.78231
    19  H   1.0    0.05    1.07    1.44    35.80707    35.27102    21.87384
    20  H   1.0    0.06    1.07    1.44    37.45855    33.09873    18.31737
    21  N   5.0   -0.16    3.80    2.42    38.65633    27.76916    33.01583
    22  C   4.0    0.04    4.49    4.53    38.04176    27.76650    35.63835
    23  C   4.0    0.08    3.20    3.04    39.85233    28.59215    37.73304
    24  O   6.0   -0.28    1.12    1.80    39.12202    28.74686    39.91907
    25  C   4.0   -0.04    4.55    4.60    36.96397    25.19233    36.07849
    26  C   4.0   -0.03    4.45    4.47    35.78862    24.02764    33.75712
    27  C   4.0   -0.09    4.25    4.10    34.20031    21.81609    34.38882
    28  C   4.0   -0.08    4.40    4.39    34.26822    25.92947    32.38305
    29  H   1.0    0.07    1.18    1.46    38.85899    26.15862    32.33434
    30  H   1.0    0.07    1.15    1.45    36.89589    29.32555    35.83406
    31  H   1.0    0.04    1.08    1.44    38.35808    24.03811    36.76548
    32  H   1.0    0.06    1.08    1.44    35.64015    25.24485    37.48091
    33  H   1.0    0.03    1.13    1.45    37.23881    23.43669    32.60408
    34  H   1.0    0.04    1.04    1.43    33.42820    21.03431    32.81443
    35  H   1.0    0.04    1.04    1.43    35.20897    20.45518    35.28810
    36  H   1.0    0.04    1.05    1.44    32.76118    22.34784    35.54389
    37  H   1.0    0.03    1.04    1.43    33.50328    25.19909    30.78597
    38  H   1.0    0.06    1.05    1.44    32.84070    26.56102    33.49715
    39  H   1.0    0.05    1.14    1.45    35.32108    27.44810    31.87959
    40  N   5.0   -0.20    3.34    2.00    39.26208    41.97055    35.97001
    41  C   4.0    0.03    4.41    4.40    37.18533    43.70671    35.77240
    42  C   4.0    0.07    3.24    3.04    37.31861    45.83660    37.67490
    43  O   6.0   -0.29    1.15    1.80    37.90961    45.38699    39.81189
    44  C   4.0   -0.04    4.49    4.52    34.74625    42.34683    36.11129
    45  C   4.0   -0.03    3.97    3.57    34.73297    40.26892    34.37476
    46  C   4.0   -0.01    3.86    3.40    35.81920    38.03386    34.66647
    47  C   4.0    0.00    4.08    3.76    34.08556    40.44806    31.79376
    48  N   5.0   -0.12    3.63    2.19    35.92877    36.81417    32.55341
    49  C   4.0    0.03    4.06    3.73    34.88942    38.18612    30.68188
    50  C   4.0   -0.05    3.54    3.13    32.94491    42.21631    30.25760
    51  C   4.0   -0.05    3.53    3.13    34.52529    37.78389    28.14333
    52  C   4.0   -0.04    3.52    3.12    32.63520    41.75117    27.83223
    53  C   4.0   -0.05    3.52    3.12    33.42131    39.54537    26.78367
    54  H   1.0    0.09    1.12    1.45    38.78721    40.28383    36.13404
    55  H   1.0    0.03    1.11    1.45    37.32841    44.48256    34.00199
    56  H   1.0    0.05    1.08    1.44    34.56097    41.72257    37.92337
    57  H   1.0    0.03    1.08    1.44    33.23392    43.49576    35.80670
    58  H   1.0    0.05    1.06    1.44    36.46237    37.39087    36.34945
    59  H   1.0    0.10    1.12    1.45    36.63042    35.19619    32.30047
    60  H   1.0    0.05    1.08    1.44    32.36343    43.85372    31.04105
    61  H   1.0    0.05    1.08    1.44    35.11710    36.14039    27.38599
    62  H   1.0    0.05    1.08    1.44    31.79468    43.05859    26.71680
    63  H   1.0    0.05    1.08    1.44    33.15077    39.25111    24.91382
    64  N   5.0   -0.22    3.25    1.97    33.62851    36.90344    42.58353
    65  C   4.0    0.04    4.41    4.40    30.95675    37.20358    42.60151
    66  C   4.0    0.15    3.54    3.13    29.58767    34.85345    41.71263
    67  O   6.0   -0.29    1.24    1.80    28.69881    33.35138    43.23744
    68  C   4.0    0.02    4.33    4.25    30.07970    39.45864    41.12520
    69  O   6.0   -0.27    2.13    1.84    27.47601    39.43476    40.86787
    70  H   1.0    0.10    1.07    1.44    34.25049    36.19655    41.09953
    71  H   1.0    0.06    1.11    1.45    30.47957    37.49268    44.46222
    72  H   1.0    0.04    1.05    1.44    30.66637    41.09046    41.98009
    73  H   1.0    0.03    1.08    1.44    30.95995    39.46788    39.40596
    74  H   1.0    0.12    1.06    1.44    27.04383    40.39617    39.52401
    75  N   5.0   -0.10    3.74    2.32    29.43589    34.47396    39.21352
    76  C   4.0    0.04    4.66    4.72    28.14579    32.21296    38.31424
    77  C   4.0    0.09    3.26    3.04    29.60335    29.78217    38.86518
    78  O   6.0   -0.31    1.17    1.80    30.74953    28.74317    37.17133
    79  C   4.0   -0.04    4.56    4.61    27.92599    32.66363    35.55995
    80  C   4.0   -0.04    4.48    4.50    30.41600    33.81198    35.00532
    81  C   4.0   -0.02    4.52    4.57    30.72361    35.66146    37.09277
    82  H   1.0    0.06    1.10    1.44    26.44518    31.95228    39.21743
    83  H   1.0    0.05    1.07    1.44    27.55117    31.04724    34.55663
    84  H   1.0    0.04    1.08    1.44    26.45325    33.83921    35.10170
    85  H   1.0    0.06    1.07    1.44    31.82692    32.47525    34.99804
    86  H   1.0    0.04    1.06    1.44    30.51862    34.60768    33.24102
    87  H   1.0    0.04    1.07    1.44    32.57764    36.06134    37.49744
    88  H   1.0    0.04    1.07    1.44    29.95792    37.38964    36.64855
    89  N   5.0   -0.20    3.26    1.97    18.93982    27.45163    40.74956
    90  C   4.0    0.03    4.39    4.37    18.59885    28.32027    38.18532
    91  C   4.0    0.16    3.45    3.10    19.70089    30.96918    37.91690
    92  O   6.0   -0.28    1.28    1.80    20.59426    32.04931    39.72700
    93  C   4.0   -0.05    4.41    4.40    15.89763    28.31143    37.32693
    94  C   4.0   -0.04    4.38    4.34    15.49549    28.71437    34.59522
    95  C   4.0   -0.01    4.34    4.27    12.84268    28.97285    33.74424
    96  N   5.0   -0.14    3.55    2.12    12.49329    28.77404    31.05806
    97  C   4.0    0.10    3.44    3.09    10.34747    28.97965    29.74296
    98  N   5.0   -0.19    3.47    2.06     8.40863    29.41808    30.91451
    99  N   5.0   -0.18    3.43    2.03    10.35968    28.75836    27.45880
   100  H   1.0    0.09    1.06    1.44    17.48032    26.79084    41.47882
   101  H   1.0    0.05    1.11    1.44    19.58481    27.09915    37.03876
   102  H   1.0    0.04    1.08    1.44    15.06607    26.64619    37.83988
   103  H   1.0    0.05    1.08    1.44    14.93359    29.66662    38.30606
   104  H   1.0    0.05    1.14    1.45    16.47621    30.28187    34.05330
   105  H   1.0    0.07    1.08    1.44    16.33259    27.26763    33.62234
   106  H   1.0    0.04    1.08    1.44    11.76203    27.64360    34.62804
   107  H   1.0    0.04    1.09    1.44    12.12840    30.65831    34.35567
   108  H   1.0    0.11    1.13    1.45    13.96891    28.43291    30.14665
   109  H   1.0    0.08    1.07    1.44     8.26676    29.60871    32.71438
   110  H   1.0    0.08    1.07    1.44     6.78299    29.60348    30.15591
   111  H   1.0    0.11    1.07    1.44    11.81532    28.40575    26.42181
   112  H   1.0    0.09    1.07    1.44     8.89585    28.88800    26.40751
   113  N   5.0   -0.15    3.56    2.13    19.59602    32.09734    35.67878
   114  C   4.0    0.03    4.52    4.56    20.53063    34.60402    35.19415
   115  C   4.0    0.15    3.57    3.15    18.63607    36.61712    35.99535
   116  O   6.0   -0.29    1.37    1.80    16.46930    36.44317    35.18447
   117  C   4.0   -0.04    4.46    4.47    21.15806    34.96739    32.46775
   118  C   4.0   -0.02    3.67    3.21    22.58179    37.29106    31.80830
   119  C   4.0   -0.05    3.64    3.19    24.92093    37.80302    32.80136
   120  C   4.0   -0.03    3.65    3.20    21.74753    38.96910    30.02689
   121  C   4.0   -0.05    3.52    3.12    26.29015    39.77416    32.05909
   122  C   4.0   -0.02    3.54    3.13    23.12842    40.93561    29.29084
   123  C   4.0   -0.03    3.53    3.13    25.41016    41.35276    30.29231
   124  H   1.0    0.09    1.15    1.45    18.90144    31.31905    34.26357
   125  H   1.0    0.05    1.12    1.45    22.13137    34.82333    36.26073
   126  H   1.0    0.05    1.08    1.44    22.14551    33.43261    31.83348
   127  H   1.0    0.05    1.09    1.44    19.51132    34.93303    31.46017
   128  H   1.0    0.04    1.09    1.44    25.57734    36.61179    34.13413
   129  H   1.0    0.05    1.12    1.45    20.02509    38.65214    29.28620
   130  H   1.0    0.05    1.08    1.44    28.01526    40.08187    32.83048
   131  H   1.0    0.09    1.10    1.44    22.44784    42.13006    27.95672
   132  H   1.0    0.07    1.08    1.44    26.45964    42.84950    29.72395
   133  N   5.0   -0.09    3.70    2.26    19.37416    38.50619    37.52214
   134  C   4.0    0.04    4.71    4.77    17.61701    40.50026    38.29578
   135  C   4.0    0.17    3.50    3.12    15.60082    41.01203    36.30851
   136  O   6.0   -0.28    1.35    1.80    16.07906    40.80342    34.08940
   137  C   4.0   -0.04    4.52    4.57    19.32736    42.66467    38.85305
   138  C   4.0   -0.04    4.46    4.48    21.51129    41.42588    39.97168
   139  C   4.0   -0.01    4.50    4.53    21.90831    39.20268    38.32684
   140  H   1.0    0.05    1.11    1.44    16.58846    40.00954    39.87097
   141  H   1.0    0.07    1.07    1.44    19.79031    43.63506    37.24031
   142  H   1.0    0.06    1.07    1.44    18.52091    44.00263    39.99711
   143  H   1.0    0.04    1.08    1.44    23.05263    42.58591    40.08039
   144  H   1.0    0.05    1.07    1.44    21.16711    40.92081    41.81119
   145  H   1.0    0.04    1.07    1.44    23.05617    39.60946    36.81480
   146  H   1.0    0.05    1.06    1.44    22.81225    37.74023    39.22354
   147  N   5.0   -0.15    3.53    2.10    13.33111    41.74227    37.11822
   148  C   4.0    0.04    4.49    4.52    11.18652    42.15967    35.49969
   149  C   4.0    0.16    3.42    3.08    10.68643    44.70941    34.22787
   150  O   6.0   -0.29    1.25    1.80     9.27504    44.81621    32.42001
   151  C   4.0   -0.03    4.38    4.35     8.80542    41.27898    36.77090
   152  C   4.0    0.25    3.17    3.03     8.44537    42.35248    39.40929
   153  O   6.0   -0.29    1.25    1.80    10.19140    42.01397    40.96491
   154  O   6.0   -0.28    1.17    1.80     6.46622    43.51825    39.88975
   155  H   1.0    0.11    1.16    1.46    12.96600    42.01018    38.81995
   156  H   1.0    0.07    1.14    1.45    11.73296    41.11980    33.95202
   157  H   1.0    0.06    1.08    1.44     7.26551    41.73768    35.69972
   158  H   1.0    0.05    1.07    1.44     8.77549    39.35301    36.87775
   159  N   5.0   -0.13    3.47    2.06    11.79746    46.75460    35.14647
   160  C   4.0    0.04    4.47    4.49    11.46691    49.26667    34.14836
   161  C   4.0    0.16    3.45    3.09    13.83285    50.44759    32.98220
   162  O   6.0   -0.27    1.29    1.80    14.13741    50.59201    30.73124
   163  C   4.0    0.03    4.28    4.16    10.30864    51.04250    36.04834
   164  O   6.0   -0.25    2.08    1.84     7.68856    50.94947    36.08775
   165  H   1.0    0.10    1.11    1.45    12.87485    46.69131    36.53600
   166  H   1.0    0.08    1.13    1.45    10.22735    49.00006    32.67751
   167  H   1.0    0.05    1.06    1.44    11.02664    50.62812    37.79802
   168  H   1.0    0.04    1.06    1.44    10.91109    52.84894    35.69323
   169  H   1.0    0.13    1.06    1.44     7.10737    52.03391    37.27016
   170  N   5.0   -0.14    3.56    2.12    15.47676    51.35453    34.63961
   171  C   4.0    0.03    4.50    4.53    17.84169    52.54469    34.03158
   172  C   4.0    0.17    3.50    3.11    19.32777    51.21171    31.95032
   173  O   6.0   -0.26    1.32    1.80    18.52855    49.42079    30.84018
   174  C   4.0   -0.04    4.41    4.39    19.46634    52.84025    36.33185
   175  C   4.0    0.26    3.16    3.03    20.23584    50.33145    37.51726
   176  O   6.0   -0.30    1.19    1.80    18.53036    48.99624    38.44372
   177  O   6.0   -0.31    1.20    1.80    22.50586    49.73919    37.47925
   178  H   1.0    0.09    1.13    1.45    15.20912    51.23718    36.37374
   179  H   1.0    0.04    1.11    1.45    17.31845    54.26246    33.28795
   180  H   1.0    0.04    1.08    1.44    21.05937    53.84176    35.90091
   181  H   1.0    0.04    1.07    1.44    18.55934    53.91143    37.65739
   182  N   5.0   -0.15    3.58    2.14    21.61452    52.18551    31.47249
   183  C   4.0    0.04    4.52    4.56    23.31788    51.20438    29.63818
   184  C   4.0    0.16    3.44    3.09    25.72541    50.04120    30.76455
   185  O   6.0   -0.29    1.36    1.80    25.75929    47.90076    31.45764
   186  C   4.0   -0.04    4.44    4.45    23.80987    53.13285    27.62726
   187  C   4.0   -0.01    3.61    3.17    21.59252    53.79410    25.99809
   188  C   4.0   -0.03    3.59    3.16    19.31620    54.55422    27.03626
   189  C   4.0   -0.04    3.56    3.14    21.66267    53.63391    23.37938
   190  C   4.0   -0.04    3.47    3.10    17.29332    55.08910    25.57473
   191  C   4.0   -0.05    3.46    3.10    19.63864    54.17505    21.91838
   192  C   4.0   -0.05    3.47    3.10    17.43858    54.90645    23.01293
   193  H   1.0    0.08    1.11    1.45    22.24539    53.59239    32.31766
   194  H   1.0    0.08    1.13    1.45    22.41525    49.68534    28.83366
   195  H   1.0    0.04    1.08    1.44    24.48180    54.73241    28.47629
   196  H   1.0    0.04    1.08    1.44    25.26318    52.52701    26.50778
   197  H   1.0    0.06    1.10    1.44    19.21736    54.69031    28.93696
   198  H   1.0    0.05    1.07    1.44    23.30946    53.08858    22.58067
   199  H   1.0    0.06    1.07    1.44    15.65257    55.63045    26.40757
   200  H   1.0    0.05    1.07    1.44    19.76880    54.03205    20.00883
   201  H   1.0    0.05    1.07    1.44    15.91227    55.31706    21.92468
   202  N   5.0   -0.15    3.51    2.08    27.73418    51.56871    30.91306
   203  C   4.0    0.03    4.38    4.35    30.18552    50.83459    31.88821
   204  C   4.0    0.07    3.22    3.04    32.16644    50.71741    29.82635
   205  O   6.0   -0.29    1.14    1.80    31.70121    49.71585    27.82495
   206  C   4.0   -0.04    4.48    4.51    30.06895    48.36616    33.32270
   207  C   4.0   -0.04    4.35    4.30    28.66844    48.44003    35.77220
   208  C   4.0   -0.04    4.32    4.24    27.66732    45.97369    36.64676
   209  C   4.0   -0.03    4.30    4.19    26.45086    46.04492    39.18408
   210  N   5.0   -0.14    4.16    3.33    28.09158    46.67791    41.15220
   211  H   1.0    0.08    1.11    1.45    27.66230    53.23811    30.36585
   212  H   1.0    0.03    1.11    1.44    30.70454    52.20579    33.16070
   213  H   1.0    0.07    1.12    1.45    29.24354    47.03863    32.18725
   214  H   1.0    0.03    1.07    1.44    31.85760    47.70104    33.62443
   215  H   1.0    0.04    1.08    1.44    29.81311    49.17099    37.14043
   216  H   1.0    0.07    1.08    1.44    27.21789    49.71048    35.63703
   217  H   1.0    0.06    1.08    1.44    26.44111    45.29313    35.30777
   218  H   1.0    0.03    1.08    1.44    29.10853    44.68346    36.67100
   219  H   1.0    0.07    1.10    1.44    24.96184    47.29703    39.12399
   220  H   1.0    0.04    1.08    1.44    25.59784    44.34059    39.55907
   221  H   1.0    0.06    1.07    1.44    27.39423    46.41712    42.80702
   222  H   1.0    0.06    1.07    1.44    29.62515    45.71982    41.10259
   223  H   1.0    0.06    1.07    1.44    28.59270    48.41866    41.10251
   224  N   5.0   -0.22    3.25    1.97    27.22625    48.50377    22.65395
   225  C   4.0    0.03    4.40    4.39    25.79576    46.25010    22.19994
   226  C   4.0    0.16    3.55    3.14    23.39096    46.01339    23.75919
   227  O   6.0   -0.30    1.37    1.80    23.50618    45.12324    25.83950
   228  C   4.0   -0.03    4.52    4.57    27.35189    43.96650    22.79313
   229  C   4.0   -0.02    3.66    3.21    29.35360    43.20512    21.00374
   230  C   4.0   -0.05    3.61    3.17    31.86412    43.39938    21.59950
   231  C   4.0   -0.04    3.60    3.17    28.80972    42.22990    18.67014
   232  C   4.0   -0.04    3.56    3.14    33.66568    42.69488    20.03090
   233  C   4.0   -0.05    3.56    3.15    30.59527    41.50703    17.07372
   234  C   4.0    0.07    3.56    3.15    33.09755    41.71502    17.70630
   235  O   6.0   -0.26    2.14    1.85    35.01735    40.98199    16.15036
   236  H   1.0    0.10    1.07    1.44    26.58594    49.50493    23.94544
   237  H   1.0    0.04    1.11    1.45    25.35517    46.34759    20.31633
   238  H   1.0    0.05    1.09    1.44    28.15053    44.24789    24.52909
   239  H   1.0    0.05    1.09    1.44    26.15785    42.47021    23.04504
   240  H   1.0    0.05    1.09    1.44    32.31623    44.11915    23.30312
   241  H   1.0    0.06    1.09    1.44    26.97435    42.07046    18.17978
   242  H   1.0    0.06    1.08    1.44    35.50128    42.86132    20.51023
   243  H   1.0    0.05    1.08    1.44    30.14910    40.79256    15.36241
   244  H   1.0    0.13    1.08    1.44    34.33456    40.38281    14.70873
   245  N   5.0   -0.14    3.60    2.16    21.19394    46.79315    22.80773
   246  C   4.0    0.04    4.51    4.55    18.90301    46.43746    24.20629
   247  C   4.0    0.18    3.58    3.16    18.78106    43.53748    24.35579
   248  O   6.0   -0.29    1.37    1.80    20.06181    42.25722    22.92557
   249  C   4.0   -0.04    4.43    4.43    16.65214    47.59532    22.91072
   250  C   4.0    0.16    3.31    3.06    16.39635    46.96016    20.13306
   251  O   6.0   -0.30    1.27    1.80    16.51242    44.73379    19.47558
   252  N   5.0   -0.21    3.28    1.98    16.09419    48.73767    18.67711
   253  H   1.0    0.08    1.11    1.45    21.00402    47.51585    21.21569
   254  H   1.0    0.06    1.09    1.44    18.91901    47.29784    25.95729
   255  H   1.0    0.05    1.07    1.44    15.03956    47.06673    23.84260
   256  H   1.0    0.05    1.08    1.44    16.70613    49.51677    23.10869
   257  H   1.0    0.10    1.07    1.44    15.91718    48.55643    16.89869
   258  H   1.0    0.08    1.07    1.44    15.99893    50.46414    19.16600
   259  N   5.0   -0.16    3.48    2.07    17.26151    42.48367    26.01909
   260  C   4.0    0.03    4.53    4.58    17.03776    39.81328    26.36912
   261  C   4.0    0.16    3.49    3.11    16.55724    38.35770    23.92148
   262  O   6.0   -0.30    1.26    1.80    17.53867    36.30234    23.54418
   263  C   4.0   -0.05    4.41    4.40    15.37657    39.03786    28.53467
   264  C   4.0   -0.04    4.40    4.38    15.16490    36.28842    29.03235
   265  C   4.0   -0.01    4.37    4.34    12.82744    35.16820    27.99363
   266  N   5.0   -0.14    3.60    2.16    10.65082    36.01965    29.33095
   267  C   4.0    0.10    3.48    3.11    10.26728    35.72748    31.82931
   268  N   5.0   -0.17    3.59    2.15    11.79654    34.61622    33.02125
   269  N   5.0   -0.19    3.45    2.05     8.35188    36.57816    32.77921
   270  H   1.0    0.09    1.11    1.45    16.22722    43.41875    27.09209
   271  H   1.0    0.05    1.17    1.46    18.80514    39.22588    26.88868
   272  H   1.0    0.07    1.09    1.44    15.96602    39.93881    30.14447
   273  H   1.0    0.05    1.09    1.44    13.60405    39.72588    28.21558
   274  H   1.0    0.05    1.08    1.44    16.72708    35.39199    28.32577
   275  H   1.0    0.06    1.11    1.45    15.24383    35.94642    30.93505
   276  H   1.0    0.05    1.07    1.44    12.69727    35.58895    26.10766
   277  H   1.0    0.05    1.07    1.44    12.90013    33.23448    28.04312
   278  H   1.0    0.08    1.11    1.45     9.42387    36.88373    28.40040
   279  H   1.0    0.09    1.10    1.44    13.37053    33.90684    32.39769
   280  H   1.0    0.09    1.08    1.44    11.71610    34.31557    34.80718
   281  H   1.0    0.08    1.06    1.44     7.03212    37.50569    31.93651
   282  H   1.0    0.08    1.08    1.44     7.95348    36.44211    34.53566
   283  N   5.0   -0.14    3.53    2.10    15.03422    39.36038    22.22762
   284  C   4.0    0.05    4.49    4.52    14.49926    38.13696    19.87153
   285  C   4.0    0.16    3.42    3.08    16.70330    37.75315    18.01929
   286  O   6.0   -0.29    1.24    1.80    16.74771    35.99214    16.54197
   287  C   4.0    0.03    4.26    4.13    12.26752    39.36561    18.62314
   288  O   6.0   -0.26    2.09    1.84    10.08461    39.10635    20.05250
   289  H   1.0    0.10    1.12    1.45    14.22184    40.90325    22.44915
   290  H   1.0    0.07    1.13    1.45    14.09511    36.30909    20.38528
   291  H   1.0    0.05    1.06    1.44    12.66878    41.23655    18.32413
   292  H   1.0    0.05    1.06    1.44    12.01492    38.63766    16.84723
   293  H   1.0    0.13    1.06    1.44     8.79567    39.88764    19.25190
   294  N   5.0   -0.15    3.53    2.10    18.53154    39.44874    18.09506
   295  C   4.0    0.04    4.48    4.50    20.73133    39.36430    16.53027
   296  C   4.0    0.17    3.48    3.11    22.75913    37.61315    17.59442
   297  O   6.0   -0.30    1.27    1.80    23.89535    36.11643    16.27524
   298  C   4.0    0.03    4.26    4.11    21.85116    41.93916    16.03007
   299  O   6.0   -0.26    2.10    1.84    24.11075    41.81432    14.69524
   300  H   1.0    0.12    1.13    1.45    18.51324    40.81444    19.20601
   301  H   1.0    0.07    1.12    1.45    20.15427    38.61241    14.83398
   302  H   1.0    0.05    1.05    1.44    20.56804    43.04222    15.08924
   303  H   1.0    0.05    1.06    1.44    22.11046    42.83588    17.72551
   304  H   1.0    0.12    1.06    1.44    24.71245    43.39617    14.46203
   305  N   5.0   -0.15    3.54    2.11    23.22305    37.81799    20.03758
   306  C   4.0    0.04    4.54    4.59    25.07550    36.31615    21.31813
   307  C   4.0    0.16    3.58    3.16    24.71273    33.48633    21.07267
   308  O   6.0   -0.29    1.28    1.80    26.46631    32.01787    21.22478
   309  C   4.0   -0.04    4.47    4.49    25.30779    36.90349    24.07670
   310  C   4.0   -0.00    3.78    3.31    26.37998    34.82890    25.62063
   311  C   4.0   -0.03    3.64    3.19    24.86425    33.16510    26.87445
   312  C   4.0   -0.03    3.64    3.19    28.91894    34.37949    25.70379
   313  C   4.0   -0.04    3.53    3.13    25.84918    31.19439    28.10521
   314  C   4.0   -0.04    3.52    3.12    29.88093    32.40799    26.93466
   315  C   4.0   -0.04    3.54    3.13    28.33599    30.81548    28.13302
   316  H   1.0    0.10    1.12    1.45    22.36698    38.94020    21.08864
   317  H   1.0    0.06    1.12    1.45    26.72476    36.75350    20.39548
   318  H   1.0    0.04    1.08    1.44    26.37304    38.49217    24.32561
   319  H   1.0    0.05    1.08    1.44    23.56092    37.36730    24.75506
   320  H   1.0    0.05    1.08    1.44    22.98194    33.45293    26.84727
   321  H   1.0    0.05    1.08    1.44    30.06702    35.59356    24.79237
   322  H   1.0    0.06    1.08    1.44    24.65833    29.99643    29.01131
   323  H   1.0    0.05    1.08    1.44    31.77422    32.12997    26.95162
   324  H   1.0    0.04    1.08    1.44    29.07282    29.31260    29.06731
   325  N   5.0   -0.15    3.61    2.17    22.36136    32.71091    20.80997
   326  C   4.0    0.04    4.55    4.61    21.67866    30.12837    20.52569
   327  C   4.0    0.17    3.45    3.10    21.16243    29.65441    17.75545
   328  O   6.0   -0.28    1.26    1.80    19.20103    28.77133    17.02808
   329  C   4.0   -0.03    4.41    4.40    19.52279    29.40921    22.22013
   330  C   4.0   -0.03    4.30    4.20    20.24575    28.97043    24.88686
   331  C   4.0    0.26    3.14    3.03    18.12644    28.35464    26.69531
   332  O   6.0   -0.27    1.19    1.80    16.48322    26.82889    25.97418
   333  O   6.0   -0.29    1.18    1.80    18.09755    29.41332    28.80635
   334  H   1.0    0.11    1.12    1.45    20.98172    33.80036    20.78549
   335  H   1.0    0.06    1.12    1.45    23.15368    28.99876    21.09100
   336  H   1.0    0.07    1.08    1.44    18.17558    30.79446    22.13829
   337  H   1.0    0.08    1.08    1.44    18.63867    27.83459    21.52342
   338  H   1.0    0.06    1.08    1.44    21.54278    27.53831    24.96545
   339  H   1.0    0.05    1.09    1.44    21.18876    30.51834    25.55013
   340  N   5.0   -0.15    3.55    2.12    23.01948    30.34789    16.20744
   341  C   4.0    0.05    4.47    4.49    22.96266    30.16779    13.51971
   342  C   4.0    0.16    3.47    3.10    25.59307    30.25282    12.35676
   343  O   6.0   -0.28    1.24    1.80    26.27322    28.75688    10.76474
   344  C   4.0    0.05    4.27    4.15    21.31599    32.18249    12.35333
   345  O   6.0   -0.25    2.10    1.84    21.16971    31.94535     9.75143
   346  H   1.0    0.10    1.13    1.45    24.51601    31.04499    16.81331
   347  H   1.0    0.07    1.11    1.45    22.18123    28.44317    13.08320
   348  H   1.0    0.07    1.06    1.44    19.55176    32.12950    13.14997
   349  H   1.0    0.06    1.06    1.44    22.01695    33.91702    12.84950
   350  H   1.0    0.13    1.06    1.44    20.18381    33.19590     9.13451
   351  N   5.0   -0.15    3.57    2.13    27.11754    32.06058    13.19187
   352  C   4.0    0.05    4.47    4.49    29.64703    32.38307    12.30086
   353  C   4.0    0.17    3.43    3.09    31.50194    30.43125    13.35806
   354  O   6.0   -0.30    1.25    1.80    33.67977    30.36842    12.66817
   355  C   4.0    0.04    4.25    4.10    30.62049    35.03930    12.74061
   356  O   6.0   -0.25    2.10    1.84    30.72073    35.64070    15.29372
   357  H   1.0    0.11    1.12    1.45    26.64475    33.22785    14.41957
   358  H   1.0    0.06    1.11    1.45    29.56028    32.04863    10.38533
   359  H   1.0    0.05    1.05    1.44    32.37725    35.23599    11.94730
   360  H   1.0    0.04    1.05    1.44    29.51686    36.31047    11.78451
   361  H   1.0    0.13    1.08    1.44    30.78527    37.33730    15.46568
   362  N   5.0   -0.14    3.55    2.11    30.62214    28.82742    15.07215
   363  C   4.0    0.04    4.47    4.49    32.13279    26.90920    16.23922
   364  C   4.0    0.16    3.46    3.10    31.02509    24.26037    16.01162
   365  O   6.0   -0.30    1.26    1.80    32.36157    22.41108    15.83144
   366  C   4.0    0.04    4.26    4.12    32.71930    27.50200    18.96807
   367  O   6.0   -0.26    2.11    1.84    30.67062    27.01645    20.53095
   368  H   1.0    0.10    1.12    1.45    28.95958    28.85048    15.64309
   369  H   1.0    0.07    1.13    1.45    33.80090    26.90319    15.23760
   370  H   1.0    0.04    1.05    1.44    34.26471    26.49142    19.55064
   371  H   1.0    0.05    1.06    1.44    33.26889    29.35149    19.12741
   372  H   1.0    0.13    1.06    1.44    31.09627    27.40707    22.13736
   373  N   5.0   -0.14    3.43    2.04    28.52890    24.04559    16.05639
   374  C   4.0    0.02    4.37    4.33    27.32035    21.67456    15.84942
   375  C   4.0    0.16    3.40    3.08    25.98276    20.48044    18.07664
   376  O   6.0   -0.29    1.30    1.80    24.49021    18.76153    17.78919
   377  H   1.0    0.10    1.11    1.45    27.43820    25.41431    16.23393
   378  H   1.0    0.06    1.08    1.44    26.04236    21.75397    14.40006
   379  H   1.0    0.07    1.10    1.44    28.65958    20.41559    15.24099
   380  N   5.0   -0.14    3.62    2.17    26.55160    21.35926    20.33701
   381  C   4.0    0.03    4.54    4.59    25.35752    20.47086    22.59422
   382  C   4.0    0.17    3.52    3.12    22.51420    20.48271    22.08411
   383  O   6.0   -0.27    1.33    1.80    21.67188    21.97469    20.57584
   384  C   4.0   -0.05    4.50    4.54    26.14607    22.07934    24.78831
   385  C   4.0   -0.02    4.38    4.34    28.98019    22.25374    25.02408
   386  C   4.0   -0.09    4.24    4.09    29.85688    24.39141    26.62085
   387  C   4.0   -0.08    4.28    4.16    29.95472    19.81315    25.93489
   388  H   1.0    0.09    1.13    1.45    27.71666    22.65199    20.60033
   389  H   1.0    0.04    1.11    1.44    25.91850    18.66033    23.01691
   390  H   1.0    0.06    1.07    1.44    25.36351    23.83931    24.60886
   391  H   1.0    0.05    1.07    1.44    25.39594    21.39922    26.44033
   392  H   1.0    0.05    1.14    1.45    29.69739    22.60339    23.25473
   393  H   1.0    0.04    1.04    1.43    31.77163    24.47515    26.70731
   394  H   1.0    0.05    1.04    1.43    29.22533    26.07922    25.95419
   395  H   1.0    0.03    1.08    1.44    29.20418    24.19734    28.40829
   396  H   1.0    0.04    1.04    1.44    31.86280    19.83517    26.06803
   397  H   1.0    0.04    1.05    1.44    29.24456    19.43179    27.67365
   398  H   1.0    0.04    1.05    1.44    29.45728    18.38091    24.76075
   399  N   5.0   -0.15    3.49    2.07    21.02816    18.83065    23.27582
   400  C   4.0    0.04    4.49    4.53    18.33105    18.68219    22.86266
   401  C   4.0    0.08    3.20    3.04    16.51741    18.71998    25.12130
   402  O   6.0   -0.26    1.12    1.80    15.33523    20.58431    25.69258
   403  C   4.0   -0.03    4.40    4.38    17.69275    16.45176    21.16392
   404  C   4.0   -0.07    4.25    4.09    18.44154    16.93567    18.51503
   405  C   4.0   -0.08    4.28    4.16    18.90571    14.11745    22.16534
   406  H   1.0    0.08    1.10    1.44    21.62829    17.68746    24.46526
   407  H   1.0    0.08    1.14    1.45    18.02552    20.39861    22.00822
   408  H   1.0    0.04    1.12    1.45    15.76593    16.19055    21.19742
   409  H   1.0    0.04    1.04    1.43    18.00789    15.45451    17.37548
   410  H   1.0    0.06    1.04    1.43    17.56747    18.49419    17.80489
   411  H   1.0    0.07    1.05    1.44    20.33575    17.23356    18.39982
   412  H   1.0    0.04    1.04    1.43    18.47709    12.59248    21.08300
   413  H   1.0    0.05    1.05    1.44    20.80840    14.32710    22.16995
   414  H   1.0    0.04    1.04    1.43    18.33924    13.73977    23.95295
   415  N   5.0   -0.22    3.22    1.96    24.96878    20.88843    33.65646
   416  C   4.0    0.03    4.31    4.21    24.62724    23.56174    33.15285
   417  C   4.0    0.25    3.21    3.04    22.27588    24.37337    31.67256
   418  O   6.0   -0.29    1.18    1.80    20.80946    25.89871    32.72613
   419  C   4.0   -0.08    4.25    4.11    26.91549    24.65656    31.99529
   420  O   6.0   -0.28    1.18    1.80    21.95595    23.52873    29.52484
   421  H   1.0    0.09    1.06    1.44    26.18259    20.62749    34.89896
   422  H   1.0    0.05    1.12    1.45    24.27000    24.30374    34.91045
   423  H   1.0    0.04    1.04    1.43    26.69023    26.52521    31.61121
   424  H   1.0    0.04    1.04    1.43    28.44307    24.47292    33.14043
   425  H   1.0    0.04    1.07    1.44    27.30124    23.76493    30.34354
   426  H   1.0    0.09    1.08    1.44    42.55919    28.85011    27.36186
   427  H   1.0    0.06    1.04    1.44    41.64819    29.01017    37.31926
   428  H   1.0    0.09    1.08    1.44    40.22798    42.07960    34.57441
   429  H   1.0    0.04    1.05    1.44    36.91456    47.60458    37.14380
   430  H   1.0    0.09    1.09    1.44    34.37165    38.42178    42.77046
   431  H   1.0    0.07    1.04    1.44    29.60838    29.05852    40.61084
   432  H   1.0    0.09    1.08    1.44    20.11758    26.22508    40.78160
   433  H   1.0    0.04    1.05    1.44    33.87514    51.47163    30.11373
   434  H   1.0    0.11    1.10    1.44    28.81893    48.08860    23.08243
   435  H   1.0    0.05    1.05    1.44    16.28550    17.16714    26.17294
   436  H   1.0    0.10    1.08    1.44    23.49796    20.21790    34.18529

  Z AO/shell   Hii/eV     exponent
  1     Wed Apr 25 08:07:45 CEST 2018   EN: 2.200 GM2: 0.406  GM3: 0.0800  RAES: 1.40
     1s    -10.707211    1.230000
  6     Wed Apr 25 08:07:45 CEST 2018   EN: 2.550 GM2: 0.538  GM3: 0.1500  RAES: 3.00
     2s    -13.970922    2.096432
     2p    -10.063292    1.800000
  7     Wed Apr 25 08:07:45 CEST 2018   EN: 3.040 GM2: 0.461  GM3:-0.0640  RAES: 1.90
     2s    -16.686243    2.339881
     2p    -12.523956    2.014332
  8     Wed Apr 25 08:07:45 CEST 2018   EN: 3.440 GM2: 0.452  GM3:-0.0517  RAES: 1.80
     2s    -20.229985    2.439742
     2p    -15.503117    2.137023
 no old-style atom pair restraining (fixing) potential

molecular fragmentation (1/2 indicates fragments):
111111111111111111111111111111111111111222222222222222222222222222222222
222222222222222222222222222222222222222222222222222222222222222222222222
222222222222222222222222222222222222222222222222222222222222222222222222
222222222222222222222222222222222222222222222222222222222222222222222222
222222222222222222222222222222222222222222222222222222222222222222222222
222222222222222222222222222222222222222222222222222222222222222221122222
2222
# atoms in fragment 1/2:    41   395
 fragment masses (1/2) :      262.35     2874.13
CMA distance (Bohr)    :  17.388
constraining FC (au)   :  0.0500
           ------------------------------------------------- 
          |        Self-Consistent Charge Iterations        |
           ------------------------------------------------- 

 Ncao       : 1105
 Nao        : 1105
 Nshell     : 659
 Nel        : 1228
 T(el)      :   500.0
 intcut     :    35.0
 scfconv/Eh :  0.100E-06
   qconv/e  :  0.100E-04
 intneglect :  0.100E-08
 broydamp   :      0.400
 iter      E             dE          RMSdq      gap      omega  full diag
   1   -706.8977032 -0.706898E+03  0.476E+00    2.87       0.0  T
   2   -708.5252974 -0.162759E+01  0.228E+00    1.75       1.0  T
   3   -708.6053782 -0.800807E-01  0.119E+00    1.92       1.0  T
   4   -708.6911001 -0.857220E-01  0.260E-01    1.05       1.0  T
   5   -708.6983637 -0.726362E-02  0.124E-01    1.21       1.0  T
   6   -708.6993691 -0.100535E-02  0.536E-02    1.28       1.0  T
   7   -708.6997802 -0.411139E-03  0.220E-02    1.32       1.0  T
   8   -708.6998165 -0.362732E-04  0.108E-02    1.35       1.0  T
   9   -708.6998279 -0.114257E-04  0.465E-03    1.36       1.0  T
  10   -708.6998299 -0.200998E-05  0.223E-03    1.37       2.2  T
  11   -708.6998304 -0.522286E-06  0.961E-04    1.37       5.0  T
  12   -708.6998305 -0.834413E-07  0.487E-04    1.37       9.8  T
  13   -708.6998305 -0.269266E-07  0.236E-04    1.37      20.3  T
  14   -708.6998306 -0.658349E-08  0.992E-05    1.37      48.3  T
  15   -708.6998306 -0.974751E-09  0.402E-05    1.37     119.0  T
speedup  1.00
cpu  time for SCC    7.55 s
wall time for SCC    7.55 s

   *** convergence criteria satisfied after 15 iterations ***

          eigenvalues
 #    :         602        603        604        605        606        607        608        609
 occ. :        2.000      2.000      2.000      2.000      2.000      2.000      2.000      2.000
 eps  :       -10.204    -10.170    -10.081    -10.041    -10.008     -9.986     -9.892     -9.867
 #    :         610        611        612        613        614        615        616        617
 occ. :        2.000      2.000      2.000      2.000      2.000      0.000      0.000      0.000
 eps  :        -9.843     -9.752     -9.701     -9.537     -9.367     -7.993     -7.924     -7.798
 #    :         618        619        620        621        622        623        624        625
 occ. :        0.000      0.000      0.000      0.000      0.000      0.000      0.000      0.000
 eps  :        -7.766     -7.371     -6.508     -6.413     -6.354     -6.324     -6.301     -6.265


   #   Z            q   n(s)   n(p)   n(d)      C6AA      α(0)
   1   7 N     -0.407  1.305  4.102  0.000    30.576     8.212
   2   6 C      0.023  1.031  2.945  0.000    20.187     6.397
   3   6 C      0.269  1.038  2.693  0.000    22.466     7.763
   4   8 O     -0.509  1.738  4.771  0.000    23.975     6.565
   5   6 C     -0.088  1.019  3.069  0.000    22.163     6.699
   6   6 C     -0.003  1.075  2.928  0.000    28.084     8.693
   7   6 C     -0.053  1.060  2.993  0.000    29.309     8.880
   8   6 C     -0.051  1.061  2.990  0.000    29.274     8.875
   9   6 C     -0.042  1.059  2.983  0.000    29.032     8.837
  10   6 C     -0.035  1.058  2.978  0.000    28.882     8.815
  11   6 C     -0.042  1.060  2.982  0.000    29.041     8.839
  12   1 H      0.177  0.823  0.000  0.000     1.231     1.738
  13   1 H      0.068  0.932  0.000  0.000     2.108     2.270
  14   1 H      0.055  0.945  0.000  0.000     2.263     2.352
  15   1 H      0.053  0.947  0.000  0.000     2.281     2.362
  16   1 H      0.045  0.955  0.000  0.000     2.380     2.412
  17   1 H      0.044  0.956  0.000  0.000     2.394     2.419
  18   1 H      0.042  0.958  0.000  0.000     2.416     2.430
  19   1 H      0.043  0.957  0.000  0.000     2.403     2.424
  20   1 H      0.041  0.959  0.000  0.000     2.434     2.439
  21   7 N     -0.162  1.214  3.948  0.000    24.501     7.352
  22   6 C      0.020  1.032  2.948  0.000    20.232     6.402
  23   6 C      0.202  1.082  2.716  0.000    23.711     7.974
  24   8 O     -0.369  1.759  4.610  0.000    21.081     6.156
  25   6 C     -0.087  1.023  3.064  0.000    22.118     6.689
  26   6 C     -0.016  1.032  2.984  0.000    20.822     6.489
  27   6 C     -0.135  0.996  3.139  0.000    23.106     6.847
  28   6 C     -0.158  0.997  3.161  0.000    23.575     6.916
  29   1 H      0.222  0.778  0.000  0.000     0.999     1.566
  30   1 H      0.112  0.888  0.000  0.000     1.677     2.025
  31   1 H      0.062  0.938  0.000  0.000     2.171     2.304
  32   1 H      0.074  0.926  0.000  0.000     2.037     2.232
  33   1 H      0.044  0.956  0.000  0.000     2.391     2.418
  34   1 H      0.055  0.945  0.000  0.000     2.256     2.349
  35   1 H      0.053  0.947  0.000  0.000     2.285     2.364
  36   1 H      0.043  0.957  0.000  0.000     2.408     2.426
  37   1 H      0.046  0.954  0.000  0.000     2.364     2.404
  38   1 H      0.055  0.945  0.000  0.000     2.258     2.350
  39   1 H      0.056  0.944  0.000  0.000     2.250     2.346
  40   7 N     -0.403  1.289  4.114  0.000    30.455     8.196
  41   6 C      0.040  1.031  2.929  0.000    19.888     6.346
  42   6 C      0.194  1.081  2.725  0.000    23.860     8.000
  43   8 O     -0.355  1.742  4.613  0.000    20.802     6.115
  44   6 C     -0.073  1.010  3.063  0.000    21.868     6.652
  45   6 C     -0.057  1.043  3.013  0.000    28.985     8.792
  46   6 C     -0.005  1.030  2.975  0.000    27.789     8.613
  47   6 C     -0.036  1.067  2.970  0.000    28.011     8.589
  48   7 N     -0.088  1.196  3.892  0.000    22.944     7.114
  49   6 C      0.030  1.052  2.919  0.000    26.657     8.398
  50   6 C     -0.049  1.052  2.997  0.000    29.212     8.865
  51   6 C     -0.060  1.049  3.011  0.000    29.488     8.906
  52   6 C     -0.050  1.050  3.000  0.000    29.244     8.870
  53   6 C     -0.043  1.048  2.995  0.000    29.056     8.842
  54   1 H      0.177  0.823  0.000  0.000     1.229     1.736
  55   1 H      0.045  0.955  0.000  0.000     2.384     2.415
  56   1 H      0.057  0.943  0.000  0.000     2.234     2.337
  57   1 H      0.063  0.937  0.000  0.000     2.166     2.301
  58   1 H      0.037  0.963  0.000  0.000     2.485     2.465
  59   1 H      0.195  0.805  0.000  0.000     1.131     1.666
  60   1 H      0.043  0.957  0.000  0.000     2.414     2.429
  61   1 H      0.034  0.966  0.000  0.000     2.527     2.486
  62   1 H      0.031  0.969  0.000  0.000     2.569     2.506
  63   1 H      0.026  0.974  0.000  0.000     2.641     2.541
  64   7 N     -0.406  1.310  4.096  0.000    30.540     8.207
  65   6 C      0.021  1.034  2.944  0.000    20.219     6.403
  66   6 C      0.270  1.042  2.688  0.000    22.435     7.757
  67   8 O     -0.508  1.762  4.746  0.000    23.962     6.563
  68   6 C      0.053  1.009  2.938  0.000    19.847     6.372
  69   8 O     -0.484  1.703  4.781  0.000    22.546     6.410
  70   1 H      0.163  0.837  0.000  0.000     1.313     1.795
  71   1 H      0.078  0.922  0.000  0.000     2.001     2.212
  72   1 H      0.052  0.948  0.000  0.000     2.297     2.370
  73   1 H      0.040  0.960  0.000  0.000     2.452     2.449
  74   1 H      0.327  0.673  0.000  0.000     0.643     1.259
  75   7 N     -0.085  1.232  3.853  0.000    22.894     7.106
  76   6 C      0.029  1.038  2.933  0.000    20.026     6.362
  77   6 C      0.202  1.086  2.712  0.000    23.707     7.974
  78   8 O     -0.343  1.739  4.604  0.000    20.566     6.080
  79   6 C     -0.068  1.011  3.057  0.000    21.740     6.629
  80   6 C     -0.076  1.012  3.063  0.000    21.883     6.650
  81   6 C     -0.015  1.024  2.991  0.000    20.828     6.496
  82   1 H      0.071  0.929  0.000  0.000     2.073     2.251
  83   1 H      0.047  0.953  0.000  0.000     2.355     2.399
  84   1 H      0.058  0.942  0.000  0.000     2.219     2.329
  85   1 H      0.071  0.929  0.000  0.000     2.077     2.254
  86   1 H      0.069  0.931  0.000  0.000     2.095     2.263
  87   1 H      0.073  0.927  0.000  0.000     2.051     2.239
  88   1 H      0.082  0.918  0.000  0.000     1.961     2.190
  89   7 N     -0.402  1.300  4.101  0.000    30.422     8.192
  90   6 C      0.035  1.031  2.934  0.000    19.988     6.366
  91   6 C      0.271  1.046  2.683  0.000    22.427     7.755
  92   8 O     -0.488  1.735  4.753  0.000    23.511     6.501
  93   6 C     -0.084  1.019  3.065  0.000    22.084     6.687
  94   6 C     -0.094  1.011  3.083  0.000    22.271     6.716
  95   6 C     -0.031  1.014  3.016  0.000    21.180     6.563
  96   7 N     -0.195  1.186  4.009  0.000    25.235     7.461
  97   6 C      0.263  0.971  2.766  0.000    22.571     7.778
  98   7 N     -0.241  1.178  4.063  0.000    26.283     7.614
  99   7 N     -0.235  1.182  4.053  0.000    26.145     7.594
 100   1 H      0.185  0.815  0.000  0.000     1.187     1.707
 101   1 H      0.036  0.964  0.000  0.000     2.497     2.471
 102   1 H      0.062  0.938  0.000  0.000     2.169     2.303
 103   1 H      0.059  0.941  0.000  0.000     2.208     2.323
 104   1 H      0.065  0.935  0.000  0.000     2.137     2.286
 105   1 H      0.063  0.937  0.000  0.000     2.161     2.299
 106   1 H      0.091  0.909  0.000  0.000     1.865     2.135
 107   1 H      0.074  0.926  0.000  0.000     2.046     2.237
 108   1 H      0.200  0.800  0.000  0.000     1.106     1.647
 109   1 H      0.253  0.747  0.000  0.000     0.870     1.461
 110   1 H      0.276  0.724  0.000  0.000     0.790     1.392
 111   1 H      0.225  0.775  0.000  0.000     0.987     1.556
 112   1 H      0.280  0.720  0.000  0.000     0.777     1.381
 113   7 N     -0.207  1.229  3.977  0.000    25.494     7.499
 114   6 C      0.037  1.031  2.932  0.000    19.953     6.359
 115   6 C      0.260  1.046  2.694  0.000    22.623     7.789
 116   8 O     -0.501  1.735  4.766  0.000    23.806     6.542
 117   6 C     -0.076  1.014  3.062  0.000    21.931     6.663
 118   6 C     -0.000  1.073  2.927  0.000    28.019     8.683
 119   6 C     -0.064  1.057  3.007  0.000    29.593     8.923
 120   6 C     -0.060  1.060  3.000  0.000    29.486     8.907
 121   6 C     -0.043  1.052  2.991  0.000    29.072     8.844
 122   6 C     -0.036  1.056  2.980  0.000    28.885     8.816
 123   6 C     -0.032  1.056  2.977  0.000    28.802     8.803
 124   1 H      0.208  0.792  0.000  0.000     1.066     1.617
 125   1 H      0.062  0.938  0.000  0.000     2.180     2.309
 126   1 H      0.051  0.949  0.000  0.000     2.311     2.377
 127   1 H      0.053  0.947  0.000  0.000     2.277     2.359
 128   1 H      0.048  0.952  0.000  0.000     2.340     2.392
 129   1 H      0.044  0.956  0.000  0.000     2.396     2.420
 130   1 H      0.065  0.935  0.000  0.000     2.142     2.289
 131   1 H      0.054  0.946  0.000  0.000     2.273     2.357
 132   1 H      0.060  0.940  0.000  0.000     2.193     2.316
 133   7 N     -0.083  1.235  3.848  0.000    22.847     7.099
 134   6 C      0.019  1.046  2.936  0.000    20.213     6.392
 135   6 C      0.283  1.036  2.681  0.000    22.198     7.715
 136   8 O     -0.475  1.727  4.748  0.000    23.229     6.462
 137   6 C     -0.065  1.009  3.056  0.000    21.695     6.621
 138   6 C     -0.086  1.014  3.072  0.000    22.079     6.680
 139   6 C     -0.022  1.020  3.002  0.000    20.946     6.513
 140   1 H      0.059  0.941  0.000  0.000     2.210     2.324
 141   1 H      0.061  0.939  0.000  0.000     2.190     2.314
 142   1 H      0.064  0.936  0.000  0.000     2.151     2.293
 143   1 H      0.087  0.913  0.000  0.000     1.909     2.160
 144   1 H      0.077  0.923  0.000  0.000     2.006     2.214
 145   1 H      0.071  0.929  0.000  0.000     2.073     2.251
 146   1 H      0.080  0.920  0.000  0.000     1.974     2.197
 147   7 N     -0.213  1.229  3.983  0.000    25.633     7.519
 148   6 C      0.023  1.037  2.940  0.000    20.183     6.396
 149   6 C      0.276  1.043  2.681  0.000    22.338     7.740
 150   8 O     -0.476  1.731  4.745  0.000    23.262     6.467
 151   6 C     -0.117  1.035  3.083  0.000    22.726     6.784
 152   6 C      0.374  1.015  2.611  0.000    20.660     7.439
 153   8 O     -0.648  1.771  4.877  0.000    27.328     7.009
 154   8 O     -0.637  1.774  4.863  0.000    27.051     6.973
 155   1 H      0.211  0.789  0.000  0.000     1.051     1.606
 156   1 H      0.093  0.907  0.000  0.000     1.849     2.126
 157   1 H      0.065  0.935  0.000  0.000     2.135     2.285
 158   1 H      0.063  0.937  0.000  0.000     2.165     2.301
 159   7 N     -0.182  1.220  3.962  0.000    24.940     7.417
 160   6 C      0.002  1.043  2.955  0.000    20.549     6.454
 161   6 C      0.276  1.033  2.691  0.000    22.339     7.740
 162   8 O     -0.453  1.731  4.722  0.000    22.757     6.396
 163   6 C      0.077  1.001  2.922  0.000    19.466     6.312
 164   8 O     -0.489  1.699  4.790  0.000    22.660     6.426
 165   1 H      0.185  0.815  0.000  0.000     1.184     1.705
 166   1 H      0.111  0.889  0.000  0.000     1.686     2.031
 167   1 H      0.032  0.968  0.000  0.000     2.557     2.500
 168   1 H      0.046  0.954  0.000  0.000     2.375     2.410
 169   1 H      0.359  0.641  0.000  0.000     0.567     1.183
 170   7 N     -0.186  1.217  3.969  0.000    25.030     7.430
 171   6 C      0.032  1.037  2.931  0.000    20.033     6.372
 172   6 C      0.294  1.030  2.676  0.000    22.018     7.684
 173   8 O     -0.466  1.739  4.727  0.000    23.043     6.436
 174   6 C     -0.118  1.034  3.084  0.000    22.747     6.787
 175   6 C      0.363  1.018  2.619  0.000    20.837     7.470
 176   8 O     -0.653  1.778  4.875  0.000    27.449     7.024
 177   8 O     -0.604  1.746  4.858  0.000    26.213     6.864
 178   1 H      0.204  0.796  0.000  0.000     1.085     1.631
 179   1 H      0.066  0.934  0.000  0.000     2.125     2.280
 180   1 H      0.057  0.943  0.000  0.000     2.229     2.334
 181   1 H      0.051  0.949  0.000  0.000     2.303     2.373
 182   7 N     -0.191  1.216  3.975  0.000    25.138     7.446
 183   6 C      0.017  1.036  2.947  0.000    20.289     6.413
 184   6 C      0.277  1.034  2.690  0.000    22.321     7.736
 185   8 O     -0.426  1.730  4.696  0.000    22.202     6.317
 186   6 C     -0.093  1.022  3.071  0.000    22.251     6.712
 187   6 C      0.002  1.079  2.919  0.000    27.982     8.677
 188   6 C     -0.044  1.061  2.983  0.000    29.099     8.848
 189   6 C     -0.053  1.065  2.988  0.000    29.315     8.881
 190   6 C     -0.037  1.061  2.976  0.000    28.909     8.818
 191   6 C     -0.047  1.060  2.987  0.000    29.168     8.858
 192   6 C     -0.049  1.061  2.988  0.000    29.210     8.865
 193   1 H      0.202  0.798  0.000  0.000     1.098     1.641
 194   1 H      0.078  0.922  0.000  0.000     2.002     2.212
 195   1 H      0.070  0.930  0.000  0.000     2.090     2.260
 196   1 H      0.061  0.939  0.000  0.000     2.189     2.314
 197   1 H      0.027  0.973  0.000  0.000     2.627     2.534
 198   1 H      0.054  0.946  0.000  0.000     2.273     2.358
 199   1 H      0.040  0.960  0.000  0.000     2.453     2.449
 200   1 H      0.061  0.939  0.000  0.000     2.190     2.314
 201   1 H      0.052  0.948  0.000  0.000     2.296     2.369
 202   7 N     -0.182  1.212  3.970  0.000    24.942     7.417
 203   6 C      0.016  1.044  2.940  0.000    20.313     6.417
 204   6 C      0.195  1.082  2.723  0.000    23.842     7.997
 205   8 O     -0.353  1.752  4.601  0.000    20.759     6.109
 206   6 C     -0.082  1.017  3.065  0.000    22.051     6.682
 207   6 C     -0.089  1.014  3.075  0.000    22.185     6.703
 208   6 C     -0.099  1.014  3.084  0.000    22.364     6.730
 209   6 C     -0.068  1.008  3.060  0.000    21.863     6.669
 210   7 N     -0.119  1.168  3.951  0.000    23.579     7.212
 211   1 H      0.205  0.795  0.000  0.000     1.082     1.629
 212   1 H      0.093  0.907  0.000  0.000     1.845     2.124
 213   1 H      0.096  0.904  0.000  0.000     1.821     2.110
 214   1 H      0.062  0.938  0.000  0.000     2.173     2.305
 215   1 H      0.067  0.933  0.000  0.000     2.119     2.276
 216   1 H      0.066  0.934  0.000  0.000     2.126     2.280
 217   1 H      0.086  0.914  0.000  0.000     1.920     2.167
 218   1 H      0.071  0.929  0.000  0.000     2.071     2.250
 219   1 H      0.136  0.864  0.000  0.000     1.488     1.908
 220   1 H      0.093  0.907  0.000  0.000     1.851     2.127
 221   1 H      0.297  0.703  0.000  0.000     0.723     1.331
 222   1 H      0.283  0.717  0.000  0.000     0.767     1.372
 223   1 H      0.293  0.707  0.000  0.000     0.734     1.342
 224   7 N     -0.392  1.296  4.096  0.000    30.154     8.155
 225   6 C      0.033  1.034  2.933  0.000    20.018     6.371
 226   6 C      0.275  1.040  2.685  0.000    22.355     7.744
 227   8 O     -0.471  1.738  4.733  0.000    23.143     6.450
 228   6 C     -0.074  1.016  3.059  0.000    21.890     6.655
 229   6 C     -0.009  1.070  2.940  0.000    28.240     8.717
 230   6 C     -0.045  1.058  2.987  0.000    29.105     8.849
 231   6 C     -0.051  1.057  2.994  0.000    29.254     8.872
 232   6 C     -0.062  1.049  3.013  0.000    29.551     8.916
 233   6 C     -0.084  1.052  3.032  0.000    30.101     8.999
 234   6 C      0.137  1.038  2.825  0.000    25.001     8.197
 235   8 O     -0.436  1.701  4.735  0.000    21.562     6.269
 236   1 H      0.155  0.845  0.000  0.000     1.370     1.834
 237   1 H      0.047  0.953  0.000  0.000     2.357     2.401
 238   1 H      0.062  0.938  0.000  0.000     2.171     2.304
 239   1 H      0.045  0.955  0.000  0.000     2.387     2.416
 240   1 H      0.058  0.942  0.000  0.000     2.216     2.328
 241   1 H      0.048  0.952  0.000  0.000     2.342     2.393
 242   1 H      0.064  0.936  0.000  0.000     2.148     2.292
 243   1 H      0.044  0.956  0.000  0.000     2.398     2.421
 244   1 H      0.338  0.662  0.000  0.000     0.617     1.234
 245   7 N     -0.182  1.212  3.970  0.000    24.942     7.417
 246   6 C      0.033  1.036  2.931  0.000    20.005     6.367
 247   6 C      0.288  1.038  2.674  0.000    22.128     7.705
 248   8 O     -0.499  1.736  4.764  0.000    23.765     6.536
 249   6 C     -0.124  1.032  3.092  0.000    22.857     6.802
 250   6 C      0.292  1.011  2.697  0.000    22.055     7.690
 251   8 O     -0.543  1.749  4.794  0.000    24.759     6.672
 252   7 N     -0.242  1.214  4.028  0.000    26.317     7.619
 253   1 H      0.202  0.798  0.000  0.000     1.094     1.638
 254   1 H      0.077  0.923  0.000  0.000     2.009     2.216
 255   1 H      0.089  0.911  0.000  0.000     1.891     2.151
 256   1 H      0.080  0.920  0.000  0.000     1.981     2.201
 257   1 H      0.258  0.742  0.000  0.000     0.853     1.447
 258   1 H      0.238  0.762  0.000  0.000     0.932     1.512
 259   7 N     -0.187  1.221  3.966  0.000    25.051     7.434
 260   6 C      0.008  1.038  2.955  0.000    20.444     6.437
 261   6 C      0.276  1.036  2.687  0.000    22.325     7.738
 262   8 O     -0.515  1.754  4.761  0.000    24.117     6.584
 263   6 C     -0.099  1.019  3.080  0.000    22.372     6.731
 264   6 C     -0.090  1.009  3.081  0.000    22.205     6.706
 265   6 C     -0.029  1.014  3.015  0.000    21.140     6.555
 266   7 N     -0.205  1.188  4.017  0.000    25.441     7.491
 267   6 C      0.261  0.967  2.771  0.000    22.594     7.783
 268   7 N     -0.205  1.170  4.036  0.000    25.459     7.494
 269   7 N     -0.235  1.178  4.056  0.000    26.133     7.592
 270   1 H      0.212  0.788  0.000  0.000     1.048     1.604
 271   1 H      0.094  0.906  0.000  0.000     1.837     2.120
 272   1 H      0.094  0.906  0.000  0.000     1.840     2.121
 273   1 H      0.074  0.926  0.000  0.000     2.044     2.235
 274   1 H      0.053  0.947  0.000  0.000     2.278     2.360
 275   1 H      0.082  0.918  0.000  0.000     1.961     2.190
 276   1 H      0.088  0.912  0.000  0.000     1.899     2.155
 277   1 H      0.066  0.934  0.000  0.000     2.126     2.280
 278   1 H      0.241  0.759  0.000  0.000     0.920     1.502
 279   1 H      0.236  0.764  0.000  0.000     0.938     1.517
 280   1 H      0.242  0.758  0.000  0.000     0.915     1.499
 281   1 H      0.264  0.736  0.000  0.000     0.830     1.427
 282   1 H      0.245  0.755  0.000  0.000     0.904     1.489
 283   7 N     -0.170  1.216  3.954  0.000    24.675     7.378
 284   6 C      0.009  1.040  2.950  0.000    20.416     6.432
 285   6 C      0.273  1.038  2.689  0.000    22.383     7.747
 286   8 O     -0.491  1.748  4.743  0.000    23.580     6.511
 287   6 C      0.070  1.001  2.929  0.000    19.571     6.329
 288   8 O     -0.482  1.690  4.793  0.000    22.514     6.405
 289   1 H      0.221  0.779  0.000  0.000     1.003     1.569
 290   1 H      0.096  0.904  0.000  0.000     1.818     2.109
 291   1 H      0.057  0.943  0.000  0.000     2.237     2.339
 292   1 H      0.054  0.946  0.000  0.000     2.269     2.355
 293   1 H      0.365  0.635  0.000  0.000     0.554     1.169
 294   7 N     -0.182  1.219  3.963  0.000    24.943     7.418
 295   6 C      0.011  1.039  2.950  0.000    20.394     6.429
 296   6 C      0.280  1.036  2.685  0.000    22.270     7.728
 297   8 O     -0.486  1.734  4.752  0.000    23.466     6.495
 298   6 C      0.072  1.002  2.926  0.000    19.538     6.324
 299   8 O     -0.480  1.696  4.784  0.000    22.461     6.398
 300   1 H      0.227  0.773  0.000  0.000     0.979     1.550
 301   1 H      0.096  0.904  0.000  0.000     1.817     2.108
 302   1 H      0.064  0.936  0.000  0.000     2.154     2.295
 303   1 H      0.044  0.956  0.000  0.000     2.397     2.421
 304   1 H      0.360  0.640  0.000  0.000     0.565     1.181
 305   7 N     -0.186  1.220  3.966  0.000    25.033     7.431
 306   6 C      0.026  1.034  2.940  0.000    20.133     6.387
 307   6 C      0.283  1.031  2.686  0.000    22.202     7.717
 308   8 O     -0.484  1.736  4.748  0.000    23.435     6.491
 309   6 C     -0.079  1.016  3.063  0.000    21.984     6.670
 310   6 C      0.012  1.068  2.920  0.000    27.729     8.638
 311   6 C     -0.038  1.053  2.984  0.000    28.927     8.822
 312   6 C     -0.040  1.057  2.983  0.000    28.987     8.832
 313   6 C     -0.025  1.046  2.978  0.000    28.620     8.775
 314   6 C     -0.037  1.052  2.985  0.000    28.913     8.820
 315   6 C     -0.040  1.050  2.990  0.000    28.985     8.831
 316   1 H      0.214  0.786  0.000  0.000     1.035     1.593
 317   1 H      0.093  0.907  0.000  0.000     1.847     2.125
 318   1 H      0.078  0.922  0.000  0.000     1.996     2.209
 319   1 H      0.053  0.947  0.000  0.000     2.277     2.360
 320   1 H      0.016  0.984  0.000  0.000     2.801     2.617
 321   1 H      0.063  0.937  0.000  0.000     2.165     2.301
 322   1 H      0.005  0.995  0.000  0.000     2.978     2.699
 323   1 H      0.065  0.935  0.000  0.000     2.144     2.290
 324   1 H      0.044  0.956  0.000  0.000     2.399     2.422
 325   7 N     -0.179  1.215  3.965  0.000    24.880     7.408
 326   6 C      0.028  1.033  2.939  0.000    20.090     6.379
 327   6 C      0.278  1.035  2.687  0.000    22.301     7.734
 328   8 O     -0.462  1.734  4.728  0.000    22.961     6.425
 329   6 C     -0.055  1.010  3.045  0.000    21.549     6.606
 330   6 C     -0.084  1.022  3.063  0.000    22.092     6.689
 331   6 C      0.369  1.021  2.610  0.000    20.738     7.453
 332   8 O     -0.649  1.764  4.884  0.000    27.344     7.011
 333   8 O     -0.639  1.759  4.880  0.000    27.090     6.978
 334   1 H      0.196  0.804  0.000  0.000     1.124     1.661
 335   1 H      0.070  0.930  0.000  0.000     2.081     2.256
 336   1 H      0.043  0.957  0.000  0.000     2.402     2.424
 337   1 H      0.056  0.944  0.000  0.000     2.241     2.341
 338   1 H      0.006  0.994  0.000  0.000     2.953     2.687
 339   1 H      0.029  0.971  0.000  0.000     2.594     2.518
 340   7 N     -0.199  1.217  3.982  0.000    25.322     7.474
 341   6 C      0.014  1.040  2.946  0.000    20.337     6.420
 342   6 C      0.273  1.035  2.692  0.000    22.391     7.749
 343   8 O     -0.464  1.736  4.728  0.000    23.010     6.431
 344   6 C      0.077  1.001  2.922  0.000    19.453     6.310
 345   8 O     -0.489  1.696  4.793  0.000    22.650     6.425
 346   1 H      0.196  0.804  0.000  0.000     1.125     1.661
 347   1 H      0.090  0.910  0.000  0.000     1.879     2.143
 348   1 H      0.046  0.954  0.000  0.000     2.364     2.404
 349   1 H      0.050  0.950  0.000  0.000     2.321     2.382
 350   1 H      0.365  0.635  0.000  0.000     0.555     1.170
 351   7 N     -0.182  1.213  3.969  0.000    24.951     7.419
 352   6 C      0.008  1.043  2.949  0.000    20.447     6.437
 353   6 C      0.283  1.035  2.682  0.000    22.214     7.718
 354   8 O     -0.461  1.729  4.732  0.000    22.938     6.421
 355   6 C      0.072  1.003  2.925  0.000    19.553     6.327
 356   8 O     -0.477  1.691  4.786  0.000    22.404     6.390
 357   1 H      0.220  0.780  0.000  0.000     1.011     1.575
 358   1 H      0.106  0.894  0.000  0.000     1.729     2.056
 359   1 H      0.070  0.930  0.000  0.000     2.088     2.260
 360   1 H      0.060  0.940  0.000  0.000     2.200     2.319
 361   1 H      0.329  0.671  0.000  0.000     0.639     1.255
 362   7 N     -0.174  1.208  3.967  0.000    24.769     7.392
 363   6 C      0.005  1.042  2.953  0.000    20.498     6.446
 364   6 C      0.278  1.034  2.688  0.000    22.303     7.734
 365   8 O     -0.463  1.733  4.731  0.000    22.984     6.428
 366   6 C      0.075  1.004  2.921  0.000    19.496     6.317
 367   8 O     -0.476  1.687  4.789  0.000    22.384     6.387
 368   1 H      0.182  0.818  0.000  0.000     1.201     1.716
 369   1 H      0.112  0.888  0.000  0.000     1.680     2.027
 370   1 H      0.060  0.940  0.000  0.000     2.196     2.317
 371   1 H      0.057  0.943  0.000  0.000     2.233     2.336
 372   1 H      0.324  0.676  0.000  0.000     0.651     1.267
 373   7 N     -0.162  1.204  3.958  0.000    24.505     7.352
 374   6 C     -0.049  1.016  3.032  0.000    21.487     6.606
 375   6 C      0.282  1.030  2.688  0.000    22.225     7.720
 376   8 O     -0.489  1.738  4.751  0.000    23.536     6.505
 377   1 H      0.187  0.813  0.000  0.000     1.172     1.696
 378   1 H      0.095  0.905  0.000  0.000     1.835     2.118
 379   1 H      0.122  0.878  0.000  0.000     1.599     1.977
 380   7 N     -0.171  1.211  3.960  0.000    24.705     7.382
 381   6 C      0.025  1.039  2.936  0.000    20.144     6.389
 382   6 C      0.291  1.037  2.672  0.000    22.059     7.691
 383   8 O     -0.490  1.744  4.746  0.000    23.557     6.507
 384   6 C     -0.072  1.018  3.053  0.000    21.843     6.649
 385   6 C     -0.018  1.028  2.990  0.000    20.847     6.493
 386   6 C     -0.144  0.998  3.147  0.000    23.309     6.878
 387   6 C     -0.143  0.996  3.147  0.000    23.265     6.870
 388   1 H      0.209  0.791  0.000  0.000     1.060     1.613
 389   1 H      0.070  0.930  0.000  0.000     2.087     2.259
 390   1 H      0.028  0.972  0.000  0.000     2.614     2.528
 391   1 H      0.058  0.942  0.000  0.000     2.220     2.330
 392   1 H      0.046  0.954  0.000  0.000     2.369     2.407
 393   1 H      0.062  0.938  0.000  0.000     2.173     2.305
 394   1 H      0.033  0.967  0.000  0.000     2.538     2.491
 395   1 H      0.063  0.937  0.000  0.000     2.163     2.299
 396   1 H      0.068  0.932  0.000  0.000     2.103     2.268
 397   1 H      0.053  0.947  0.000  0.000     2.276     2.359
 398   1 H      0.048  0.952  0.000  0.000     2.344     2.394
 399   7 N     -0.181  1.219  3.963  0.000    24.926     7.415
 400   6 C      0.013  1.041  2.946  0.000    20.359     6.423
 401   6 C      0.201  1.081  2.719  0.000    23.730     7.978
 402   8 O     -0.353  1.760  4.593  0.000    20.757     6.108
 403   6 C     -0.017  1.036  2.981  0.000    20.833     6.491
 404   6 C     -0.137  0.996  3.141  0.000    23.151     6.855
 405   6 C     -0.148  0.997  3.151  0.000    23.377     6.888
 406   1 H      0.203  0.797  0.000  0.000     1.092     1.636
 407   1 H      0.089  0.911  0.000  0.000     1.892     2.151
 408   1 H      0.057  0.943  0.000  0.000     2.236     2.338
 409   1 H      0.069  0.931  0.000  0.000     2.099     2.266
 410   1 H      0.042  0.958  0.000  0.000     2.419     2.432
 411   1 H      0.061  0.939  0.000  0.000     2.189     2.314
 412   1 H      0.076  0.924  0.000  0.000     2.025     2.225
 413   1 H      0.056  0.944  0.000  0.000     2.244     2.342
 414   1 H      0.054  0.946  0.000  0.000     2.269     2.355
 415   7 N     -0.427  1.310  4.117  0.000    31.125     8.286
 416   6 C      0.040  1.036  2.924  0.000    19.909     6.354
 417   6 C      0.363  1.025  2.612  0.000    20.836     7.471
 418   8 O     -0.661  1.772  4.889  0.000    27.672     7.053
 419   6 C     -0.120  0.996  3.124  0.000    22.817     6.805
 420   8 O     -0.647  1.771  4.876  0.000    27.306     7.006
 421   1 H      0.182  0.818  0.000  0.000     1.204     1.719
 422   1 H     -0.022  1.022  0.000  0.000     3.464     2.910
 423   1 H      0.021  0.979  0.000  0.000     2.713     2.576
 424   1 H      0.055  0.945  0.000  0.000     2.254     2.348
 425   1 H      0.068  0.932  0.000  0.000     2.106     2.269
 426   1 H      0.188  0.812  0.000  0.000     1.168     1.693
 427   1 H      0.080  0.920  0.000  0.000     1.977     2.199
 428   1 H      0.172  0.828  0.000  0.000     1.258     1.757
 429   1 H      0.066  0.934  0.000  0.000     2.125     2.279
 430   1 H      0.202  0.798  0.000  0.000     1.095     1.639
 431   1 H      0.067  0.933  0.000  0.000     2.117     2.275
 432   1 H      0.173  0.827  0.000  0.000     1.255     1.755
 433   1 H      0.087  0.913  0.000  0.000     1.909     2.160
 434   1 H      0.191  0.809  0.000  0.000     1.150     1.680
 435   1 H      0.079  0.921  0.000  0.000     1.988     2.204
 436   1 H      0.155  0.845  0.000  0.000     1.368     1.832

 Mol. C6AA /au·bohr⁶  :    1881916.720283
 Mol. C8AA /au·bohr⁸  :   42558040.955530
 Mol. α(0) /au        :       2070.051310

 
molecular dipole:
                 x           y           z       tot (Debye)
 q only:      -17.886     -18.518     -28.586
   full:      -19.109     -16.348     -27.823      95.327
molecular quadrupole (traceless):
                xx          xy          yy          xz          yz          zz
 q only:      325.385    -117.436     568.841    -501.995   -1002.022    -894.226
  q+dip:      141.116    -130.841     792.306    -542.903    -901.525    -933.422
   full:      143.858    -127.969     793.330    -543.633    -900.830    -937.189
speedup  1.00
cpu  time for grad    9.89 s
wall time for grad    9.89 s

SCC energy    :    -708.7120491
rep           :      12.1134406
ES            :       2.3988264
AES           :      -0.0688494
AXC           :       0.1115160
disp          :      -0.6235259
XB            :       0.0000000
fix           :       0.0000000
Gborn         :       0.0000000
Gsasa         :       0.0000000
Ghb           :       0.0000000
Gshift        :       0.0000000
Gsolv         :      -0.6049735     -379.63
Etot ala COSMO:    -708.7120491
grad norm     :       1.1994328
total E       :    -696.5243559
atomizationE  :     125.9844427    79056.43
(atE without considering molecular charge,
 total energy contains solvation terms)
H-L gap (eV)  :          1.3735

------------------------------------------------------------------------
 * finished run on 2019/03/15 at 00:15:28.404     
------------------------------------------------------------------------
 total:
 * wall-time:     0 d,  0 h,  0 min, 10.662 sec
 *  cpu-time:     0 d,  0 h,  0 min, 10.560 sec
 * ratio c/w:     0.990 speedup
 SCF:
 * wall-time:     0 d,  0 h,  0 min, 10.396 sec
 *  cpu-time:     0 d,  0 h,  0 min, 10.396 sec
 * ratio c/w:     1.000 speedup

