      -----------------------------------------------------------      
     |                   =====================                   |     
     |                           x T B                           |     
     |                   =====================                   |     
     |                         S. Grimme                         |     
     |          Mulliken Center for Theoretical Chemistry        |     
     |                    University of Bonn                     |     
     |                Version 6.1 RC1 (SAW190329)                |     
      -----------------------------------------------------------      

   This program is distributed in the hope that it will be useful,
   but WITHOUT ANY WARRANTY; without even the implied warranty of
   MERCHANTABILITY or FITNESS FOR A PARTICULAR PURPOSE.
   
   FOR NON-COMMERCIAL, ACADEMIA USE ONLY.
   
   Cite this work as:
   S. Grimme, C. Bannwarth, P. Shushkov, J. Comput. Theory Chem., 2017,
   13, 1989-2009. DOI: 10.1021/acs.jctc.7b00118
   C. Bannwarth, S. Ehlert and S. Grimme., J. Comput. Theory Chem., 2019,
   just accepted. DOI: 10.1021/acs.jctc.8b01176
   
   for sTDA-xTB:
   S. Grimme and C. Bannwarth, J. Chem. Phys., 2016, 145, 054103.
   DOI: 10.1063/1.4959605
   
   in the mass-spec context:
   V. Asgeirsson, C. Bauer and S. Grimme, Chem. Sci., 2017, 8, 4879.
   DOI: 10.1039/c7sc00601b
   
   for metadynamics refer to:
   S. Grimme, ChemRxiv, Preprint. DOI: 10.26434/chemrxiv.7660532.v1
   
   with help from (in alphabetical order)
   C. Bannwarth, F. Bohle, G. Brandenburg, E. Caldeweyher, M. Checinski,
   S. Dohm, S. Ehlert, S. Ehrlich, F. März, H. Neugebauer, J. Pisarek,
   P. Pracht, P. Shushkov, and S. Spicher.
   
 * started run on 2019/05/31 at 05:34:50.741     

           -------------------------------------------------
          |                Calculation Setup                |
           -------------------------------------------------

          program call               : /home/lum/install/xtb/xtb-190329/bin/xtb xtb_tmp.xyz --chrg -1 --grad --gfn 2 --etemp 500 --acc 0.1 --gbsa h2o --parallel 2
          hostname                   : cpu02
          coordinate file            : xtb_tmp.xyz
          omp threads                :                     2
          number of atoms            :                   304
          number of electrons        :                   862
          charge                     :                    -1
          spin                       :                   0.0
          first test random number   :      0.31275180614735


molecular fragmentation (1/2 indicates fragments):
111111111111111111111111111112222222222222222222222222222222222222222222
222222222222222222222222222222222222222222222222222222222222222222222222
222222222222222222222222222222222222222222222222222222222222222222222222
222222222222222222222222222222222222222222222222222222222222222222222222
2222222222112222
# atoms in fragment 1/2:    31   273
 fragment masses (1/2) :      186.25     2015.16
CMA distance (Bohr)    :  17.275
constraining FC (au)   :  0.0500

########################################################################
# WARNING! Please study the warnings concerning your input carefully
#  - XTBPATH is not set, using XTBHOME instead
#  - Process number higher than OMP_NUM_THREADS, I hope you know what you are doing.
########################################################################

           ------------------------------------------------- 
          |                 G F N 2 - x T B                 |
          | Geometry, Frequencies, Noncovalent interactions |
          |            JCTC 2018 parametrisation            |
           ------------------------------------------------- 
 
             k(s)              :                1.8500
             k(p)              :                2.2300
             k(d)              :                2.2300
             k(f)              :                2.0000
             kEN (H0ij)        :               -2.0000
             D4 a1             :                0.5200
             D4 a2             :                5.0000
             D4 s6             :                1.0000
             D4 s8             :                2.7000
             D4 s9             :                5.0000
             alphaj            :                2.0000

  Z AO/shell   Hii/eV     exponent
  1     Wed Apr 25 08:07:45 CEST 2018   EN: 2.200 GM2: 0.406  GM3: 0.0800  RAES: 1.40
     1s    -10.707211    1.230000
  6     Wed Apr 25 08:07:45 CEST 2018   EN: 2.550 GM2: 0.538  GM3: 0.1500  RAES: 3.00
     2s    -13.970922    2.096432
     2p    -10.063292    1.800000
  7     Wed Apr 25 08:07:45 CEST 2018   EN: 3.040 GM2: 0.461  GM3:-0.0640  RAES: 1.90
     2s    -16.686243    2.339881
     2p    -12.523956    2.014332
  8     Wed Apr 25 08:07:45 CEST 2018   EN: 3.440 GM2: 0.452  GM3:-0.0517  RAES: 1.80
     2s    -20.229985    2.439742
     2p    -15.503117    2.137023
 16     Tue Apr 24 11:44:34 CEST 2018   EN: 2.580 GM2: 0.340  GM3:-0.0502  RAES: 3.10
     3s    -20.029654    1.981333
     3p    -11.377694    2.025643
     3d     -0.420282    1.702555

 Solvent             : h2o
 Using internal parameter file: .param_gbsa2_h2o
 Gsolv ref. state (COSMO-RS): gsolv [1 M gas/solution]
 temperature (mdtemp)       :    298.150000000000     
 dielectric constant        :    80.2000000000000     
 rho                        :    1.00000000000000     
 mass                       :    18.0000000000000     
 surface tension            :    15.5689454083859     
 probe radius               :   0.975313790000000     
 vdW radii scaling          :    1.00000000000000     
 Gshift (Eh)                :   1.857443126794793E-003
 c1                         :    1.55243817000000     
 soset                      :   0.130326360000000     
 HB correction              :  T
 Number of grid points      :          230

            Z     q(EN)     CN     RAES       Cart. coordinates
     1  N   5.0   -0.73    3.00    1.93   204.60886   123.65269   314.62517
     2  C   4.0    0.06    3.98    3.59   203.99957   125.22291   312.47014
     3  C   4.0    0.27    3.01    3.02   205.89222   127.38653   312.13547
     4  O   6.0   -0.49    1.00    1.80   206.54606   128.02144   309.99733
     5  C   4.0   -0.22    3.98    3.59   201.32868   126.26429   312.71836
     6  H   1.0    0.25    1.00    1.43   203.48465   123.79930   316.16870
     7  H   1.0    0.10    0.99    1.43   204.17263   124.06739   310.75569
     8  H   1.0    0.11    0.99    1.43   200.86511   127.42321   311.08829
     9  H   1.0    0.10    0.99    1.43   199.99452   124.71351   312.87492
    10  H   1.0    0.11    0.99    1.43   201.21918   127.41901   314.41097
    11  N   5.0   -0.49    3.01    1.93   206.67060   128.53223   314.22941
    12  C   4.0    0.07    3.99    3.61   208.70580   130.35757   314.18840
    13  C   4.0    0.08    3.00    3.02   211.10836   129.12075   313.15566
    14  O   6.0   -0.45    1.00    1.80   212.43788   130.18563   311.57578
    15  C   4.0   -0.10    3.98    3.58   209.19426   131.51158   316.80528
    16  C   4.0   -0.16    3.98    3.58   206.76870   132.55134   318.01378
    17  C   4.0   -0.22    3.98    3.59   211.24068   133.53580   316.59970
    18  C   4.0   -0.23    3.98    3.58   205.40779   134.59825   316.51240
    19  H   1.0    0.23    1.00    1.43   206.16229   127.83223   315.93612
    20  H   1.0    0.12    0.99    1.43   208.22104   131.87444   312.85868
    21  H   1.0    0.10    0.99    1.43   209.90853   129.99865   318.02676
    22  H   1.0    0.10    0.99    1.43   205.46725   130.98458   318.32096
    23  H   1.0    0.10    0.99    1.43   207.28542   133.30031   319.86651
    24  H   1.0    0.10    0.99    1.43   211.51127   134.45422   318.41628
    25  H   1.0    0.11    0.99    1.43   213.02944   132.68927   316.04129
    26  H   1.0    0.11    0.99    1.43   210.74109   134.95622   315.20235
    27  H   1.0    0.10    0.99    1.43   203.82318   135.29801   317.61505
    28  H   1.0    0.11    0.99    1.43   206.64476   136.18459   316.10616
    29  H   1.0    0.11    0.99    1.43   204.67984   133.85288   314.74559
    30  N   5.0   -0.68    3.00    1.93   211.39425   124.55421   309.22141
    31  C   4.0    0.08    3.98    3.59   210.89568   124.56185   306.52615
    32  C   4.0    0.29    3.02    3.02   211.44295   127.18370   305.42612
    33  O   6.0   -0.37    1.00    1.80   212.66710   127.41860   303.46402
    34  C   4.0   -0.15    3.99    3.60   208.14861   123.90568   305.91505
    35  C   4.0   -0.15    3.98    3.58   207.51912   121.10142   306.21846
    36  C   4.0   -0.04    3.99    3.60   204.66527   120.74666   305.79136
    37  N   5.0   -0.48    3.02    1.93   203.91637   118.19700   305.11269
    38  C   4.0    0.37    3.00    3.02   203.55084   116.30505   306.72418
    39  N   5.0   -0.65    3.02    1.93   204.19870   116.52392   309.14050
    40  N   5.0   -0.65    3.02    1.93   202.50187   114.16540   305.90441
    41  H   1.0    0.26    1.00    1.43   210.02312   124.00152   310.44869
    42  H   1.0    0.12    0.99    1.43   212.19825   123.24020   305.59218
    43  H   1.0    0.14    0.99    1.43   206.94601   125.05096   307.13679
    44  H   1.0    0.12    0.99    1.43   207.81181   124.47530   303.96093
    45  H   1.0    0.12    0.99    1.43   208.57888   120.01437   304.82634
    46  H   1.0    0.10    0.99    1.43   208.09517   120.50077   308.10312
    47  H   1.0    0.10    0.99    1.43   203.62523   121.33953   307.47374
    48  H   1.0    0.11    0.99    1.43   204.09009   121.96709   304.23482
    49  H   1.0    0.23    1.00    1.43   203.55103   117.89111   303.26400
    50  H   1.0    0.25    1.00    1.43   205.24432   117.99797   309.74118
    51  H   1.0    0.25    1.00    1.43   203.96037   115.06396   310.34045
    52  H   1.0    0.26    1.00    1.43   201.70641   114.06619   304.17577
    53  H   1.0    0.25    1.00    1.43   202.07996   112.77289   307.13517
    54  N   5.0   -0.47    3.01    1.93   210.41216   129.14691   306.62669
    55  C   4.0    0.08    4.00    3.63   210.58197   131.61048   305.44827
    56  C   4.0    0.30    3.01    3.02   213.36098   132.19750   304.89377
    57  O   6.0   -0.38    1.00    1.80   214.03188   133.35683   303.00943
    58  C   4.0   -0.14    3.98    3.59   209.33101   133.61953   307.11195
    59  C   4.0   -0.10    3.98    3.58   206.46964   133.78034   306.61927
    60  C   4.0   -0.22    3.98    3.59   205.03887   134.70824   308.94696
    61  C   4.0   -0.22    3.98    3.59   205.95754   135.48296   304.34554
    62  H   1.0    0.31    1.00    1.43   209.11272   128.85974   308.02227
    63  H   1.0    0.14    0.99    1.43   209.66510   131.56496   303.57724
    64  H   1.0    0.13    0.99    1.43   209.71324   133.13164   309.07595
    65  H   1.0    0.11    0.99    1.43   210.19216   135.45038   306.71509
    66  H   1.0    0.13    0.99    1.43   205.78609   131.88036   306.15798
    67  H   1.0    0.11    0.99    1.43   203.05667   134.98718   308.48674
    68  H   1.0    0.11    0.99    1.43   205.14722   133.28883   310.42261
    69  H   1.0    0.11    0.99    1.43   205.81151   136.48184   309.63444
    70  H   1.0    0.11    0.99    1.43   203.97035   135.45390   303.81556
    71  H   1.0    0.11    0.99    1.43   206.50199   137.42542   304.74110
    72  H   1.0    0.12    0.99    1.43   207.01215   134.84056   302.69502
    73  N   5.0   -0.48    3.01    1.93   214.96551   131.43581   306.70293
    74  C   4.0    0.10    3.99    3.60   217.65294   131.87215   306.56759
    75  C   4.0    0.12    3.00    3.02   218.95427   130.41100   304.42614
    76  O   6.0   -0.36    1.00    1.80   220.48137   131.41351   303.02468
    77  C   4.0   -0.02    3.98    3.59   218.82765   131.07382   309.09292
    78  O   6.0   -0.46    1.99    1.82   221.45239   131.48482   309.02602
    79  H   1.0    0.29    1.00    1.43   214.28192   130.55741   308.25941
    80  H   1.0    0.15    0.99    1.43   218.03625   133.88040   306.20952
    81  H   1.0    0.11    0.99    1.43   217.93028   132.18558   310.59903
    82  H   1.0    0.12    0.99    1.43   218.39539   129.06669   309.40407
    83  H   1.0    0.25    0.99    1.43   222.15870   131.07245   310.65822
    84  N   5.0   -0.67    3.00    1.93   208.36262   121.73317   289.16572
    85  C   4.0    0.07    3.98    3.59   206.85253   123.84676   289.99770
    86  C   4.0    0.29    3.02    3.02   208.46606   126.25324   289.98333
    87  O   6.0   -0.36    1.00    1.80   210.76880   126.12577   290.09929
    88  C   4.0   -0.10    3.99    3.60   206.10901   123.33229   292.75109
    89  C   4.0    0.33    2.99    3.02   208.55593   123.06758   294.39345
    90  O   6.0   -0.40    1.00    1.80   209.97116   121.23405   293.88922
    91  O   6.0   -0.35    1.00    1.80   208.90409   124.66455   296.07119
    92  H   1.0    0.33    1.00    1.43   209.36997   120.96310   290.63260
    93  H   1.0    0.11    0.99    1.43   205.20886   124.04803   288.75200
    94  H   1.0    0.13    0.99    1.43   204.96604   124.86495   293.51429
    95  H   1.0    0.11    0.99    1.43   205.05750   121.56141   292.84085
    96  N   5.0   -0.48    3.01    1.93   207.20253   128.47639   289.93188
    97  C   4.0    0.10    4.00    3.61   208.37997   130.70782   290.99967
    98  C   4.0    0.29    3.01    3.02   206.37622   132.72461   291.38198
    99  O   6.0   -0.44    1.00    1.80   204.44458   132.84636   290.11720
   100  C   4.0    0.01    3.98    3.58   210.51458   131.75296   289.31509
   101  O   6.0   -0.44    1.99    1.82   209.49611   133.01515   287.21546
   102  H   1.0    0.25    1.00    1.43   205.29624   128.44873   290.03464
   103  H   1.0    0.13    0.99    1.43   209.21755   130.20431   292.83777
   104  H   1.0    0.11    0.99    1.43   211.64051   133.06278   290.47236
   105  H   1.0    0.14    0.99    1.43   211.69674   130.14732   288.77499
   106  H   1.0    0.25    0.99    1.43   210.74066   133.01685   285.87649
   107  N   5.0   -0.48    3.01    1.93   206.96642   134.45847   293.13204
   108  C   4.0    0.08    4.00    3.63   205.07262   136.21870   294.05686
   109  C   4.0    0.27    3.01    3.02   205.29443   138.72027   292.60007
   110  O   6.0   -0.42    1.00    1.80   206.21505   140.63152   293.49566
   111  C   4.0   -0.10    3.98    3.59   205.31177   136.48082   296.90294
   112  C   4.0    0.30    3.00    3.02   204.19660   133.97000   297.99856
   113  O   6.0   -0.39    1.00    1.80   205.68511   132.15822   298.21792
   114  O   6.0   -0.43    1.00    1.80   201.88609   133.98931   298.45342
   115  H   1.0    0.25    1.00    1.43   208.37777   134.06496   294.35337
   116  H   1.0    0.13    0.99    1.43   203.20588   135.40269   293.63482
   117  H   1.0    0.12    0.99    1.43   207.28192   136.70403   297.45925
   118  H   1.0    0.10    0.99    1.43   204.21120   138.08440   297.56700
   119  N   5.0   -0.49    3.01    1.93   204.28462   138.58596   290.27296
   120  C   4.0    0.07    3.99    3.61   204.33865   140.72998   288.55654
   121  C   4.0    0.28    3.00    3.02   201.79431   142.14455   288.61153
   122  O   6.0   -0.43    1.00    1.80   201.61245   144.24707   289.51637
   123  C   4.0   -0.13    3.99    3.60   205.08539   139.95038   285.86803
   124  C   4.0   -0.03    3.03    3.02   204.55517   142.05471   284.02142
   125  C   4.0   -0.11    3.03    3.02   203.01127   141.66667   281.93438
   126  C   4.0   -0.09    3.03    3.02   205.57936   144.44389   284.39180
   127  C   4.0   -0.08    3.03    3.02   202.48063   143.60285   280.26534
   128  C   4.0   -0.09    3.03    3.02   205.05052   146.39876   282.74594
   129  C   4.0    0.10    3.03    3.02   203.48968   145.99730   280.66916
   130  O   6.0   -0.47    1.99    1.83   202.91380   147.86710   279.01343
   131  H   1.0    0.27    1.00    1.43   203.86305   136.84581   289.59029
   132  H   1.0    0.15    0.99    1.43   205.71827   142.05444   289.35038
   133  H   1.0    0.12    0.99    1.43   207.09377   139.47482   285.87366
   134  H   1.0    0.11    0.99    1.43   204.06242   138.24162   285.32298
   135  H   1.0    0.11    1.00    1.43   202.22784   139.81356   281.59395
   136  H   1.0    0.12    1.00    1.43   206.80035   144.78734   285.98814
   137  H   1.0    0.12    1.00    1.43   201.28592   143.29450   278.64458
   138  H   1.0    0.11    0.99    1.43   205.85446   148.24498   283.08074
   139  H   1.0    0.25    0.99    1.43   203.73459   149.42365   279.51183
   140  N   5.0   -0.48    3.01    1.93   199.81946   140.89423   287.60367
   141  C   4.0    0.06    3.99    3.60   197.35288   142.08126   287.29192
   142  C   4.0    0.27    3.01    3.02   195.36699   140.38386   288.54133
   143  O   6.0   -0.43    1.00    1.80   195.00887   140.42986   290.83226
   144  C   4.0   -0.21    3.98    3.59   196.86465   142.70585   284.52157
   145  H   1.0    0.23    1.00    1.43   200.11630   139.23100   286.72113
   146  H   1.0    0.14    0.99    1.43   197.45173   143.82469   288.40686
   147  H   1.0    0.10    0.99    1.43   194.98430   143.49263   284.29083
   148  H   1.0    0.12    0.99    1.43   198.24618   144.10294   283.92035
   149  H   1.0    0.10    0.99    1.43   197.08420   141.05235   283.32352
   150  N   5.0   -0.49    3.01    1.93   194.12398   138.78819   287.03680
   151  C   4.0    0.09    4.00    3.61   192.14766   137.14820   287.99699
   152  C   4.0    0.29    3.01    3.02   192.93252   136.01054   290.53705
   153  O   6.0   -0.42    1.00    1.80   191.56736   136.02334   292.39073
   154  C   4.0    0.03    3.98    3.58   191.62125   135.06592   286.02175
   155  O   6.0   -0.50    1.99    1.83   191.51218   136.29382   283.66034
   156  C   4.0   -0.22    3.98    3.59   189.18834   133.65912   286.64074
   157  H   1.0    0.25    1.00    1.43   194.21714   138.89560   285.12770
   158  H   1.0    0.12    0.99    1.43   190.41561   138.24887   288.30312
   159  H   1.0    0.11    0.99    1.43   193.21099   133.71624   286.03728
   160  H   1.0    0.25    0.99    1.43   190.83628   135.14316   282.41512
   161  H   1.0    0.10    0.99    1.43   188.90844   132.11880   285.31076
   162  H   1.0    0.12    0.99    1.43   189.31982   132.85819   288.52714
   163  H   1.0    0.11    0.99    1.43   187.58728   134.94194   286.54653
   164  N   5.0   -0.47    3.01    1.93   195.24450   134.95769   290.50828
   165  C   4.0    0.08    3.99    3.61   196.27978   133.63883   292.66667
   166  C   4.0    0.30    3.02    3.02   196.53109   135.42463   294.91584
   167  O   6.0   -0.42    1.00    1.80   195.53956   134.95864   296.95439
   168  C   4.0   -0.13    3.98    3.59   198.85545   132.52694   292.01134
   169  C   4.0   -0.11    3.98    3.58   198.67289   130.33752   290.15501
   170  C   4.0    0.31    2.99    3.02   197.50673   127.93928   291.42522
   171  O   6.0   -0.38    1.00    1.80   198.51156   127.19950   293.42567
   172  O   6.0   -0.38    1.00    1.80   195.68029   126.96124   290.30901
   173  H   1.0    0.23    1.00    1.43   196.23820   134.86332   288.88524
   174  H   1.0    0.16    0.99    1.43   195.00367   132.10148   293.24360
   175  H   1.0    0.12    0.99    1.43   200.07470   134.00446   291.23245
   176  H   1.0    0.15    0.99    1.43   199.74741   131.82922   293.74495
   177  H   1.0    0.12    0.99    1.43   197.52687   130.80848   288.50659
   178  H   1.0    0.13    0.99    1.43   200.57559   129.84076   289.52845
   179  N   5.0   -0.47    3.01    1.93   197.79841   137.57939   294.50884
   180  C   4.0    0.08    4.01    3.63   198.36701   139.15589   296.68439
   181  C   4.0    0.31    3.02    3.02   195.88878   139.84948   297.95389
   182  O   6.0   -0.45    1.00    1.80   195.66927   139.79052   300.25727
   183  C   4.0   -0.09    3.98    3.58   199.94950   141.51449   296.07846
   184  C   4.0   -0.19    3.98    3.59   198.47480   143.57052   294.69790
   185  C   4.0   -0.22    3.99    3.59   201.01712   142.57461   298.54373
   186  H   1.0    0.26    1.00    1.43   198.74920   137.87695   292.88784
   187  H   1.0    0.14    0.99    1.43   199.42855   137.97254   298.03035
   188  H   1.0    0.14    0.99    1.43   201.52226   140.88958   294.88244
   189  H   1.0    0.13    0.99    1.43   199.79714   144.94482   293.93836
   190  H   1.0    0.15    0.99    1.43   197.41078   142.78259   293.13434
   191  H   1.0    0.12    0.99    1.43   197.19289   144.51768   295.99175
   192  H   1.0    0.11    0.99    1.43   202.19868   144.20130   298.13637
   193  H   1.0    0.14    0.99    1.43   199.48271   143.13554   299.79088
   194  H   1.0    0.10    0.99    1.43   202.16477   141.16626   299.50978
   195  N   5.0   -0.49    3.01    1.93   193.98916   140.54164   296.45343
   196  C   4.0    0.10    4.00    3.62   191.56861   141.25008   297.52102
   197  C   4.0    0.34    3.01    3.02   190.83540   139.45950   299.67798
   198  O   6.0   -0.43    1.00    1.80   190.17985   140.19919   301.75740
   199  C   4.0   -0.02    3.98    3.59   189.51872   141.14457   295.46679
   200  O   6.0   -0.48    1.99    1.82   187.14209   141.06537   296.65758
   201  H   1.0    0.29    1.00    1.43   194.20281   140.52444   294.55363
   202  H   1.0    0.13    0.99    1.43   191.68431   143.15606   298.33233
   203  H   1.0    0.10    0.99    1.43   189.71098   142.81277   294.25658
   204  H   1.0    0.15    0.99    1.43   189.82924   139.44142   294.31901
   205  H   1.0    0.25    0.99    1.43   185.83788   141.44939   295.43750
   206  N   5.0   -0.48    3.01    1.93   190.76159   137.02061   298.97767
   207  C   4.0    0.08    3.99    3.61   190.05292   135.04482   300.74025
   208  C   4.0    0.29    3.01    3.02   191.54899   135.19431   303.21985
   209  O   6.0   -0.45    1.00    1.80   190.47904   134.90763   305.24731
   210  C   4.0   -0.09    3.99    3.60   190.49271   132.45935   299.53902
   211  C   4.0    0.28    2.99    3.02   189.00441   131.86851   297.14063
   212  O   6.0   -0.38    1.00    1.80   189.30780   129.85006   296.05920
   213  N   5.0   -0.64    3.00    1.93   187.25754   133.55765   296.39262
   214  H   1.0    0.30    1.00    1.43   191.73285   136.47522   297.42358
   215  H   1.0    0.14    0.99    1.43   188.05741   135.29635   301.25369
   216  H   1.0    0.14    0.99    1.43   192.48521   132.27988   299.01442
   217  H   1.0    0.12    0.99    1.43   190.09994   130.96307   300.90210
   218  H   1.0    0.28    1.00    1.43   186.46953   133.24079   294.68462
   219  H   1.0    0.29    1.00    1.43   187.34368   135.37065   296.96978
   220  N   5.0   -0.47    3.01    1.93   194.02611   135.55574   302.96790
   221  C   4.0    0.08    3.99    3.61   195.73245   135.61194   305.09543
   222  C   4.0    0.28    3.01    3.02   195.63312   138.07915   306.61538
   223  O   6.0   -0.48    1.00    1.80   196.06776   138.03910   308.89572
   224  C   4.0   -0.14    4.02    3.66   198.44831   135.15191   304.22443
   225  C   4.0   -0.12    3.98    3.58   198.89358   132.44511   303.37156
   226  S   6.0   -0.16    2.02    3.10   198.62817   130.25424   305.99038
   227  C   4.0   -0.20    3.98    3.58   200.03547   127.47270   304.59221
   228  H   1.0    0.29    1.00    1.43   194.78811   135.81198   301.23450
   229  H   1.0    0.13    0.99    1.43   195.19447   134.09446   306.40896
   230  H   1.0    0.13    0.99    1.43   198.89023   136.40540   302.64258
   231  H   1.0    0.11    0.99    1.43   199.73387   135.58256   305.78110
   232  H   1.0    0.14    0.99    1.43   197.55056   131.88653   301.90481
   233  H   1.0    0.14    0.99    1.43   200.78764   132.24973   302.57646
   234  H   1.0    0.10    0.99    1.43   199.78730   125.94027   305.92772
   235  H   1.0    0.12    0.99    1.43   199.08282   127.05772   302.81886
   236  H   1.0    0.12    0.99    1.43   202.03094   127.82140   304.23328
   237  N   5.0   -0.47    3.01    1.93   195.08487   140.18624   305.36673
   238  C   4.0    0.08    3.99    3.61   194.66759   142.55444   306.68765
   239  C   4.0    0.29    3.01    3.02   192.42754   142.17330   308.48998
   240  O   6.0   -0.40    1.00    1.80   192.55160   142.63478   310.75196
   241  C   4.0   -0.02    3.98    3.58   194.12233   144.66412   304.76419
   242  O   6.0   -0.48    1.99    1.82   196.17632   145.12526   303.15167
   243  H   1.0    0.32    1.00    1.43   195.01696   140.21982   303.44800
   244  H   1.0    0.13    0.99    1.43   196.32220   143.04544   307.84063
   245  H   1.0    0.14    0.99    1.43   192.56675   144.07356   303.54055
   246  H   1.0    0.10    0.99    1.43   193.55977   146.38017   305.78117
   247  H   1.0    0.25    0.99    1.43   197.50422   145.96990   304.07289
   248  N   5.0   -0.48    3.01    1.93   190.38538   141.21189   307.36182
   249  C   4.0    0.07    3.99    3.61   188.10700   140.65907   308.78422
   250  C   4.0    0.30    3.01    3.02   188.75308   138.86091   310.95751
   251  O   6.0   -0.38    1.00    1.80   188.15305   139.35704   313.13864
   252  C   4.0   -0.14    3.98    3.59   186.09356   139.56147   307.02210
   253  C   4.0   -0.16    3.98    3.59   183.67377   138.80462   308.44197
   254  C   4.0   -0.04    3.98    3.59   183.45855   135.94785   308.81436
   255  N   5.0   -0.48    3.02    1.93   183.17922   134.74039   306.36493
   256  C   4.0    0.37    3.00    3.02   184.07468   132.51392   305.63049
   257  N   5.0   -0.64    3.02    1.93   185.37884   131.03134   307.17886
   258  N   5.0   -0.65    3.02    1.93   183.69909   131.77598   303.24774
   259  H   1.0    0.29    1.00    1.43   190.36088   140.87697   305.47283
   260  H   1.0    0.13    0.99    1.43   187.42225   142.40712   309.66978
   261  H   1.0    0.11    0.99    1.43   185.66897   140.99852   305.60967
   262  H   1.0    0.16    0.99    1.43   186.90106   137.93101   306.05255
   263  H   1.0    0.11    0.99    1.43   183.63735   139.71299   310.29000
   264  H   1.0    0.10    0.99    1.43   182.01917   139.46754   307.41125
   265  H   1.0    0.13    0.99    1.43   185.15090   135.25587   309.76037
   266  H   1.0    0.11    0.99    1.43   181.81038   135.53506   309.99427
   267  H   1.0    0.23    1.00    1.43   182.09956   135.72330   305.13096
   268  H   1.0    0.26    1.00    1.43   185.62623   131.47445   309.01018
   269  H   1.0    0.26    1.00    1.43   186.09820   129.38132   306.56208
   270  H   1.0    0.26    1.00    1.43   182.61744   132.79079   302.05516
   271  H   1.0    0.27    1.00    1.43   184.25263   130.04970   302.66849
   272  N   5.0   -0.47    3.01    1.93   189.93662   136.73300   310.30381
   273  C   4.0    0.07    3.99    3.61   190.58208   134.82252   312.17030
   274  C   4.0    0.30    3.01    3.02   191.86204   136.01583   314.47099
   275  O   6.0   -0.38    1.00    1.80   191.17258   135.52414   316.62829
   276  C   4.0   -0.21    3.98    3.59   192.30508   132.82909   311.00535
   277  H   1.0    0.30    1.00    1.43   190.32763   136.31419   308.46338
   278  H   1.0    0.12    0.99    1.43   188.83950   133.94460   312.88180
   279  H   1.0    0.10    0.99    1.43   192.56555   131.27643   312.32084
   280  H   1.0    0.12    0.99    1.43   191.47230   132.11442   309.27063
   281  H   1.0    0.13    0.99    1.43   194.14737   133.63577   310.58852
   282  N   5.0   -0.47    3.01    1.93   193.81613   137.52073   313.95208
   283  C   4.0    0.07    3.99    3.61   195.23585   138.70445   315.96717
   284  C   4.0    0.11    3.00    3.02   193.47510   140.13156   317.75584
   285  O   6.0   -0.39    1.00    1.80   193.58901   139.80629   320.04905
   286  C   4.0   -0.13    3.99    3.60   197.22425   140.50031   314.88593
   287  C   4.0   -0.12    3.99    3.60   199.52856   139.04232   313.91028
   288  C   4.0    0.27    3.00    3.02   201.38593   140.88012   312.72748
   289  O   6.0   -0.41    1.00    1.80   203.07203   141.92277   313.90341
   290  N   5.0   -0.66    3.01    1.93   200.96201   141.29887   310.25997
   291  H   1.0    0.30    1.00    1.43   194.37638   137.86625   312.14916
   292  H   1.0    0.13    0.99    1.43   196.14760   137.23825   317.12172
   293  H   1.0    0.15    0.99    1.43   196.35879   141.59094   313.36374
   294  H   1.0    0.12    0.99    1.43   197.82903   141.81662   316.35257
   295  H   1.0    0.10    0.99    1.43   200.46315   138.09106   315.47873
   296  H   1.0    0.12    0.99    1.43   198.93814   137.65468   312.51140
   297  H   1.0    0.29    1.00    1.43   199.54126   140.38571   309.38097
   298  H   1.0    0.28    1.00    1.43   202.07352   142.51361   309.30674
   299  H   1.0    0.28    1.00    1.43   204.53999   122.01491   314.17185
   300  H   1.0    0.13    1.00    1.43   211.62700   127.40899   313.76555
   301  H   1.0    0.29    1.00    1.43   212.69197   123.50698   309.55575
   302  H   1.0    0.15    1.00    1.43   218.55637   128.58426   304.15088
   303  H   1.0    0.29    1.00    1.43   207.34871   120.53110   288.51796
   304  H   1.0    0.16    1.00    1.43   192.20823   141.34995   317.06183

           ------------------------------------------------- 
          |        Self-Consistent Charge Iterations        |
           ------------------------------------------------- 

          ...................................................
          :                      SETUP                      :
          :.................................................:
          :  # basis functions                 769          :
          :  # atomic orbitals                 768          :
          :  # shells                          458          :
          :  # electrons                       862          :
          :  max. iterations                   250          :
          :  Hamiltonian                  GFN2-xTB          :
          :  restarted?                      false          :
          :  GBSA solvation                   true          :
          :  PC potential                    false          :
          :  electronic temp.          500.0000000     K    :
          :  accuracy                    0.1000000          :
          :  -> integral cutoff          0.3500000E+02      :
          :  -> integral neglect         0.1000000E-08      :
          :  -> SCF convergence          0.1000000E-06 Eh   :
          :  -> wf. convergence          0.1000000E-04 e    :
          :  Broyden damping             0.4000000          :
          ...................................................

 iter      E             dE          RMSdq      gap      omega  full diag
   1   -498.1565097 -0.498157E+03  0.442E+00    1.51       0.0  T
   2   -499.4781462 -0.132164E+01  0.231E+00    1.79       1.0  T
   3   -499.5344472 -0.563011E-01  0.120E+00    2.11       1.0  T
   4   -499.5525200 -0.180728E-01  0.308E-01    1.65       1.0  T
   5   -499.5628181 -0.102981E-01  0.167E-01    1.93       1.0  T
   6   -499.5638329 -0.101477E-02  0.716E-02    1.97       1.0  T
   7   -499.5640083 -0.175390E-03  0.348E-02    2.04       1.0  T
   8   -499.5640872 -0.789913E-04  0.149E-02    2.06       1.0  T
   9   -499.5640994 -0.121237E-04  0.703E-03    2.07       1.0  T
  10   -499.5641019 -0.255802E-05  0.312E-03    2.07       1.8  T
  11   -499.5641026 -0.639103E-06  0.116E-03    2.07       4.9  T
  12   -499.5641026 -0.587020E-07  0.593E-04    2.07       9.7  T
  13   -499.5641026 -0.191797E-07  0.260E-04    2.07      22.1  T
  14   -499.5641027 -0.457885E-08  0.121E-04    2.07      47.4  T
  15   -499.5641027 -0.818602E-09  0.578E-05    2.07      99.1  T
  16   -499.5641027 -0.190084E-09  0.289E-05    2.07     198.3  T

   *** convergence criteria satisfied after 16 iterations ***

         #    Occupation            Energy/Eh            Energy/eV
      -------------------------------------------------------------
         1        2.0000           -0.7496407             -20.3988
       ...           ...                  ...                  ...
       425        2.0000           -0.3833628             -10.4318
       426        2.0000           -0.3766180             -10.2483
       427        2.0000           -0.3762096             -10.2372
       428        2.0000           -0.3718178             -10.1177
       429        2.0000           -0.3714070             -10.1065
       430        2.0000           -0.3680024             -10.0139
       431        2.0000           -0.3675417             -10.0013 (HOMO)
       432                         -0.2913156              -7.9271 (LUMO)
       433                         -0.2886234              -7.8538
       434                         -0.2755790              -7.4989
       435                         -0.2612965              -7.1102
       436                         -0.2604722              -7.0878
       ...                                ...                  ...
       768                          0.6518954              17.7390
      -------------------------------------------------------------
                  HL-Gap            0.0762260 Eh            2.0742 eV
             Fermi-level           -0.3290564 Eh           -8.9541 eV

 SCC (total)                   0 d,  0 h,  0 min,  4.295 sec
 SCC setup                      ...        0 min,  0.049 sec (  1.137%)
 Dispersion                     ...        0 min,  0.033 sec (  0.770%)
 integral evaluation            ...        0 min,  0.129 sec (  3.013%)
 zeroth order Hamiltonian       ...        0 min,  0.003 sec (  0.066%)
 iterations                     ...        0 min,  3.554 sec ( 82.746%)
 molecular gradient             ...        0 min,  0.510 sec ( 11.869%)
 printout                       ...        0 min,  0.017 sec (  0.396%)

         :::::::::::::::::::::::::::::::::::::::::::::::::::::
         ::                     SUMMARY                     ::
         :::::::::::::::::::::::::::::::::::::::::::::::::::::
         :: total energy             -493.939252415264 Eh   ::
         :: total w/o Gsasa/hb       -493.864391699368 Eh   ::
         :: gradient norm               0.384281580856 Eh/α ::
         :: HOMO-LUMO gap               2.074215138419 eV   ::
         ::.................................................::
         :: SCC energy               -499.572526912791 Eh   ::
         :: -> isotropic ES             2.049019178166 Eh   ::
         :: -> anisotropic ES          -0.141993489653 Eh   ::
         :: -> anisotropic XC           0.123919157664 Eh   ::
         :: -> dispersion              -0.403854942799 Eh   ::
         :: -> Gsolv                   -0.690175290871 Eh   ::
         ::    -> Gborn                -0.615314574974 Eh   ::
         ::    -> Gsasa                -0.010281702740 Eh   ::
         ::    -> Ghb                  -0.066436456283 Eh   ::
         ::    -> Gshift                0.001857443127 Eh   ::
         :: repulsion energy            5.599992648404 Eh   ::
         :: add. restraining            0.000000000000 Eh   ::
         :::::::::::::::::::::::::::::::::::::::::::::::::::::

           -------------------------------------------------
          |                Property Printout                |
           -------------------------------------------------

    * Orbital Energies and Occupations

         #    Occupation            Energy/Eh            Energy/eV
      -------------------------------------------------------------
         1        2.0000           -0.7496407             -20.3988
       ...           ...                  ...                  ...
       419        2.0000           -0.3948927             -10.7456
       420        2.0000           -0.3941491             -10.7253
       421        2.0000           -0.3907012             -10.6315
       422        2.0000           -0.3879949             -10.5579
       423        2.0000           -0.3869829             -10.5303
       424        2.0000           -0.3858377             -10.4992
       425        2.0000           -0.3833628             -10.4318
       426        2.0000           -0.3766180             -10.2483
       427        2.0000           -0.3762096             -10.2372
       428        2.0000           -0.3718178             -10.1177
       429        2.0000           -0.3714070             -10.1065
       430        2.0000           -0.3680024             -10.0139
       431        2.0000           -0.3675417             -10.0013 (HOMO)
       432                         -0.2913156              -7.9271 (LUMO)
       433                         -0.2886234              -7.8538
       434                         -0.2755790              -7.4989
       435                         -0.2612965              -7.1102
       436                         -0.2604722              -7.0878
       437                         -0.2566414              -6.9836
       438                         -0.2536769              -6.9029
       439                         -0.2511032              -6.8329
       440                         -0.2455638              -6.6821
       441                         -0.2426344              -6.6024
       442                         -0.2397785              -6.5247
       ...                                ...                  ...
       768                          0.6518954              17.7390
      -------------------------------------------------------------
                  HL-Gap            0.0762260 Eh            2.0742 eV
             Fermi-level           -0.3290564 Eh           -8.9541 eV

   #   Z        covCN         q      C6AA      α(0)
   1   7 N      2.635    -0.397    30.301     8.175
   2   6 C      3.785     0.029    20.097     6.385
   3   6 C      2.758     0.263    22.563     7.779
   4   8 O      0.859    -0.506    23.919     6.557
   5   6 C      3.757    -0.133    23.107     6.853
   6   1 H      0.860     0.175     1.242     1.746
   7   1 H      0.924     0.041     2.442     2.444
   8   1 H      0.925     0.048     2.346     2.395
   9   1 H      0.925     0.073     2.057     2.243
  10   1 H      0.925     0.061     2.187     2.313
  11   7 N      2.689    -0.155    24.345     7.328
  12   6 C      3.798     0.018    20.275     6.411
  13   6 C      2.766     0.198    23.773     7.985
  14   8 O      0.856    -0.373    21.151     6.166
  15   6 C      3.852    -0.025    20.990     6.516
  16   6 C      3.802    -0.070    21.834     6.653
  17   6 C      3.755    -0.119    22.836     6.814
  18   6 C      3.751    -0.114    22.748     6.802
  19   1 H      0.860     0.230     0.964     1.538
  20   1 H      0.924     0.083     1.946     2.181
  21   1 H      0.924     0.063     2.162     2.300
  22   1 H      0.925     0.053     2.277     2.360
  23   1 H      0.924     0.062     2.179     2.309
  24   1 H      0.925     0.063     2.163     2.300
  25   1 H      0.925     0.039     2.466     2.456
  26   1 H      0.925     0.047     2.359     2.402
  27   1 H      0.925     0.044     2.397     2.421
  28   1 H      0.925     0.041     2.432     2.439
  29   1 H      0.925     0.038     2.480     2.463
  30   7 N      2.634    -0.393    30.182     8.159
  31   6 C      3.785     0.036    19.979     6.367
  32   6 C      2.769     0.274    22.373     7.747
  33   8 O      0.859    -0.555    25.028     6.707
  34   6 C      3.811    -0.069    21.812     6.648
  35   6 C      3.800    -0.077    21.968     6.673
  36   6 C      3.740    -0.018    20.975     6.534
  37   7 N      2.699    -0.143    24.085     7.289
  38   6 C      2.736     0.235    23.077     7.865
  39   7 N      2.651    -0.236    26.166     7.597
  40   7 N      2.653    -0.256    26.662     7.669
  41   1 H      0.860     0.174     1.248     1.750
  42   1 H      0.923     0.029     2.607     2.525
  43   1 H      0.924     0.074     2.042     2.235
  44   1 H      0.924     0.000     3.050     2.731
  45   1 H      0.925     0.055     2.254     2.348
  46   1 H      0.924     0.078     1.995     2.209
  47   1 H      0.924     0.090     1.875     2.141
  48   1 H      0.925     0.056     2.244     2.342
  49   1 H      0.860     0.218     1.019     1.581
  50   1 H      0.860     0.237     0.934     1.514
  51   1 H      0.860     0.271     0.805     1.405
  52   1 H      0.860     0.244     0.909     1.493
  53   1 H      0.860     0.271     0.807     1.407
  54   7 N      2.690    -0.196    25.260     7.465
  55   6 C      3.807     0.042    19.858     6.344
  56   6 C      2.755     0.290    22.076     7.694
  57   8 O      0.858    -0.526    24.361     6.617
  58   6 C      3.807    -0.078    21.985     6.675
  59   6 C      3.849     0.001    20.538     6.446
  60   6 C      3.755    -0.115    22.749     6.801
  61   6 C      3.755    -0.090    22.264     6.728
  62   1 H      0.860     0.254     0.867     1.458
  63   1 H      0.923     0.019     2.749     2.593
  64   1 H      0.925     0.087     1.910     2.161
  65   1 H      0.924     0.049     2.329     2.387
  66   1 H      0.924     0.023     2.689     2.564
  67   1 H      0.925     0.044     2.397     2.421
  68   1 H      0.925     0.063     2.163     2.300
  69   1 H      0.925     0.055     2.264     2.353
  70   1 H      0.925     0.017     2.773     2.604
  71   1 H      0.925     0.044     2.394     2.420
  72   1 H      0.924    -0.008     3.199     2.797
  73   7 N      2.692    -0.186    25.026     7.430
  74   6 C      3.790     0.028    20.111     6.387
  75   6 C      2.765     0.218    23.394     7.921
  76   8 O      0.856    -0.358    20.857     6.123
  77   6 C      3.681     0.073    19.561     6.334
  78   8 O      1.656    -0.485    22.581     6.415
  79   1 H      0.860     0.237     0.937     1.517
  80   1 H      0.923     0.089     1.888     2.149
  81   1 H      0.923     0.071     2.077     2.254
  82   1 H      0.923     0.053     2.287     2.365
  83   1 H      0.805     0.370     0.544     1.159
  84   7 N      2.640    -0.415    30.791     8.241
  85   6 C      3.786     0.053    19.702     6.322
  86   6 C      2.763     0.280    22.260     7.726
  87   8 O      0.858    -0.467    23.073     6.440
  88   6 C      3.808    -0.084    22.088     6.690
  89   6 C      2.684     0.380    20.568     7.422
  90   8 O      0.856    -0.609    26.354     6.883
  91   8 O      0.856    -0.653    27.454     7.025
  92   1 H      0.859     0.191     1.156     1.684
  93   1 H      0.924     0.015     2.809     2.621
  94   1 H      0.925    -0.021     3.458     2.908
  95   1 H      0.924     0.032     2.561     2.503
  96   7 N      2.689    -0.191    25.140     7.447
  97   6 C      3.799     0.047    19.795     6.335
  98   6 C      2.761     0.287    22.144     7.706
  99   8 O      0.859    -0.471    23.156     6.452
 100   6 C      3.677     0.078    19.490     6.325
 101   8 O      1.655    -0.477    22.409     6.390
 102   1 H      0.860     0.175     1.241     1.745
 103   1 H      0.923     0.018     2.770     2.603
 104   1 H      0.923     0.035     2.512     2.478
 105   1 H      0.924     0.067     2.115     2.274
 106   1 H      0.805     0.374     0.536     1.150
 107   7 N      2.694    -0.191    25.144     7.447
 108   6 C      3.807     0.054    19.673     6.314
 109   6 C      2.753     0.270    22.433     7.756
 110   8 O      0.858    -0.452    22.742     6.394
 111   6 C      3.802    -0.091    22.242     6.714
 112   6 C      2.690     0.378    20.595     7.427
 113   8 O      0.856    -0.657    27.558     7.038
 114   8 O      0.856    -0.629    26.850     6.947
 115   1 H      0.860     0.194     1.135     1.669
 116   1 H      0.923     0.028     2.608     2.526
 117   1 H      0.925     0.028     2.615     2.529
 118   1 H      0.925     0.047     2.356     2.400
 119   7 N      2.690    -0.193    25.177     7.452
 120   6 C      3.795     0.018    20.277     6.412
 121   6 C      2.751     0.275    22.343     7.740
 122   8 O      0.859    -0.445    22.606     6.375
 123   6 C      3.809    -0.077    21.959     6.671
 124   6 C      2.969    -0.007    28.180     8.707
 125   6 C      2.925    -0.044    29.089     8.845
 126   6 C      2.925    -0.038    28.938     8.822
 127   6 C      2.918    -0.062    29.536     8.912
 128   6 C      2.918    -0.073    29.817     8.954
 129   6 C      2.846     0.147    24.801     8.162
 130   8 O      1.659    -0.424    21.319     6.233
 131   1 H      0.860     0.196     1.127     1.663
 132   1 H      0.924     0.088     1.900     2.156
 133   1 H      0.924     0.064     2.154     2.295
 134   1 H      0.924     0.049     2.333     2.388
 135   1 H      0.926     0.045     2.381     2.413
 136   1 H      0.926     0.033     2.541     2.493
 137   1 H      0.926     0.068     2.112     2.273
 138   1 H      0.926     0.051     2.308     2.376
 139   1 H      0.805     0.355     0.578     1.194
 140   7 N      2.690    -0.181    24.922     7.414
 141   6 C      3.792     0.011    20.400     6.432
 142   6 C      2.756     0.266    22.513     7.770
 143   8 O      0.859    -0.491    23.596     6.513
 144   6 C      3.753    -0.145    23.360     6.892
 145   1 H      0.860     0.191     1.154     1.683
 146   1 H      0.924     0.107     1.723     2.053
 147   1 H      0.925     0.090     1.879     2.144
 148   1 H      0.925     0.078     2.000     2.211
 149   1 H      0.925     0.069     2.095     2.264
 150   7 N      2.691    -0.173    24.753     7.389
 151   6 C      3.799     0.007    20.458     6.440
 152   6 C      2.754     0.285    22.168     7.710
 153   8 O      0.858    -0.464    23.003     6.430
 154   6 C      3.727     0.113    18.819     6.194
 155   8 O      1.656    -0.470    22.253     6.368
 156   6 C      3.753    -0.140    23.261     6.878
 157   1 H      0.860     0.249     0.886     1.474
 158   1 H      0.923     0.103     1.760     2.074
 159   1 H      0.923     0.009     2.910     2.668
 160   1 H      0.805     0.358     0.569     1.185
 161   1 H      0.925     0.069     2.092     2.262
 162   1 H      0.925     0.041     2.431     2.438
 163   1 H      0.925     0.088     1.901     2.156
 164   7 N      2.692    -0.193    25.186     7.454
 165   6 C      3.796     0.048    19.779     6.333
 166   6 C      2.767     0.286    22.149     7.708
 167   8 O      0.859    -0.483    23.406     6.486
 168   6 C      3.808    -0.028    21.073     6.535
 169   6 C      3.798    -0.089    22.206     6.710
 170   6 C      2.683     0.373    20.686     7.443
 171   8 O      0.856    -0.664    27.746     7.062
 172   8 O      0.856    -0.625    26.753     6.935
 173   1 H      0.860     0.196     1.125     1.661
 174   1 H      0.923     0.045     2.385     2.415
 175   1 H      0.924     0.024     2.667     2.554
 176   1 H      0.924     0.008     2.919     2.672
 177   1 H      0.924     0.034     2.534     2.489
 178   1 H      0.924     0.015     2.810     2.621
 179   7 N      2.691    -0.177    24.824     7.400
 180   6 C      3.808     0.036    19.963     6.360
 181   6 C      2.763     0.290    22.092     7.697
 182   8 O      0.860    -0.478    23.309     6.473
 183   6 C      3.851    -0.008    20.689     6.470
 184   6 C      3.756    -0.135    23.142     6.859
 185   6 C      3.758    -0.116    22.779     6.805
 186   1 H      0.860     0.180     1.215     1.726
 187   1 H      0.923     0.049     2.337     2.391
 188   1 H      0.924     0.011     2.875     2.651
 189   1 H      0.925     0.068     2.105     2.269
 190   1 H      0.925     0.062     2.175     2.306
 191   1 H      0.925     0.060     2.196     2.317
 192   1 H      0.925     0.068     2.110     2.272
 193   1 H      0.925     0.070     2.089     2.260
 194   1 H      0.925     0.019     2.750     2.593
 195   7 N      2.691    -0.181    24.929     7.415
 196   6 C      3.800     0.015    20.320     6.418
 197   6 C      2.756     0.292    22.049     7.689
 198   8 O      0.858    -0.450    22.710     6.389
 199   6 C      3.678     0.063    19.735     6.364
 200   8 O      1.656    -0.475    22.357     6.383
 201   1 H      0.860     0.222     1.002     1.568
 202   1 H      0.924     0.087     1.907     2.159
 203   1 H      0.924     0.054     2.265     2.354
 204   1 H      0.923     0.051     2.313     2.379
 205   1 H      0.805     0.369     0.545     1.160
 206   7 N      2.691    -0.179    24.871     7.407
 207   6 C      3.795     0.007    20.472     6.443
 208   6 C      2.756     0.268    22.472     7.763
 209   8 O      0.858    -0.444    22.584     6.372
 210   6 C      3.810    -0.106    22.514     6.754
 211   6 C      2.741     0.294    22.019     7.683
 212   8 O      0.859    -0.512    24.044     6.574
 213   7 N      2.636    -0.273    27.057     7.725
 214   1 H      0.860     0.194     1.137     1.671
 215   1 H      0.923     0.117     1.634     1.999
 216   1 H      0.924     0.061     2.193     2.316
 217   1 H      0.924     0.106     1.735     2.060
 218   1 H      0.860     0.231     0.963     1.537
 219   1 H      0.860     0.231     0.961     1.535
 220   7 N      2.689    -0.165    24.563     7.361
 221   6 C      3.796     0.017    20.291     6.414
 222   6 C      2.758     0.264    22.544     7.775
 223   8 O      0.859    -0.483    23.405     6.486
 224   6 C      3.842    -0.045    21.355     6.574
 225   6 C      3.796     0.014    20.352     6.424
 226  16 S      1.977    -0.174   148.404    20.503
 227   6 C      3.745    -0.051    21.551     6.622
 228   1 H      0.860     0.194     1.138     1.671
 229   1 H      0.923     0.107     1.727     2.055
 230   1 H      0.924     0.034     2.532     2.488
 231   1 H      0.924     0.058     2.227     2.334
 232   1 H      0.924     0.016     2.802     2.618
 233   1 H      0.924     0.014     2.827     2.630
 234   1 H      0.926     0.102     1.768     2.079
 235   1 H      0.925     0.030     2.586     2.515
 236   1 H      0.925     0.023     2.685     2.563
 237   7 N      2.691    -0.182    24.941     7.417
 238   6 C      3.798     0.004    20.522     6.450
 239   6 C      2.759     0.270    22.438     7.757
 240   8 O      0.858    -0.477    23.291     6.471
 241   6 C      3.678     0.064    19.726     6.363
 242   8 O      1.656    -0.471    22.287     6.373
 243   1 H      0.860     0.242     0.916     1.499
 244   1 H      0.923     0.073     2.052     2.240
 245   1 H      0.924     0.075     2.028     2.227
 246   1 H      0.924     0.054     2.276     2.359
 247   1 H      0.805     0.339     0.613     1.230
 248   7 N      2.693    -0.186    25.026     7.430
 249   6 C      3.797     0.013    20.358     6.425
 250   6 C      2.757     0.283    22.213     7.718
 251   8 O      0.859    -0.498    23.745     6.533
 252   6 C      3.805    -0.098    22.361     6.732
 253   6 C      3.803    -0.088    22.172     6.704
 254   6 C      3.736    -0.028    21.164     6.565
 255   7 N      2.702    -0.137    23.961     7.270
 256   6 C      2.734     0.228    23.200     7.886
 257   7 N      2.651    -0.236    26.175     7.598
 258   7 N      2.655    -0.256    26.654     7.668
 259   1 H      0.860     0.226     0.982     1.553
 260   1 H      0.923     0.077     2.010     2.217
 261   1 H      0.925     0.083     1.947     2.182
 262   1 H      0.924     0.081     1.971     2.195
 263   1 H      0.925     0.070     2.080     2.255
 264   1 H      0.925     0.087     1.908     2.160
 265   1 H      0.925     0.074     2.038     2.232
 266   1 H      0.924     0.096     1.821     2.110
 267   1 H      0.860     0.241     0.918     1.501
 268   1 H      0.860     0.240     0.924     1.506
 269   1 H      0.860     0.248     0.893     1.480
 270   1 H      0.860     0.249     0.886     1.475
 271   1 H      0.860     0.240     0.923     1.505
 272   7 N      2.689    -0.193    25.185     7.453
 273   6 C      3.796     0.020    20.235     6.405
 274   6 C      2.760     0.285    22.170     7.711
 275   8 O      0.858    -0.500    23.781     6.538
 276   6 C      3.757    -0.146    23.368     6.892
 277   1 H      0.860     0.231     0.961     1.535
 278   1 H      0.923     0.076     2.023     2.224
 279   1 H      0.925     0.082     1.958     2.188
 280   1 H      0.925     0.087     1.905     2.158
 281   1 H      0.925     0.058     2.224     2.332
 282   7 N      2.690    -0.173    24.750     7.389
 283   6 C      3.797     0.031    20.053     6.376
 284   6 C      2.766     0.215    23.458     7.932
 285   8 O      0.856    -0.367    21.032     6.149
 286   6 C      3.809    -0.064    21.720     6.634
 287   6 C      3.809    -0.105    22.501     6.752
 288   6 C      2.746     0.293    22.025     7.685
 289   8 O      0.858    -0.493    23.639     6.519
 290   7 N      2.640    -0.287    27.406     7.775
 291   1 H      0.860     0.223     0.995     1.562
 292   1 H      0.923     0.086     1.915     2.164
 293   1 H      0.924     0.072     2.059     2.244
 294   1 H      0.924     0.062     2.180     2.309
 295   1 H      0.925     0.079     1.988     2.205
 296   1 H      0.925     0.079     1.989     2.205
 297   1 H      0.860     0.208     1.066     1.617
 298   1 H      0.860     0.219     1.015     1.578
 299   1 H      0.862     0.189     1.162     1.688
 300   1 H      0.930     0.091     1.867     2.137
 301   1 H      0.862     0.194     1.138     1.671
 302   1 H      0.930     0.065     2.139     2.287
 303   1 H      0.862     0.190     1.156     1.684
 304   1 H      0.930     0.069     2.095     2.263

 Mol. C6AA /au·bohr⁶  :     888855.021886
 Mol. C8AA /au·bohr⁸  :   19900141.039903
 Mol. α(0) /au        :       1407.364245


Wiberg/Mayer (AO) data.
largest (>0.10) Wiberg bond orders for each atom
          total WBO             WBO to atom ...
     1  N   2.992        C    2 1.018    H  299 0.953    H    6 0.951
     2  C   3.986        N    1 1.018    C    5 0.987    H    7 0.957    C    3 0.938
     3  C   3.934        O    4 1.592    N   11 1.316    C    2 0.938
     4  O   1.980        C    3 1.592    N   11 0.189
     5  C   3.988        C    2 0.987    H    8 0.983    H   10 0.983    H    9 0.979
     6  H   0.969        N    1 0.951
     7  H   0.998        C    2 0.957
     8  H   0.998        C    5 0.983
     9  H   0.994        C    5 0.979
    10  H   0.996        C    5 0.983
    11  N   3.482        C    3 1.316    C   12 0.981    H   19 0.908    O    4 0.189
    12  C   3.964        N   11 0.981    C   13 0.974    C   15 0.949    H   20 0.937
    13  C   3.889        O   14 1.877    C   12 0.974    H  300 0.950
    14  O   2.052        C   13 1.877
    15  C   3.983        C   17 1.008    C   16 0.990    H   21 0.964    C   12 0.949
    16  C   3.994        C   18 1.021    C   15 0.990    H   22 0.971    H   23 0.971
    17  C   3.992        C   15 1.008    H   25 0.985    H   26 0.983    H   24 0.983
    18  C   3.995        C   16 1.021    H   28 0.985    H   27 0.984    H   29 0.983
    19  H   0.947        N   11 0.908
    20  H   0.993        C   12 0.937
    21  H   0.996        C   15 0.964
    22  H   0.997        C   16 0.971
    23  H   0.994        C   16 0.971
    24  H   0.996        C   17 0.983
    25  H   0.998        C   17 0.985
    26  H   0.998        C   17 0.983
    27  H   0.998        C   18 0.984
    28  H   0.998        C   18 0.985
    29  H   0.999        C   18 0.983
    30  N   2.994        C   31 1.018    H  301 0.954    H   41 0.949
    31  C   3.987        N   30 1.018    C   34 0.976    H   42 0.964    C   32 0.933
    32  C   3.927        O   33 1.604    N   54 1.313    C   31 0.933
    33  O   1.919        C   32 1.604    N   54 0.190
    34  C   3.987        C   35 1.002    C   31 0.976    H   44 0.975    H   43 0.959
    35  C   3.990        C   34 1.002    C   36 0.991    H   45 0.976    H   46 0.968
    36  C   3.960        N   37 0.992    C   35 0.991    H   48 0.973    H   47 0.958
    37  N   3.469        C   38 1.301    C   36 0.992    H   49 0.924
    38  C   3.976        N   39 1.329    N   40 1.318    N   37 1.301
    39  N   3.402        C   38 1.329    H   50 0.918    H   51 0.907    N   40 0.104
    40  N   3.387        C   38 1.318    H   52 0.921    H   53 0.907    N   39 0.104
    41  H   0.970        N   30 0.949
    42  H   0.999        C   31 0.964
    43  H   0.995        C   34 0.959
    44  H   1.000        C   34 0.975
    45  H   0.997        C   35 0.976
    46  H   0.994        C   35 0.968
    47  H   0.992        C   36 0.958
    48  H   0.997        C   36 0.973
    49  H   0.952        N   37 0.924
    50  H   0.944        N   39 0.918
    51  H   0.926        N   39 0.907
    52  H   0.941        N   40 0.921
    53  H   0.927        N   40 0.907
    54  N   3.450        C   32 1.313    C   55 0.986    H   62 0.852    O   33 0.190
    55  C   3.971        N   54 0.986    C   58 0.978    H   63 0.950    C   56 0.936
    56  C   3.941        O   57 1.630    N   73 1.291    C   55 0.936
    57  O   1.934        C   56 1.630    N   73 0.189
    58  C   3.983        C   59 0.992    C   55 0.978    H   65 0.974    H   64 0.961
    59  C   3.992        C   61 1.008    C   60 1.007    C   58 0.992    H   66 0.968
    60  C   3.991        C   59 1.007    H   69 0.986    H   67 0.981    H   68 0.976
    61  C   3.993        C   59 1.008    H   71 0.985    H   72 0.983    H   70 0.983
    62  H   0.935        N   54 0.852
    63  H   0.999        C   55 0.950
    64  H   0.992        C   58 0.961
    65  H   0.997        C   58 0.974
    66  H   0.999        C   59 0.968
    67  H   0.997        C   60 0.981
    68  H   0.996        C   60 0.976
    69  H   0.997        C   60 0.986
    70  H   1.000        C   61 0.983
    71  H   0.998        C   61 0.985
    72  H   1.000        C   61 0.983
    73  N   3.451        C   56 1.291    C   74 0.984    H   79 0.891    O   57 0.189
    74  C   3.964        N   73 0.984    C   75 0.965    C   77 0.962    H   80 0.949
    75  C   3.897        O   76 1.913    C   74 0.965    H  302 0.954
    76  O   2.047        C   75 1.913
    77  C   3.955        O   78 1.011    H   82 0.965    H   81 0.962    C   74 0.962
    78  O   1.918        C   77 1.011    H   83 0.850
    79  H   0.944        N   73 0.891
    80  H   0.992        C   74 0.949
    81  H   0.995        C   77 0.962
    82  H   0.997        C   77 0.965
    83  H   0.863        O   78 0.850
    84  N   2.985        C   85 1.033    H  303 0.954    H   92 0.902
    85  C   3.992        N   84 1.033    H   93 0.960    C   88 0.957    C   86 0.942
    86  C   3.931        O   87 1.679    N   96 1.236    C   85 0.942
    87  O   1.977        C   86 1.679    N   96 0.174
    88  C   3.987        H   94 0.981    H   95 0.970    C   85 0.957    C   89 0.913
    89  C   3.933        O   91 1.516    O   90 1.479    C   88 0.913
    90  O   1.837        C   89 1.479    O   91 0.213
    91  O   1.806        C   89 1.516    O   90 0.213
    92  H   0.964        N   84 0.902
    93  H   1.000        C   85 0.960
    94  H   1.000        C   88 0.981
    95  H   0.999        C   88 0.970
    96  N   3.398        C   86 1.236    C   97 0.981    H  102 0.933    O   87 0.174
    97  C   3.971        N   96 0.981    C  100 0.957    C   98 0.954    H  103 0.952
    98  C   3.950        O   99 1.628    N  107 1.292    C   97 0.954
    99  O   1.964        C   98 1.628    N  107 0.186
   100  C   3.961        O  101 1.015    H  104 0.966    H  105 0.964    C   97 0.957
   101  O   1.922        C  100 1.015    H  106 0.849
   102  H   0.969        N   96 0.933
   103  H   1.000        C   97 0.952
   104  H   0.998        C  100 0.966
   105  H   0.995        C  100 0.964
   106  H   0.860        O  101 0.849
   107  N   3.445        C   98 1.292    C  108 0.962    H  115 0.925    O   99 0.186
   108  C   3.954        C  111 0.989    N  107 0.962    H  116 0.945    C  109 0.918
   109  C   3.956        O  110 1.664    N  119 1.289    C  108 0.918
   110  O   1.987        C  109 1.664    N  119 0.204
   111  C   3.983        C  108 0.989    H  117 0.975    H  118 0.967    C  112 0.903
   112  C   3.932        O  113 1.504    O  114 1.500    C  111 0.903
   113  O   1.799        C  112 1.504    O  114 0.218
   114  O   1.806        C  112 1.500    O  113 0.218
   115  H   0.962        N  107 0.925
   116  H   0.999        C  108 0.945
   117  H   0.999        C  111 0.975
   118  H   0.997        C  111 0.967
   119  N   3.452        C  109 1.289    C  120 0.961    H  131 0.916    O  110 0.204
   120  C   3.942        C  123 0.973    N  119 0.961    H  132 0.952    C  121 0.922
   121  C   3.952        O  122 1.680    N  140 1.273    C  120 0.922
   122  O   2.002        C  121 1.680    N  140 0.200
   123  C   3.985        C  124 1.002    C  120 0.973    H  134 0.968    H  133 0.962
   124  C   3.984        C  125 1.409    C  126 1.404    C  123 1.002
   125  C   3.989        C  127 1.455    C  124 1.409    H  135 0.967    C  128 0.103
   126  C   3.992        C  128 1.458    C  124 1.404    H  136 0.969    C  127 0.108
   127  C   3.986        C  125 1.455    C  129 1.363    H  137 0.966    C  126 0.108
   128  C   3.987        C  126 1.458    C  129 1.366    H  138 0.965    C  125 0.103
   129  C   3.945        C  128 1.366    C  127 1.363    O  130 1.086
   130  O   2.103        C  129 1.086    H  139 0.854
   131  H   0.962        N  119 0.916
   132  H   0.992        C  120 0.952
   133  H   0.995        C  123 0.962
   134  H   0.997        C  123 0.968
   135  H   0.998        C  125 0.967
   136  H   0.999        C  126 0.969
   137  H   0.995        C  127 0.966
   138  H   0.997        C  128 0.965
   139  H   0.874        O  130 0.854
   140  N   3.452        C  121 1.273    C  141 0.961    H  145 0.931    O  122 0.200
   141  C   3.948        C  144 0.998    N  140 0.961    H  146 0.944    C  142 0.935
   142  C   3.944        O  143 1.606    N  150 1.321    C  141 0.935
   143  O   1.982        C  142 1.606    N  150 0.199
   144  C   3.981        C  141 0.998    H  148 0.978    H  149 0.977    H  147 0.977
   145  H   0.964        N  140 0.931
   146  H   0.988        C  141 0.944
   147  H   0.991        C  144 0.977
   148  H   0.994        C  144 0.978
   149  H   0.995        C  144 0.977
   150  N   3.475        C  142 1.321    C  151 0.982    H  157 0.892    O  143 0.199
   151  C   3.965        N  150 0.982    C  154 0.958    H  158 0.945    C  152 0.941
   152  C   3.940        O  153 1.651    N  164 1.262    C  151 0.941
   153  O   1.973        C  152 1.651    N  164 0.186
   154  C   3.963        C  156 1.003    O  155 1.000    C  151 0.958    H  159 0.957
   155  O   1.941        C  154 1.000    H  160 0.853
   156  C   3.986        C  154 1.003    H  162 0.983    H  161 0.981    H  163 0.980
   157  H   0.937        N  150 0.892
   158  H   0.989        C  151 0.945
   159  H   1.000        C  154 0.957
   160  H   0.871        O  155 0.853
   161  H   0.995        C  156 0.981
   162  H   0.998        C  156 0.983
   163  H   0.992        C  156 0.980
   164  N   3.441        C  152 1.262    C  165 0.985    H  173 0.922    O  153 0.186
   165  C   3.975        N  164 0.985    C  168 0.983    H  174 0.955    C  166 0.939
   166  C   3.947        O  167 1.619    N  179 1.305    C  165 0.939
   167  O   1.956        C  166 1.619    N  179 0.189
   168  C   3.993        C  169 1.003    C  165 0.983    H  176 0.972    H  175 0.963
   169  C   3.985        C  168 1.003    H  177 0.977    H  178 0.967    C  170 0.909
   170  C   3.934        O  172 1.510    O  171 1.497    C  169 0.909
   171  O   1.789        C  170 1.497    O  172 0.219
   172  O   1.802        C  170 1.510    O  171 0.219
   173  H   0.961        N  164 0.922
   174  H   0.997        C  165 0.955
   175  H   0.999        C  168 0.963
   176  H   0.999        C  168 0.972
   177  H   0.999        C  169 0.977
   178  H   0.999        C  169 0.967
   179  N   3.461        C  166 1.305    C  180 0.960    H  186 0.930    O  167 0.189
   180  C   3.949        C  183 0.962    N  179 0.960    C  181 0.947    H  187 0.946
   181  C   3.953        O  182 1.584    N  195 1.326    C  180 0.947
   182  O   1.977        C  181 1.584    N  195 0.192
   183  C   3.984        C  184 1.008    C  185 1.006    C  180 0.962    H  188 0.961
   184  C   3.986        C  183 1.008    H  191 0.984    H  189 0.981    H  190 0.970
   185  C   3.990        C  183 1.006    H  192 0.983    H  194 0.982    H  193 0.981
   186  H   0.967        N  179 0.930
   187  H   0.997        C  180 0.946
   188  H   0.999        C  183 0.961
   189  H   0.995        C  184 0.981
   190  H   0.996        C  184 0.970
   191  H   0.996        C  184 0.984
   192  H   0.995        C  185 0.983
   193  H   0.995        C  185 0.981
   194  H   1.000        C  185 0.982
   195  N   3.476        C  181 1.326    C  196 0.971    H  201 0.899    O  182 0.192
   196  C   3.952        C  199 0.974    N  195 0.971    H  202 0.951    C  197 0.934
   197  C   3.950        O  198 1.647    N  206 1.277    C  196 0.934
   198  O   1.986        C  197 1.647    N  206 0.186
   199  C   3.961        O  200 1.012    C  196 0.974    H  203 0.969    H  204 0.959
   200  O   1.921        C  199 1.012    H  205 0.851
   201  H   0.950        N  195 0.899
   202  H   0.992        C  196 0.951
   203  H   0.997        C  199 0.969
   204  H   0.997        C  199 0.959
   205  H   0.863        O  200 0.851
   206  N   3.450        C  197 1.277    C  207 0.977    H  214 0.916    O  198 0.186
   207  C   3.959        C  210 0.988    N  206 0.977    H  215 0.943    C  208 0.931
   208  C   3.952        O  209 1.614    N  220 1.314    C  207 0.931
   209  O   1.977        C  208 1.614    N  220 0.196
   210  C   3.985        C  207 0.988    C  211 0.962    H  216 0.951    H  217 0.949
   211  C   3.945        O  212 1.650    N  213 1.299    C  210 0.962
   212  O   1.948        C  211 1.650    N  213 0.192
   213  N   3.376        C  211 1.299    H  218 0.925    H  219 0.917    O  212 0.192
   214  H   0.962        N  206 0.916
   215  H   0.986        C  207 0.943
   216  H   0.996        C  210 0.951
   217  H   0.988        C  210 0.949
   218  H   0.947        N  213 0.925
   219  H   0.947        N  213 0.917
   220  N   3.495        C  208 1.314    C  221 0.986    H  228 0.916    O  209 0.196
   221  C   3.962        N  220 0.986    C  224 0.981    H  229 0.936    C  222 0.931
   222  C   3.956        O  223 1.586    N  237 1.344    C  221 0.931
   223  O   1.950        C  222 1.586    N  237 0.198
   224  C   3.993        C  225 1.013    C  221 0.981    H  230 0.966    H  231 0.966
   225  C   3.982        C  224 1.013    S  226 0.984    H  232 0.977    H  233 0.972
   226  S   2.074        C  227 1.014    C  225 0.984
   227  C   3.978        S  226 1.014    H  236 0.988    H  235 0.987    H  234 0.975
   228  H   0.962        N  220 0.916
   229  H   0.988        C  221 0.936
   230  H   0.999        C  224 0.966
   231  H   0.996        C  224 0.966
   232  H   1.000        C  225 0.977
   233  H   0.999        C  225 0.972
   234  H   0.989        C  227 0.975
   235  H   0.999        C  227 0.987
   236  H   0.999        C  227 0.988
   237  N   3.489        C  222 1.344    C  238 0.976    H  243 0.868    O  223 0.198
   238  C   3.961        N  237 0.976    C  241 0.971    H  244 0.950    C  239 0.926
   239  C   3.957        O  240 1.639    N  248 1.317    C  238 0.926
   240  O   1.970        C  239 1.639    N  248 0.207
   241  C   3.954        O  242 1.011    C  238 0.971    H  246 0.967    H  245 0.963
   242  O   1.950        C  241 1.011    H  247 0.871
   243  H   0.941        N  237 0.868
   244  H   0.994        C  238 0.950
   245  H   0.994        C  241 0.963
   246  H   0.996        C  241 0.967
   247  H   0.885        O  242 0.871
   248  N   3.474        C  239 1.317    C  249 0.969    H  259 0.897    O  240 0.207
   249  C   3.954        C  252 0.983    N  248 0.969    H  260 0.953    C  250 0.932
   250  C   3.948        O  251 1.633    N  272 1.308    C  249 0.932
   251  O   1.956        C  250 1.633    N  272 0.201
   252  C   3.981        C  253 1.003    C  249 0.983    H  261 0.971    H  262 0.965
   253  C   3.987        C  254 1.006    C  252 1.003    H  264 0.970    H  263 0.970
   254  C   3.957        C  253 1.006    N  255 0.985    H  265 0.961    H  266 0.957
   255  N   3.475        C  256 1.322    C  254 0.985    H  267 0.908    N  257 0.104    N  258 0.100
   256  C   3.978        N  257 1.324    N  255 1.322    N  258 1.301
   257  N   3.408        C  256 1.324    H  269 0.919    H  268 0.917    N  255 0.104
   258  N   3.381        C  256 1.301    H  271 0.923    H  270 0.918    N  255 0.100
   259  H   0.949        N  248 0.897
   260  H   0.994        C  249 0.953
   261  H   0.993        C  252 0.971
   262  H   0.993        C  252 0.965
   263  H   0.994        C  253 0.970
   264  H   0.992        C  253 0.970
   265  H   0.994        C  254 0.961
   266  H   0.991        C  254 0.957
   267  H   0.942        N  255 0.908
   268  H   0.942        N  257 0.917
   269  H   0.939        N  257 0.919
   270  H   0.938        N  258 0.918
   271  H   0.942        N  258 0.923
   272  N   3.462        C  250 1.308    C  273 0.976    H  277 0.880    O  251 0.201
   273  C   3.967        C  276 0.997    N  272 0.976    H  278 0.951    C  274 0.936
   274  C   3.944        O  275 1.626    N  282 1.305    C  273 0.936
   275  O   1.952        C  274 1.626    N  282 0.196
   276  C   3.981        C  273 0.997    H  279 0.979    H  281 0.979    H  280 0.974
   277  H   0.947        N  272 0.880
   278  H   0.994        C  273 0.951
   279  H   0.993        C  276 0.979
   280  H   0.992        C  276 0.974
   281  H   0.997        C  276 0.979
   282  N   3.472        C  274 1.305    C  283 0.982    H  291 0.892    O  275 0.196
   283  C   3.970        N  282 0.982    C  284 0.972    C  286 0.969    H  292 0.947
   284  C   3.899        O  285 1.894    C  283 0.972    H  304 0.955
   285  O   2.034        C  284 1.894
   286  C   3.987        C  287 0.986    H  294 0.973    C  283 0.969    H  293 0.967
   287  C   3.990        C  286 0.986    H  295 0.967    C  288 0.966    H  296 0.964
   288  C   3.940        O  289 1.655    N  290 1.293    C  287 0.966
   289  O   1.950        C  288 1.655    N  290 0.199
   290  N   3.390        C  288 1.293    H  298 0.930    H  297 0.926    O  289 0.199
   291  H   0.950        N  282 0.892
   292  H   0.992        C  283 0.947
   293  H   0.995        C  286 0.967
   294  H   0.996        C  286 0.973
   295  H   0.994        C  287 0.967
   296  H   0.994        C  287 0.964
   297  H   0.957        N  290 0.926
   298  H   0.952        N  290 0.930
   299  H   0.964        N    1 0.953
   300  H   0.992        C   13 0.950
   301  H   0.962        N   30 0.954
   302  H   0.996        C   75 0.954
   303  H   0.963        N   84 0.954
   304  H   0.995        C  284 0.955
 
molecular dipole:
                 x           y           z       tot (Debye)
 q only:     -226.482    -136.295    -282.190
   full:     -224.832    -138.014    -286.099     989.181
molecular quadrupole (traceless):
                xx          xy          yy          xz          yz          zz
 q only:    -1722.708  -46157.383   46495.710  -96323.333  -58355.429  -44773.002
  q+dip:      316.324  -46334.810   46933.327  -96728.044  -59911.485  -47249.650
   full:      319.242  -46336.260   46931.837  -96730.338  -59912.018  -47251.079


           -------------------------------------------------
          | TOTAL ENERGY             -493.939252415264 Eh   |
          | GRADIENT NORM               0.384281580856 Eh/α |
          | HOMO-LUMO GAP               2.074215138419 eV   |
           -------------------------------------------------

------------------------------------------------------------------------
 * finished run on 2019/05/31 at 05:34:55.547     
------------------------------------------------------------------------
 total:
 * wall-time:     0 d,  0 h,  0 min,  4.805 sec
 *  cpu-time:     0 d,  0 h,  0 min,  8.826 sec
 * ratio c/w:     1.837 speedup
 SCF:
 * wall-time:     0 d,  0 h,  0 min,  4.296 sec
 *  cpu-time:     0 d,  0 h,  0 min,  8.110 sec
 * ratio c/w:     1.888 speedup

