      -----------------------------------------------------------      
     |                   =====================                   |     
     |                           x T B                           |     
     |                   =====================                   |     
     |                         S. Grimme                         |     
     |          Mulliken Center for Theoretical Chemistry        |     
     |                    University of Bonn                     |     
     |                Version 6.1 RC1 (SAW190329)                |     
      -----------------------------------------------------------      

   This program is distributed in the hope that it will be useful,
   but WITHOUT ANY WARRANTY; without even the implied warranty of
   MERCHANTABILITY or FITNESS FOR A PARTICULAR PURPOSE.
   
   FOR NON-COMMERCIAL, ACADEMIA USE ONLY.
   
   Cite this work as:
   S. Grimme, C. Bannwarth, P. Shushkov, J. Comput. Theory Chem., 2017,
   13, 1989-2009. DOI: 10.1021/acs.jctc.7b00118
   C. Bannwarth, S. Ehlert and S. Grimme., J. Comput. Theory Chem., 2019,
   just accepted. DOI: 10.1021/acs.jctc.8b01176
   
   for sTDA-xTB:
   S. Grimme and C. Bannwarth, J. Chem. Phys., 2016, 145, 054103.
   DOI: 10.1063/1.4959605
   
   in the mass-spec context:
   V. Asgeirsson, C. Bauer and S. Grimme, Chem. Sci., 2017, 8, 4879.
   DOI: 10.1039/c7sc00601b
   
   for metadynamics refer to:
   S. Grimme, ChemRxiv, Preprint. DOI: 10.26434/chemrxiv.7660532.v1
   
   with help from (in alphabetical order)
   C. Bannwarth, F. Bohle, G. Brandenburg, E. Caldeweyher, M. Checinski,
   S. Dohm, S. Ehlert, S. Ehrlich, F. März, H. Neugebauer, J. Pisarek,
   P. Pracht, P. Shushkov, and S. Spicher.
   
 * started run on 2019/05/31 at 06:33:06.683     

           -------------------------------------------------
          |                Calculation Setup                |
           -------------------------------------------------

          program call               : /home/lum/qr/xtb-190329/bin/xtb xtb_tmp.xyz --chrg -1 --grad --gfn 2 --etemp 500 --acc 0.1 --gbsa h2o --parallel 2
          hostname                   : cu39
          coordinate file            : xtb_tmp.xyz
          omp threads                :                     2
          number of atoms            :                   582
          number of electrons        :                  1574
          charge                     :                    -1
          spin                       :                   0.0
          first test random number   :      0.36054155772833


molecular fragmentation (1/2 indicates fragments):
111111111111111111111111111111111111111111111111111111111111111111111111
111111111222222222222222222222222222222222222222222222222222222222222222
222222222222222222222222222222222222222222222222222222222222222222222222
222222222222222222222222222222222222222222222222222222222222222222222222
222222222222222222222222222222222222222222222222222222222222222222222222
222222222222222222222222222222222222222222222222222222222222222222222222
222222222222222222222222222222222222222222222222222222222222222222222222
222222222222222222222222222222222222222222222222222222222222221122222222
222222
# atoms in fragment 1/2:    83   499
 fragment masses (1/2) :      569.65     3409.04
CMA distance (Bohr)    :  18.968
constraining FC (au)   :  0.0500

########################################################################
# WARNING! Please study the warnings concerning your input carefully
#  - XTBPATH is not set, using XTBHOME instead
#  - Process number higher than OMP_NUM_THREADS, I hope you know what you are doing.
########################################################################

           ------------------------------------------------- 
          |                 G F N 2 - x T B                 |
          | Geometry, Frequencies, Noncovalent interactions |
          |            JCTC 2018 parametrisation            |
           ------------------------------------------------- 
 
             k(s)              :                1.8500
             k(p)              :                2.2300
             k(d)              :                2.2300
             k(f)              :                2.0000
             kEN (H0ij)        :               -2.0000
             D4 a1             :                0.5200
             D4 a2             :                5.0000
             D4 s6             :                1.0000
             D4 s8             :                2.7000
             D4 s9             :                5.0000
             alphaj            :                2.0000

  Z AO/shell   Hii/eV     exponent
  1     Wed Apr 25 08:07:45 CEST 2018   EN: 2.200 GM2: 0.406  GM3: 0.0800  RAES: 1.40
     1s    -10.707211    1.230000
  6     Wed Apr 25 08:07:45 CEST 2018   EN: 2.550 GM2: 0.538  GM3: 0.1500  RAES: 3.00
     2s    -13.970922    2.096432
     2p    -10.063292    1.800000
  7     Wed Apr 25 08:07:45 CEST 2018   EN: 3.040 GM2: 0.461  GM3:-0.0640  RAES: 1.90
     2s    -16.686243    2.339881
     2p    -12.523956    2.014332
  8     Wed Apr 25 08:07:45 CEST 2018   EN: 3.440 GM2: 0.452  GM3:-0.0517  RAES: 1.80
     2s    -20.229985    2.439742
     2p    -15.503117    2.137023

 Solvent             : h2o
 Using internal parameter file: .param_gbsa2_h2o
 Gsolv ref. state (COSMO-RS): gsolv [1 M gas/solution]
 temperature (mdtemp)       :    298.150000000000     
 dielectric constant        :    80.2000000000000     
 rho                        :    1.00000000000000     
 mass                       :    18.0000000000000     
 surface tension            :    15.5689454083859     
 probe radius               :   0.975313790000000     
 vdW radii scaling          :    1.00000000000000     
 Gshift (Eh)                :   1.857443126794793E-003
 c1                         :    1.55243817000000     
 soset                      :   0.130326360000000     
 HB correction              :  T
 Number of grid points      :          230

            Z     q(EN)     CN     RAES       Cart. coordinates
     1  N   5.0   -0.70    3.00    1.93    83.52692    95.31473   117.01977
     2  C   4.0    0.08    3.99    3.60    83.79535    95.12737   119.72156
     3  C   4.0    0.28    3.01    3.02    83.93163    92.37877   120.55945
     4  O   6.0   -0.38    1.00    1.80    82.99318    90.61084   119.40567
     5  C   4.0   -0.10    3.98    3.58    81.62346    96.48060   121.09590
     6  C   4.0    0.31    2.99    3.02    78.88895    95.55179   120.42255
     7  O   6.0   -0.38    1.00    1.80    78.62684    93.82551   118.85676
     8  O   6.0   -0.42    1.00    1.80    77.16059    96.71202   121.53013
     9  H   1.0    0.31    1.00    1.43    82.23295    94.12753   116.26035
    10  H   1.0    0.11    0.99    1.43    85.58378    96.04704   120.23674
    11  H   1.0    0.13    0.99    1.43    81.84132    96.33050   123.14090
    12  H   1.0    0.11    0.99    1.43    81.67878    98.49409   120.62553
    13  N   5.0   -0.50    3.02    1.93    85.26765    92.09961   122.69556
    14  C   4.0    0.07    3.99    3.61    85.24397    89.82084   124.21185
    15  C   4.0    0.27    3.01    3.02    83.54659    90.37182   126.47919
    16  O   6.0   -0.49    1.00    1.80    83.88538    92.29704   127.75512
    17  C   4.0   -0.13    3.99    3.60    87.92833    89.16724   125.07395
    18  C   4.0   -0.11    3.98    3.58    88.10284    86.69584   126.57660
    19  C   4.0   -0.23    3.98    3.59    87.11468    84.46559   125.03302
    20  C   4.0   -0.25    3.98    3.59    90.85599    86.22333   127.32325
    21  H   1.0    0.28    1.00    1.43    86.09640    93.63034   123.49813
    22  H   1.0    0.13    0.99    1.43    84.40824    88.32497   123.06412
    23  H   1.0    0.11    0.99    1.43    89.12419    89.05457   123.39713
    24  H   1.0    0.12    0.99    1.43    88.61223    90.74049   126.22378
    25  H   1.0    0.12    0.99    1.43    86.96154    86.88802   128.29501
    26  H   1.0    0.09    0.99    1.43    87.64287    82.70697   125.94760
    27  H   1.0    0.10    0.99    1.43    85.06734    84.50100   124.88175
    28  H   1.0    0.10    0.99    1.43    87.92544    84.52281   123.14717
    29  H   1.0    0.08    0.99    1.43    91.00715    84.54572   128.49916
    30  H   1.0    0.09    0.99    1.43    92.00498    85.96139   125.64106
    31  H   1.0    0.09    0.99    1.43    91.59950    87.81829   128.38094
    32  N   5.0   -0.49    3.01    1.93    81.74366    88.68977   126.93240
    33  C   4.0    0.07    3.99    3.60    79.84290    88.93735   128.88842
    34  C   4.0    0.27    3.01    3.02    80.04595    86.59504   130.57151
    35  O   6.0   -0.45    1.00    1.80    79.99017    84.47768   129.61969
    36  C   4.0   -0.13    3.99    3.60    77.19679    89.07152   127.71322
    37  C   4.0   -0.09    3.98    3.58    76.87706    91.24079   125.82034
    38  C   4.0   -0.21    3.98    3.59    74.36989    90.98190   124.42402
    39  C   4.0   -0.21    3.98    3.59    77.01233    93.80261   127.12722
    40  H   1.0    0.23    1.00    1.43    81.45100    87.25587   125.68536
    41  H   1.0    0.14    0.99    1.43    80.26134    90.62349   129.99965
    42  H   1.0    0.13    0.99    1.43    76.83856    87.28949   126.73633
    43  H   1.0    0.12    0.99    1.43    75.81552    89.25727   129.23946
    44  H   1.0    0.15    0.99    1.43    78.40266    91.14685   124.41444
    45  H   1.0    0.14    0.99    1.43    74.22262    92.50160   123.04984
    46  H   1.0    0.11    0.99    1.43    74.27258    89.17265   123.45592
    47  H   1.0    0.11    0.99    1.43    72.81700    91.12245   125.76267
    48  H   1.0    0.14    0.99    1.43    76.87695    95.30324   125.72756
    49  H   1.0    0.11    0.99    1.43    75.47591    94.00278   128.47983
    50  H   1.0    0.12    0.99    1.43    78.79378    94.00743   128.12425
    51  N   5.0   -0.49    3.01    1.93    80.39510    87.01705   133.02754
    52  C   4.0    0.08    3.99    3.61    80.75915    84.98110   134.83018
    53  C   4.0    0.29    3.01    3.02    78.69068    85.15193   136.85727
    54  O   6.0   -0.43    1.00    1.80    78.53343    87.03465   138.19595
    55  C   4.0   -0.13    3.99    3.60    83.35570    85.20048   136.11544
    56  C   4.0   -0.09    3.97    3.58    85.55861    85.51775   134.25571
    57  C   4.0   -0.24    3.98    3.59    88.02894    85.92823   135.69475
    58  C   4.0   -0.22    3.98    3.59    85.78986    83.21833   132.52766
    59  H   1.0    0.28    1.00    1.43    80.40653    88.80835   133.70949
    60  H   1.0    0.16    0.99    1.43    80.59188    83.20630   133.79291
    61  H   1.0    0.12    0.99    1.43    83.27966    86.81818   137.39790
    62  H   1.0    0.11    0.99    1.43    83.63464    83.49994   137.25089
    63  H   1.0    0.13    0.99    1.43    85.18876    87.19695   133.09632
    64  H   1.0    0.09    0.99    1.43    89.57012    86.23215   134.37174
    65  H   1.0    0.09    0.99    1.43    87.89538    87.57505   136.91310
    66  H   1.0    0.10    0.99    1.43    88.45816    84.28707   136.85301
    67  H   1.0    0.09    0.99    1.43    87.49002    83.36663   131.38634
    68  H   1.0    0.10    0.99    1.43    85.88741    81.49876   133.65089
    69  H   1.0    0.13    0.99    1.43    84.17408    83.09308   131.26450
    70  N   5.0   -0.46    3.01    1.93    77.21345    83.11111   137.06989
    71  C   4.0    0.08    3.99    3.60    75.10923    82.91501   138.80888
    72  C   4.0    0.07    3.01    3.02    75.50811    80.63062   140.52691
    73  O   6.0   -0.39    1.00    1.80    75.91880    78.51449   139.66114
    74  C   4.0   -0.08    3.98    3.59    72.60281    82.51571   137.43541
    75  C   4.0    0.32    2.99    3.02    71.57605    84.92835   136.05672
    76  O   6.0   -0.40    1.00    1.80    72.09726    87.00950   137.00720
    77  O   6.0   -0.38    1.00    1.80    70.25068    84.52344   134.15550
    78  H   1.0    0.28    1.00    1.43    77.41831    81.68770   135.80913
    79  H   1.0    0.16    0.99    1.43    75.03597    84.67819   139.89062
    80  H   1.0    0.14    0.99    1.43    72.79009    81.01383   136.04067
    81  H   1.0    0.11    0.99    1.43    71.15082    81.96051   138.80038
    82  N   5.0   -0.70    3.00    1.93    97.31379    80.69015   145.65130
    83  C   4.0    0.07    3.98    3.59    97.52794    81.16835   142.97184
    84  C   4.0    0.28    3.01    3.02   100.01147    82.61133   142.52054
    85  O   6.0   -0.42    1.00    1.80   100.74701    84.22154   144.00925
    86  C   4.0   -0.13    3.99    3.61    95.41783    82.87431   141.94754
    87  C   4.0   -0.05    3.02    3.02    92.72932    82.09554   142.49043
    88  C   4.0   -0.12    3.03    3.02    92.01975    79.70871   143.30665
    89  C   4.0   -0.12    3.04    3.02    90.83933    83.88786   142.10227
    90  C   4.0   -0.11    3.03    3.02    89.49627    79.12347   143.69619
    91  C   4.0   -0.09    3.03    3.02    88.32513    83.33222   142.50226
    92  C   4.0    0.10    3.03    3.02    87.63279    80.92178   143.29255
    93  O   6.0   -0.47    1.99    1.83    85.13275    80.39945   143.63580
    94  H   1.0    0.28    1.00    1.43    97.45694    82.22284   146.78175
    95  H   1.0    0.10    0.99    1.43    97.58216    79.34316   142.01050
    96  H   1.0    0.12    0.99    1.43    95.71152    84.77050   142.71703
    97  H   1.0    0.09    0.99    1.43    95.67023    83.00332   139.89797
    98  H   1.0    0.10    1.00    1.43    93.40833    78.25826   143.64766
    99  H   1.0    0.10    1.00    1.43    91.36259    85.75242   141.46312
   100  H   1.0    0.10    0.99    1.43    88.95734    77.25246   144.32112
   101  H   1.0    0.12    1.00    1.43    86.86748    84.72748   142.22525
   102  H   1.0    0.25    0.99    1.43    84.94865    78.67133   144.19433
   103  N   5.0   -0.49    3.01    1.93   101.17204    81.96744   140.38736
   104  C   4.0    0.08    3.99    3.61   103.37844    83.18807   139.33445
   105  C   4.0    0.27    3.01    3.02   102.71352    83.80449   136.58249
   106  O   6.0   -0.45    1.00    1.80   101.80370    82.18147   135.19582
   107  C   4.0   -0.11    3.99    3.60   105.65635    81.38954   139.43873
   108  C   4.0   -0.02    3.03    3.02   106.34018    80.79891   142.12669
   109  C   4.0   -0.08    3.03    3.02   105.26493    78.77528   143.40417
   110  C   4.0   -0.08    3.03    3.02   108.03303    82.34761   143.40530
   111  C   4.0   -0.09    3.03    3.02   105.91664    78.27833   145.89190
   112  C   4.0   -0.06    3.03    3.02   108.71244    81.85922   145.87136
   113  C   4.0    0.10    3.03    3.02   107.63937    79.82016   147.14611
   114  O   6.0   -0.46    1.99    1.83   108.35441    79.39220   149.56649
   115  H   1.0    0.23    1.00    1.43   100.55369    80.43817   139.40048
   116  H   1.0    0.15    0.99    1.43   103.78484    84.91024   140.39850
   117  H   1.0    0.12    0.99    1.43   105.13208    79.67985   138.41700
   118  H   1.0    0.12    0.99    1.43   107.22787    82.30139   138.47046
   119  H   1.0    0.12    1.00    1.43   103.88842    77.60820   142.45171
   120  H   1.0    0.15    1.00    1.43   108.79737    83.97899   142.45567
   121  H   1.0    0.12    1.00    1.43   105.06017    76.72021   146.89147
   122  H   1.0    0.15    1.00    1.43   110.01651    83.07850   146.85497
   123  H   1.0    0.25    0.99    1.43   107.22940    78.17357   150.37122
   124  N   5.0   -0.48    3.01    1.93   103.10433    86.19952   135.90120
   125  C   4.0    0.08    3.99    3.61   102.32053    87.27077   133.49847
   126  C   4.0    0.28    3.01    3.02   104.51326    88.93496   132.60697
   127  O   6.0   -0.46    1.00    1.80   104.91123    91.00232   133.55992
   128  C   4.0   -0.08    3.98    3.58    99.89191    88.85862   133.84225
   129  C   4.0   -0.16    3.98    3.58    97.68394    87.26875   134.87877
   130  C   4.0   -0.24    3.98    3.59    99.15439    90.10263   131.34837
   131  C   4.0   -0.24    3.98    3.58    96.51514    88.42146   137.24658
   132  H   1.0    0.28    1.00    1.43   104.05941    87.36212   137.07987
   133  H   1.0    0.14    0.99    1.43   101.99228    85.71754   132.17559
   134  H   1.0    0.12    0.99    1.43   100.34587    90.34244   135.20832
   135  H   1.0    0.09    0.99    1.43    96.22660    87.11436   133.42793
   136  H   1.0    0.13    0.99    1.43    98.33476    85.36118   135.30398
   137  H   1.0    0.09    0.99    1.43    97.55742    91.35825   131.64417
   138  H   1.0    0.11    0.99    1.43   100.70998    91.19180   130.57115
   139  H   1.0    0.09    0.99    1.43    98.62004    88.68147   129.96561
   140  H   1.0    0.09    0.99    1.43    94.91636    87.29227   137.87250
   141  H   1.0    0.13    0.99    1.43    97.88812    88.49649   138.77683
   142  H   1.0    0.10    0.99    1.43    95.85130    90.33153   136.87276
   143  N   5.0   -0.48    3.01    1.93   105.93414    87.96102   130.75471
   144  C   4.0    0.10    3.99    3.61   108.18765    89.21898   129.84658
   145  C   4.0    0.25    3.02    3.02   108.26432    89.04179   126.97027
   146  O   6.0   -0.46    1.00    1.80   107.89457    87.00221   125.91691
   147  C   4.0    0.04    3.98    3.58   110.59122    87.97822   130.94802
   148  O   6.0   -0.44    1.99    1.83   110.42058    88.17765   133.59789
   149  C   4.0   -0.21    3.98    3.59   112.95379    89.28397   129.91632
   150  H   1.0    0.28    1.00    1.43   105.61245    86.18447   130.11178
   151  H   1.0    0.14    0.99    1.43   108.08750    91.18555   130.47759
   152  H   1.0    0.13    0.99    1.43   110.59431    85.96674   130.39306
   153  H   1.0    0.25    0.99    1.43   111.86080    87.34628   134.34662
   154  H   1.0    0.10    0.99    1.43   114.64031    88.54730   130.82975
   155  H   1.0    0.13    0.99    1.43   113.11707    88.97011   127.89305
   156  H   1.0    0.13    0.99    1.43   112.84596    91.30779   130.25306
   157  N   5.0   -0.49    3.01    1.93   108.73750    91.17068   125.72091
   158  C   4.0    0.09    4.00    3.62   108.83759    91.21070   122.98815
   159  C   4.0    0.28    3.01    3.02   111.13103    92.67971   122.06625
   160  O   6.0   -0.43    1.00    1.80   112.39895    94.01026   123.47304
   161  C   4.0   -0.12    3.98    3.59   106.37102    92.33015   121.89964
   162  C   4.0   -0.02    3.12    3.03   105.93310    95.01866   122.60760
   163  C   4.0    0.02    3.21    3.04   106.48066    97.11423   121.20445
   164  C   4.0    0.03    3.18    3.03   104.72715    95.89190   124.86056
   165  N   5.0   -0.49    3.11    1.94   105.69731    99.24108   122.44593
   166  C   4.0    0.12    3.22    3.04   104.59040    98.55791   124.67339
   167  C   4.0   -0.10    3.02    3.02   103.71236    94.68315   126.97147
   168  C   4.0   -0.11    3.02    3.02   103.46526   100.01627   126.54497
   169  C   4.0   -0.10    3.03    3.02   102.59691    96.14029   128.81395
   170  C   4.0   -0.11    3.03    3.02   102.47965    98.77057   128.60636
   171  H   1.0    0.29    1.00    1.43   109.06323    92.82995   126.62955
   172  H   1.0    0.15    0.99    1.43   109.03110    89.24987   122.34679
   173  H   1.0    0.13    0.99    1.43   106.42507    92.12717   119.85386
   174  H   1.0    0.10    0.99    1.43   104.82556    91.16391   122.61467
   175  H   1.0    0.13    1.00    1.43   107.37441    97.20707   119.38709
   176  H   1.0    0.22    1.00    1.43   105.82866   101.01680   121.78369
   177  H   1.0    0.12    0.99    1.43   103.79680    92.64551   127.14998
   178  H   1.0    0.10    1.00    1.43   103.34454   102.04461   126.39870
   179  H   1.0    0.11    1.00    1.43   101.80260    95.24059   130.46467
   180  H   1.0    0.11    1.00    1.43   101.58392    99.83583   130.09697
   181  N   5.0   -0.47    3.01    1.93   111.57639    92.45398   119.58881
   182  C   4.0    0.07    3.99    3.61   113.50837    93.88085   118.31932
   183  C   4.0    0.05    3.01    3.02   112.28991    95.63846   116.41865
   184  O   6.0   -0.44    1.00    1.80   110.18248    95.30343   115.53123
   185  C   4.0   -0.10    3.98    3.59   115.34918    92.18875   116.86934
   186  C   4.0    0.33    2.99    3.02   116.85118    90.46520   118.74524
   187  O   6.0   -0.39    1.00    1.80   116.30880    88.17611   118.72631
   188  O   6.0   -0.42    1.00    1.80   118.46702    91.53917   120.07257
   189  H   1.0    0.28    1.00    1.43   110.43728    91.40648   118.46511
   190  H   1.0    0.13    0.99    1.43   114.54975    94.96121   119.74779
   191  H   1.0    0.13    0.99    1.43   114.29696    91.01084   115.55532
   192  H   1.0    0.10    0.99    1.43   116.69816    93.36295   115.83649
   193  N   5.0   -0.51    3.03    1.93   119.79858    98.39369   122.60519
   194  C   4.0    0.07    4.02    3.65   117.99021    96.99997   124.14799
   195  C   4.0    0.27    3.01    3.02   116.81735    98.72900   126.14796
   196  O   6.0   -0.41    1.00    1.80   117.97755   100.46737   127.13390
   197  C   4.0   -0.12    4.01    3.64   119.55292    94.87997   125.36610
   198  C   4.0   -0.13    4.01    3.64   122.24594    95.90582   125.26943
   199  C   4.0   -0.03    4.02    3.66   122.27889    97.23514   122.71466
   200  H   1.0    0.12    0.99    1.43   116.48407    96.21608   122.97082
   201  H   1.0    0.11    0.99    1.43   118.90938    94.45020   127.27116
   202  H   1.0    0.14    0.99    1.43   119.38266    93.19039   124.19667
   203  H   1.0    0.13    0.99    1.43   122.53148    97.28647   126.77093
   204  H   1.0    0.10    0.99    1.43   123.66718    94.43109   125.40431
   205  H   1.0    0.11    0.99    1.43   123.79227    98.61542   122.52448
   206  H   1.0    0.11    0.99    1.43   122.44805    95.85265   121.17932
   207  N   5.0   -0.50    3.01    1.93   114.47061    98.07154   126.82693
   208  C   4.0    0.07    3.99    3.60   113.11070    99.33432   128.84551
   209  C   4.0    0.27    3.01    3.02   111.41225    97.36693   130.11602
   210  O   6.0   -0.43    1.00    1.80   109.92859    96.07955   128.90841
   211  C   4.0   -0.13    3.98    3.59   111.43453   101.49758   127.84745
   212  C   4.0   -0.17    3.98    3.58   110.56740   103.31656   129.93723
   213  C   4.0   -0.15    3.98    3.58   112.34666   105.57336   130.30620
   214  C   4.0   -0.06    3.98    3.58   112.02196   107.49414   128.17274
   215  N   5.0   -0.73    3.98    2.82   114.10652   109.38879   128.20172
   216  H   1.0    0.29    1.00    1.43   113.52501    96.73167   125.84093
   217  H   1.0    0.13    0.99    1.43   114.54509   100.07481   130.14131
   218  H   1.0    0.12    0.99    1.43   112.52108   102.47744   126.39518
   219  H   1.0    0.13    0.99    1.43   109.80970   100.62644   126.91732
   220  H   1.0    0.10    0.99    1.43   108.68644   104.01329   129.47316
   221  H   1.0    0.13    0.99    1.43   110.39325   102.27058   131.70425
   222  H   1.0    0.11    0.99    1.43   111.91349   106.45506   132.11922
   223  H   1.0    0.12    0.99    1.43   114.28753   104.87990   130.33744
   224  H   1.0    0.10    0.99    1.43   112.03546   106.53304   126.34557
   225  H   1.0    0.10    0.99    1.43   110.22759   108.48590   128.38192
   226  H   1.0    0.23    1.00    1.43   113.90209   110.62361   126.71007
   227  H   1.0    0.23    1.00    1.43   114.10923   110.38532   129.88005
   228  H   1.0    0.24    1.00    1.43   115.81444   108.47413   128.01580
   229  N   5.0   -0.49    3.01    1.93   111.67978    97.17618   132.63262
   230  C   4.0    0.07    3.99    3.61   110.02654    95.63399   134.17664
   231  C   4.0    0.29    3.01    3.02   107.93316    97.30330   135.29502
   232  O   6.0   -0.40    1.00    1.80   108.25433    99.55829   135.69522
   233  C   4.0   -0.19    3.98    3.59   111.52049    94.31875   136.26309
   234  H   1.0    0.24    1.00    1.43   112.74938    98.43506   133.58567
   235  H   1.0    0.15    0.99    1.43   109.14730    94.23189   132.94155
   236  H   1.0    0.13    0.99    1.43   110.32816    92.93311   137.19850
   237  H   1.0    0.12    0.99    1.43   113.12799    93.35066   135.42734
   238  H   1.0    0.12    0.99    1.43   112.18021    95.68199   137.65317
   239  N   5.0   -0.49    3.01    1.93   105.76761    96.07943   135.70592
   240  C   4.0    0.08    4.00    3.61   103.59160    97.31764   136.80679
   241  C   4.0    0.29    3.01    3.02   104.07702    97.82070   139.60877
   242  O   6.0   -0.39    1.00    1.80   105.50315    96.50554   140.87810
   243  C   4.0   -0.14    3.98    3.59   101.23171    95.66208   136.47155
   244  C   4.0   -0.04    3.12    3.03    98.80643    97.11073   136.53189
   245  C   4.0    0.01    3.22    3.04    98.17134    99.14842   135.07389
   246  C   4.0    0.02    3.18    3.03    96.63071    96.54142   138.02803
   247  N   5.0   -0.47    3.10    1.94    95.73945    99.85649   135.53569
   248  C   4.0    0.13    3.23    3.04    94.74156    98.31174   137.33468
   249  C   4.0   -0.12    3.02    3.02    96.07689    94.72346   139.85887
   250  C   4.0   -0.08    3.02    3.02    92.33368    98.25709   138.37996
   251  C   4.0   -0.12    3.03    3.02    93.68972    94.69233   140.90011
   252  C   4.0   -0.10    3.03    3.02    91.84010    96.43402   140.17165
   253  H   1.0    0.28    1.00    1.43   105.64149    94.20781   135.33152
   254  H   1.0    0.13    0.99    1.43   103.34492    99.14867   135.87424
   255  H   1.0    0.11    0.99    1.43   101.41317    94.70916   134.64621
   256  H   1.0    0.12    0.99    1.43   101.21386    94.20270   137.93408
   257  H   1.0    0.10    1.00    1.43    99.29457   100.13878   133.70714
   258  H   1.0    0.24    1.00    1.43    94.87934   101.39451   134.82631
   259  H   1.0    0.13    0.99    1.43    97.47847    93.35526   140.44752
   260  H   1.0    0.14    0.99    1.43    90.88931    99.57584   137.79538
   261  H   1.0    0.11    0.99    1.43    93.23393    93.28529   142.30805
   262  H   1.0    0.13    1.00    1.43    89.97896    96.34059   141.00076
   263  N   5.0   -0.49    3.01    1.93   102.84123    99.81033   140.55127
   264  C   4.0    0.08    4.00    3.61   103.16120   100.54202   143.16745
   265  C   4.0    0.29    3.01    3.02   102.77008    98.31992   144.96344
   266  O   6.0   -0.43    1.00    1.80   104.08984    98.03480   146.84199
   267  C   4.0   -0.11    3.98    3.58   101.39494   102.73735   143.84951
   268  C   4.0    0.32    2.99    3.02    98.66983   102.44870   142.76346
   269  O   6.0   -0.46    1.00    1.80    96.90935   102.41794   144.32899
   270  O   6.0   -0.41    1.00    1.80    98.46806   102.33694   140.42666
   271  H   1.0    0.28    1.00    1.43   101.37165   100.66991   139.62570
   272  H   1.0    0.14    0.99    1.43   105.13542   101.12365   143.46734
   273  H   1.0    0.12    0.99    1.43   101.29206   102.93177   145.89833
   274  H   1.0    0.11    0.99    1.43   102.15286   104.47840   143.04355
   275  N   5.0   -0.47    3.01    1.93   100.82794    96.79017   144.41633
   276  C   4.0    0.07    3.99    3.61   100.19204    94.63737   145.99062
   277  C   4.0    0.27    3.00    3.02   101.28551    92.20808   144.81394
   278  O   6.0   -0.44    1.00    1.80    99.98065    90.56543   143.85947
   279  C   4.0   -0.13    3.98    3.59    97.33954    94.49193   146.45244
   280  C   4.0   -0.15    3.98    3.58    96.61162    95.00500   149.20003
   281  C   4.0   -0.03    3.98    3.59    97.25060    97.70797   150.03323
   282  N   5.0   -0.47    3.02    1.93    95.85698    99.61335   148.65246
   283  C   4.0    0.37    3.00    3.02    93.48399   100.31576   149.05298
   284  N   5.0   -0.65    3.01    1.93    92.03982    99.25363   150.82540
   285  N   5.0   -0.64    3.02    1.93    92.57002   102.19688   147.65798
   286  H   1.0    0.26    1.00    1.43    99.85773    97.03513   142.79127
   287  H   1.0    0.14    0.99    1.43   101.21958    94.92889   147.76529
   288  H   1.0    0.14    0.99    1.43    96.40117    95.86002   145.22857
   289  H   1.0    0.12    0.99    1.43    96.70173    92.61120   145.89917
   290  H   1.0    0.11    0.99    1.43    94.58972    94.66823   149.40343
   291  H   1.0    0.10    0.99    1.43    97.60952    93.69544   150.43604
   292  H   1.0    0.11    0.99    1.43    96.89159    97.92125   152.05527
   293  H   1.0    0.13    0.99    1.43    99.25492    98.07639   149.71855
   294  H   1.0    0.29    1.00    1.43    96.69966   100.46115   147.13411
   295  H   1.0    0.25    1.00    1.43    92.68470    97.82773   151.90483
   296  H   1.0    0.26    1.00    1.43    90.29167    99.93207   151.14665
   297  H   1.0    0.31    1.00    1.43    93.66075   102.88018   146.24191
   298  H   1.0    0.26    1.00    1.43    90.75130   102.73521   147.77970
   299  N   5.0   -0.48    3.01    1.93   103.80596    92.06193   145.02723
   300  C   4.0    0.08    3.99    3.61   105.28466    90.01506   143.97551
   301  C   4.0    0.29    3.01    3.02   106.11852    88.19537   146.09951
   302  O   6.0   -0.41    1.00    1.80   108.32111    88.02707   146.75247
   303  C   4.0   -0.08    3.99    3.60   107.60857    91.05377   142.62136
   304  C   4.0    0.27    3.00    3.02   108.80990    88.97677   141.05425
   305  O   6.0   -0.43    1.00    1.80   107.57357    87.64097   139.62764
   306  N   5.0   -0.65    3.00    1.93   111.31551    88.75034   141.33103
   307  H   1.0    0.28    1.00    1.43   104.77299    93.56704   145.69444
   308  H   1.0    0.15    0.99    1.43   104.05721    88.97181   142.67310
   309  H   1.0    0.15    0.99    1.43   107.03928    92.61064   141.39111
   310  H   1.0    0.13    0.99    1.43   108.92421    91.76451   144.03781
   311  H   1.0    0.27    1.00    1.43   112.22991    87.32791   140.45776
   312  H   1.0    0.27    1.00    1.43   112.24985    89.71313   142.67734
   313  N   5.0   -0.47    3.00    1.93   104.20046    86.93040   147.16126
   314  C   4.0    0.03    3.99    3.60   104.60097    85.11943   149.16410
   315  C   4.0    0.07    2.99    3.02   103.85760    86.09664   151.78767
   316  O   6.0   -0.38    1.00    1.80   105.33690    86.08733   153.55175
   317  H   1.0    0.29    1.00    1.43   102.49377    86.95361   146.29720
   318  H   1.0    0.13    0.99    1.43   103.49138    83.42181   148.76828
   319  H   1.0    0.17    0.99    1.43   106.61017    84.65078   149.22943
   320  N   5.0   -0.70    3.00    1.93    75.76997    86.24598   150.22555
   321  C   4.0    0.07    3.99    3.60    77.58455    87.93360   149.08189
   322  C   4.0    0.30    3.01    3.02    77.06919    88.01770   146.23853
   323  O   6.0   -0.40    1.00    1.80    76.31607    86.13828   145.11395
   324  C   4.0   -0.14    3.99    3.60    80.31327    87.03301   149.58783
   325  C   4.0   -0.03    3.03    3.02    82.20055    88.79328   148.40693
   326  C   4.0   -0.10    3.03    3.02    83.15443    90.84775   149.73269
   327  C   4.0   -0.07    3.03    3.02    82.98114    88.41859   145.92630
   328  C   4.0   -0.10    3.03    3.02    84.88109    92.46839   148.61860
   329  C   4.0   -0.09    3.03    3.02    84.70961    90.03355   144.81639
   330  C   4.0   -0.10    3.03    3.02    85.68129    92.05363   146.16431
   331  H   1.0    0.29    1.00    1.43    75.37755    84.66652   149.22051
   332  H   1.0    0.12    0.99    1.43    77.28619    89.79225   149.93500
   333  H   1.0    0.10    0.99    1.43    80.56758    86.91558   151.63278
   334  H   1.0    0.12    0.99    1.43    80.53607    85.13182   148.81773
   335  H   1.0    0.11    0.99    1.43    82.53807    91.15688   151.65408
   336  H   1.0    0.14    0.99    1.43    82.22698    86.84112   144.86958
   337  H   1.0    0.11    1.00    1.43    85.59645    94.05169   149.67906
   338  H   1.0    0.11    1.00    1.43    85.30267    89.70389   142.89469
   339  H   1.0    0.11    1.00    1.43    87.06518    93.26892   145.29223
   340  N   5.0   -0.47    3.01    1.93    77.63269    90.22768   145.16857
   341  C   4.0    0.10    3.99    3.61    77.06663    90.87697   142.58069
   342  C   4.0    0.25    3.03    3.02    78.98079    92.83583   141.72754
   343  O   6.0   -0.43    1.00    1.80    79.49010    94.64487   143.07883
   344  C   4.0    0.05    3.98    3.59    74.41638    92.13922   142.45553
   345  O   6.0   -0.44    1.99    1.82    72.73748    90.69586   143.94865
   346  C   4.0   -0.21    3.98    3.59    73.56019    92.44385   139.72865
   347  H   1.0    0.25    1.00    1.43    78.11023    91.72130   146.26470
   348  H   1.0    0.17    0.99    1.43    77.09539    89.17447   141.42217
   349  H   1.0    0.13    0.99    1.43    74.59273    94.01585   143.35384
   350  H   1.0    0.26    0.99    1.43    71.15755    90.49743   143.06822
   351  H   1.0    0.11    0.99    1.43    71.82863    93.54775   139.65104
   352  H   1.0    0.12    0.99    1.43    75.00950    93.39548   138.62721
   353  H   1.0    0.16    0.99    1.43    73.20809    90.60544   138.87117
   354  N   5.0   -0.50    3.00    1.93    79.99766    92.52815   139.43462
   355  C   4.0    0.09    4.00    3.62    81.48799    94.55618   138.37194
   356  C   4.0    0.26    3.01    3.02    81.65344    94.36565   135.51703
   357  O   6.0   -0.46    1.00    1.80    80.97953    92.48177   134.35025
   358  C   4.0    0.05    3.97    3.58    84.20126    94.66543   139.53464
   359  O   6.0   -0.50    1.99    1.83    85.19044    97.11128   139.24890
   360  C   4.0   -0.20    3.98    3.59    86.01064    92.79213   138.30941
   361  H   1.0    0.28    1.00    1.43    79.54869    91.00303   138.36357
   362  H   1.0    0.13    0.99    1.43    80.55519    96.34110   138.88631
   363  H   1.0    0.13    0.99    1.43    83.97570    94.19014   141.54269
   364  H   1.0    0.26    0.99    1.43    84.26041    98.25476   140.32757
   365  H   1.0    0.09    0.99    1.43    87.75574    92.70689   139.38645
   366  H   1.0    0.10    0.99    1.43    85.14921    90.93075   138.24136
   367  H   1.0    0.13    0.99    1.43    86.46822    93.37723   136.39415
   368  N   5.0   -0.50    3.01    1.93    82.61855    96.43717   134.40175
   369  C   4.0    0.08    4.00    3.62    83.47497    96.32513   131.82770
   370  C   4.0    0.27    3.02    3.02    86.14501    97.36726   131.57525
   371  O   6.0   -0.43    1.00    1.80    86.83891    99.22886   132.75572
   372  C   4.0   -0.01    3.98    3.59    81.86526    97.91258   129.98504
   373  O   6.0   -0.49    1.99    1.82    82.71137    97.55962   127.49147
   374  H   1.0    0.28    1.00    1.43    83.45571    97.77569   135.49387
   375  H   1.0    0.16    0.99    1.43    83.37579    94.35167   131.21565
   376  H   1.0    0.11    0.99    1.43    79.86748    97.38843   130.19219
   377  H   1.0    0.13    0.99    1.43    82.06261    99.92416   130.40539
   378  H   1.0    0.29    0.99    1.43    82.90381    95.74925   127.24221
   379  N   5.0   -0.49    3.01    1.93    87.56316    96.14232   129.88041
   380  C   4.0    0.08    4.00    3.62    89.74915    97.33045   128.74027
   381  C   4.0    0.26    3.02    3.02    88.99106    97.86731   125.99884
   382  O   6.0   -0.46    1.00    1.80    88.70952    96.12267   124.48023
   383  C   4.0   -0.08    3.98    3.58    92.16678    95.73622   128.87638
   384  C   4.0   -0.15    3.98    3.59    92.75273    95.00876   131.62653
   385  C   4.0   -0.23    3.99    3.60    94.31886    97.31046   127.76293
   386  C   4.0   -0.23    3.98    3.58    91.66600    92.46406   132.41889
   387  H   1.0    0.27    1.00    1.43    86.78098    94.69811   128.89506
   388  H   1.0    0.13    0.99    1.43    90.08145    99.07301   129.78795
   389  H   1.0    0.12    0.99    1.43    91.89469    94.03174   127.73703
   390  H   1.0    0.10    0.99    1.43    94.80085    94.95083   131.86603
   391  H   1.0    0.13    0.99    1.43    92.00590    96.46121   132.88643
   392  H   1.0    0.10    0.99    1.43    96.00081    96.15597   127.54665
   393  H   1.0    0.14    0.99    1.43    93.80215    98.06184   125.92017
   394  H   1.0    0.11    0.99    1.43    94.74539    98.88076   129.01679
   395  H   1.0    0.10    0.99    1.43    92.14218    92.08439   134.38106
   396  H   1.0    0.12    0.99    1.43    89.61886    92.43737   132.24159
   397  H   1.0    0.09    0.99    1.43    92.43401    90.95625   131.25277
   398  N   5.0   -0.32    3.03    1.93    88.59331   100.26458   125.35662
   399  C   4.0    0.07    4.03    3.68    88.14727   100.92220   122.72811
   400  C   4.0    0.27    3.02    3.02    90.64652   100.73976   121.28934
   401  O   6.0   -0.42    1.00    1.80    92.68811   100.75730   122.38233
   402  C   4.0   -0.14    4.01    3.63    87.23095   103.67983   122.75893
   403  C   4.0   -0.14    4.01    3.64    86.68160   104.19788   125.54633
   404  C   4.0   -0.04    4.02    3.66    88.58533   102.51769   126.91318
   405  H   1.0    0.11    0.99    1.43    86.75804    99.63418   121.90282
   406  H   1.0    0.13    0.99    1.43    88.72016   104.92866   122.07046
   407  H   1.0    0.10    0.99    1.43    85.57451   103.91962   121.56841
   408  H   1.0    0.10    0.99    1.43    86.89010   106.17916   126.04045
   409  H   1.0    0.12    0.99    1.43    84.77687   103.56531   126.01319
   410  H   1.0    0.12    0.99    1.43    90.47432   103.36759   126.91216
   411  H   1.0    0.12    0.99    1.43    88.00449   102.11049   128.84363
   412  N   5.0   -0.49    3.01    1.93    90.41157   100.65214   118.78180
   413  C   4.0    0.07    4.00    3.62    92.59284   100.96326   117.17212
   414  C   4.0    0.27    3.01    3.02    93.07425   103.79992   116.86165
   415  O   6.0   -0.41    1.00    1.80    91.44818   105.39538   117.17876
   416  C   4.0   -0.14    3.98    3.59    92.24723    99.69177   114.59960
   417  C   4.0   -0.10    3.98    3.58    92.94137    96.87372   114.59748
   418  C   4.0   -0.23    3.98    3.59    95.79590    96.50002   114.83593
   419  C   4.0   -0.21    3.98    3.59    91.54714    95.42052   116.66619
   420  H   1.0    0.23    1.00    1.43    88.68078   100.61657   117.97508
   421  H   1.0    0.12    0.99    1.43    94.19594   100.13719   118.19035
   422  H   1.0    0.11    0.99    1.43    90.27796    99.93057   114.03248
   423  H   1.0    0.11    0.99    1.43    93.42483   100.65755   113.20649
   424  H   1.0    0.11    0.99    1.43    92.34305    96.12398   112.76450
   425  H   1.0    0.10    0.99    1.43    96.27892    94.52088   114.57736
   426  H   1.0    0.09    0.99    1.43    96.79594    97.60195   113.41744
   427  H   1.0    0.10    0.99    1.43    96.44759    97.05582   116.70441
   428  H   1.0    0.10    0.99    1.43    91.84112    93.39840   116.44799
   429  H   1.0    0.13    0.99    1.43    92.21479    95.95348   118.53759
   430  H   1.0    0.12    0.99    1.43    89.52634    95.79050   116.59192
   431  N   5.0   -0.51    3.01    1.93    95.46556   104.36219   116.16411
   432  C   4.0    0.07    3.99    3.60    96.35929   106.94662   116.17534
   433  C   4.0    0.05    3.00    3.02    97.48404   107.81912   113.65382
   434  O   6.0   -0.41    1.00    1.80    97.68987   110.08814   113.19284
   435  C   4.0   -0.14    3.98    3.59    98.22883   107.39939   118.36754
   436  C   4.0   -0.16    3.98    3.58   100.75795   106.00981   118.14060
   437  C   4.0   -0.16    3.98    3.59   102.38569   106.59390   120.47247
   438  C   4.0   -0.07    3.98    3.58   105.21258   106.21404   120.05199
   439  N   5.0   -0.72    3.98    2.80   106.35303   108.31799   118.59197
   440  H   1.0    0.21    1.00    1.43    96.77574   102.97806   116.24871
   441  H   1.0    0.16    0.99    1.43    94.67023   108.09998   116.53049
   442  H   1.0    0.11    0.99    1.43    98.57563   109.42680   118.48591
   443  H   1.0    0.12    0.99    1.43    97.29487   106.80589   120.10877
   444  H   1.0    0.10    0.99    1.43   100.46785   103.97078   118.02337
   445  H   1.0    0.11    0.99    1.43   101.71023   106.59886   116.41052
   446  H   1.0    0.11    0.99    1.43   102.04246   108.53131   121.08276
   447  H   1.0    0.09    0.99    1.43   101.80136   105.36269   122.01471
   448  H   1.0    0.09    0.99    1.43   106.19208   106.10731   121.86189
   449  H   1.0    0.10    0.99    1.43   105.57220   104.46865   119.01498
   450  H   1.0    0.21    0.99    1.43   108.20011   107.70758   117.96378
   451  H   1.0    0.24    1.00    1.43   105.31178   108.68610   117.00096
   452  H   1.0    0.23    1.00    1.43   106.49035   109.93025   119.65541
   453  N   5.0   -0.68    3.00    1.93   104.01913    98.89309   108.98954
   454  C   4.0    0.07    3.98    3.59   105.16901    97.20520   110.83587
   455  C   4.0    0.08    3.00    3.02   105.70405    94.60912   109.64625
   456  O   6.0   -0.39    1.00    1.80   104.19890    93.53912   108.27341
   457  C   4.0   -0.09    3.98    3.59   103.39322    96.90820   113.12744
   458  C   4.0   -0.22    3.98    3.59   104.16293    94.70286   114.82328
   459  C   4.0   -0.24    3.98    3.59   103.34987    99.35900   114.64634
   460  H   1.0    0.26    1.00    1.43   102.10555    99.06394   109.04914
   461  H   1.0    0.11    0.99    1.43   106.97099    98.02922   111.43789
   462  H   1.0    0.11    0.99    1.43   101.49755    96.51467   112.39672
   463  H   1.0    0.10    0.99    1.43   102.98339    94.68334   116.50420
   464  H   1.0    0.12    0.99    1.43   103.93043    92.89819   113.86858
   465  H   1.0    0.15    0.99    1.43   106.11771    94.86162   115.42449
   466  H   1.0    0.09    0.99    1.43   102.12458    99.13000   116.27845
   467  H   1.0    0.10    0.99    1.43   105.24900    99.78197   115.31161
   468  H   1.0    0.09    0.99    1.43   102.67415   100.91174   113.48350
   469  N   5.0   -0.68    3.00    1.93   107.88873    87.54023   112.04537
   470  C   4.0    0.08    3.99    3.60   107.98098    85.71592   114.09054
   471  C   4.0    0.25    3.00    3.02   106.95400    86.85205   116.55762
   472  O   6.0   -0.46    1.00    1.80   107.41712    88.99379   117.25334
   473  C   4.0   -0.08    3.99    3.60   110.65170    84.70960   114.62739
   474  C   4.0    0.29    3.00    3.02   111.86903    83.67358   112.23716
   475  O   6.0   -0.37    1.00    1.80   110.68401    83.22291   110.30905
   476  N   5.0   -0.65    3.00    1.93   114.38016    83.40585   112.38557
   477  H   1.0    0.28    1.00    1.43   106.70765    87.11268   110.61492
   478  H   1.0    0.12    0.99    1.43   106.80246    84.12432   113.49850
   479  H   1.0    0.14    0.99    1.43   111.83881    86.18793   115.44536
   480  H   1.0    0.11    0.99    1.43   110.54126    83.15187   115.98256
   481  H   1.0    0.28    1.00    1.43   115.29447    82.49811   110.98233
   482  H   1.0    0.27    1.00    1.43   115.29639    83.67596   114.02976
   483  N   5.0   -0.49    3.02    1.93   105.51779    85.21649   117.84428
   484  C   4.0    0.07    3.99    3.60   104.38706    85.57789   120.32054
   485  C   4.0    0.27    3.02    3.02   104.28302    82.90615   121.42992
   486  O   6.0   -0.42    1.00    1.80   103.34524    81.16038   120.23532
   487  C   4.0   -0.13    3.98    3.59   101.75705    86.79713   120.05582
   488  C   4.0   -0.10    3.97    3.58   100.00339    86.48086   122.34306
   489  C   4.0   -0.22    3.98    3.59   101.15239    87.44046   124.80808
   490  C   4.0   -0.24    3.99    3.60    97.52529    87.88330   121.84911
   491  H   1.0    0.26    1.00    1.43   105.22310    83.47710   117.11221
   492  H   1.0    0.13    0.99    1.43   105.63493    86.77208   121.44740
   493  H   1.0    0.10    0.99    1.43   102.04087    88.79754   119.64465
   494  H   1.0    0.12    0.99    1.43   100.84779    85.94343   118.41031
   495  H   1.0    0.12    0.99    1.43    99.60512    84.45795   122.53849
   496  H   1.0    0.09    0.99    1.43    99.82705    87.12280   126.34412
   497  H   1.0    0.14    0.99    1.43   102.89169    86.46168   125.27852
   498  H   1.0    0.10    0.99    1.43   101.53022    89.45816   124.69378
   499  H   1.0    0.09    0.99    1.43    96.23119    87.60711   123.42037
   500  H   1.0    0.10    0.99    1.43    97.88717    89.89780   121.66092
   501  H   1.0    0.10    0.99    1.43    96.64662    87.21482   120.11742
   502  N   5.0   -0.48    3.01    1.93   105.35673    82.68620   123.69673
   503  C   4.0    0.10    3.99    3.61   105.54906    80.33901   125.07589
   504  C   4.0    0.26    3.01    3.02   103.98556    80.61849   127.50664
   505  O   6.0   -0.43    1.00    1.80   104.38302    82.36072   128.97801
   506  C   4.0   -0.01    3.98    3.59   108.31002    79.82788   125.77321
   507  O   6.0   -0.45    1.99    1.82   109.72532    79.62492   123.52727
   508  H   1.0    0.29    1.00    1.43   106.23313    84.19393   124.49662
   509  H   1.0    0.14    0.99    1.43   104.82081    78.83401   123.85991
   510  H   1.0    0.13    0.99    1.43   108.97589    81.40596   126.94909
   511  H   1.0    0.11    0.99    1.43   108.39918    78.06967   126.87587
   512  H   1.0    0.25    0.99    1.43   111.47816    79.35776   123.94610
   513  N   5.0   -0.48    3.01    1.93   102.17689    78.89502   127.78899
   514  C   4.0    0.08    3.99    3.61   100.43550    78.85861   129.90375
   515  C   4.0    0.06    3.00    3.02   100.78664    76.36001   131.32315
   516  O   6.0   -0.41    1.00    1.80   100.64886    74.31609   130.23408
   517  C   4.0   -0.08    3.98    3.59    97.70484    79.10715   128.92927
   518  C   4.0   -0.24    3.98    3.59    95.81822    78.81124   131.08836
   519  C   4.0   -0.23    3.98    3.59    97.36034    81.65460   127.62474
   520  H   1.0    0.25    1.00    1.43   102.00005    77.47517   126.51723
   521  H   1.0    0.15    0.99    1.43   100.92510    80.45064   131.12522
   522  H   1.0    0.13    0.99    1.43    97.42222    77.58537   127.55458
   523  H   1.0    0.09    0.99    1.43    93.91534    79.06552   130.36410
   524  H   1.0    0.11    0.99    1.43    95.96098    76.93954   131.92511
   525  H   1.0    0.10    0.99    1.43    96.16931    80.22292   132.54141
   526  H   1.0    0.09    0.99    1.43    95.51587    81.74310   126.73086
   527  H   1.0    0.10    0.99    1.43    97.50624    83.17466   129.00178
   528  H   1.0    0.12    0.99    1.43    98.80753    81.93286   126.19102
   529  N   5.0   -0.70    3.01    1.93    97.92951    73.21905   138.00688
   530  C   4.0    0.06    3.98    3.59    95.94731    73.22725   139.90500
   531  C   4.0    0.07    3.01    3.02    96.29994    70.75804   141.36465
   532  O   6.0   -0.41    1.00    1.80    95.86600    68.67993   140.41910
   533  C   4.0   -0.08    3.98    3.58    93.32029    73.39538   138.66185
   534  C   4.0   -0.17    3.98    3.59    92.92960    76.05428   137.56973
   535  C   4.0   -0.22    3.98    3.59    91.26613    72.73971   140.58136
   536  C   4.0   -0.24    3.98    3.58    90.86490    76.15406   135.56285
   537  H   1.0    0.28    1.00    1.43    97.83164    71.76304   136.76320
   538  H   1.0    0.10    0.99    1.43    96.25495    74.84330   141.15772
   539  H   1.0    0.13    0.99    1.43    93.28423    72.00373   137.13033
   540  H   1.0    0.11    0.99    1.43    92.44828    77.33892   139.11163
   541  H   1.0    0.09    0.99    1.43    94.69865    76.70470   136.72516
   542  H   1.0    0.10    0.99    1.43    89.41181    72.97846   139.73729
   543  H   1.0    0.12    0.99    1.43    91.43231    70.78877   141.21099
   544  H   1.0    0.10    0.99    1.43    91.39199    73.98101   142.21456
   545  H   1.0    0.09    0.99    1.43    90.68641    78.06833   134.84038
   546  H   1.0    0.10    0.99    1.43    91.33378    74.90387   133.99808
   547  H   1.0    0.10    0.99    1.43    89.04510    75.58953   136.33198
   548  N   5.0   -0.69    3.01    1.93    79.58813    79.40211   127.59459
   549  C   4.0    0.06    3.98    3.59    80.30936    77.15967   129.00140
   550  C   4.0    0.08    3.00    3.02    78.94916    77.36777   131.54497
   551  O   6.0   -0.42    1.00    1.80    79.28860    79.12471   133.01725
   552  C   4.0   -0.09    3.98    3.58    83.19740    76.96334   129.22819
   553  C   4.0   -0.17    3.98    3.59    84.32772    76.38262   126.62111
   554  C   4.0   -0.23    3.98    3.59    83.87287    74.93775   131.16807
   555  C   4.0   -0.24    3.98    3.58    87.15149    76.93169   126.47996
   556  H   1.0    0.32    1.00    1.43    80.02664    81.07616   128.42486
   557  H   1.0    0.10    0.99    1.43    79.56500    75.51353   127.99758
   558  H   1.0    0.11    0.99    1.43    83.88875    78.79656   129.88910
   559  H   1.0    0.10    0.99    1.43    83.95695    74.39909   126.18236
   560  H   1.0    0.10    0.99    1.43    83.34229    77.53048   125.21524
   561  H   1.0    0.09    0.99    1.43    85.90590    74.80759   131.40291
   562  H   1.0    0.12    0.99    1.43    83.03899    75.40559   132.98890
   563  H   1.0    0.10    0.99    1.43    83.14632    73.10780   130.57371
   564  H   1.0    0.10    0.99    1.43    87.83810    76.57722   124.57981
   565  H   1.0    0.09    0.99    1.43    87.49925    78.89687   126.96581
   566  H   1.0    0.10    0.99    1.43    88.18167    75.74132   127.79223
   567  H   1.0    0.30    1.00    1.43    83.04809    96.89307   116.60492
   568  H   1.0    0.14    1.00    1.43    75.43811    80.83646   142.40409
   569  H   1.0    0.29    1.00    1.43    95.79833    79.99372   145.98436
   570  H   1.0    0.11    1.00    1.43   113.21640    97.17357   115.82191
   571  H   1.0    0.26    1.00    1.43   119.30629    98.35336   120.97774
   572  H   1.0    0.13    1.00    1.43   102.11620    86.76620   152.08808
   573  H   1.0    0.29    1.00    1.43    76.35285    85.72460   151.73584
   574  H   1.0    0.12    1.00    1.43    98.05180   106.54334   112.38060
   575  H   1.0    0.28    1.00    1.43   104.62913   100.46648   109.20143
   576  H   1.0    0.13    1.00    1.43   107.34226    93.73196   109.98965
   577  H   1.0    0.32    1.00    1.43   107.38071    89.04631   112.65053
   578  H   1.0    0.13    1.00    1.43   101.13707    76.36937   133.18008
   579  H   1.0    0.28    1.00    1.43    97.84970    74.65341   137.09649
   580  H   1.0    0.12    1.00    1.43    96.90383    70.79668   143.15487
   581  H   1.0    0.28    1.00    1.43    80.36736    79.39897   126.08285
   582  H   1.0    0.13    1.00    1.43    77.71926    76.03286   132.07075

           ------------------------------------------------- 
          |        Self-Consistent Charge Iterations        |
           ------------------------------------------------- 

          ...................................................
          :                      SETUP                      :
          :.................................................:
          :  # basis functions                1428          :
          :  # atomic orbitals                1428          :
          :  # shells                          864          :
          :  # electrons                      1574          :
          :  max. iterations                   250          :
          :  Hamiltonian                  GFN2-xTB          :
          :  restarted?                      false          :
          :  GBSA solvation                   true          :
          :  PC potential                    false          :
          :  electronic temp.          500.0000000     K    :
          :  accuracy                    0.1000000          :
          :  -> integral cutoff          0.3500000E+02      :
          :  -> integral neglect         0.1000000E-08      :
          :  -> SCF convergence          0.1000000E-06 Eh   :
          :  -> wf. convergence          0.1000000E-04 e    :
          :  Broyden damping             0.4000000          :
          ...................................................

 iter      E             dE          RMSdq      gap      omega  full diag
   1   -898.2873564 -0.898287E+03  0.419E+00    1.99       0.0  T
   2   -900.6594206 -0.237206E+01  0.217E+00    1.29       1.0  T
   3   -900.7448506 -0.854300E-01  0.118E+00    1.73       1.0  T
   4   -900.7735293 -0.286787E-01  0.311E-01    1.20       1.0  T
   5   -900.8059929 -0.324636E-01  0.123E-01    1.33       1.0  T
   6   -900.8076834 -0.169046E-02  0.683E-02    1.31       1.0  T
   7   -900.8084397 -0.756316E-03  0.317E-02    1.30       1.0  T
   8   -900.8085707 -0.131044E-03  0.115E-02    1.29       1.0  T
   9   -900.8085887 -0.179410E-04  0.635E-03    1.29       1.0  T
  10   -900.8085937 -0.500440E-05  0.292E-03    1.28       1.4  T
  11   -900.8085947 -0.103431E-05  0.132E-03    1.28       3.1  T
  12   -900.8085950 -0.310282E-06  0.587E-04    1.28       7.1  T
  13   -900.8085950 -0.398708E-07  0.290E-04    1.28      14.3  T
  14   -900.8085951 -0.109289E-07  0.134E-04    1.28      30.9  T
  15   -900.8085951 -0.328066E-08  0.616E-05    1.28      67.3  T
  16   -900.8085951 -0.616183E-09  0.308E-05    1.28     134.4  T

   *** convergence criteria satisfied after 16 iterations ***

         #    Occupation            Energy/Eh            Energy/eV
      -------------------------------------------------------------
         1        2.0000           -0.7379193             -20.0798
       ...           ...                  ...                  ...
       781        2.0000           -0.3652388              -9.9387
       782        2.0000           -0.3626634              -9.8686
       783        2.0000           -0.3576601              -9.7324
       784        2.0000           -0.3562214              -9.6933
       785        2.0000           -0.3552001              -9.6655
       786        2.0000           -0.3536559              -9.6235
       787        2.0000           -0.3458202              -9.4102 (HOMO)
       788        0.0000           -0.2987937              -8.1306 (LUMO)
       789                         -0.2955257              -8.0417
       790                         -0.2918915              -7.9428
       791                         -0.2905176              -7.9054
       792                         -0.2897111              -7.8834
       ...                                ...                  ...
      1428                          0.7282487              19.8167
      -------------------------------------------------------------
                  HL-Gap            0.0470265 Eh            1.2797 eV
             Fermi-level           -0.3224092 Eh           -8.7732 eV

 SCC (total)                   0 d,  0 h,  0 min, 36.755 sec
 SCC setup                      ...        0 min,  0.532 sec (  1.447%)
 Dispersion                     ...        0 min,  0.348 sec (  0.947%)
 integral evaluation            ...        0 min,  1.182 sec (  3.215%)
 zeroth order Hamiltonian       ...        0 min,  0.021 sec (  0.057%)
 iterations                     ...        0 min, 27.692 sec ( 75.342%)
 molecular gradient             ...        0 min,  6.834 sec ( 18.592%)
 printout                       ...        0 min,  0.146 sec (  0.398%)

         :::::::::::::::::::::::::::::::::::::::::::::::::::::
         ::                     SUMMARY                     ::
         :::::::::::::::::::::::::::::::::::::::::::::::::::::
         :: total energy             -889.669410132874 Eh   ::
         :: total w/o Gsasa/hb       -889.560812753181 Eh   ::
         :: gradient norm               0.635301476952 Eh/α ::
         :: HOMO-LUMO gap               1.279655968330 eV   ::
         ::.................................................::
         :: SCC energy               -900.832877034133 Eh   ::
         :: -> isotropic ES             2.807918031700 Eh   ::
         :: -> anisotropic ES          -0.094837967158 Eh   ::
         :: -> anisotropic XC           0.286345661011 Eh   ::
         :: -> dispersion              -0.767359914448 Eh   ::
         :: -> Gsolv                   -0.801968108743 Eh   ::
         ::    -> Gborn                -0.693370729050 Eh   ::
         ::    -> Gsasa                -0.026139419231 Eh   ::
         ::    -> Ghb                  -0.084315403589 Eh   ::
         ::    -> Gshift                0.001857443127 Eh   ::
         :: repulsion energy           11.088642863121 Eh   ::
         :: add. restraining            0.000000000000 Eh   ::
         :::::::::::::::::::::::::::::::::::::::::::::::::::::

           -------------------------------------------------
          |                Property Printout                |
           -------------------------------------------------

    * Orbital Energies and Occupations

         #    Occupation            Energy/Eh            Energy/eV
      -------------------------------------------------------------
         1        2.0000           -0.7379193             -20.0798
       ...           ...                  ...                  ...
       775        2.0000           -0.3722745             -10.1301
       776        2.0000           -0.3717329             -10.1154
       777        2.0000           -0.3712716             -10.1028
       778        2.0000           -0.3681003             -10.0165
       779        2.0000           -0.3676029             -10.0030
       780        2.0000           -0.3661218              -9.9627
       781        2.0000           -0.3652388              -9.9387
       782        2.0000           -0.3626634              -9.8686
       783        2.0000           -0.3576601              -9.7324
       784        2.0000           -0.3562214              -9.6933
       785        2.0000           -0.3552001              -9.6655
       786        2.0000           -0.3536559              -9.6235
       787        2.0000           -0.3458202              -9.4102 (HOMO)
       788        0.0000           -0.2987937              -8.1306 (LUMO)
       789                         -0.2955257              -8.0417
       790                         -0.2918915              -7.9428
       791                         -0.2905176              -7.9054
       792                         -0.2897111              -7.8834
       793                         -0.2886981              -7.8559
       794                         -0.2883140              -7.8454
       795                         -0.2714349              -7.3861
       796                         -0.2479294              -6.7465
       797                         -0.2430742              -6.6144
       798                         -0.2397869              -6.5249
       ...                                ...                  ...
      1428                          0.7282487              19.8167
      -------------------------------------------------------------
                  HL-Gap            0.0470265 Eh            1.2797 eV
             Fermi-level           -0.3224092 Eh           -8.7732 eV

   #   Z        covCN         q      C6AA      α(0)
   1   7 N      2.636    -0.382    29.872     8.117
   2   6 C      3.790     0.049    19.758     6.330
   3   6 C      2.755     0.281    22.235     7.722
   4   8 O      0.858    -0.498    23.751     6.534
   5   6 C      3.799    -0.094    22.298     6.723
   6   6 C      2.681     0.373    20.685     7.443
   7   8 O      0.856    -0.633    26.956     6.961
   8   8 O      0.857    -0.654    27.485     7.029
   9   1 H      0.860     0.156     1.359     1.826
  10   1 H      0.923     0.031     2.578     2.511
  11   1 H      0.924     0.013     2.834     2.633
  12   1 H      0.924     0.018     2.757     2.596
  13   7 N      2.700    -0.198    25.293     7.469
  14   6 C      3.795     0.033    20.033     6.374
  15   6 C      2.759     0.274    22.368     7.745
  16   8 O      0.858    -0.507    23.944     6.561
  17   6 C      3.810    -0.072    21.870     6.657
  18   6 C      3.849    -0.011    20.739     6.478
  19   6 C      3.756    -0.114    22.742     6.799
  20   6 C      3.757    -0.116    22.776     6.804
  21   1 H      0.860     0.217     1.022     1.584
  22   1 H      0.924     0.057     2.237     2.339
  23   1 H      0.924     0.068     2.106     2.269
  24   1 H      0.924     0.057     2.229     2.335
  25   1 H      0.924     0.023     2.694     2.567
  26   1 H      0.925     0.057     2.235     2.338
  27   1 H      0.925     0.014     2.829     2.630
  28   1 H      0.925     0.050     2.319     2.382
  29   1 H      0.925     0.052     2.291     2.367
  30   1 H      0.925     0.053     2.280     2.362
  31   1 H      0.925     0.047     2.359     2.402
  32   7 N      2.693    -0.158    24.418     7.339
  33   6 C      3.794     0.028    20.106     6.385
  34   6 C      2.760     0.270    22.432     7.756
  35   8 O      0.858    -0.486    23.470     6.495
  36   6 C      3.809    -0.066    21.752     6.639
  37   6 C      3.849     0.008    20.401     6.425
  38   6 C      3.757    -0.106    22.574     6.774
  39   6 C      3.757    -0.104    22.549     6.771
  40   1 H      0.860     0.201     1.099     1.642
  41   1 H      0.924     0.072     2.060     2.245
  42   1 H      0.924     0.048     2.345     2.395
  43   1 H      0.924     0.041     2.438     2.442
  44   1 H      0.923     0.003     3.012     2.714
  45   1 H      0.925     0.041     2.436     2.441
  46   1 H      0.925     0.035     2.514     2.480
  47   1 H      0.925     0.042     2.425     2.435
  48   1 H      0.925     0.045     2.380     2.413
  49   1 H      0.925     0.036     2.499     2.472
  50   1 H      0.925     0.031     2.569     2.506
  51   7 N      2.690    -0.170    24.683     7.379
  52   6 C      3.795     0.021    20.231     6.405
  53   6 C      2.755     0.273    22.387     7.748
  54   8 O      0.858    -0.485    23.465     6.495
  55   6 C      3.809    -0.062    21.685     6.629
  56   6 C      3.849    -0.005    20.642     6.462
  57   6 C      3.756    -0.119    22.840     6.814
  58   6 C      3.756    -0.112    22.692     6.792
  59   1 H      0.860     0.218     1.021     1.583
  60   1 H      0.924     0.084     1.941     2.179
  61   1 H      0.924     0.042     2.417     2.431
  62   1 H      0.924     0.053     2.278     2.360
  63   1 H      0.924     0.017     2.782     2.608
  64   1 H      0.925     0.059     2.212     2.326
  65   1 H      0.925     0.042     2.426     2.436
  66   1 H      0.925     0.052     2.292     2.367
  67   1 H      0.925     0.054     2.270     2.356
  68   1 H      0.925     0.045     2.385     2.415
  69   1 H      0.925     0.028     2.618     2.531
  70   7 N      2.690    -0.172    24.727     7.385
  71   6 C      3.789     0.044    19.855     6.346
  72   6 C      2.772     0.198    23.786     7.988
  73   8 O      0.856    -0.365    20.994     6.143
  74   6 C      3.804    -0.091    22.237     6.713
  75   6 C      2.682     0.375    20.649     7.436
  76   8 O      0.856    -0.618    26.571     6.911
  77   8 O      0.856    -0.634    26.974     6.963
  78   1 H      0.860     0.211     1.050     1.605
  79   1 H      0.924     0.080     1.975     2.198
  80   1 H      0.925     0.039     2.459     2.452
  81   1 H      0.924     0.039     2.466     2.456
  82   7 N      2.637    -0.387    30.021     8.137
  83   6 C      3.787     0.031    20.062     6.380
  84   6 C      2.759     0.272    22.409     7.752
  85   8 O      0.858    -0.480    23.341     6.477
  86   6 C      3.814    -0.074    21.908     6.662
  87   6 C      2.965     0.005    27.911     8.666
  88   6 C      2.923    -0.044    29.105     8.847
  89   6 C      2.929    -0.042    29.040     8.838
  90   6 C      2.918    -0.075    29.881     8.964
  91   6 C      2.917    -0.054    29.350     8.884
  92   6 C      2.846     0.143    24.882     8.175
  93   8 O      1.659    -0.453    21.897     6.317
  94   1 H      0.860     0.162     1.324     1.802
  95   1 H      0.924     0.038     2.480     2.463
  96   1 H      0.924     0.055     2.254     2.348
  97   1 H      0.924     0.049     2.337     2.391
  98   1 H      0.926     0.047     2.357     2.401
  99   1 H      0.926     0.047     2.363     2.404
 100   1 H      0.925     0.039     2.466     2.456
 101   1 H      0.926     0.037     2.488     2.467
 102   1 H      0.805     0.344     0.603     1.219
 103   7 N      2.697    -0.170    24.682     7.379
 104   6 C      3.795     0.026    20.136     6.390
 105   6 C      2.758     0.270    22.444     7.758
 106   8 O      0.858    -0.482    23.395     6.485
 107   6 C      3.813    -0.073    21.886     6.659
 108   6 C      2.971     0.001    27.992     8.678
 109   6 C      2.922    -0.043    29.060     8.840
 110   6 C      2.926    -0.041    29.015     8.834
 111   6 C      2.917    -0.078    29.942     8.973
 112   6 C      2.918    -0.060    29.501     8.907
 113   6 C      2.846     0.142    24.903     8.179
 114   8 O      1.659    -0.434    21.510     6.261
 115   1 H      0.860     0.202     1.094     1.638
 116   1 H      0.924     0.066     2.130     2.282
 117   1 H      0.925     0.059     2.208     2.324
 118   1 H      0.925     0.059     2.215     2.327
 119   1 H      0.926     0.045     2.389     2.417
 120   1 H      0.926     0.034     2.529     2.487
 121   1 H      0.926     0.049     2.330     2.387
 122   1 H      0.926     0.051     2.307     2.375
 123   1 H      0.804     0.351     0.586     1.203
 124   7 N      2.694    -0.163    24.523     7.355
 125   6 C      3.794     0.016    20.312     6.418
 126   6 C      2.760     0.280    22.265     7.727
 127   8 O      0.858    -0.471    23.146     6.450
 128   6 C      3.852    -0.022    20.927     6.506
 129   6 C      3.802    -0.066    21.764     6.642
 130   6 C      3.756    -0.114    22.745     6.800
 131   6 C      3.751    -0.106    22.593     6.779
 132   1 H      0.860     0.205     1.080     1.628
 133   1 H      0.924     0.071     2.070     2.250
 134   1 H      0.924     0.054     2.276     2.359
 135   1 H      0.924     0.049     2.332     2.388
 136   1 H      0.925     0.034     2.529     2.487
 137   1 H      0.925     0.061     2.182     2.310
 138   1 H      0.925     0.038     2.474     2.459
 139   1 H      0.925     0.041     2.441     2.443
 140   1 H      0.925     0.039     2.456     2.451
 141   1 H      0.925     0.031     2.570     2.507
 142   1 H      0.925     0.045     2.389     2.417
 143   7 N      2.691    -0.167    24.623     7.370
 144   6 C      3.798     0.022    20.206     6.401
 145   6 C      2.762     0.269    22.449     7.759
 146   8 O      0.859    -0.505    23.889     6.553
 147   6 C      3.726     0.121    18.709     6.176
 148   8 O      1.656    -0.468    22.225     6.364
 149   6 C      3.752    -0.130    23.065     6.849
 150   1 H      0.860     0.214     1.040     1.597
 151   1 H      0.924     0.082     1.954     2.186
 152   1 H      0.923     0.018     2.764     2.600
 153   1 H      0.805     0.334     0.628     1.244
 154   1 H      0.925     0.068     2.103     2.268
 155   1 H      0.925     0.033     2.543     2.494
 156   1 H      0.925     0.060     2.203     2.321
 157   7 N      2.689    -0.156    24.373     7.332
 158   6 C      3.801     0.032    20.032     6.372
 159   6 C      2.757     0.276    22.338     7.740
 160   8 O      0.858    -0.484    23.431     6.490
 161   6 C      3.807    -0.072    21.878     6.659
 162   6 C      3.057    -0.040    28.936     8.822
 163   6 C      3.030    -0.015    28.363     8.736
 164   6 C      3.117    -0.019    28.313     8.716
 165   7 N      2.779    -0.095    23.102     7.139
 166   6 C      3.087     0.042    26.962     8.512
 167   6 C      2.911    -0.036    28.897     8.815
 168   6 C      2.908    -0.061    29.524     8.910
 169   6 C      2.920    -0.044    29.088     8.844
 170   6 C      2.925    -0.040    29.004     8.832
 171   1 H      0.860     0.232     0.955     1.531
 172   1 H      0.924     0.050     2.316     2.380
 173   1 H      0.925     0.071     2.079     2.255
 174   1 H      0.924     0.048     2.351     2.398
 175   1 H      0.926     0.048     2.344     2.394
 176   1 H      0.860     0.218     1.021     1.583
 177   1 H      0.925    -0.009     3.210     2.802
 178   1 H      0.926     0.069     2.094     2.263
 179   1 H      0.926     0.010     2.895     2.661
 180   1 H      0.926     0.029     2.599     2.521
 181   7 N      2.694    -0.170    24.688     7.379
 182   6 C      3.795     0.045    19.822     6.340
 183   6 C      2.775     0.186    24.018     8.027
 184   8 O      0.856    -0.361    20.919     6.132
 185   6 C      3.806    -0.094    22.286     6.720
 186   6 C      2.683     0.375    20.640     7.435
 187   8 O      0.856    -0.636    27.030     6.970
 188   8 O      0.856    -0.615    26.488     6.900
 189   1 H      0.860     0.213     1.042     1.599
 190   1 H      0.924     0.081     1.973     2.197
 191   1 H      0.925     0.031     2.572     2.508
 192   1 H      0.924     0.045     2.382     2.414
 193   7 N      2.707    -0.281    27.257     7.754
 194   6 C      3.820     0.031    20.031     6.369
 195   6 C      2.754     0.268    22.476     7.763
 196   8 O      0.858    -0.467    23.073     6.440
 197   6 C      3.836    -0.050    21.449     6.589
 198   6 C      3.835    -0.058    21.589     6.611
 199   6 C      3.774     0.019    20.283     6.417
 200   1 H      0.924     0.013     2.849     2.639
 201   1 H      0.925     0.019     2.750     2.593
 202   1 H      0.924     0.033     2.537     2.491
 203   1 H      0.925     0.056     2.242     2.342
 204   1 H      0.925     0.027     2.626     2.534
 205   1 H      0.925     0.045     2.386     2.415
 206   1 H      0.924    -0.000     3.067     2.739
 207   7 N      2.693    -0.184    24.995     7.425
 208   6 C      3.794     0.014    20.350     6.424
 209   6 C      2.759     0.273    22.386     7.748
 210   8 O      0.858    -0.485    23.458     6.494
 211   6 C      3.803    -0.084    22.097     6.692
 212   6 C      3.802    -0.078    21.982     6.675
 213   6 C      3.801    -0.095    22.311     6.725
 214   6 C      3.731    -0.059    21.724     6.653
 215   7 N      3.483    -0.149    24.217     7.309
 216   1 H      0.860     0.202     1.095     1.640
 217   1 H      0.924     0.076     2.020     2.223
 218   1 H      0.924     0.087     1.912     2.162
 219   1 H      0.924     0.059     2.211     2.325
 220   1 H      0.925     0.075     2.032     2.229
 221   1 H      0.924     0.041     2.438     2.442
 222   1 H      0.924     0.077     2.013     2.219
 223   1 H      0.924     0.074     2.039     2.233
 224   1 H      0.924     0.125     1.572     1.960
 225   1 H      0.924     0.132     1.521     1.928
 226   1 H      0.859     0.311     0.682     1.294
 227   1 H      0.859     0.296     0.725     1.334
 228   1 H      0.859     0.293     0.735     1.343
 229   7 N      2.691    -0.179    24.866     7.406
 230   6 C      3.795     0.023    20.197     6.400
 231   6 C      2.757     0.272    22.400     7.750
 232   8 O      0.858    -0.486    23.487     6.498
 233   6 C      3.755    -0.127    22.999     6.838
 234   1 H      0.860     0.216     1.028     1.588
 235   1 H      0.924     0.066     2.133     2.284
 236   1 H      0.925     0.054     2.266     2.354
 237   1 H      0.925     0.073     2.048     2.238
 238   1 H      0.925     0.064     2.158     2.297
 239   7 N      2.692    -0.175    24.796     7.396
 240   6 C      3.798     0.027    20.125     6.387
 241   6 C      2.760     0.277    22.309     7.735
 242   8 O      0.858    -0.507    23.945     6.561
 243   6 C      3.808    -0.062    21.687     6.629
 244   6 C      3.055    -0.043    29.007     8.833
 245   6 C      3.040    -0.005    28.114     8.697
 246   6 C      3.116    -0.022    28.387     8.727
 247   7 N      2.778    -0.099    23.175     7.150
 248   6 C      3.094     0.052    26.719     8.472
 249   6 C      2.910    -0.049    29.215     8.863
 250   6 C      2.908    -0.052    29.292     8.875
 251   6 C      2.919    -0.050    29.244     8.868
 252   6 C      2.924    -0.044    29.091     8.845
 253   1 H      0.860     0.219     1.014     1.578
 254   1 H      0.924     0.071     2.071     2.251
 255   1 H      0.924     0.068     2.104     2.268
 256   1 H      0.924     0.034     2.531     2.488
 257   1 H      0.926     0.048     2.344     2.394
 258   1 H      0.860     0.193     1.144     1.675
 259   1 H      0.925     0.019     2.754     2.595
 260   1 H      0.926     0.032     2.557     2.501
 261   1 H      0.926     0.030     2.593     2.518
 262   1 H      0.926     0.037     2.485     2.465
 263   7 N      2.689    -0.206    25.492     7.499
 264   6 C      3.798     0.036    19.980     6.364
 265   6 C      2.755     0.279    22.278     7.729
 266   8 O      0.859    -0.494    23.654     6.521
 267   6 C      3.801    -0.111    22.616     6.771
 268   6 C      2.683     0.366    20.799     7.463
 269   8 O      0.856    -0.596    26.027     6.840
 270   8 O      0.856    -0.591    25.910     6.825
 271   1 H      0.859     0.231     0.960     1.535
 272   1 H      0.923     0.062     2.177     2.307
 273   1 H      0.924     0.045     2.380     2.412
 274   1 H      0.924     0.054     2.268     2.355
 275   7 N      2.690    -0.172    24.729     7.386
 276   6 C      3.797     0.012    20.380     6.428
 277   6 C      2.751     0.269    22.461     7.761
 278   8 O      0.858    -0.465    23.013     6.432
 279   6 C      3.804    -0.080    22.029     6.682
 280   6 C      3.801    -0.089    22.188     6.706
 281   6 C      3.738    -0.022    21.041     6.546
 282   7 N      2.702    -0.151    24.260     7.315
 283   6 C      2.736     0.234    23.088     7.867
 284   7 N      2.648    -0.254    26.595     7.659
 285   7 N      2.657    -0.265    26.872     7.699
 286   1 H      0.860     0.183     1.195     1.713
 287   1 H      0.924     0.086     1.919     2.167
 288   1 H      0.924     0.064     2.148     2.292
 289   1 H      0.924     0.076     2.022     2.224
 290   1 H      0.925     0.080     1.981     2.201
 291   1 H      0.925     0.069     2.101     2.267
 292   1 H      0.924     0.087     1.913     2.163
 293   1 H      0.924     0.069     2.092     2.262
 294   1 H      0.859     0.227     0.980     1.551
 295   1 H      0.860     0.244     0.906     1.491
 296   1 H      0.860     0.251     0.880     1.469
 297   1 H      0.860     0.247     0.896     1.483
 298   1 H      0.860     0.250     0.884     1.473
 299   7 N      2.692    -0.182    24.940     7.417
 300   6 C      3.798     0.032    20.047     6.375
 301   6 C      2.755     0.267    22.498     7.767
 302   8 O      0.858    -0.465    23.015     6.432
 303   6 C      3.812    -0.105    22.490     6.750
 304   6 C      2.746     0.292    22.041     7.687
 305   8 O      0.859    -0.497    23.729     6.531
 306   7 N      2.639    -0.277    27.156     7.739
 307   1 H      0.860     0.208     1.068     1.619
 308   1 H      0.924     0.072     2.064     2.247
 309   1 H      0.924     0.093     1.846     2.125
 310   1 H      0.925     0.075     2.028     2.227
 311   1 H      0.860     0.227     0.978     1.549
 312   1 H      0.860     0.234     0.947     1.524
 313   7 N      2.686    -0.164    24.551     7.359
 314   6 C      3.741    -0.028    21.142     6.560
 315   6 C      2.761     0.203    23.687     7.970
 316   8 O      0.856    -0.349    20.690     6.098
 317   1 H      0.860     0.225     0.985     1.555
 318   1 H      0.924     0.102     1.767     2.079
 319   1 H      0.924     0.107     1.722     2.052
 320   7 N      2.638    -0.392    30.152     8.155
 321   6 C      3.790     0.033    20.030     6.374
 322   6 C      2.756     0.287    22.133     7.704
 323   8 O      0.858    -0.502    23.830     6.545
 324   6 C      3.810    -0.074    21.914     6.663
 325   6 C      2.970     0.003    27.956     8.673
 326   6 C      2.924    -0.045    29.127     8.851
 327   6 C      2.925    -0.036    28.906     8.817
 328   6 C      2.920    -0.037    28.921     8.819
 329   6 C      2.920    -0.034    28.856     8.809
 330   6 C      2.920    -0.038    28.942     8.822
 331   1 H      0.860     0.155     1.367     1.832
 332   1 H      0.924     0.045     2.385     2.415
 333   1 H      0.924     0.058     2.220     2.330
 334   1 H      0.924     0.037     2.492     2.469
 335   1 H      0.926     0.049     2.336     2.390
 336   1 H      0.926     0.003     3.004     2.710
 337   1 H      0.926     0.065     2.142     2.289
 338   1 H      0.926     0.023     2.692     2.566
 339   1 H      0.926     0.051     2.306     2.374
 340   7 N      2.696    -0.171    24.704     7.382
 341   6 C      3.794     0.015    20.333     6.421
 342   6 C      2.771     0.267    22.501     7.769
 343   8 O      0.859    -0.470    23.132     6.448
 344   6 C      3.728     0.122    18.677     6.170
 345   8 O      1.655    -0.481    22.492     6.402
 346   6 C      3.752    -0.134    23.127     6.858
 347   1 H      0.860     0.207     1.071     1.621
 348   1 H      0.925     0.077     2.015     2.220
 349   1 H      0.922     0.035     2.523     2.484
 350   1 H      0.805     0.334     0.627     1.244
 351   1 H      0.925     0.058     2.218     2.329
 352   1 H      0.925     0.037     2.486     2.466
 353   1 H      0.925     0.063     2.161     2.299
 354   7 N      2.688    -0.173    24.741     7.387
 355   6 C      3.803     0.005    20.486     6.444
 356   6 C      2.761     0.278    22.297     7.733
 357   8 O      0.858    -0.495    23.675     6.524
 358   6 C      3.724     0.112    18.841     6.198
 359   8 O      1.656    -0.459    22.023     6.335
 360   6 C      3.752    -0.114    22.749     6.802
 361   1 H      0.860     0.208     1.068     1.619
 362   1 H      0.923     0.078     2.002     2.213
 363   1 H      0.923     0.054     2.276     2.359
 364   1 H      0.805     0.347     0.595     1.212
 365   1 H      0.925     0.081     1.971     2.196
 366   1 H      0.925     0.040     2.446     2.446
 367   1 H      0.925     0.047     2.357     2.401
 368   7 N      2.691    -0.186    25.039     7.432
 369   6 C      3.802     0.010    20.408     6.432
 370   6 C      2.766     0.273    22.388     7.749
 371   8 O      0.858    -0.467    23.057     6.438
 372   6 C      3.683     0.080    19.441     6.313
 373   8 O      1.655    -0.468    22.207     6.362
 374   1 H      0.860     0.239     0.929     1.510
 375   1 H      0.924     0.074     2.047     2.237
 376   1 H      0.923     0.030     2.588     2.516
 377   1 H      0.924     0.067     2.123     2.279
 378   1 H      0.804     0.305     0.705     1.319
 379   7 N      2.697    -0.172    24.714     7.383
 380   6 C      3.804     0.021    20.215     6.401
 381   6 C      2.769     0.265    22.535     7.775
 382   8 O      0.859    -0.522    24.271     6.605
 383   6 C      3.852    -0.019    20.878     6.499
 384   6 C      3.803    -0.066    21.760     6.641
 385   6 C      3.758    -0.124    22.925     6.826
 386   6 C      3.751    -0.105    22.575     6.776
 387   1 H      0.860     0.198     1.114     1.654
 388   1 H      0.924     0.076     2.025     2.225
 389   1 H      0.924     0.043     2.407     2.426
 390   1 H      0.924     0.055     2.264     2.353
 391   1 H      0.924     0.041     2.434     2.440
 392   1 H      0.925     0.062     2.181     2.309
 393   1 H      0.925     0.051     2.312     2.378
 394   1 H      0.925     0.055     2.257     2.349
 395   1 H      0.925     0.046     2.373     2.409
 396   1 H      0.925     0.019     2.745     2.591
 397   1 H      0.925     0.039     2.457     2.451
 398   7 N      2.763    -0.070    22.598     7.060
 399   6 C      3.835     0.024    20.140     6.385
 400   6 C      2.762     0.275    22.359     7.744
 401   8 O      0.858    -0.471    23.158     6.452
 402   6 C      3.828    -0.067    21.767     6.639
 403   6 C      3.833    -0.070    21.811     6.645
 404   6 C      3.773    -0.013    20.837     6.504
 405   1 H      0.924     0.035     2.520     2.483
 406   1 H      0.924     0.072     2.067     2.249
 407   1 H      0.925     0.051     2.306     2.375
 408   1 H      0.925     0.083     1.948     2.183
[...]
   246  C   3.984        C  249 1.330    C  248 1.241    C  244 1.209
   247  N   3.560        C  245 1.215    C  248 1.188    H  258 0.935
   248  C   3.963        C  250 1.338    C  246 1.241    N  247 1.188
   249  C   3.992        C  251 1.499    C  246 1.330    H  259 0.965    C  250 0.113
   250  C   3.989        C  252 1.493    C  248 1.338    H  260 0.968    C  249 0.113
   251  C   3.990        C  249 1.499    C  252 1.371    H  261 0.970
   252  C   3.990        C  250 1.493    C  251 1.371    H  262 0.968
   253  H   0.952        N  239 0.903
   254  H   0.995        C  240 0.950
   255  H   0.995        C  243 0.949
   256  H   0.999        C  243 0.973
   257  H   0.997        C  245 0.963
   258  H   0.962        N  247 0.935
   259  H   0.999        C  249 0.965
   260  H   0.998        C  250 0.968
   261  H   0.999        C  251 0.970
   262  H   0.998        C  252 0.968
   263  N   3.454        C  241 1.307    C  264 0.984    H  271 0.865    O  242 0.193
   264  C   3.969        N  263 0.984    C  267 0.971    H  272 0.951    C  265 0.941
   265  C   3.947        O  266 1.626    N  275 1.291    C  264 0.941
   266  O   1.944        C  265 1.626    N  275 0.191
   267  C   3.978        H  273 0.977    C  264 0.971    H  274 0.966    C  268 0.914
   268  C   3.940        O  270 1.513    O  269 1.477    C  267 0.914
   269  O   1.856        C  268 1.477    O  270 0.211
   270  O   1.879        C  268 1.513    O  269 0.211
   271  H   0.946        N  263 0.865
   272  H   0.996        C  264 0.951
   273  H   0.997        C  267 0.977
   274  H   0.997        C  267 0.966
   275  N   3.467        C  265 1.291    C  276 0.971    H  286 0.929    O  266 0.191
   276  C   3.953        C  279 0.988    N  275 0.971    H  287 0.942    C  277 0.922
   277  C   3.945        O  278 1.655    N  299 1.288    C  276 0.922
   278  O   1.985        C  277 1.655    N  299 0.199
   279  C   3.984        C  280 1.008    C  276 0.988    H  288 0.967    H  289 0.965
   280  C   3.990        C  279 1.008    C  281 0.994    H  291 0.972    H  290 0.969
   281  C   3.959        C  280 0.994    N  282 0.991    H  293 0.968    H  292 0.961
   282  N   3.474        C  283 1.323    C  281 0.991    H  294 0.873    N  285 0.103
   283  C   3.977        N  282 1.323    N  285 1.317    N  284 1.305
   284  N   3.381        C  283 1.305    H  296 0.918    H  295 0.917
   285  N   3.389        C  283 1.317    H  298 0.918    H  297 0.902    N  282 0.103
   286  H   0.966        N  275 0.929
   287  H   0.992        C  276 0.942
   288  H   0.996        C  279 0.967
   289  H   0.994        C  279 0.965
   290  H   0.993        C  280 0.969
   291  H   0.995        C  280 0.972
   292  H   0.992        C  281 0.961
   293  H   0.995        C  281 0.968
   294  H   0.949        N  282 0.873
   295  H   0.940        N  284 0.917
   296  H   0.937        N  284 0.918
   297  H   0.939        N  285 0.902
   298  H   0.937        N  285 0.918
   299  N   3.466        C  277 1.288    C  300 0.978    H  307 0.922    O  278 0.199
   300  C   3.964        C  303 0.986    N  299 0.978    H  308 0.946    C  301 0.918
   301  C   3.953        O  302 1.654    N  313 1.302    C  300 0.918
   302  O   1.978        C  301 1.654    N  313 0.203
   303  C   3.988        C  300 0.986    C  304 0.969    H  310 0.968    H  309 0.941
   304  C   3.948        O  305 1.632    N  306 1.315    C  303 0.969
   305  O   1.949        C  304 1.632    N  306 0.198
   306  N   3.401        C  304 1.315    H  311 0.926    H  312 0.925    O  305 0.198
   307  H   0.957        N  299 0.922
   308  H   0.995        C  300 0.946
   309  H   0.991        C  303 0.941
   310  H   0.994        C  303 0.968
   311  H   0.948        N  306 0.926
   312  H   0.945        N  306 0.925
   313  N   3.477        C  301 1.302    C  314 0.992    H  317 0.908    O  302 0.203
   314  C   3.960        N  313 0.992    C  315 0.981    H  319 0.955    H  318 0.934
   315  C   3.901        O  316 1.918    C  314 0.981    H  572 0.951
   316  O   2.052        C  315 1.918
   317  H   0.949        N  313 0.908
   318  H   0.989        C  314 0.934
   319  H   0.988        C  314 0.955
   320  N   2.997        C  321 1.024    H  331 0.955    H  573 0.948
   321  C   3.985        N  320 1.024    H  332 0.958    C  324 0.946    C  322 0.942
   322  C   3.936        O  323 1.639    N  340 1.286    C  321 0.942
   323  O   1.951        C  322 1.639    N  340 0.189
   324  C   3.993        C  325 1.013    H  334 0.973    H  333 0.968    C  321 0.946
   325  C   3.987        C  326 1.414    C  327 1.406    C  324 1.013    C  330 0.109
   326  C   3.989        C  328 1.442    C  325 1.414    H  335 0.968    C  329 0.110
   327  C   3.992        C  329 1.449    C  325 1.406    H  336 0.970    C  328 0.112
   328  C   3.989        C  326 1.442    C  330 1.440    H  337 0.968    C  327 0.112
   329  C   3.992        C  327 1.449    C  330 1.433    H  338 0.969    C  326 0.110
   330  C   3.988        C  328 1.440    C  329 1.433    H  339 0.969    C  325 0.109
   331  H   0.976        N  320 0.955
   332  H   0.998        C  321 0.958
   333  H   0.996        C  324 0.968
   334  H   0.998        C  324 0.973
   335  H   0.998        C  326 0.968
   336  H   1.000        C  327 0.970
   337  H   0.995        C  328 0.968
   338  H   0.999        C  329 0.969
   339  H   0.997        C  330 0.969
   340  N   3.462        C  322 1.286    C  341 0.990    H  347 0.920    O  323 0.189
   341  C   3.970        N  340 0.990    C  342 0.951    H  348 0.950    C  344 0.934
   342  C   3.954        O  343 1.630    N  354 1.302    C  341 0.951
   343  O   1.951        C  342 1.630    N  354 0.197
   344  C   3.956        C  346 1.009    O  345 0.992    H  349 0.958    C  341 0.934
   345  O   1.939        C  344 0.992    H  350 0.871
   346  C   3.990        C  344 1.009    H  352 0.982    H  351 0.982    H  353 0.976
   347  H   0.957        N  340 0.920
   348  H   0.994        C  341 0.950
   349  H   0.999        C  344 0.958
   350  H   0.888        O  345 0.871
   351  H   0.996        C  346 0.982
   352  H   0.999        C  346 0.982
   353  H   0.996        C  346 0.976
   354  N   3.474        C  342 1.302    C  355 0.989    H  361 0.910    O  343 0.197
   355  C   3.960        N  354 0.989    C  356 0.961    H  362 0.940    C  358 0.922
   356  C   3.948        O  357 1.616    N  368 1.291    C  355 0.961
   357  O   1.970        C  356 1.616    N  368 0.189
   358  C   3.954        C  360 1.007    O  359 1.007    H  363 0.954    C  355 0.922
   359  O   1.971        C  358 1.007    H  364 0.864
   360  C   3.991        C  358 1.007    H  367 0.983    H  366 0.979    H  365 0.977
   361  H   0.957        N  354 0.910
   362  H   0.994        C  355 0.940
   363  H   0.997        C  358 0.954
   364  H   0.879        O  359 0.864
   365  H   0.993        C  360 0.977
   366  H   0.998        C  360 0.979
   367  H   0.998        C  360 0.983
   368  N   3.451        C  356 1.291    C  369 0.993    H  374 0.897    O  357 0.189
   369  C   3.965        N  368 0.993    C  372 0.950    H  375 0.942    C  370 0.939
   370  C   3.958        O  371 1.634    N  379 1.304    C  369 0.939
   371  O   1.964        C  370 1.634    N  379 0.198
   372  C   3.953        O  373 1.005    H  377 0.970    H  376 0.961    C  369 0.950
   373  O   1.949        C  372 1.005    H  378 0.859
   374  H   0.943        N  368 0.897
   375  H   0.995        C  369 0.942
   376  H   0.999        C  372 0.961
   377  H   0.995        C  372 0.970
   378  H   0.907        O  373 0.859
   379  N   3.475        C  370 1.304    C  380 0.963    H  387 0.911    O  371 0.198
   380  C   3.950        C  383 0.966    N  379 0.963    H  388 0.951    C  381 0.931
   381  C   3.947        O  382 1.578    N  398 1.325    C  380 0.931
   382  O   1.929        C  381 1.578    N  398 0.192
   383  C   3.986        C  385 1.005    C  384 0.992    C  380 0.966    H  389 0.965
   384  C   3.994        C  386 1.021    C  383 0.992    H  391 0.975    H  390 0.972
   385  C   3.990        C  383 1.005    H  394 0.985    H  392 0.984    H  393 0.979
   386  C   3.996        C  384 1.021    H  396 0.986    H  395 0.984    H  397 0.982
   387  H   0.961        N  379 0.911
   388  H   0.994        C  380 0.951
   389  H   0.998        C  383 0.965
   390  H   0.997        C  384 0.972
   391  H   0.998        C  384 0.975
   392  H   0.996        C  385 0.984
   393  H   0.997        C  385 0.979
   394  H   0.997        C  385 0.985
   395  H   0.997        C  386 0.984
   396  H   1.000        C  386 0.986
   397  H   0.998        C  386 0.982
   398  N   3.546        C  381 1.325    C  404 0.973    C  399 0.972    O  382 0.192
   399  C   3.970        C  402 0.973    N  398 0.972    H  405 0.952    C  400 0.938
   400  C   3.956        O  401 1.636    N  412 1.303    C  399 0.938
   401  O   1.955        C  400 1.636    N  412 0.197
   402  C   3.989        C  403 1.003    H  407 0.979    H  406 0.974    C  399 0.973
   403  C   3.990        C  402 1.003    C  404 1.002    H  409 0.979    H  408 0.972
   404  C   3.957        C  403 1.002    N  398 0.973    H  411 0.965    H  410 0.961
   405  H   0.999        C  399 0.952
   406  H   0.995        C  402 0.974
   407  H   0.997        C  402 0.979
   408  H   0.992        C  403 0.972
   409  H   0.998        C  403 0.979
   410  H   0.992        C  404 0.961
   411  H   0.995        C  404 0.965
   412  N   3.479        C  400 1.303    C  413 0.977    H  420 0.933    O  401 0.197
   413  C   3.955        C  416 0.979    N  412 0.977    H  421 0.937    C  414 0.934
   414  C   3.950        O  415 1.662    N  431 1.274    C  413 0.934
   415  O   1.978        C  414 1.662    N  431 0.196
   416  C   3.988        C  417 0.992    C  413 0.979    H  422 0.972    H  423 0.969
   417  C   3.993        C  419 1.010    C  418 1.009    C  416 0.992    H  424 0.966
   418  C   3.994        C  417 1.009    H  425 0.986    H  426 0.984    H  427 0.981
   419  C   3.994        C  417 1.010    H  428 0.986    H  430 0.985    H  429 0.984
   420  H   0.966        N  412 0.933
   421  H   0.991        C  413 0.937
   422  H   0.998        C  416 0.972
   423  H   0.994        C  416 0.969
   424  H   0.997        C  417 0.966
   425  H   0.998        C  418 0.986
   426  H   0.997        C  418 0.984
   427  H   0.997        C  418 0.981
   428  H   0.999        C  419 0.986
   429  H   0.999        C  419 0.984
   430  H   0.999        C  419 0.985
   431  N   3.443        C  414 1.274    C  432 0.981    H  440 0.919    O  415 0.196
   432  C   3.955        C  433 0.986    N  431 0.981    C  435 0.946    H  441 0.930
   433  C   3.901        O  434 1.897    C  432 0.986    H  574 0.951
   434  O   2.042        C  433 1.897
   435  C   3.976        C  436 1.007    H  443 0.972    H  442 0.968    C  432 0.946
   436  C   3.991        C  435 1.007    C  437 1.003    H  444 0.973    H  445 0.970
   437  C   3.984        C  438 1.013    C  436 1.003    H  447 0.967    H  446 0.965
   438  C   3.919        C  437 1.013    H  449 0.963    H  448 0.961    N  439 0.959
   439  N   3.664        C  438 0.959    H  451 0.898    H  452 0.893    H  450 0.890
   440  H   0.954        N  431 0.919
   441  H   0.990        C  432 0.930
   442  H   0.992        C  435 0.968
   443  H   0.996        C  435 0.972
   444  H   0.997        C  436 0.973
   445  H   0.996        C  436 0.970
   446  H   0.992        C  437 0.965
   447  H   0.992        C  437 0.967
   448  H   0.982        C  438 0.961
   449  H   0.988        C  438 0.963
   450  H   0.904        N  439 0.890
   451  H   0.918        N  439 0.898
   452  H   0.906        N  439 0.893
   453  N   2.996        C  454 1.015    H  460 0.956    H  575 0.951
   454  C   3.983        N  453 1.015    C  455 0.970    H  461 0.962    C  457 0.944
   455  C   3.888        O  456 1.894    C  454 0.970    H  576 0.957
   456  O   2.032        C  455 1.894
   457  C   3.989        C  458 1.007    C  459 1.007    H  462 0.964    C  454 0.944
   458  C   3.992        C  457 1.007    H  463 0.984    H  464 0.983    H  465 0.975
   459  C   3.991        C  457 1.007    H  467 0.984    H  468 0.983    H  466 0.982
   460  H   0.974        N  453 0.956
   461  H   0.996        C  454 0.962
   462  H   0.998        C  457 0.964
   463  H   0.998        C  458 0.984
   464  H   1.000        C  458 0.983
   465  H   0.996        C  458 0.975
   466  H   0.997        C  459 0.982
   467  H   0.996        C  459 0.984
   468  H   0.996        C  459 0.983
   469  N   3.001        C  470 1.020    H  477 0.959    H  577 0.954
   470  C   3.988        N  469 1.020    C  473 0.970    H  478 0.965    C  471 0.933
   471  C   3.943        O  472 1.632    N  483 1.299    C  470 0.933
   472  O   1.971        C  471 1.632    N  483 0.196
   473  C   3.995        C  470 0.970    H  479 0.964    C  474 0.963    H  480 0.955
   474  C   3.948        O  475 1.659    N  476 1.298    C  473 0.963
   475  O   1.959        C  474 1.659    N  476 0.198
   476  N   3.382        C  474 1.298    H  482 0.935    H  481 0.921    O  475 0.198
   477  H   0.971        N  469 0.959
   478  H   0.999        C  470 0.965
   479  H   0.996        C  473 0.964
   480  H   0.997        C  473 0.955
   481  H   0.942        N  476 0.921
   482  H   0.953        N  476 0.935
   483  N   3.468        C  471 1.299    C  484 0.969    H  491 0.921    O  472 0.196
   484  C   3.960        N  483 0.969    C  487 0.967    H  492 0.954    C  485 0.936
   485  C   3.949        O  486 1.625    N  502 1.315    C  484 0.936
   486  O   1.951        C  485 1.625    N  502 0.200
   487  C   3.985        C  488 0.993    H  494 0.974    H  493 0.971    C  484 0.967
   488  C   3.994        C  489 1.010    C  490 1.007    C  487 0.993    H  495 0.966
   489  C   3.995        C  488 1.010    H  497 0.980    H  498 0.979    H  496 0.978
   490  C   3.993        C  488 1.007    H  501 0.987    H  500 0.985    H  499 0.984
   491  H   0.961        N  483 0.921
   492  H   0.996        C  484 0.954
   493  H   0.996        C  487 0.971
   494  H   0.997        C  487 0.974
   495  H   0.999        C  488 0.966
   496  H   0.998        C  489 0.978
   497  H   0.999        C  489 0.980
   498  H   0.998        C  489 0.979
   499  H   0.997        C  490 0.984
   500  H   0.997        C  490 0.985
   501  H   0.998        C  490 0.987
   502  N   3.487        C  485 1.315    C  503 0.985    H  508 0.884    O  486 0.200
   503  C   3.968        N  502 0.985    C  506 0.974    H  509 0.956    C  504 0.923
   504  C   3.956        O  505 1.632    N  513 1.318    C  503 0.923
   505  O   1.971        C  504 1.632    N  513 0.205
   506  C   3.959        O  507 1.003    C  503 0.974    H  511 0.967    H  510 0.967
   507  O   1.921        C  506 1.003    H  512 0.863
   508  H   0.947        N  502 0.884
   509  H   0.994        C  503 0.956
   510  H   0.998        C  506 0.967
   511  H   0.998        C  506 0.967
   512  H   0.876        O  507 0.863
   513  N   3.495        C  504 1.318    C  514 0.968    H  520 0.921    O  505 0.205
   514  C   3.949        C  515 0.971    N  513 0.968    H  521 0.948    C  517 0.943
   515  C   3.898        O  516 1.905    C  514 0.971    H  578 0.953
   516  O   2.045        C  515 1.905
   517  C   3.986        C  519 1.009    C  518 1.007    H  522 0.964    C  514 0.943
   518  C   3.992        C  517 1.007    H  525 0.984    H  523 0.983    H  524 0.981
   519  C   3.993        C  517 1.009    H  527 0.984    H  528 0.982    H  526 0.981
   520  H   0.955        N  513 0.921
   521  H   0.988        C  514 0.948
   522  H   0.997        C  517 0.964
   523  H   0.995        C  518 0.983
   524  H   0.998        C  518 0.981
   525  H   0.997        C  518 0.984
   526  H   0.996        C  519 0.981
   527  H   0.997        C  519 0.984
   528  H   0.999        C  519 0.982
   529  N   3.000        C  530 1.002    H  537 0.957    H  579 0.946
   530  C   3.982        N  529 1.002    C  531 0.976    H  538 0.962    C  533 0.954
   531  C   3.889        O  532 1.902    C  530 0.976    H  580 0.955
   532  O   2.033        C  531 1.902
   533  C   3.993        C  535 1.009    C  534 0.995    H  539 0.965    C  530 0.954
   534  C   3.996        C  536 1.018    C  533 0.995    H  540 0.971    H  541 0.968
   535  C   3.996        C  533 1.009    H  543 0.985    H  544 0.983    H  542 0.983
   536  C   3.995        C  534 1.018    H  546 0.987    H  545 0.986    H  547 0.985
   537  H   0.974        N  529 0.957
   538  H   0.997        C  530 0.962
   539  H   0.998        C  533 0.965
   540  H   0.998        C  534 0.971
   541  H   0.999        C  534 0.968
   542  H   0.998        C  535 0.983
   543  H   0.999        C  535 0.985
   544  H   0.998        C  535 0.983
   545  H   0.997        C  536 0.986
   546  H   0.998        C  536 0.987
   547  H   0.999        C  536 0.985
   548  N   2.989        C  549 1.004    H  581 0.942    H  556 0.934
   549  C   3.979        N  548 1.004    C  550 0.979    H  557 0.964    C  552 0.947
   550  C   3.883        O  551 1.881    C  549 0.979    H  582 0.957
   551  O   2.038        C  550 1.881
   552  C   3.990        C  554 1.008    C  553 0.995    H  558 0.962    C  549 0.947
   553  C   3.996        C  555 1.018    C  552 0.995    H  559 0.976    H  560 0.968
   554  C   3.995        C  552 1.008    H  563 0.986    H  562 0.983    H  561 0.982
   555  C   3.994        C  553 1.018    H  564 0.986    H  566 0.985    H  565 0.979
   556  H   0.970        N  548 0.934
   557  H   0.997        C  549 0.964
   558  H   0.998        C  552 0.962
   559  H   0.998        C  553 0.976
   560  H   0.999        C  553 0.968
   561  H   0.996        C  554 0.982
   562  H   0.999        C  554 0.983
   563  H   0.998        C  554 0.986
   564  H   0.997        C  555 0.986
   565  H   0.999        C  555 0.979
   566  H   0.997        C  555 0.985
   567  H   0.968        N    1 0.954
   568  H   0.993        C   72 0.953
   569  H   0.965        N   82 0.943
   570  H   0.992        C  183 0.950
   571  H   0.971        N  193 0.956
   572  H   0.992        C  315 0.951
   573  H   0.962        N  320 0.948
   574  H   0.993        C  433 0.951
   575  H   0.961        N  453 0.951
   576  H   0.998        C  455 0.957
   577  H   0.970        N  469 0.954
   578  H   0.993        C  515 0.953
   579  H   0.969        N  529 0.946
   580  H   0.994        C  531 0.955
   581  H   0.967        N  548 0.942
   582  H   0.996        C  550 0.957
 
molecular dipole:
                 x           y           z       tot (Debye)
 q only:      -48.418     -50.876    -122.954
   full:      -50.594     -53.237    -124.168     366.688
molecular quadrupole (traceless):
                xx          xy          yy          xz          yz          zz
 q only:     6738.143    -250.324    7639.980   -8590.977   -9197.012  -14378.122
  q+dip:     6758.425    -912.827    7571.350   -9201.858   -9808.588  -14329.775
   full:     6766.971    -919.872    7562.384   -9202.021   -9815.492  -14329.355


           -------------------------------------------------
          | TOTAL ENERGY             -889.669410132874 Eh   |
          | GRADIENT NORM               0.635301476952 Eh/α |
          | HOMO-LUMO GAP               1.279655968330 eV   |
           -------------------------------------------------

------------------------------------------------------------------------
 * finished run on 2019/05/31 at 06:33:44.393     
------------------------------------------------------------------------
 total:
 * wall-time:     0 d,  0 h,  0 min, 37.709 sec
 *  cpu-time:     0 d,  0 h,  1 min, 13.326 sec
 * ratio c/w:     1.945 speedup
 SCF:
 * wall-time:     0 d,  0 h,  0 min, 36.765 sec
 *  cpu-time:     0 d,  0 h,  1 min, 11.623 sec
 * ratio c/w:     1.948 speedup

