      -----------------------------------------------------------      
     |                   =====================                   |     
     |                           x T B                           |     
     |                   =====================                   |     
     |                         S. Grimme                         |     
     |          Mulliken Center for Theoretical Chemistry        |     
     |                    University of Bonn                     |     
     |                Version 6.1 RC1 (SAW190329)                |     
      -----------------------------------------------------------      

   This program is distributed in the hope that it will be useful,
   but WITHOUT ANY WARRANTY; without even the implied warranty of
   MERCHANTABILITY or FITNESS FOR A PARTICULAR PURPOSE.
   
   FOR NON-COMMERCIAL, ACADEMIA USE ONLY.
   
   Cite this work as:
   S. Grimme, C. Bannwarth, P. Shushkov, J. Comput. Theory Chem., 2017,
   13, 1989-2009. DOI: 10.1021/acs.jctc.7b00118
   C. Bannwarth, S. Ehlert and S. Grimme., J. Comput. Theory Chem., 2019,
   just accepted. DOI: 10.1021/acs.jctc.8b01176
   
   for sTDA-xTB:
   S. Grimme and C. Bannwarth, J. Chem. Phys., 2016, 145, 054103.
   DOI: 10.1063/1.4959605
   
   in the mass-spec context:
   V. Asgeirsson, C. Bauer and S. Grimme, Chem. Sci., 2017, 8, 4879.
   DOI: 10.1039/c7sc00601b
   
   for metadynamics refer to:
   S. Grimme, ChemRxiv, Preprint. DOI: 10.26434/chemrxiv.7660532.v1
   
   with help from (in alphabetical order)
   C. Bannwarth, F. Bohle, G. Brandenburg, E. Caldeweyher, M. Checinski,
   S. Dohm, S. Ehlert, S. Ehrlich, F. März, H. Neugebauer, J. Pisarek,
   P. Pracht, P. Shushkov, and S. Spicher.
   
 * started run on 2019/05/31 at 02:07:06.411     

           -------------------------------------------------
          |                Calculation Setup                |
           -------------------------------------------------

          program call               : /home/lum/qr/xtb-190329/bin/xtb xtb_tmp.xyz --chrg -1 --grad --gfn 2 --etemp 500 --acc 0.1 --gbsa h2o --parallel 4
          hostname                   : cu39
          coordinate file            : xtb_tmp.xyz
          omp threads                :                     4
          number of atoms            :                   443
          number of electrons        :                  1222
          charge                     :                    -1
          spin                       :                   0.0
          first test random number   :      0.04883508065295


molecular fragmentation (1/2 indicates fragments):
111111111111111111111111111111111111111111111111111111111111111111111111
111111111111111111111111111111111111111111111111111111111111111111111111
111111111111111111111111111111111111111111111111111111111111111222222222
222222222222222222222222222222222222222222222222222222222222222222222222
222222222222222222222222222222222222222222222222222222222222222222222222
222222222222222222222222222222222222222222222222222222222222222222222112
22222222222
# atoms in fragment 1/2:   209   234
 fragment masses (1/2) :     1473.68     1638.90
CMA distance (Bohr)    :  12.933
constraining FC (au)   :  0.0500

########################################################################
# WARNING! Please study the warnings concerning your input carefully
#  - XTBPATH is not set, using XTBHOME instead
#  - Process number higher than OMP_NUM_THREADS, I hope you know what you are doing.
########################################################################

           ------------------------------------------------- 
          |                 G F N 2 - x T B                 |
          | Geometry, Frequencies, Noncovalent interactions |
          |            JCTC 2018 parametrisation            |
           ------------------------------------------------- 
 
             k(s)              :                1.8500
             k(p)              :                2.2300
             k(d)              :                2.2300
             k(f)              :                2.0000
             kEN (H0ij)        :               -2.0000
             D4 a1             :                0.5200
             D4 a2             :                5.0000
             D4 s6             :                1.0000
             D4 s8             :                2.7000
             D4 s9             :                5.0000
             alphaj            :                2.0000

  Z AO/shell   Hii/eV     exponent
  1     Wed Apr 25 08:07:45 CEST 2018   EN: 2.200 GM2: 0.406  GM3: 0.0800  RAES: 1.40
     1s    -10.707211    1.230000
  6     Wed Apr 25 08:07:45 CEST 2018   EN: 2.550 GM2: 0.538  GM3: 0.1500  RAES: 3.00
     2s    -13.970922    2.096432
     2p    -10.063292    1.800000
  7     Wed Apr 25 08:07:45 CEST 2018   EN: 3.040 GM2: 0.461  GM3:-0.0640  RAES: 1.90
     2s    -16.686243    2.339881
     2p    -12.523956    2.014332
  8     Wed Apr 25 08:07:45 CEST 2018   EN: 3.440 GM2: 0.452  GM3:-0.0517  RAES: 1.80
     2s    -20.229985    2.439742
     2p    -15.503117    2.137023

 Solvent             : h2o
 Using internal parameter file: .param_gbsa2_h2o
 Gsolv ref. state (COSMO-RS): gsolv [1 M gas/solution]
 temperature (mdtemp)       :    298.150000000000     
 dielectric constant        :    80.2000000000000     
 rho                        :    1.00000000000000     
 mass                       :    18.0000000000000     
 surface tension            :    15.5689454083859     
 probe radius               :   0.975313790000000     
 vdW radii scaling          :    1.00000000000000     
 Gshift (Eh)                :   1.857443126794793E-003
 c1                         :    1.55243817000000     
 soset                      :   0.130326360000000     
 HB correction              :  T
 Number of grid points      :          230

            Z     q(EN)     CN     RAES       Cart. coordinates
     1  N   5.0   -0.68    3.00    1.93    21.25903    19.06774    47.24668
     2  C   4.0    0.08    3.98    3.59    20.91188    20.06005    49.76739
     3  C   4.0    0.28    3.01    3.02    18.13286    20.82760    50.14617
     4  O   6.0   -0.42    1.00    1.80    16.91279    21.85143    48.47608
     5  C   4.0   -0.13    3.99    3.61    22.47931    22.48009    50.15144
     6  C   4.0   -0.04    3.02    3.02    25.27553    22.05559    50.43190
     7  C   4.0   -0.10    3.03    3.02    26.19955    20.70012    52.48296
     8  C   4.0   -0.10    3.03    3.02    26.99990    23.10787    48.75508
     9  C   4.0   -0.09    3.03    3.02    28.76429    20.39372    52.85537
    10  C   4.0   -0.08    3.03    3.02    29.57279    22.86080    49.13698
    11  C   4.0    0.10    3.03    3.02    30.48506    21.49482    51.19701
    12  O   6.0   -0.47    1.99    1.82    33.01812    21.26827    51.52853
    13  H   1.0    0.32    1.00    1.43    21.21637    20.32493    45.78691
    14  H   1.0    0.14    0.99    1.43    21.43626    18.60165    51.13209
    15  H   1.0    0.12    0.99    1.43    22.12444    23.73104    48.55233
    16  H   1.0    0.10    0.99    1.43    21.76739    23.40216    51.86010
    17  H   1.0    0.14    1.00    1.43    24.89487    19.87249    53.81209
    18  H   1.0    0.14    1.00    1.43    26.35262    24.13348    47.11576
    19  H   1.0    0.14    1.00    1.43    29.44009    19.32801    54.45940
    20  H   1.0    0.12    1.00    1.43    30.87228    23.73764    47.83191
    21  H   1.0    0.31    0.99    1.43    33.38544    20.03657    52.90988
    22  N   5.0   -0.49    3.01    1.93    17.23914    20.41642    52.48303
    23  C   4.0    0.07    3.99    3.60    14.74589    21.21199    53.27389
    24  C   4.0    0.27    3.01    3.02    14.97425    23.55442    54.97016
    25  O   6.0   -0.44    1.00    1.80    16.13248    23.45052    56.98169
    26  C   4.0   -0.01    3.98    3.59    13.46493    19.09838    54.81205
    27  O   6.0   -0.47    1.99    1.82    14.92494    18.37746    56.90327
    28  H   1.0    0.28    1.00    1.43    18.28563    19.45087    53.75694
    29  H   1.0    0.12    0.99    1.43    13.66418    21.63791    51.56658
    30  H   1.0    0.11    0.99    1.43    11.59372    19.77379    55.41430
    31  H   1.0    0.13    0.99    1.43    13.22950    17.42024    53.63231
    32  H   1.0    0.30    0.99    1.43    15.48284    19.93054    57.71945
    33  N   5.0   -0.49    3.01    1.93    13.87375    25.65283    54.10772
    34  C   4.0    0.08    4.00    3.62    13.73006    27.95513    55.59290
    35  C   4.0    0.27    3.01    3.02    11.53961    27.73904    57.48155
    36  O   6.0   -0.42    1.00    1.80     9.45448    26.95592    56.84864
    37  C   4.0   -0.09    3.98    3.59    13.31959    30.25709    53.86677
    38  C   4.0   -0.16    3.98    3.59    15.63850    30.64664    52.17348
    39  C   4.0   -0.20    3.98    3.59    12.76246    32.60277    55.45491
    40  C   4.0   -0.24    3.98    3.58    15.08342    32.32153    49.89785
    41  H   1.0    0.23    1.00    1.43    12.77860    25.57757    52.54790
    42  H   1.0    0.14    0.99    1.43    15.50385    28.14981    56.63266
    43  H   1.0    0.12    0.99    1.43    11.66852    29.85842    52.68303
    44  H   1.0    0.10    0.99    1.43    17.15072    31.48288    53.29949
    45  H   1.0    0.12    0.99    1.43    16.30633    28.81047    51.50791
    46  H   1.0    0.11    0.99    1.43    12.69728    34.27342    54.26430
    47  H   1.0    0.13    0.99    1.43    10.94935    32.42579    56.40732
    48  H   1.0    0.14    0.99    1.43    14.21463    32.86534    56.88303
    49  H   1.0    0.09    0.99    1.43    16.76396    32.49153    48.73185
    50  H   1.0    0.10    0.99    1.43    13.57574    31.51254    48.76231
    51  H   1.0    0.11    0.99    1.43    14.51466    34.20624    50.47855
    52  N   5.0   -0.50    3.01    1.93    12.13362    28.51220    59.80745
    53  C   4.0    0.10    3.99    3.61    10.33668    28.67554    61.83265
    54  C   4.0    0.27    3.02    3.02     9.90588    31.37249    62.77753
    55  O   6.0   -0.45    1.00    1.80     7.84879    31.94559    63.67936
    56  C   4.0    0.04    3.98    3.58    11.13872    27.04158    64.11752
    57  O   6.0   -0.46    1.99    1.82    13.39379    28.07900    65.09868
    58  C   4.0   -0.21    3.98    3.59    11.46322    24.28722    63.33099
    59  H   1.0    0.30    1.00    1.43    13.94623    29.00587    60.22438
    60  H   1.0    0.13    0.99    1.43     8.52022    27.97372    61.12968
    61  H   1.0    0.11    0.99    1.43     9.63362    27.19894    65.55029
    62  H   1.0    0.25    0.99    1.43    14.10033    26.88106    66.27990
    63  H   1.0    0.10    0.99    1.43    11.92339    23.12292    64.95985
    64  H   1.0    0.11    0.99    1.43     9.73013    23.58386    62.48611
    65  H   1.0    0.15    0.99    1.43    12.97446    24.13078    61.94578
    66  N   5.0   -0.47    3.00    1.93    11.83975    32.99605    62.62636
    67  C   4.0    0.10    4.00    3.62    11.55126    35.52089    63.61754
    68  C   4.0    0.27    3.02    3.02    12.27551    37.51207    61.66310
    69  O   6.0   -0.42    1.00    1.80    14.00646    37.20532    60.14975
    70  C   4.0    0.04    3.98    3.58    13.14851    36.02714    66.02504
    71  O   6.0   -0.46    1.99    1.82    15.64427    36.59411    65.26506
    72  C   4.0   -0.20    3.98    3.59    13.02044    33.79938    67.84487
    73  H   1.0    0.30    1.00    1.43    13.54285    32.46814    61.92560
    74  H   1.0    0.12    0.99    1.43     9.55450    35.66972    64.12850
    75  H   1.0    0.09    0.99    1.43    12.32917    37.70706    66.94450
    76  H   1.0    0.26    0.99    1.43    16.63383    36.98759    66.75070
    77  H   1.0    0.10    0.99    1.43    14.00200    34.25172    69.59139
    78  H   1.0    0.11    0.99    1.43    11.05837    33.37349    68.27205
    79  H   1.0    0.15    0.99    1.43    13.87577    32.13798    66.99091
    80  N   5.0   -0.36    3.03    1.93    11.02942    39.71171    61.77753
    81  C   4.0    0.07    4.03    3.68    11.67320    41.70204    59.97931
    82  C   4.0    0.28    3.01    3.02    14.48435    42.29042    59.95115
    83  O   6.0   -0.45    1.00    1.80    15.61816    42.80477    58.00273
    84  C   4.0   -0.15    4.01    3.63    10.10739    43.97798    60.84543
    85  C   4.0   -0.16    4.01    3.64     7.77903    42.73246    62.00558
    86  C   4.0   -0.06    4.01    3.64     8.86660    40.40851    63.33080
    87  H   1.0    0.11    0.99    1.43    11.14535    41.10408    58.06680
    88  H   1.0    0.11    0.99    1.43    11.14204    45.04442    62.27207
    89  H   1.0    0.09    0.99    1.43     9.65410    45.22941    59.28220
    90  H   1.0    0.09    0.99    1.43     6.79776    43.96988    63.31583
    91  H   1.0    0.10    0.99    1.43     6.47226    42.15777    60.52271
    92  H   1.0    0.10    0.99    1.43     9.49895    40.87340    65.24401
    93  H   1.0    0.10    0.99    1.43     7.49871    38.87193    63.43817
    94  N   5.0   -0.48    3.01    1.93    15.59584    42.41004    62.22786
    95  C   4.0    0.08    3.99    3.61    18.21055    43.16134    62.43577
    96  C   4.0    0.30    3.02    3.02    19.98008    41.51906    60.85601
    97  O   6.0   -0.46    1.00    1.80    22.04054    42.33381    60.19426
    98  C   4.0   -0.02    3.98    3.58    19.04837    43.17564    65.22553
    99  O   6.0   -0.49    1.99    1.82    18.86235    40.79719    66.37955
   100  H   1.0    0.26    1.00    1.43    14.77972    41.64904    63.77579
   101  H   1.0    0.12    0.99    1.43    18.42147    45.08870    61.69987
   102  H   1.0    0.10    0.99    1.43    20.97183    43.93331    65.32506
   103  H   1.0    0.11    0.99    1.43    17.79037    44.42524    66.28270
   104  H   1.0    0.27    0.99    1.43    20.24276    39.73602    65.84550
   105  N   5.0   -0.47    3.01    1.93    19.22390    39.16707    60.32473
   106  C   4.0    0.07    4.00    3.62    20.91021    37.50922    58.96551
   107  C   4.0    0.28    3.01    3.02    21.39986    38.32702    56.23751
   108  O   6.0   -0.47    1.00    1.80    23.39665    37.77539    55.18930
   109  C   4.0   -0.14    3.99    3.60    19.90274    34.80789    59.00611
   110  C   4.0   -0.10    3.99    3.60    19.88690    33.75913    61.69893
   111  C   4.0    0.28    3.00    3.02    18.74296    31.14403    61.73469
   112  O   6.0   -0.48    1.00    1.80    16.74432    30.69657    60.63773
   113  N   5.0   -0.65    3.00    1.93    20.01804    29.42863    63.05423
   114  H   1.0    0.30    1.00    1.43    17.45195    38.51838    60.68216
   115  H   1.0    0.12    0.99    1.43    22.75773    37.56087    59.91260
   116  H   1.0    0.14    0.99    1.43    17.98196    34.78562    58.25452
   117  H   1.0    0.10    0.99    1.43    21.09755    33.63471    57.80200
   118  H   1.0    0.13    0.99    1.43    21.78448    33.70928    62.49175
   119  H   1.0    0.15    0.99    1.43    18.67203    34.94154    62.87823
   120  H   1.0    0.31    1.00    1.43    21.69962    29.88289    63.85719
   121  H   1.0    0.30    1.00    1.43    19.39452    27.63226    63.18203
   122  N   5.0   -0.48    3.00    1.93    19.57392    39.60363    55.05584
   123  C   4.0    0.07    4.00    3.61    19.80870    40.20816    52.39030
   124  C   4.0    0.29    3.01    3.02    22.40173    41.31626    51.76156
   125  O   6.0   -0.45    1.00    1.80    23.52818    40.70314    49.83197
   126  C   4.0   -0.13    3.99    3.60    17.74394    42.07720    51.55512
   127  C   4.0   -0.04    3.03    3.02    15.29584    40.74796    50.97405
   128  C   4.0   -0.11    3.03    3.02    14.93580    39.58515    48.64777
   129  C   4.0   -0.09    3.03    3.02    13.36748    40.66329    52.74952
   130  C   4.0   -0.12    3.03    3.02    12.68320    38.37278    48.10432
   131  C   4.0   -0.11    3.03    3.02    11.11720    39.44172    52.21160
   132  C   4.0   -0.11    3.03    3.02    10.76702    38.29747    49.88566
   133  H   1.0    0.28    1.00    1.43    17.97419    40.13526    55.96427
   134  H   1.0    0.12    0.99    1.43    19.65509    38.45944    51.27983
   135  H   1.0    0.13    0.99    1.43    17.46167    43.45818    53.05822
   136  H   1.0    0.11    0.99    1.43    18.40211    43.05342    49.86024
   137  H   1.0    0.11    1.00    1.43    16.42620    39.63784    47.25451
   138  H   1.0    0.14    1.00    1.43    13.64395    41.58030    54.54812
   139  H   1.0    0.10    1.00    1.43    12.42094    37.48485    46.28805
   140  H   1.0    0.11    1.00    1.43     9.62329    39.38511    53.60092
   141  H   1.0    0.11    1.00    1.43     9.01035    37.35231    49.46050
   142  N   5.0   -0.49    3.00    1.93    23.26521    43.11211    53.31949
   143  C   4.0    0.08    3.99    3.61    25.56555    44.50391    52.77396
   144  C   4.0    0.30    3.01    3.02    27.80780    42.76867    52.24304
   145  O   6.0   -0.48    1.00    1.80    29.45943    43.36021    50.71569
   146  C   4.0   -0.09    3.98    3.58    26.15118    46.37899    54.92642
   147  C   4.0   -0.20    3.98    3.59    26.65611    45.03321    57.42329
   148  C   4.0   -0.22    3.98    3.59    28.40244    48.04124    54.22806
   149  H   1.0    0.26    1.00    1.43    22.36904    43.48240    54.96257
   150  H   1.0    0.12    0.99    1.43    25.26196    45.58326    51.02387
   151  H   1.0    0.11    0.99    1.43    24.47467    47.57735    55.12425
   152  H   1.0    0.10    0.99    1.43    27.03783    46.43371    58.87420
   153  H   1.0    0.15    0.99    1.43    25.05968    43.90895    58.04550
   154  H   1.0    0.14    0.99    1.43    28.29058    43.80607    57.25320
   155  H   1.0    0.10    0.99    1.43    28.65338    49.51630    55.63280
   156  H   1.0    0.14    0.99    1.43    30.11971    46.91817    54.17164
   157  H   1.0    0.11    0.99    1.43    28.14172    48.92327    52.39244
   158  N   5.0   -0.48    3.01    1.93    27.91868    40.61911    53.54981
   159  C   4.0    0.08    4.00    3.62    29.99595    38.88312    53.20375
   160  C   4.0    0.27    3.01    3.02    30.23767    37.90913    50.48339
   161  O   6.0   -0.47    1.00    1.80    32.25123    37.04184    49.73224
   162  C   4.0   -0.13    3.99    3.60    29.69817    36.62336    54.99289
   163  C   4.0   -0.03    3.03    3.02    30.35622    37.33617    57.66281
   164  C   4.0   -0.09    3.03    3.02    32.85590    37.61735    58.41356
   165  C   4.0   -0.09    3.03    3.02    28.45813    37.76863    59.41863
   166  C   4.0   -0.10    3.03    3.02    33.44027    38.26786    60.87704
   167  C   4.0   -0.10    3.03    3.02    29.03499    38.43586    61.87998
   168  C   4.0   -0.10    3.03    3.02    31.53252    38.67458    62.62103
   169  H   1.0    0.29    1.00    1.43    26.42664    40.00703    54.58146
   170  H   1.0    0.14    0.99    1.43    31.76777    39.88048    53.62651
   171  H   1.0    0.12    0.99    1.43    27.74829    35.96226    54.88736
   172  H   1.0    0.10    0.99    1.43    30.93006    35.10852    54.33284
   173  H   1.0    0.11    1.00    1.43    34.36543    37.33726    57.06906
   174  H   1.0    0.13    1.00    1.43    26.51758    37.57504    58.82871
   175  H   1.0    0.11    1.00    1.43    35.39276    38.47147    61.42838
   176  H   1.0    0.12    1.00    1.43    27.53994    38.77633    63.22342
   177  H   1.0    0.12    1.00    1.43    31.98855    39.17589    64.54583
   178  N   5.0   -0.48    3.01    1.93    28.14287    37.99945    49.09130
   179  C   4.0    0.08    3.99    3.60    27.95428    37.07129    46.53702
   180  C   4.0    0.29    3.01    3.02    28.06585    39.19979    44.57364
   181  O   6.0   -0.42    1.00    1.80    27.26139    38.91461    42.42923
   182  C   4.0   -0.12    3.99    3.60    25.48687    35.58693    46.22693
   183  C   4.0   -0.09    3.98    3.58    25.10761    33.50661    48.21065
   184  C   4.0   -0.24    3.98    3.59    22.67777    32.05309    47.64779
   185  C   4.0   -0.22    3.98    3.59    27.34313    31.68714    48.30439
   186  H   1.0    0.31    1.00    1.43    26.54722    38.84111    49.74658
   187  H   1.0    0.16    0.99    1.43    29.58921    35.85098    46.16024
   188  H   1.0    0.13    0.99    1.43    23.92532    36.93128    46.35395
   189  H   1.0    0.12    0.99    1.43    25.48947    34.78296    44.33103
   190  H   1.0    0.13    0.99    1.43    24.91881    34.40657    50.06617
   191  H   1.0    0.09    0.99    1.43    22.26088    30.74216    49.17453
   192  H   1.0    0.09    0.99    1.43    21.10055    33.35061    47.43640
   193  H   1.0    0.11    0.99    1.43    22.88179    30.97218    45.91277
   194  H   1.0    0.09    0.99    1.43    26.92940    30.08942    49.52862
   195  H   1.0    0.12    0.99    1.43    27.76244    30.95136    46.43255
   196  H   1.0    0.12    0.99    1.43    29.02672    32.62421    49.01909
   197  N   5.0   -0.44    3.01    1.93    29.06027    41.39363    45.37405
   198  C   4.0    0.08    3.99    3.60    29.38402    43.52249    43.69286
   199  C   4.0    0.08    3.00    3.02    32.05694    43.51204    42.55792
   200  O   6.0   -0.40    1.00    1.80    33.54646    41.79284    42.94533
   201  C   4.0   -0.02    3.98    3.58    28.76045    46.00493    45.09709
   202  O   6.0   -0.51    1.99    1.82    30.61660    46.72308    46.84014
   203  H   1.0    0.30    1.00    1.43    29.81251    41.55598    47.12484
   204  H   1.0    0.13    0.99    1.43    28.04242    43.24109    42.13601
   205  H   1.0    0.10    0.99    1.43    28.57151    47.55076    43.73914
   206  H   1.0    0.12    0.99    1.43    26.92596    45.75101    46.02269
   207  H   1.0    0.31    0.99    1.43    30.42399    45.69663    48.36335
   208  N   5.0   -0.71    3.00    1.93    37.76725    45.24429    43.39602
   209  C   4.0    0.07    3.98    3.59    38.76502    45.95553    45.83812
   210  C   4.0    0.28    3.01    3.02    41.23520    44.63839    46.54038
   211  O   6.0   -0.46    1.00    1.80    42.01017    44.80864    48.72662
   212  C   4.0   -0.19    3.98    3.59    36.79615    45.42072    47.89286
   213  H   1.0    0.30    1.00    1.43    37.14617    43.43821    43.23394
   214  H   1.0    0.12    0.99    1.43    39.13158    47.99422    45.76034
   215  H   1.0    0.11    0.99    1.43    37.53672    45.96057    49.72760
   216  H   1.0    0.12    0.99    1.43    35.07603    46.47845    47.51642
   217  H   1.0    0.14    0.99    1.43    36.35510    43.41234    47.91226
   218  N   5.0   -0.45    3.01    1.93    42.49266    43.41667    44.74118
   219  C   4.0    0.06    4.00    3.61    44.57674    41.76188    45.39892
   220  C   4.0    0.06    3.00    3.02    46.89263    42.24747    43.73833
   221  O   6.0   -0.39    1.00    1.80    46.71646    42.49410    41.44848
   222  C   4.0   -0.13    3.99    3.60    43.69169    39.00363    45.02533
   223  C   4.0   -0.02    3.12    3.03    41.53236    38.45007    46.75449
   224  C   4.0    0.03    3.22    3.04    39.00711    38.52228    46.20092
   225  C   4.0    0.01    3.18    3.03    41.71798    37.83732    49.37632
   226  N   5.0   -0.48    3.10    1.94    37.61431    37.96564    48.30164
   227  C   4.0    0.12    3.23    3.04    39.21545    37.51626    50.26482
   228  C   4.0   -0.12    3.02    3.02    43.72741    37.51730    51.04965
   229  C   4.0   -0.10    3.02    3.02    38.71555    36.85547    52.75545
   230  C   4.0   -0.12    3.03    3.02    43.22007    36.80748    53.49858
   231  C   4.0   -0.12    3.03    3.02    40.73793    36.48030    54.34975
   232  H   1.0    0.26    1.00    1.43    41.70881    43.13444    43.00622
   233  H   1.0    0.13    0.99    1.43    45.01922    42.10166    47.38661
   234  H   1.0    0.12    0.99    1.43    43.10246    38.78652    43.06066
   235  H   1.0    0.10    0.99    1.43    45.26438    37.74199    45.44379
   236  H   1.0    0.13    1.00    1.43    38.10681    38.93101    44.42812
   237  H   1.0    0.29    1.00    1.43    35.71564    37.81851    48.40479
   238  H   1.0    0.10    1.00    1.43    45.64295    37.85157    50.45349
   239  H   1.0    0.11    1.00    1.43    36.79051    36.65088    53.38744
   240  H   1.0    0.10    0.99    1.43    44.77254    36.49971    54.79144
   241  H   1.0    0.10    0.99    1.43    40.41671    35.96375    56.29891
   242  N   5.0   -0.52    3.03    1.93    36.20026    30.72883    43.46238
   243  C   4.0    0.06    4.02    3.66    34.04996    29.11479    44.04514
   244  C   4.0    0.26    3.01    3.02    31.70419    30.37171    42.92003
   245  O   6.0   -0.41    1.00    1.80    31.45523    32.67467    42.90388
   246  C   4.0   -0.14    4.01    3.63    33.91661    29.00453    46.94288
   247  C   4.0   -0.14    4.01    3.64    36.32200    30.34303    47.81572
   248  C   4.0   -0.01    4.03    3.67    36.83758    32.19967    45.67824
   249  H   1.0    0.10    0.99    1.43    34.31861    27.26318    43.17553
   250  H   1.0    0.11    0.99    1.43    32.25482    30.01538    47.61071
   251  H   1.0    0.10    0.99    1.43    33.81207    27.06595    47.60753
   252  H   1.0    0.11    0.99    1.43    36.08815    31.28730    49.62565
   253  H   1.0    0.11    0.99    1.43    37.88064    29.00580    47.93049
   254  H   1.0    0.15    0.99    1.43    35.54427    33.81068    45.80692
   255  H   1.0    0.11    0.99    1.43    38.77580    32.84774    45.66118
   256  N   5.0   -0.49    3.01    1.93    29.99039    28.75170    42.03764
   257  C   4.0    0.06    3.99    3.60    27.56858    29.50078    41.03332
   258  C   4.0    0.25    3.02    3.02    25.69331    27.45884    41.82064
   259  O   6.0   -0.42    1.00    1.80    26.42540    25.40898    42.60255
   260  C   4.0   -0.13    3.98    3.59    27.59661    29.75764    38.12856
   261  C   4.0   -0.10    3.98    3.59    29.59773    31.67164    37.27933
   262  C   4.0    0.27    3.00    3.02    29.41713    32.09464    34.44613
   263  O   6.0   -0.40    1.00    1.80    30.21411    30.58296    32.90050
   264  N   5.0   -0.65    3.00    1.93    28.22503    34.23152    33.75805
   265  H   1.0    0.25    1.00    1.43    30.32534    26.85371    42.18129
   266  H   1.0    0.12    0.99    1.43    27.07629    31.33781    41.85835
   267  H   1.0    0.13    0.99    1.43    28.00091    27.93283    37.25730
   268  H   1.0    0.11    0.99    1.43    25.74140    30.39054    37.49127
   269  H   1.0    0.13    0.99    1.43    29.35214    33.44728    38.29680
   270  H   1.0    0.14    0.99    1.43    31.47797    30.93174    37.70100
   271  H   1.0    0.26    1.00    1.43    27.66684    35.52515    35.03269
   272  H   1.0    0.28    1.00    1.43    28.08763    34.65591    31.90718
   273  N   5.0   -0.52    3.01    1.93    23.22957    27.93757    41.52045
   274  C   4.0    0.07    4.00    3.61    21.39561    26.00778    42.21834
   275  C   4.0    0.10    3.00    3.02    22.27113    23.42361    41.24427
   276  O   6.0   -0.44    1.00    1.80    22.04583    21.50035    42.50249
   277  C   4.0   -0.10    3.98    3.58    18.74750    26.66744    41.20556
   278  C   4.0   -0.21    3.98    3.59    16.95013    24.43287    41.54871
   279  C   4.0   -0.24    3.98    3.59    17.69424    28.96938    42.59193
   280  H   1.0    0.22    1.00    1.43    22.59260    29.63225    40.92081
   281  H   1.0    0.12    0.99    1.43    21.30366    25.85560    44.28747
   282  H   1.0    0.11    0.99    1.43    18.91210    27.09477    39.18770
   283  H   1.0    0.10    0.99    1.43    15.06255    24.95961    40.93607
   284  H   1.0    0.12    0.99    1.43    17.56023    22.81025    40.44838
   285  H   1.0    0.13    0.99    1.43    16.86346    23.87652    43.52663
   286  H   1.0    0.09    0.99    1.43    15.85485    29.45616    41.82028
   287  H   1.0    0.10    0.99    1.43    17.47139    28.53733    44.58726
   288  H   1.0    0.09    0.99    1.43    18.91741    30.60825    42.41569
   289  N   5.0   -0.70    3.00    1.93    47.16489    42.97968    54.52070
   290  C   4.0    0.07    3.98    3.58    44.55361    43.80229    54.45842
   291  C   4.0    0.09    3.00    3.02    44.31910    46.67889    54.78780
   292  O   6.0   -0.38    1.00    1.80    44.92148    47.75838    56.75071
   293  C   4.0   -0.12    3.99    3.61    43.16449    42.49376    56.63241
   294  C   4.0   -0.04    3.03    3.02    40.38153    43.01647    56.79628
   295  C   4.0   -0.11    3.03    3.02    38.83267    43.09509    54.67517
   296  C   4.0   -0.10    3.04    3.02    39.28147    43.29804    59.16297
   297  C   4.0   -0.09    3.03    3.02    36.25294    43.43387    54.91937
   298  C   4.0   -0.10    3.03    3.02    36.71089    43.64949    59.42901
   299  C   4.0    0.09    3.03    3.02    35.17406    43.70067    57.30263
   300  O   6.0   -0.49    1.99    1.83    32.62665    44.00498    57.47894
   301  H   1.0    0.26    1.00    1.43    47.94869    42.70735    56.24439
   302  H   1.0    0.13    0.99    1.43    43.79755    43.26190    52.61357
   303  H   1.0    0.10    0.99    1.43    43.43666    40.45774    56.42742
   304  H   1.0    0.12    0.99    1.43    44.06084    43.09652    58.38964
   305  H   1.0    0.13    1.00    1.43    39.63071    42.85584    52.81568
   306  H   1.0    0.11    1.00    1.43    40.44471    43.20908    60.83407
   307  H   1.0    0.13    1.00    1.43    35.03927    43.48421    53.28065
   308  H   1.0    0.12    1.00    1.43    35.88588    43.88513    61.28066
   309  H   1.0    0.25    0.99    1.43    32.15372    44.23350    59.22771
   310  N   5.0   -0.69    3.00    1.93    39.84715    50.12426    55.98501
   311  C   4.0    0.07    3.98    3.59    38.24971    50.96785    58.02169
   312  C   4.0    0.07    3.00    3.02    38.92536    49.82332    60.58103
   313  O   6.0   -0.43    1.00    1.80    37.46964    49.93436    62.37410
   314  C   4.0   -0.12    3.99    3.60    35.45268    50.60944    57.35123
   315  C   4.0   -0.05    3.03    3.02    34.79201    52.16042    55.06428
   316  C   4.0   -0.11    3.03    3.02    34.75387    54.78677    55.20026
   317  C   4.0   -0.11    3.03    3.02    34.29886    51.01707    52.75798
   318  C   4.0   -0.08    3.03    3.02    34.25326    56.23418    53.08971
   319  C   4.0   -0.10    3.02    3.02    33.76642    52.44350    50.63246
   320  C   4.0    0.10    3.03    3.02    33.75259    55.06692    50.78120
   321  O   6.0   -0.47    1.99    1.83    33.28258    56.56384    48.75149
   322  H   1.0    0.27    1.00    1.43    39.53413    48.37693    55.28096
   323  H   1.0    0.12    0.99    1.43    38.62324    52.99940    58.25117
   324  H   1.0    0.12    0.99    1.43    35.09161    48.61265    56.99549
   325  H   1.0    0.12    0.99    1.43    34.34644    51.20205    58.98564
   326  H   1.0    0.11    0.99    1.43    35.11903    55.72351    56.98019
   327  H   1.0    0.11    1.00    1.43    34.29759    48.98250    52.61458
   328  H   1.0    0.13    1.00    1.43    34.23421    58.26908    53.19832
   329  H   1.0    0.12    1.00    1.43    33.35119    51.50702    48.86694
   330  H   1.0    0.25    0.99    1.43    32.92933    55.54250    47.27944
   331  N   5.0   -0.72    3.00    1.93    41.39608    26.39247    62.49446
   332  C   4.0    0.07    3.99    3.60    39.42440    27.68534    61.09860
   333  C   4.0    0.29    3.02    3.02    36.81245    26.66772    61.79382
   334  O   6.0   -0.49    1.00    1.80    35.10461    28.10694    62.46868
   335  C   4.0   -0.13    3.99    3.61    39.83446    27.33074    58.25247
   336  C   4.0   -0.03    3.03    3.02    37.52264    28.11628    56.79920
   337  C   4.0   -0.09    3.03    3.02    36.91166    30.64945    56.51152
   338  C   4.0   -0.08    3.04    3.02    35.94824    26.30939    55.73360
   339  C   4.0   -0.10    3.03    3.02    34.77921    31.34309    55.17150
   340  C   4.0   -0.09    3.03    3.02    33.79662    27.00033    54.41900
   341  C   4.0   -0.11    3.03    3.02    33.20917    29.53058    54.12912
   342  H   1.0    0.25    1.00    1.43    42.77606    25.53062    61.46953
   343  H   1.0    0.10    0.99    1.43    39.42029    29.70051    61.59590
   344  H   1.0    0.09    0.99    1.43    41.46870    28.43751    57.65530
   345  H   1.0    0.11    0.99    1.43    40.23353    25.33989    57.90230
   346  H   1.0    0.10    1.00    1.43    38.12325    32.08087    57.31129
   347  H   1.0    0.11    1.00    1.43    36.44799    24.34118    55.91814
   348  H   1.0    0.10    1.00    1.43    34.35387    33.31785    54.92461
   349  H   1.0    0.13    1.00    1.43    32.58948    25.57433    53.60845
   350  H   1.0    0.10    1.00    1.43    31.55097    30.08591    53.08123
   351  N   5.0   -0.49    3.01    1.93    36.47803    24.19706    61.56010
   352  C   4.0    0.06    4.00    3.62    34.04302    23.07026    62.12637
   353  C   4.0    0.09    3.00    3.02    33.35243    23.58897    64.88409
   354  O   6.0   -0.42    1.00    1.80    31.22520    24.28700    65.48411
   355  C   4.0   -0.14    3.98    3.59    34.03031    20.27360    61.37900
   356  C   4.0   -0.11    3.98    3.59    33.66538    20.10597    58.52498
   357  C   4.0    0.31    2.99    3.02    34.09518    17.54098    57.24215
   358  O   6.0   -0.38    1.00    1.80    34.50945    15.59959    58.48606
   359  O   6.0   -0.44    1.00    1.80    33.98532    17.59184    54.86163
   360  H   1.0    0.23    1.00    1.43    37.89509    23.03583    60.97828
   361  H   1.0    0.15    0.99    1.43    32.57172    24.03060    61.01769
   362  H   1.0    0.12    0.99    1.43    35.80032    19.38670    61.95415
   363  H   1.0    0.14    0.99    1.43    32.47161    19.31882    62.32873
   364  H   1.0    0.13    0.99    1.43    31.73698    20.70197    58.07928
   365  H   1.0    0.11    0.99    1.43    34.95327    21.41664    57.59454
   366  N   5.0   -0.69    3.00    1.93    34.93357    28.25752    68.42184
   367  C   4.0    0.08    3.98    3.59    34.51158    30.91818    68.90515
   368  C   4.0    0.28    3.01    3.02    31.99706    31.84315    67.80354
   369  O   6.0   -0.41    1.00    1.80    30.60530    33.30211    68.91780
   370  C   4.0   -0.02    3.98    3.59    36.63387    32.51225    67.71187
   371  O   6.0   -0.49    1.99    1.82    39.01715    32.09814    68.77005
   372  H   1.0    0.27    1.00    1.43    36.27074    27.79641    67.13129
   373  H   1.0    0.12    0.99    1.43    34.44867    31.22424    70.95223
   374  H   1.0    0.12    0.99    1.43    36.66073    32.13285    65.67047
   375  H   1.0    0.12    0.99    1.43    36.18499    34.50318    68.02382
   376  H   1.0    0.25    0.99    1.43    39.51975    30.37691    68.38363
   377  N   5.0   -0.48    3.01    1.93    31.56162    30.99247    65.45901
   378  C   4.0    0.09    3.99    3.61    29.33103    31.67468    64.04659
   379  C   4.0    0.30    3.01    3.02    26.97779    30.26335    64.94547
   380  O   6.0   -0.47    1.00    1.80    24.87482    31.21165    64.74185
   381  C   4.0   -0.02    3.98    3.59    29.69955    31.05889    61.22418
   382  O   6.0   -0.50    1.99    1.82    30.07613    28.46564    60.80484
   383  H   1.0    0.30    1.00    1.43    32.82948    29.81569    64.63976
   384  H   1.0    0.13    0.99    1.43    28.97362    33.70355    64.26221
   385  H   1.0    0.11    0.99    1.43    27.98592    31.59196    60.20519
   386  H   1.0    0.12    0.99    1.43    31.28490    32.16698    60.48946
   387  H   1.0    0.31    0.99    1.43    31.79558    28.05134    61.32057
   388  N   5.0   -0.47    3.00    1.93    27.39522    27.93709    65.81486
   389  C   4.0    0.03    3.99    3.61    25.38393    26.22143    66.44453
   390  C   4.0    0.28    3.01    3.02    24.19409    24.94479    64.14131
   391  O   6.0   -0.43    1.00    1.80    22.23665    23.72020    64.33631
   392  H   1.0    0.31    1.00    1.43    29.14877    27.16798    65.77078
   393  H   1.0    0.13    0.99    1.43    26.13461    24.75382    67.68437
   394  H   1.0    0.13    0.99    1.43    23.89023    27.23700    67.44789
   395  N   5.0   -0.46    3.01    1.93    25.35575    25.31919    61.93330
   396  C   4.0    0.07    4.00    3.62    24.41319    24.10802    59.67079
   397  C   4.0    0.28    3.01    3.02    25.20240    21.31908    59.68861
   398  O   6.0   -0.42    1.00    1.80    27.38683    20.65091    60.01474
   399  C   4.0   -0.13    3.99    3.60    25.42846    25.45399    57.33515
   400  C   4.0   -0.10    3.98    3.58    24.20801    28.05486    56.95856
   401  C   4.0   -0.23    3.99    3.59    25.81337    29.58765    55.11991
   402  C   4.0   -0.22    3.98    3.59    21.50997    27.82119    55.96487
   403  H   1.0    0.29    1.00    1.43    27.08093    26.14794    61.82347
   404  H   1.0    0.13    0.99    1.43    22.34728    24.20661    59.74117
   405  H   1.0    0.13    0.99    1.43    27.47053    25.66206    57.55285
   406  H   1.0    0.11    0.99    1.43    25.10759    24.27942    55.66989
   407  H   1.0    0.14    0.99    1.43    24.16557    29.02124    58.78838
   408  H   1.0    0.10    0.99    1.43    24.97506    31.42901    54.76087
   409  H   1.0    0.11    0.99    1.43    27.70426    29.85797    55.87397
   410  H   1.0    0.10    0.99    1.43    25.96958    28.57132    53.33935
   411  H   1.0    0.10    0.99    1.43    20.65024    29.67761    55.78689
   412  H   1.0    0.10    0.99    1.43    21.51598    26.93168    54.11073
   413  H   1.0    0.13    0.99    1.43    20.32547    26.70062    57.21417
   414  N   5.0   -0.48    3.01    1.93    23.26974    19.71340    59.37096
   415  C   4.0    0.07    3.99    3.60    23.53195    16.99148    59.31415
   416  C   4.0    0.06    3.00    3.02    23.26516    16.16498    56.55257
   417  O   6.0   -0.44    1.00    1.80    21.61791    17.05865    55.19332
   418  C   4.0   -0.08    3.98    3.58    21.49864    15.70550    60.94867
   419  C   4.0   -0.23    3.98    3.59    21.79718    12.83540    60.84992
   420  C   4.0   -0.21    3.98    3.59    21.66836    16.63511    63.67504
   421  H   1.0    0.25    1.00    1.43    21.50160    20.37920    59.11698
   422  H   1.0    0.13    0.99    1.43    25.42076    16.55270    60.03272
   423  H   1.0    0.13    0.99    1.43    19.65125    16.21347    60.16198
   424  H   1.0    0.10    0.99    1.43    20.32949    11.94735    61.97705
   425  H   1.0    0.11    0.99    1.43    21.63486    12.11915    58.92934
   426  H   1.0    0.10    0.99    1.43    23.62155    12.27242    61.61215
   427  H   1.0    0.10    0.99    1.43    20.16634    15.79844    64.79622
   428  H   1.0    0.11    0.99    1.43    23.47239    16.09298    64.49877
   429  H   1.0    0.14    0.99    1.43    21.49868    18.68103    63.79223
   430  H   1.0    0.31    1.00    1.43    22.77525    18.30456    47.14081
   431  H   1.0    0.11    1.00    1.43    32.62425    44.94414    41.46326
   432  H   1.0    0.30    1.00    1.43    36.43840    46.23510    43.01521
   433  H   1.0    0.12    1.00    1.43    48.60790    42.37082    44.52172
   434  H   1.0    0.27    1.00    1.43    37.32893    29.85797    42.53488
   435  H   1.0    0.14    1.00    1.43    23.05425    23.27550    39.53084
   436  H   1.0    0.28    1.00    1.43    47.31036    41.49029    53.71255
   437  H   1.0    0.14    1.00    1.43    43.65567    47.74100    53.37258
   438  H   1.0    0.30    1.00    1.43    39.68095    51.17711    54.65970
   439  H   1.0    0.15    1.00    1.43    40.58880    48.95909    60.82009
   440  H   1.0    0.29    1.00    1.43    42.20267    27.50333    63.49844
   441  H   1.0    0.14    1.00    1.43    34.64720    23.36043    66.24144
   442  H   1.0    0.29    1.00    1.43    35.41304    27.48817    69.86086
   443  H   1.0    0.12    1.00    1.43    24.44623    14.87694    55.83347

           ------------------------------------------------- 
          |        Self-Consistent Charge Iterations        |
           ------------------------------------------------- 

          ...................................................
          :                      SETUP                      :
          :.................................................:
          :  # basis functions                1109          :
          :  # atomic orbitals                1109          :
          :  # shells                          665          :
          :  # electrons                      1222          :
          :  max. iterations                   250          :
          :  Hamiltonian                  GFN2-xTB          :
          :  restarted?                      false          :
          :  GBSA solvation                   true          :
          :  PC potential                    false          :
          :  electronic temp.          500.0000000     K    :
          :  accuracy                    0.1000000          :
          :  -> integral cutoff          0.3500000E+02      :
          :  -> integral neglect         0.1000000E-08      :
          :  -> SCF convergence          0.1000000E-06 Eh   :
          :  -> wf. convergence          0.1000000E-04 e    :
          :  Broyden damping             0.4000000          :
          ...................................................

 iter      E             dE          RMSdq      gap      omega  full diag
   1   -698.3570637 -0.698357E+03  0.433E+00    2.06       0.0  T
   2   -699.9815894 -0.162453E+01  0.231E+00    1.09       1.0  T
   3   -700.0335826 -0.519931E-01  0.120E+00    1.42       1.0  T
   4   -700.0653342 -0.317517E-01  0.278E-01    0.89       1.0  T
   5   -700.0872391 -0.219048E-01  0.102E-01    1.02       1.0  T
   6   -700.0878090 -0.569970E-03  0.548E-02    1.02       1.0  T
   7   -700.0881210 -0.311977E-03  0.250E-02    1.01       1.0  T
   8   -700.0881886 -0.676207E-04  0.932E-03    1.01       1.0  T
   9   -700.0881981 -0.945937E-05  0.496E-03    1.00       1.0  T
  10   -700.0882005 -0.243469E-05  0.250E-03    1.00       1.9  T
  11   -700.0882011 -0.594746E-06  0.113E-03    1.00       4.2  T
  12   -700.0882013 -0.162048E-06  0.542E-04    1.00       8.8  T
  13   -700.0882013 -0.295400E-07  0.282E-04    1.00      16.8  T
  14   -700.0882013 -0.102361E-07  0.139E-04    1.00      34.3  T
  15   -700.0882013 -0.260638E-08  0.620E-05    1.00      76.6  T
  16   -700.0882013 -0.523642E-09  0.316E-05    1.00     150.6  T

   *** convergence criteria satisfied after 16 iterations ***

         #    Occupation            Energy/Eh            Energy/eV
      -------------------------------------------------------------
         1        2.0000           -0.7436171             -20.2349
       ...           ...                  ...                  ...
       605        2.0000           -0.3703584             -10.0780
       606        2.0000           -0.3669954              -9.9865
       607        2.0000           -0.3637221              -9.8974
       608        2.0000           -0.3613969              -9.8341
       609        2.0000           -0.3603704              -9.8062
       610        2.0000           -0.3514086              -9.5623
       611        2.0000           -0.3429507              -9.3322 (HOMO)
       612        0.0000           -0.3060716              -8.3286 (LUMO)
       613        0.0000           -0.3023704              -8.2279
       614                         -0.2926224              -7.9627
       615                         -0.2882382              -7.8434
       616                         -0.2826477              -7.6912
       ...                                ...                  ...
      1109                          0.7228433              19.6696
      -------------------------------------------------------------
                  HL-Gap            0.0368791 Eh            1.0035 eV
             Fermi-level           -0.3245805 Eh           -8.8323 eV

 SCC (total)                   0 d,  0 h,  0 min, 13.406 sec
 SCC setup                      ...        0 min,  0.166 sec (  1.235%)
 Dispersion                     ...        0 min,  0.205 sec (  1.528%)
 integral evaluation            ...        0 min,  0.492 sec (  3.670%)
 zeroth order Hamiltonian       ...        0 min,  0.021 sec (  0.157%)
 iterations                     ...        0 min, 10.120 sec ( 75.487%)
 molecular gradient             ...        0 min,  2.330 sec ( 17.381%)
 printout                       ...        0 min,  0.072 sec (  0.541%)

         :::::::::::::::::::::::::::::::::::::::::::::::::::::
         ::                     SUMMARY                     ::
         :::::::::::::::::::::::::::::::::::::::::::::::::::::
         :: total energy             -691.222570777870 Eh   ::
         :: total w/o Gsasa/hb       -691.162096891914 Eh   ::
         :: gradient norm               0.591141781368 Eh/α ::
         :: HOMO-LUMO gap               1.003530449832 eV   ::
         ::.................................................::
         :: SCC energy               -700.103731442064 Eh   ::
         :: -> isotropic ES             1.704268284571 Eh   ::
         :: -> anisotropic ES          -0.023385619537 Eh   ::
         :: -> anisotropic XC           0.215626379161 Eh   ::
         :: -> dispersion              -0.625259109568 Eh   ::
         :: -> Gsolv                   -0.268798686995 Eh   ::
         ::    -> Gborn                -0.208324801038 Eh   ::
         ::    -> Gsasa                -0.017387551966 Eh   ::
         ::    -> Ghb                  -0.044943777117 Eh   ::
         ::    -> Gshift                0.001857443127 Eh   ::
         :: repulsion energy            8.813392128245 Eh   ::
         :: add. restraining            0.000000000000 Eh   ::
         :::::::::::::::::::::::::::::::::::::::::::::::::::::

           -------------------------------------------------
          |                Property Printout                |
           -------------------------------------------------

    * Orbital Energies and Occupations

         #    Occupation            Energy/Eh            Energy/eV
      -------------------------------------------------------------
         1        2.0000           -0.7436171             -20.2349
       ...           ...                  ...                  ...
       599        2.0000           -0.3835848             -10.4379
       600        2.0000           -0.3826749             -10.4131
       601        2.0000           -0.3789204             -10.3109
       602        2.0000           -0.3787114             -10.3053
       603        2.0000           -0.3783171             -10.2945
       604        2.0000           -0.3777861             -10.2801
       605        2.0000           -0.3703584             -10.0780
       606        2.0000           -0.3669954              -9.9865
       607        2.0000           -0.3637221              -9.8974
       608        2.0000           -0.3613969              -9.8341
       609        2.0000           -0.3603704              -9.8062
       610        2.0000           -0.3514086              -9.5623
       611        2.0000           -0.3429507              -9.3322 (HOMO)
       612        0.0000           -0.3060716              -8.3286 (LUMO)
       613        0.0000           -0.3023704              -8.2279
       614                         -0.2926224              -7.9627
       615                         -0.2882382              -7.8434
       616                         -0.2826477              -7.6912
       617                         -0.2779521              -7.5635
       618                         -0.2732609              -7.4358
       619                         -0.2485725              -6.7640
       620                         -0.2446873              -6.6583
       621                         -0.2416460              -6.5755
       622                         -0.2392907              -6.5114
       ...                                ...                  ...
      1109                          0.7228433              19.6696
      -------------------------------------------------------------
                  HL-Gap            0.0368791 Eh            1.0035 eV
             Fermi-level           -0.3245805 Eh           -8.8323 eV

   #   Z        covCN         q      C6AA      α(0)
   1   7 N      2.635    -0.396    30.270     8.171
   2   6 C      3.785     0.034    20.017     6.373
   3   6 C      2.758     0.270    22.446     7.758
   4   8 O      0.858    -0.475    23.241     6.464
   5   6 C      3.815    -0.061    21.654     6.623
   6   6 C      2.966    -0.002    28.073     8.691
   7   6 C      2.925    -0.044    29.093     8.846
   8   6 C      2.924    -0.042    29.047     8.838
   9   6 C      2.917    -0.067    29.676     8.933
  10   6 C      2.918    -0.061    29.518     8.909
  11   6 C      2.844     0.151    24.728     8.150
  12   8 O      1.654    -0.449    21.829     6.307
  13   1 H      0.860     0.182     1.201     1.716
  14   1 H      0.924     0.043     2.408     2.427
  15   1 H      0.924     0.044     2.392     2.419
  16   1 H      0.924     0.029     2.598     2.521
  17   1 H      0.926     0.016     2.790     2.612
  18   1 H      0.926     0.047     2.364     2.404
  19   1 H      0.926     0.014     2.831     2.631
  20   1 H      0.926     0.035     2.515     2.480
  21   1 H      0.800     0.330     0.639     1.256
  22   7 N      2.691    -0.179    24.881     7.408
  23   6 C      3.792     0.006    20.481     6.445
  24   6 C      2.757     0.266    22.512     7.770
  25   8 O      0.858    -0.488    23.531     6.504
  26   6 C      3.679     0.073    19.560     6.335
  27   8 O      1.655    -0.466    22.170     6.356
  28   1 H      0.860     0.212     1.047     1.603
  29   1 H      0.924     0.076     2.022     2.224
  30   1 H      0.923     0.038     2.480     2.463
  31   1 H      0.924     0.069     2.102     2.267
  32   1 H      0.804     0.327     0.647     1.263
  33   7 N      2.690    -0.163    24.535     7.357
  34   6 C      3.801     0.013    20.364     6.425
  35   6 C      2.756     0.277    22.313     7.735
  36   8 O      0.858    -0.503    23.849     6.547
  37   6 C      3.854    -0.022    20.934     6.507
  38   6 C      3.804    -0.064    21.732     6.637
  39   6 C      3.755    -0.113    22.725     6.797
  40   6 C      3.752    -0.113    22.726     6.798
  41   1 H      0.860     0.213     1.043     1.599
  42   1 H      0.924     0.076     2.019     2.222
  43   1 H      0.924     0.051     2.303     2.373
  44   1 H      0.924     0.039     2.463     2.454
  45   1 H      0.924     0.036     2.506     2.476
  46   1 H      0.925     0.061     2.192     2.316
  47   1 H      0.925     0.028     2.619     2.531
  48   1 H      0.925     0.053     2.286     2.364
  49   1 H      0.925     0.046     2.369     2.407
  50   1 H      0.925     0.047     2.355     2.400
  51   1 H      0.925     0.043     2.407     2.426
  52   7 N      2.690    -0.191    25.137     7.446
  53   6 C      3.796     0.017    20.288     6.414
  54   6 C      2.763     0.274    22.361     7.744
  55   8 O      0.859    -0.499    23.752     6.534
  56   6 C      3.728     0.116    18.770     6.185
  57   8 O      1.655    -0.479    22.450     6.396
  58   6 C      3.753    -0.134    23.131     6.858
  59   1 H      0.860     0.244     0.907     1.492
  60   1 H      0.924     0.076     2.025     2.226
  61   1 H      0.923     0.031     2.576     2.510
  62   1 H      0.805     0.340     0.612     1.228
  63   1 H      0.925     0.065     2.141     2.288
  64   1 H      0.925     0.053     2.286     2.364
  65   1 H      0.925     0.054     2.273     2.358
  66   7 N      2.686    -0.159    24.444     7.343
  67   6 C      3.801     0.013    20.355     6.423
  68   6 C      2.765     0.262    22.581     7.782
  69   8 O      0.860    -0.484    23.431     6.490
  70   6 C      3.726     0.115    18.790     6.189
  71   8 O      1.655    -0.477    22.412     6.391
  72   6 C      3.752    -0.140    23.250     6.876
  73   1 H      0.860     0.225     0.987     1.556
  74   1 H      0.924     0.080     1.975     2.198
  75   1 H      0.923     0.030     2.588     2.516
  76   1 H      0.805     0.337     0.619     1.236
  77   1 H      0.925     0.065     2.142     2.288
  78   1 H      0.925     0.052     2.291     2.367
  79   1 H      0.925     0.068     2.111     2.272
  80   7 N      2.756    -0.099    23.179     7.151
  81   6 C      3.834     0.018    20.251     6.402
  82   6 C      2.759     0.278    22.288     7.731
  83   8 O      0.859    -0.483    23.421     6.489
  84   6 C      3.830    -0.076    21.922     6.662
  85   6 C      3.832    -0.075    21.917     6.661
  86   6 C      3.765    -0.016    20.899     6.516
  87   1 H      0.924     0.075     2.032     2.229
  88   1 H      0.925     0.069     2.095     2.264
  89   1 H      0.925     0.079     1.994     2.208
  90   1 H      0.925     0.084     1.938     2.177
  91   1 H      0.925     0.070     2.085     2.258
  92   1 H      0.924     0.071     2.076     2.253
  93   1 H      0.925     0.070     2.088     2.260
  94   7 N      2.690    -0.175    24.793     7.395
  95   6 C      3.797     0.005    20.490     6.445
  96   6 C      2.762     0.273    22.386     7.748
  97   8 O      0.859    -0.492    23.616     6.515
  98   6 C      3.678     0.062    19.748     6.366
  99   8 O      1.656    -0.452    21.885     6.315
 100   1 H      0.860     0.215     1.031     1.590
 101   1 H      0.924     0.089     1.888     2.149
 102   1 H      0.924     0.054     2.267     2.355
 103   1 H      0.924     0.085     1.927     2.171
 104   1 H      0.805     0.324     0.654     1.270
 105   7 N      2.688    -0.182    24.936     7.417
 106   6 C      3.804     0.024    20.164     6.393
 107   6 C      2.759     0.271    22.414     7.753
 108   8 O      0.859    -0.498    23.730     6.531
 109   6 C      3.810    -0.059    21.631     6.620
 110   6 C      3.810    -0.114    22.664     6.777
 111   6 C      2.746     0.293    22.034     7.686
 112   8 O      0.859    -0.502    23.821     6.544
 113   7 N      2.639    -0.270    26.999     7.717
 114   1 H      0.860     0.227     0.977     1.548
 115   1 H      0.923     0.076     2.017     2.221
 116   1 H      0.924     0.073     2.051     2.240
 117   1 H      0.924     0.050     2.316     2.380
 118   1 H      0.925     0.075     2.037     2.232
 119   1 H      0.924     0.104     1.753     2.070
 120   1 H      0.860     0.233     0.953     1.529
 121   1 H      0.860     0.207     1.070     1.621
 122   7 N      2.687    -0.175    24.797     7.396
 123   6 C      3.799     0.027    20.122     6.387
 124   6 C      2.756     0.280    22.261     7.726
 125   8 O      0.859    -0.492    23.615     6.515
 126   6 C      3.811    -0.081    22.037     6.682
 127   6 C      2.970     0.010    27.799     8.648
 128   6 C      2.924    -0.041    29.024     8.835
 129   6 C      2.925    -0.047    29.163     8.856
 130   6 C      2.919    -0.033    28.817     8.803
 131   6 C      2.919    -0.033    28.825     8.804
 132   6 C      2.920    -0.036    28.887     8.814
 133   1 H      0.860     0.222     0.999     1.566
 134   1 H      0.923     0.075     2.035     2.231
 135   1 H      0.924     0.074     2.042     2.235
 136   1 H      0.924     0.065     2.141     2.288
 137   1 H      0.926     0.038     2.481     2.463
 138   1 H      0.926     0.053     2.280     2.361
 139   1 H      0.926     0.044     2.392     2.418
 140   1 H      0.926     0.033     2.539     2.492
 141   1 H      0.926     0.040     2.448     2.447
 142   7 N      2.688    -0.178    24.860     7.405
 143   6 C      3.798     0.019    20.251     6.408
 144   6 C      2.758     0.285    22.174     7.711
 145   8 O      0.859    -0.502    23.831     6.545
 146   6 C      3.852    -0.019    20.879     6.499
 147   6 C      3.756    -0.137    23.192     6.866
 148   6 C      3.757    -0.117    22.796     6.807
 149   1 H      0.860     0.208     1.065     1.616
 150   1 H      0.923     0.072     2.069     2.250
 151   1 H      0.924     0.057     2.233     2.337
 152   1 H      0.925     0.059     2.206     2.322
 153   1 H      0.925     0.063     2.161     2.299
 154   1 H      0.925     0.048     2.343     2.394
 155   1 H      0.925     0.056     2.244     2.342
 156   1 H      0.925     0.049     2.338     2.391
 157   1 H      0.925     0.047     2.358     2.401
 158   7 N      2.689    -0.175    24.778     7.393
 159   6 C      3.801     0.036    19.969     6.362
 160   6 C      2.753     0.274    22.358     7.743
 161   8 O      0.858    -0.501    23.810     6.542
 162   6 C      3.814    -0.072    21.871     6.656
 163   6 C      2.970     0.012    27.754     8.641
 164   6 C      2.925    -0.036    28.890     8.814
 165   6 C      2.926    -0.043    29.069     8.842
 166   6 C      2.920    -0.034    28.835     8.806
 167   6 C      2.919    -0.035    28.867     8.811
 168   6 C      2.920    -0.038    28.939     8.822
 169   1 H      0.860     0.221     1.005     1.571
 170   1 H      0.923     0.071     2.071     2.250
 171   1 H      0.924     0.065     2.142     2.289
 172   1 H      0.924     0.055     2.257     2.349
 173   1 H      0.926     0.029     2.599     2.521
 174   1 H      0.926     0.044     2.397     2.421
 175   1 H      0.926     0.038     2.474     2.460
 176   1 H      0.926     0.042     2.422     2.434
 177   1 H      0.926     0.038     2.472     2.458
 178   7 N      2.690    -0.181    24.932     7.416
 179   6 C      3.793     0.026    20.139     6.391
 180   6 C      2.755     0.275    22.357     7.743
 181   8 O      0.859    -0.482    23.392     6.485
 182   6 C      3.811    -0.070    21.824     6.650
 183   6 C      3.849    -0.010    20.725     6.475
 184   6 C      3.757    -0.115    22.760     6.802
 185   6 C      3.756    -0.099    22.444     6.755
 186   1 H      0.860     0.220     1.011     1.575
 187   1 H      0.924     0.085     1.930     2.172
 188   1 H      0.924     0.058     2.223     2.332
 189   1 H      0.925     0.058     2.219     2.330
 190   1 H      0.924     0.033     2.541     2.493
 191   1 H      0.925     0.044     2.392     2.419
 192   1 H      0.925     0.050     2.320     2.382
 193   1 H      0.925     0.039     2.460     2.453
 194   1 H      0.925     0.036     2.498     2.471
 195   1 H      0.925     0.026     2.642     2.542
 196   1 H      0.925     0.025     2.665     2.553
 197   7 N      2.690    -0.167    24.617     7.369
 198   6 C      3.789     0.011    20.398     6.432
 199   6 C      2.763     0.204    23.665     7.967
 200   8 O      0.856    -0.359    20.881     6.127
 201   6 C      3.676     0.069    19.634     6.349
 202   8 O      1.654    -0.464    22.139     6.352
 203   1 H      0.860     0.200     1.105     1.647
 204   1 H      0.924     0.112     1.678     2.026
 205   1 H      0.924     0.077     2.010     2.217
 206   1 H      0.924     0.047     2.357     2.401
 207   1 H      0.803     0.329     0.641     1.258
 208   7 N      2.635    -0.396    30.259     8.170
 209   6 C      3.784     0.033    20.036     6.376
 210   6 C      2.761     0.269    22.461     7.761
 211   8 O      0.859    -0.505    23.887     6.553
 212   6 C      3.757    -0.108    22.615     6.780
 213   1 H      0.860     0.158     1.349     1.820
 214   1 H      0.924     0.056     2.247     2.344
 215   1 H      0.925     0.045     2.385     2.415
 216   1 H      0.925     0.055     2.264     2.353
 217   1 H      0.925     0.026     2.644     2.543
 218   7 N      2.689    -0.162    24.495     7.351
 219   6 C      3.799     0.025    20.155     6.392
 220   6 C      2.765     0.198    23.788     7.988
 221   8 O      0.856    -0.359    20.875     6.126
 222   6 C      3.809    -0.065    21.740     6.637
 223   6 C      3.059    -0.035    28.822     8.804
 224   6 C      3.040    -0.002    28.031     8.684
 225   6 C      3.117    -0.020    28.325     8.717
 226   7 N      2.776    -0.106    23.315     7.171
 227   6 C      3.095     0.050    26.766     8.479
 228   6 C      2.912    -0.044    29.086     8.844
 229   6 C      2.910    -0.049    29.210     8.862
 230   6 C      2.920    -0.048    29.194     8.860
 231   6 C      2.923    -0.041    29.009     8.833
 232   1 H      0.860     0.216     1.030     1.590
 233   1 H      0.924     0.090     1.880     2.144
 234   1 H      0.924     0.061     2.191     2.315
 235   1 H      0.925     0.064     2.152     2.294
 236   1 H      0.926     0.039     2.463     2.454
 237   1 H      0.860     0.190     1.160     1.687
 238   1 H      0.926     0.030     2.586     2.515
 239   1 H      0.926     0.018     2.771     2.603
 240   1 H      0.925     0.027     2.637     2.539
 241   1 H      0.926     0.021     2.713     2.576
 242   7 N      2.711    -0.281    27.253     7.753
 243   6 C      3.826     0.025    20.129     6.384
 244   6 C      2.757     0.271    22.426     7.755
 245   8 O      0.858    -0.475    23.234     6.463
 246   6 C      3.828    -0.053    21.508     6.599
 247   6 C      3.833    -0.057    21.569     6.608
 248   6 C      3.778     0.016    20.322     6.422
 249   1 H      0.924     0.014     2.821     2.627
 250   1 H      0.925     0.033     2.537     2.491
 251   1 H      0.925     0.030     2.593     2.518
 252   1 H      0.925     0.032     2.564     2.504
 253   1 H      0.925     0.032     2.556     2.500
 254   1 H      0.924     0.045     2.380     2.412
 255   1 H      0.925     0.038     2.479     2.462
 256   7 N      2.695    -0.176    24.817     7.399
 257   6 C      3.794     0.023    20.190     6.399
 258   6 C      2.767     0.269    22.455     7.761
 259   8 O      0.860    -0.475    23.238     6.463
 260   6 C      3.805    -0.065    21.742     6.638
 261   6 C      3.806    -0.092    22.257     6.716
 262   6 C      2.745     0.292    22.043     7.688
 263   8 O      0.859    -0.502    23.823     6.544
 264   7 N      2.639    -0.292    27.526     7.792
 265   1 H      0.859     0.198     1.115     1.654
 266   1 H      0.924     0.079     1.987     2.205
 267   1 H      0.924     0.060     2.200     2.320
 268   1 H      0.924     0.068     2.106     2.269
 269   1 H      0.924     0.068     2.112     2.273
 270   1 H      0.924     0.061     2.192     2.315
 271   1 H      0.860     0.231     0.962     1.536
 272   1 H      0.860     0.234     0.947     1.524
 273   7 N      2.689    -0.173    24.745     7.388
 274   6 C      3.799     0.029    20.094     6.382
 275   6 C      2.765     0.217    23.417     7.925
 276   8 O      0.856    -0.369    21.072     6.154
 277   6 C      3.851    -0.019    20.882     6.500
 278   6 C      3.756    -0.119    22.841     6.814
 279   6 C      3.757    -0.128    23.011     6.839
 280   1 H      0.860     0.220     1.012     1.576
 281   1 H      0.923     0.074     2.039     2.233
 282   1 H      0.924     0.061     2.193     2.316
 283   1 H      0.925     0.065     2.143     2.289
 284   1 H      0.925     0.034     2.534     2.489
 285   1 H      0.925     0.057     2.237     2.339
 286   1 H      0.925     0.071     2.076     2.253
 287   1 H      0.925     0.056     2.249     2.345
 288   1 H      0.925     0.051     2.305     2.374
 289   7 N      2.637    -0.382    29.882     8.119
 290   6 C      3.782     0.041    19.911     6.356
 291   6 C      2.765     0.204    23.660     7.966
 292   8 O      0.856    -0.358    20.854     6.123
 293   6 C      3.817    -0.073    21.884     6.658
 294   6 C      2.967    -0.002    28.064     8.689
 295   6 C      2.923    -0.042    29.048     8.838
 296   6 C      2.928    -0.043    29.069     8.842
 297   6 C      2.918    -0.058    29.434     8.897
 298   6 C      2.917    -0.074    29.851     8.959
 299   6 C      2.847     0.139    24.968     8.189
 300   8 O      1.659    -0.420    21.249     6.223
 301   1 H      0.860     0.164     1.308     1.792
 302   1 H      0.924     0.060     2.202     2.321
 303   1 H      0.924     0.059     2.209     2.324
 304   1 H      0.924     0.055     2.255     2.348
 305   1 H      0.926     0.041     2.429     2.437
 306   1 H      0.926     0.039     2.462     2.453
 307   1 H      0.926     0.035     2.523     2.484
 308   1 H      0.926     0.038     2.474     2.460
 309   1 H      0.805     0.328     0.642     1.258
 310   7 N      2.635    -0.373    29.634     8.085
 311   6 C      3.786     0.038    19.943     6.361
 312   6 C      2.763     0.201    23.717     7.975
 313   8 O      0.856    -0.381    21.313     6.190
 314   6 C      3.811    -0.070    21.835     6.651
 315   6 C      2.970    -0.000    28.026     8.684
 316   6 C      2.925    -0.044    29.098     8.846
 317   6 C      2.925    -0.038    28.956     8.824
 318   6 C      2.917    -0.061    29.521     8.910
 319   6 C      2.917    -0.075    29.882     8.964
 320   6 C      2.846     0.143    24.872     8.173
 321   8 O      1.660    -0.436    21.565     6.269
 322   1 H      0.860     0.137     1.490     1.912
 323   1 H      0.923     0.085     1.930     2.172
 324   1 H      0.925     0.040     2.452     2.449
 325   1 H      0.924     0.060     2.194     2.316
 326   1 H      0.925     0.041     2.436     2.441
 327   1 H      0.926     0.034     2.536     2.491
 328   1 H      0.926     0.049     2.327     2.385
 329   1 H      0.926     0.044     2.402     2.424
 330   1 H      0.805     0.349     0.591     1.207
 331   7 N      2.635    -0.396    30.265     8.171
 332   6 C      3.788     0.036    19.974     6.365
 333   6 C      2.762     0.267    22.495     7.767
 334   8 O      0.859    -0.504    23.871     6.551
 335   6 C      3.814    -0.077    21.959     6.670
 336   6 C      2.972     0.004    27.926     8.668
 337   6 C      2.925    -0.039    28.980     8.828
 338   6 C      2.927    -0.039    28.967     8.826
 339   6 C      2.922    -0.031    28.771     8.796
 340   6 C      2.920    -0.026    28.648     8.777
 341   6 C      2.920    -0.031    28.780     8.797
 342   1 H      0.860     0.172     1.259     1.758
 343   1 H      0.923     0.048     2.349     2.397
 344   1 H      0.924     0.068     2.111     2.272
 345   1 H      0.924     0.048     2.351     2.398
 346   1 H      0.926     0.043     2.403     2.424
 347   1 H      0.926     0.020     2.735     2.586
 348   1 H      0.926     0.036     2.505     2.475
 349   1 H      0.926     0.027     2.631     2.536
 350   1 H      0.926     0.031     2.573     2.509
 351   7 N      2.691    -0.153    24.318     7.324
 352   6 C      3.801     0.025    20.150     6.391
 353   6 C      2.764     0.199    23.769     7.984
 354   8 O      0.856    -0.353    20.763     6.109
 355   6 C      3.803    -0.053    21.519     6.604
 356   6 C      3.805    -0.090    22.208     6.709
 357   6 C      2.685     0.374    20.670     7.440
 358   8 O      0.856    -0.624    26.707     6.929
 359   8 O      0.857    -0.645    27.245     6.998
 360   1 H      0.860     0.218     1.018     1.581
 361   1 H      0.923     0.087     1.908     2.160
 362   1 H      0.924     0.059     2.213     2.327
 363   1 H      0.925     0.058     2.224     2.332
 364   1 H      0.924     0.043     2.412     2.429
 365   1 H      0.925     0.036     2.499     2.472
 366   7 N      2.634    -0.389    30.066     8.144
 367   6 C      3.786     0.012    20.390     6.432
 368   6 C      2.757     0.266    22.506     7.769
 369   8 O      0.858    -0.488    23.526     6.503
 370   6 C      3.680     0.077    19.503     6.325
 371   8 O      1.655    -0.464    22.135     6.351
 372   1 H      0.860     0.149     1.408     1.859
 373   1 H      0.924     0.058     2.222     2.331
 374   1 H      0.923     0.028     2.615     2.529
 375   1 H      0.924     0.047     2.364     2.404
 376   1 H      0.804     0.329     0.640     1.257
 377   7 N      2.691    -0.189    25.103     7.441
 378   6 C      3.795     0.007    20.460     6.441
 379   6 C      2.759     0.273    22.390     7.749
 380   8 O      0.858    -0.478    23.296     6.471
 381   6 C      3.681     0.072    19.582     6.338
 382   8 O      1.654    -0.469    22.231     6.365
 383   1 H      0.860     0.228     0.974     1.546
 384   1 H      0.924     0.082     1.958     2.188
 385   1 H      0.924     0.068     2.110     2.272
 386   1 H      0.924     0.046     2.372     2.409
 387   1 H      0.804     0.324     0.654     1.270
 388   7 N      2.687    -0.166    24.590     7.365
 389   6 C      3.746    -0.042    21.385     6.596
 390   6 C      2.757     0.270    22.432     7.756
 391   8 O      0.859    -0.494    23.642     6.519
 392   1 H      0.860     0.228     0.975     1.547
 393   1 H      0.924     0.103     1.760     2.075
 394   1 H      0.924     0.108     1.715     2.048
 395   7 N      2.692    -0.171    24.692     7.380
 396   6 C      3.803     0.023    20.184     6.396
 397   6 C      2.754     0.274    22.371     7.745
 398   8 O      0.858    -0.487    23.494     6.499
 399   6 C      3.811    -0.069    21.807     6.647
 400   6 C      3.850    -0.012    20.757     6.480
 401   6 C      3.758    -0.110    22.656     6.786
 402   6 C      3.756    -0.107    22.608     6.780
 403   1 H      0.860     0.217     1.022     1.584
 404   1 H      0.924     0.068     2.112     2.273
 405   1 H      0.924     0.056     2.250     2.346
 406   1 H      0.924     0.041     2.432     2.439
 407   1 H      0.924     0.038     2.478     2.462
 408   1 H      0.925     0.047     2.356     2.400
 409   1 H      0.925     0.042     2.426     2.436
 410   1 H      0.925     0.035     2.515     2.480
 411   1 H      0.925     0.045     2.380     2.413
 412   1 H      0.925     0.034     2.533     2.489
 413   1 H      0.925     0.037     2.488     2.467
 414   7 N      2.694    -0.165    24.579     7.363
 415   6 C      3.793     0.027    20.130     6.389
 416   6 C      2.769     0.205    23.655     7.965
 417   8 O      0.856    -0.358    20.857     6.123
 418   6 C      3.852    -0.014    20.788     6.485
 419   6 C      3.756    -0.123    22.918     6.826
 420   6 C      3.756    -0.123    22.909     6.824
 421   1 H      0.860     0.207     1.069     1.619
 422   1 H      0.924     0.077     2.007     2.216
 423   1 H      0.924     0.060     2.195     2.317
 424   1 H      0.925     0.071     2.080     2.255
 425   1 H      0.925     0.038     2.473     2.459
 426   1 H      0.925     0.051     2.308     2.376
 427   1 H      0.925     0.067     2.114     2.274
 428   1 H      0.925     0.045     2.377     2.411
 429   1 H      0.925     0.053     2.284     2.363
 430   1 H      0.862     0.168     1.285     1.776
 431   1 H      0.930     0.087     1.908     2.160
 432   1 H      0.862     0.178     1.224     1.733
 433   1 H      0.930     0.082     1.960     2.189
 434   1 H      0.862     0.171     1.265     1.762
 435   1 H      0.930     0.070     2.087     2.259
 436   1 H      0.862     0.181     1.208     1.722
 437   1 H      0.930     0.066     2.128     2.281
 438   1 H      0.862     0.183     1.196     1.713
 439   1 H      0.930     0.069     2.095     2.263
 440   1 H      0.862     0.189     1.163     1.689
 441   1 H      0.930     0.089     1.886     2.148
 442   1 H      0.862     0.192     1.145     1.676
 443   1 H      0.930     0.069     2.100     2.266

 Mol. C6AA /au·bohr⁶  :    1923230.756183
 Mol. C8AA /au·bohr⁸  :   43489694.860047
 Mol. α(0) /au        :       2098.019867


Wiberg/Mayer (AO) data.
largest (>0.10) Wiberg bond orders for each atom
          total WBO             WBO to atom ...
     1  N   2.997        C    2 1.029    H  430 0.958    H   13 0.923
     2  C   3.986        N    1 1.029    H   14 0.955    C    5 0.949    C    3 0.938
     3  C   3.944        O    4 1.652    N   22 1.279    C    2 0.938
     4  O   1.960        C    3 1.652    N   22 0.193
     5  C   3.996        C    6 1.011    H   15 0.972    H   16 0.958    C    2 0.949
     6  C   3.987        C    8 1.405    C    7 1.399    C    5 1.011
     7  C   3.991        C    9 1.458    C    6 1.399    H   17 0.964    C   10 0.106
     8  C   3.988        C   10 1.455    C    6 1.405    H   18 0.965    C    9 0.103
     9  C   3.989        C    7 1.458    C   11 1.358    H   19 0.965    C    8 0.103
    10  C   3.986        C    8 1.455    C   11 1.359    H   20 0.967    C    7 0.106
    11  C   3.939        C   10 1.359    C    9 1.358    O   12 1.092
    12  O   2.095        C   11 1.092    H   21 0.795
    13  H   0.966        N    1 0.923
    14  H   0.998        C    2 0.955
    15  H   0.998        C    5 0.972
    16  H   0.998        C    5 0.958
    17  H   1.000        C    7 0.964
    18  H   0.998        C    8 0.965
    19  H   0.999        C    9 0.965
    20  H   0.998        C   10 0.967
    21  H   0.891        O   12 0.795
    22  N   3.457        C    3 1.279    C   23 0.984    H   28 0.916    O    4 0.193
    23  C   3.968        N   22 0.984    C   26 0.963    H   29 0.955    C   24 0.934
    24  C   3.951        O   25 1.606    N   33 1.323    C   23 0.934
    25  O   1.957        C   24 1.606    N   33 0.198
    26  C   3.961        O   27 1.017    H   31 0.967    H   30 0.965    C   23 0.963
    27  O   1.949        C   26 1.017    H   32 0.850
    28  H   0.955        N   22 0.916
    29  H   0.994        C   23 0.955
    30  H   0.998        C   26 0.965
    31  H   0.995        C   26 0.967
    32  H   0.893        O   27 0.850
    33  N   3.491        C   24 1.323    C   34 0.973    H   41 0.920    O   25 0.198
    34  C   3.956        N   33 0.973    C   37 0.963    H   42 0.951    C   35 0.929
    35  C   3.950        O   36 1.624    N   52 1.313    C   34 0.929
    36  O   1.941        C   35 1.624    N   52 0.200
    37  C   3.986        C   39 1.008    C   38 0.993    C   34 0.963    H   43 0.963
    38  C   3.995        C   40 1.019    C   37 0.993    H   45 0.975    H   44 0.975
    39  C   3.992        C   37 1.008    H   47 0.985    H   48 0.980    H   46 0.979
    40  C   3.993        C   38 1.019    H   50 0.986    H   49 0.983    H   51 0.981
    41  H   0.955        N   33 0.920
    42  H   0.994        C   34 0.951
    43  H   0.997        C   37 0.963
    44  H   0.998        C   38 0.975
    45  H   0.999        C   38 0.975
    46  H   0.996        C   39 0.979
    47  H   0.999        C   39 0.985
    48  H   0.997        C   39 0.980
    49  H   0.997        C   40 0.983
    50  H   0.998        C   40 0.986
    51  H   0.998        C   40 0.981
    52  N   3.475        C   35 1.313    C   53 0.998    H   59 0.858    O   36 0.200
    53  C   3.970        N   52 0.998    H   60 0.951    C   56 0.947    C   54 0.939
    54  C   3.952        O   55 1.620    N   66 1.313    C   53 0.939
    55  O   1.940        C   54 1.620    N   66 0.198
    56  C   3.958        C   58 1.002    O   57 0.992    H   61 0.959    C   53 0.947
    57  O   1.938        C   56 0.992    H   62 0.867
    58  C   3.991        C   56 1.002    H   65 0.984    H   64 0.984    H   63 0.981
    59  H   0.940        N   52 0.858
    60  H   0.994        C   53 0.951
    61  H   0.998        C   56 0.959
    62  H   0.884        O   57 0.867
    63  H   0.995        C   58 0.981
    64  H   0.997        C   58 0.984
    65  H   0.997        C   58 0.984
    66  N   3.488        C   54 1.313    C   67 0.993    H   73 0.897    O   55 0.198
    67  C   3.965        N   66 0.993    C   68 0.945    H   74 0.942    C   70 0.942
    68  C   3.955        O   69 1.599    N   80 1.303    C   67 0.945
    69  O   1.965        C   68 1.599    N   80 0.193
    70  C   3.958        C   72 1.002    O   71 0.989    H   75 0.958    C   67 0.942
    71  O   1.946        C   70 0.989    H   76 0.865
    72  C   3.989        C   70 1.002    H   78 0.983    H   77 0.981    H   79 0.978
    73  H   0.949        N   66 0.897
    74  H   0.993        C   67 0.942
    75  H   0.998        C   70 0.958
    76  H   0.886        O   71 0.865
    77  H   0.996        C   72 0.981
    78  H   0.997        C   72 0.983
    79  H   0.995        C   72 0.978
    80  N   3.518        C   68 1.303    C   86 0.970    C   81 0.960    O   69 0.193
    81  C   3.963        C   84 0.974    N   80 0.960    C   82 0.950    H   87 0.950
    82  C   3.948        O   83 1.624    N   94 1.284    C   81 0.950
    83  O   1.961        C   82 1.624    N   94 0.187
    84  C   3.984        C   85 1.003    H   88 0.974    H   89 0.974    C   81 0.974
    85  C   3.987        C   86 1.004    C   84 1.003    H   91 0.977    H   90 0.972
    86  C   3.958        C   85 1.004    N   80 0.970    H   92 0.963    H   93 0.962
    87  H   0.994        C   81 0.950
    88  H   0.995        C   84 0.974
    89  H   0.993        C   84 0.974
    90  H   0.992        C   85 0.972
    91  H   0.995        C   85 0.977
    92  H   0.995        C   86 0.963
    93  H   0.995        C   86 0.962
    94  N   3.458        C   82 1.284    C   95 0.989    H  100 0.917    O   83 0.187
    95  C   3.967        N   94 0.989    C   98 0.961    H  101 0.944    C   96 0.941
    96  C   3.951        O   97 1.621    N  105 1.303    C   95 0.941
    97  O   1.949        C   96 1.621    N  105 0.196
    98  C   3.953        O   99 1.014    H  102 0.968    H  103 0.964    C   95 0.961
    99  O   1.968        C   98 1.014    H  104 0.881
   100  H   0.953        N   94 0.917
   101  H   0.992        C   95 0.944
   102  H   0.996        C   98 0.968
   103  H   0.992        C   98 0.964
   104  H   0.895        O   99 0.881
   105  N   3.472        C   96 1.303    C  106 0.988    H  114 0.888    O   97 0.196
   106  C   3.968        N  105 0.988    C  109 0.976    C  107 0.939    H  115 0.939
   107  C   3.947        O  108 1.597    N  122 1.321    C  106 0.939
   108  O   1.950        C  107 1.597    N  122 0.192
   109  C   3.988        C  110 0.995    C  106 0.976    H  117 0.971    H  116 0.966
   110  C   3.988        C  109 0.995    C  111 0.977    H  118 0.968    H  119 0.935
   111  C   3.940        O  112 1.571    N  113 1.350    C  110 0.977
   112  O   1.961        C  111 1.571    N  113 0.192
   113  N   3.430        C  111 1.350    H  121 0.932    H  120 0.891    O  112 0.192
   114  H   0.948        N  105 0.888
   115  H   0.993        C  106 0.939
   116  H   0.994        C  109 0.966
   117  H   0.997        C  109 0.971
   118  H   0.994        C  110 0.968
   119  H   0.989        C  110 0.935
   120  H   0.946        N  113 0.891
   121  H   0.956        N  113 0.932
   122  N   3.479        C  107 1.321    C  123 0.977    H  133 0.904    O  108 0.192
   123  C   3.962        N  122 0.977    C  126 0.962    H  134 0.950    C  124 0.942
   124  C   3.945        O  125 1.605    N  142 1.302    C  123 0.942
   125  O   1.956        C  124 1.605    N  142 0.187
   126  C   3.984        C  127 1.006    H  135 0.967    H  136 0.965    C  123 0.962
   127  C   3.987        C  129 1.416    C  128 1.412    C  126 1.006    C  132 0.110
   128  C   3.991        C  130 1.446    C  127 1.412    H  137 0.969    C  131 0.112
   129  C   3.988        C  131 1.441    C  127 1.416    H  138 0.956    C  130 0.111
   130  C   3.992        C  128 1.446    C  132 1.435    H  139 0.970    C  129 0.111
   131  C   3.992        C  129 1.441    C  132 1.441    H  140 0.970    C  128 0.112
   132  C   3.991        C  131 1.441    C  130 1.435    H  141 0.971    C  127 0.110
   133  H   0.950        N  122 0.904
   134  H   0.994        C  123 0.950
   135  H   0.994        C  126 0.967
   136  H   0.995        C  126 0.965
   137  H   0.999        C  128 0.969
   138  H   0.997        C  129 0.956
   139  H   0.998        C  130 0.970
   140  H   0.999        C  131 0.970
   141  H   0.998        C  132 0.971
   142  N   3.468        C  124 1.302    C  143 0.976    H  149 0.919    O  125 0.187
   143  C   3.960        N  142 0.976    C  146 0.957    C  144 0.948    H  150 0.948
   144  C   3.945        O  145 1.581    N  158 1.321    C  143 0.948
   145  O   1.950        C  144 1.581    N  158 0.186
   146  C   3.985        C  147 1.011    C  148 1.008    H  151 0.963    C  143 0.957
   147  C   3.990        C  146 1.011    H  152 0.982    H  154 0.979    H  153 0.971
   148  C   3.991        C  146 1.008    H  157 0.985    H  155 0.984    H  156 0.983
   149  H   0.957        N  142 0.919
   150  H   0.994        C  143 0.948
   151  H   0.996        C  146 0.963
   152  H   0.996        C  147 0.982
   153  H   0.996        C  147 0.971
   154  H   0.998        C  147 0.979
   155  H   0.996        C  148 0.984
   156  H   0.998        C  148 0.983
   157  H   0.998        C  148 0.985
   158  N   3.486        C  144 1.321    C  159 0.986    H  169 0.895    O  145 0.186
   159  C   3.967        N  158 0.986    C  162 0.965    H  170 0.945    C  160 0.932
   160  C   3.949        O  161 1.603    N  178 1.320    C  159 0.932
   161  O   1.943        C  160 1.603    N  178 0.195
   162  C   3.987        C  163 1.008    H  171 0.967    C  159 0.965    H  172 0.957
   163  C   3.988        C  165 1.415    C  164 1.411    C  162 1.008    C  168 0.110
   164  C   3.991        C  166 1.446    C  163 1.411    H  173 0.964    C  167 0.112
   165  C   3.989        C  167 1.442    C  163 1.415    H  174 0.958    C  166 0.110
   166  C   3.992        C  164 1.446    C  168 1.437    H  175 0.970    C  165 0.110
   167  C   3.992        C  165 1.442    C  168 1.439    H  176 0.970    C  164 0.112
   168  C   3.991        C  167 1.439    C  166 1.437    H  177 0.971    C  163 0.110
   169  H   0.951        N  158 0.895
   170  H   0.994        C  159 0.945
   171  H   0.995        C  162 0.967
   172  H   0.996        C  162 0.957
   173  H   0.999        C  164 0.964
   174  H   0.998        C  165 0.958
   175  H   0.998        C  166 0.970
   176  H   0.998        C  167 0.970
   177  H   0.998        C  168 0.971
   178  N   3.486        C  160 1.320    C  179 0.985    H  186 0.884    O  161 0.195
   179  C   3.962        N  178 0.985    C  182 0.979    C  180 0.937    H  187 0.933
   180  C   3.949        O  181 1.642    N  197 1.288    C  179 0.937
   181  O   1.957        C  180 1.642    N  197 0.192
   182  C   3.988        C  183 0.995    C  179 0.979    H  188 0.973    H  189 0.969
   183  C   3.994        C  185 1.009    C  184 1.007    C  182 0.995    H  190 0.968
   184  C   3.995        C  183 1.007    H  191 0.986    H  193 0.985    H  192 0.983
   185  C   3.996        C  183 1.009    H  195 0.983    H  196 0.982    H  194 0.981
   186  H   0.952        N  178 0.884
   187  H   0.992        C  179 0.933
   188  H   0.997        C  182 0.973
   189  H   0.996        C  182 0.969
   190  H   0.999        C  183 0.968
   191  H   0.998        C  184 0.986
   192  H   0.997        C  184 0.983
   193  H   0.998        C  184 0.985
   194  H   0.998        C  185 0.981
   195  H   0.999        C  185 0.983
   196  H   0.999        C  185 0.982
   197  N   3.466        C  180 1.288    C  198 0.992    H  203 0.912    O  181 0.192
   198  C   3.967        N  197 0.992    C  199 0.981    C  201 0.950    H  204 0.918
   199  C   3.902        O  200 1.895    C  198 0.981    H  431 0.948
   200  O   2.058        C  199 1.895
   201  C   3.959        O  202 1.021    H  205 0.967    H  206 0.966    C  198 0.950
   202  O   1.955        C  201 1.021    H  207 0.842
   203  H   0.960        N  197 0.912
   204  H   0.987        C  198 0.918
   205  H   0.993        C  201 0.967
   206  H   0.998        C  201 0.966
   207  H   0.892        O  202 0.842
   208  N   2.996        C  209 1.021    H  432 0.952    H  213 0.944
   209  C   3.986        N  208 1.021    C  212 0.986    C  210 0.949    H  214 0.947
   210  C   3.946        O  211 1.617    N  218 1.304    C  209 0.949
   211  O   1.932        C  210 1.617    N  218 0.189
   212  C   3.994        C  209 0.986    H  217 0.986    H  215 0.982    H  216 0.979
   213  H   0.975        N  208 0.944
   214  H   0.996        C  209 0.947
   215  H   0.998        C  212 0.982
   216  H   0.996        C  212 0.979
   217  H   0.999        C  212 0.986
   218  N   3.471        C  210 1.304    C  219 0.982    H  232 0.917    O  211 0.189
   219  C   3.966        N  218 0.982    C  220 0.979    H  233 0.952    C  222 0.932
   220  C   3.901        O  221 1.901    C  219 0.979    H  433 0.952
   221  O   2.043        C  220 1.901
   222  C   3.988        C  223 1.018    H  234 0.970    H  235 0.966    C  219 0.932
   223  C   3.971        C  224 1.561    C  225 1.207    C  222 1.018
   224  C   3.954        C  223 1.561    N  226 1.217    H  236 0.967
   225  C   3.983        C  228 1.331    C  227 1.241    C  223 1.207
   226  N   3.562        C  224 1.217    C  227 1.191    H  237 0.919
   227  C   3.960        C  229 1.335    C  225 1.241    N  226 1.191
   228  C   3.991        C  230 1.501    C  225 1.331    H  238 0.969    C  229 0.111
   229  C   3.989        C  231 1.496    C  227 1.335    H  239 0.963    C  228 0.111
   230  C   3.989        C  228 1.501    C  231 1.364    H  240 0.969
   231  C   3.989        C  229 1.496    C  230 1.364    H  241 0.970
   232  H   0.953        N  218 0.917
   233  H   0.992        C  219 0.952
   234  H   0.996        C  222 0.970
   235  H   0.995        C  222 0.966
   236  H   0.998        C  224 0.967
   237  H   0.963        N  226 0.919
   238  H   0.999        C  228 0.969
   239  H   0.999        C  229 0.963
   240  H   0.999        C  230 0.969
   241  H   0.999        C  231 0.970
   242  N   3.076        C  248 1.011    C  243 1.006    H  434 0.956
   243  C   3.989        N  242 1.006    C  246 0.968    H  249 0.967    C  244 0.940
   244  C   3.945        O  245 1.649    N  256 1.281    C  243 0.940
   245  O   1.963        C  244 1.649    N  256 0.193
   246  C   3.996        C  247 1.005    H  251 0.978    H  250 0.975    C  243 0.968
   247  C   3.997        C  246 1.005    C  248 0.998    H  253 0.981    H  252 0.977
   248  C   3.983        N  242 1.011    C  247 0.998    H  255 0.976    H  254 0.970
   249  H   1.000        C  243 0.967
   250  H   0.999        C  246 0.975
   251  H   0.999        C  246 0.978
   252  H   0.999        C  247 0.977
   253  H   0.999        C  247 0.981
   254  H   0.998        C  248 0.970
   255  H   0.998        C  248 0.976
   256  N   3.459        C  244 1.281    C  257 0.991    H  265 0.919    O  245 0.193
   257  C   3.969        N  256 0.991    C  260 0.960    C  258 0.946    H  266 0.942
   258  C   3.948        O  259 1.624    N  273 1.304    C  257 0.946
   259  O   2.001        C  258 1.624    N  273 0.196
   260  C   3.988        C  261 0.990    H  267 0.976    H  268 0.971    C  257 0.960
   261  C   3.992        C  260 0.990    H  269 0.971    C  262 0.966    H  270 0.966
   262  C   3.944        O  263 1.649    N  264 1.303    C  261 0.966
   263  O   1.947        C  262 1.649    N  264 0.201
   264  N   3.390        C  262 1.303    H  271 0.928    H  272 0.924    O  263 0.201
   265  H   0.961        N  256 0.919
   266  H   0.994        C  257 0.942
   267  H   0.996        C  260 0.976
   268  H   0.995        C  260 0.971
   269  H   0.995        C  261 0.971
   270  H   0.996        C  261 0.966
   271  H   0.947        N  264 0.928
   272  H   0.945        N  264 0.924
   273  N   3.465        C  258 1.304    C  274 0.972    H  280 0.915    O  259 0.196
   274  C   3.958        C  275 0.975    N  273 0.972    C  277 0.949    H  281 0.945
   275  C   3.902        O  276 1.869    C  274 0.975    H  435 0.954
   276  O   2.062        C  275 1.869
   277  C   3.983        C  278 1.008    C  279 1.007    H  282 0.965    C  274 0.949
   278  C   3.991        C  277 1.008    H  284 0.984    H  285 0.984    H  283 0.982
   279  C   3.990        C  277 1.007    H  287 0.984    H  288 0.980    H  286 0.980
   280  H   0.952        N  273 0.915
   281  H   0.994        C  274 0.945
   282  H   0.996        C  277 0.965
   283  H   0.995        C  278 0.982
   284  H   0.999        C  278 0.984
   285  H   0.997        C  278 0.984
   286  H   0.994        C  279 0.980
   287  H   0.997        C  279 0.984
   288  H   0.997        C  279 0.980
   289  N   2.996        C  290 1.008    H  301 0.955    H  436 0.954
   290  C   3.983        N  289 1.008    C  291 0.969    C  293 0.962    H  302 0.961
   291  C   3.893        O  292 1.914    C  290 0.969    H  437 0.955
   292  O   2.042        C  291 1.914
   293  C   3.994        C  294 1.012    H  304 0.969    C  290 0.962    H  303 0.946
   294  C   3.989        C  296 1.408    C  295 1.402    C  293 1.012
   295  C   3.991        C  297 1.455    C  294 1.402    H  305 0.965    C  298 0.106
   296  C   3.991        C  298 1.451    C  294 1.408    H  306 0.968    C  297 0.106
   297  C   3.989        C  295 1.455    C  299 1.366    H  307 0.967    C  296 0.106
   298  C   3.987        C  296 1.451    C  299 1.371    H  308 0.965    C  295 0.106
   299  C   3.940        C  298 1.371    C  297 1.366    O  300 1.064
   300  O   2.098        C  299 1.064    H  309 0.869
   301  H   0.973        N  289 0.955
   302  H   0.996        C  290 0.961
   303  H   0.995        C  293 0.946
   304  H   0.996        C  293 0.969
   305  H   0.998        C  295 0.965
   306  H   0.998        C  296 0.968
   307  H   0.998        C  297 0.967
   308  H   0.998        C  298 0.965
   309  H   0.892        O  300 0.869
   310  N   3.005        C  311 1.025    H  322 0.958    H  438 0.952
   311  C   3.984        N  310 1.025    C  312 0.992    C  314 0.952    H  323 0.916
   312  C   3.898        O  313 1.879    C  311 0.992    H  439 0.953
   313  O   2.026        C  312 1.879
   314  C   3.993        C  315 1.011    H  324 0.971    H  325 0.963    C  311 0.952
   315  C   3.988        C  317 1.416    C  316 1.395    C  314 1.011
   316  C   3.991        C  318 1.468    C  315 1.395    H  326 0.967    C  319 0.106
   317  C   3.991        C  319 1.442    C  315 1.416    H  327 0.967    C  318 0.106
   318  C   3.988        C  316 1.468    C  320 1.356    H  328 0.968    C  317 0.106
   319  C   3.987        C  317 1.442    C  320 1.378    H  329 0.965    C  316 0.106
   320  C   3.939        C  319 1.378    C  318 1.356    O  321 1.074
   321  O   2.090        C  320 1.074    H  330 0.858
   322  H   0.981        N  310 0.958
   323  H   0.993        C  311 0.916
   324  H   0.998        C  314 0.971
   325  H   0.996        C  314 0.963
   326  H   0.998        C  316 0.967
   327  H   0.999        C  317 0.967
   328  H   0.997        C  318 0.968
   329  H   0.998        C  319 0.965
   330  H   0.878        O  321 0.858
   331  N   2.991        C  332 1.015    H  440 0.954    H  342 0.951
   332  C   3.986        N  331 1.015    H  343 0.963    C  335 0.963    C  333 0.940
   333  C   3.937        O  334 1.565    N  351 1.338    C  332 0.940
   334  O   1.955        C  333 1.565    N  351 0.188
   335  C   3.993        C  336 1.008    H  345 0.970    H  344 0.965    C  332 0.963
   336  C   3.988        C  338 1.415    C  337 1.412    C  335 1.008    C  341 0.109
   337  C   3.991        C  339 1.446    C  336 1.412    H  346 0.966    C  340 0.113
   338  C   3.991        C  340 1.443    C  336 1.415    H  347 0.957    C  339 0.110
   339  C   3.992        C  337 1.446    C  341 1.437    H  348 0.958    C  338 0.110
   340  C   3.992        C  338 1.443    C  341 1.439    H  349 0.969    C  337 0.113
   341  C   3.991        C  340 1.439    C  339 1.437    H  350 0.969    C  336 0.109
   342  H   0.970        N  331 0.951
   343  H   0.997        C  332 0.963
   344  H   0.995        C  335 0.965
   345  H   0.997        C  335 0.970
   346  H   0.998        C  337 0.966
   347  H   1.000        C  338 0.957
   348  H   0.998        C  339 0.958
   349  H   0.999        C  340 0.969
   350  H   0.998        C  341 0.969
   351  N   3.501        C  333 1.338    C  352 0.977    H  360 0.916    O  334 0.188
   352  C   3.965        C  353 0.977    N  351 0.977    C  355 0.963    H  361 0.940
   353  C   3.896        O  354 1.874    C  352 0.977    H  441 0.950
   354  O   2.055        C  353 1.874
   355  C   3.987        C  356 1.007    H  363 0.973    H  362 0.970    C  352 0.963
   356  C   3.989        C  355 1.007    H  364 0.959    H  365 0.954    C  357 0.930
   357  C   3.930        O  358 1.533    O  359 1.436    C  356 0.930
   358  O   1.820        C  357 1.533    O  359 0.207
   359  O   1.818        C  357 1.436    O  358 0.207
   360  H   0.952        N  351 0.916
   361  H   0.992        C  352 0.940
   362  H   0.996        C  355 0.970
   363  H   0.996        C  355 0.973
   364  H   0.998        C  356 0.959
   365  H   0.999        C  356 0.954
   366  N   3.001        C  367 1.017    H  372 0.954    H  442 0.953
   367  C   3.984        N  366 1.017    H  373 0.963    C  370 0.959    C  368 0.934
   368  C   3.947        O  369 1.647    N  377 1.291    C  367 0.934
   369  O   1.957        C  368 1.647    N  377 0.198
   370  C   3.959        O  371 1.011    H  375 0.971    H  374 0.966    C  367 0.959
   371  O   1.954        C  370 1.011    H  376 0.874
   372  H   0.978        N  366 0.954
   373  H   0.996        C  367 0.963
   374  H   0.999        C  370 0.966
   375  H   0.998        C  370 0.971
   376  H   0.892        O  371 0.874
   377  N   3.462        C  368 1.291    C  378 0.990    H  383 0.887    O  369 0.198
   378  C   3.970        N  377 0.990    C  381 0.960    H  384 0.947    C  379 0.939
   379  C   3.954        O  380 1.604    N  388 1.320    C  378 0.939
   380  O   1.966        C  379 1.604    N  388 0.195
   381  C   3.957        O  382 1.009    H  386 0.967    H  385 0.966    C  378 0.960
   382  O   1.969        C  381 1.009    H  387 0.838
   383  H   0.948        N  377 0.887
   384  H   0.993        C  378 0.947
   385  H   0.994        C  381 0.966
   386  H   0.997        C  381 0.967
   387  H   0.895        O  382 0.838
   388  N   3.489        C  379 1.320    C  389 1.002    H  392 0.890    O  380 0.195
   389  C   3.962        N  388 1.002    C  390 0.949    H  393 0.949    H  394 0.948
   390  C   3.952        O  391 1.619    N  395 1.310    C  389 0.949
   391  O   1.939        C  390 1.619    N  395 0.195
   392  H   0.948        N  388 0.890
   393  H   0.989        C  389 0.949
   394  H   0.987        C  389 0.948
   395  N   3.479        C  390 1.310    C  396 0.982    H  403 0.897    O  391 0.195
   396  C   3.970        C  399 0.983    N  395 0.982    H  404 0.949    C  397 0.927
   397  C   3.946        O  398 1.646    N  414 1.291    C  396 0.927
   398  O   1.963        C  397 1.646    N  414 0.198
   399  C   3.988        C  400 0.991    C  396 0.983    H  405 0.968    H  406 0.967
   400  C   3.994        C  402 1.010    C  401 1.008    C  399 0.991    H  407 0.965
   401  C   3.994        C  400 1.008    H  408 0.984    H  409 0.983    H  410 0.982
   402  C   3.995        C  400 1.010    H  412 0.981    H  413 0.980    H  411 0.980
   403  H   0.953        N  395 0.897
   404  H   0.995        C  396 0.949
   405  H   0.997        C  399 0.968
   406  H   0.998        C  399 0.967
   407  H   0.998        C  400 0.965
   408  H   0.997        C  401 0.984
   409  H   0.998        C  401 0.983
   410  H   0.999        C  401 0.982
   411  H   0.998        C  402 0.980
   412  H   0.999        C  402 0.981
   413  H   0.999        C  402 0.980
   414  N   3.475        C  397 1.291    C  415 0.978    H  421 0.923    O  398 0.198
   415  C   3.961        N  414 0.978    C  416 0.974    H  422 0.954    C  418 0.939
   416  C   3.898        O  417 1.886    C  415 0.974    H  443 0.955
   417  O   2.051        C  416 1.886
   418  C   3.982        C  420 1.007    C  419 1.007    H  423 0.964    C  415 0.939
   419  C   3.991        C  418 1.007    H  426 0.985    H  425 0.983    H  424 0.982
   420  C   3.991        C  418 1.007    H  428 0.986    H  429 0.982    H  427 0.980
   421  H   0.957        N  414 0.923
   422  H   0.994        C  415 0.954
   423  H   0.996        C  418 0.964
   424  H   0.994        C  419 0.982
   425  H   0.999        C  419 0.983
   426  H   0.997        C  419 0.985
   427  H   0.995        C  420 0.980
   428  H   0.998        C  420 0.986
   429  H   0.997        C  420 0.982
   430  H   0.971        N    1 0.958
   431  H   0.992        C  199 0.948
   432  H   0.968        N  208 0.952
   433  H   0.993        C  220 0.952
   434  H   0.971        N  242 0.956
   435  H   0.995        C  275 0.954
   436  H   0.967        N  289 0.954
   437  H   0.996        C  291 0.955
   438  H   0.966        N  310 0.952
   439  H   0.995        C  312 0.953
   440  H   0.964        N  331 0.954
   441  H   0.992        C  353 0.950
   442  H   0.963        N  366 0.953
   443  H   0.995        C  416 0.955
 
molecular dipole:
                 x           y           z       tot (Debye)
 q only:      -37.706     -17.185     -50.653
   full:      -36.918     -18.909     -49.520     164.191
molecular quadrupole (traceless):
                xx          xy          yy          xz          yz          zz
 q only:       92.118   -1358.822    1656.412   -2897.554   -1275.423   -1748.530
  q+dip:      134.116   -1453.925    1439.102   -2766.868   -1360.393   -1573.218
   full:      129.492   -1451.062    1448.366   -2768.598   -1361.989   -1577.857


           -------------------------------------------------
          | TOTAL ENERGY             -691.222570777870 Eh   |
          | GRADIENT NORM               0.591141781368 Eh/α |
          | HOMO-LUMO GAP               1.003530449832 eV   |
           -------------------------------------------------

------------------------------------------------------------------------
 * finished run on 2019/05/31 at 02:07:20.683     
------------------------------------------------------------------------
 total:
 * wall-time:     0 d,  0 h,  0 min, 14.272 sec
 *  cpu-time:     0 d,  0 h,  0 min, 56.193 sec
 * ratio c/w:     3.937 speedup
 SCF:
 * wall-time:     0 d,  0 h,  0 min, 13.413 sec
 *  cpu-time:     0 d,  0 h,  0 min, 53.158 sec
 * ratio c/w:     3.963 speedup

