      -----------------------------------------------------------      
     |                   =====================                   |     
     |                           x T B                           |     
     |                   =====================                   |     
     |                         S. Grimme                         |     
     |          Mulliken Center for Theoretical Chemistry        |     
     |                    University of Bonn                     |     
     |                Version 6.1 RC1 (SAW190329)                |     
      -----------------------------------------------------------      

   This program is distributed in the hope that it will be useful,
   but WITHOUT ANY WARRANTY; without even the implied warranty of
   MERCHANTABILITY or FITNESS FOR A PARTICULAR PURPOSE.
   
   FOR NON-COMMERCIAL, ACADEMIA USE ONLY.
   
   Cite this work as:
   S. Grimme, C. Bannwarth, P. Shushkov, J. Comput. Theory Chem., 2017,
   13, 1989-2009. DOI: 10.1021/acs.jctc.7b00118
   C. Bannwarth, S. Ehlert and S. Grimme., J. Comput. Theory Chem., 2019,
   just accepted. DOI: 10.1021/acs.jctc.8b01176
   
   for sTDA-xTB:
   S. Grimme and C. Bannwarth, J. Chem. Phys., 2016, 145, 054103.
   DOI: 10.1063/1.4959605
   
   in the mass-spec context:
   V. Asgeirsson, C. Bauer and S. Grimme, Chem. Sci., 2017, 8, 4879.
   DOI: 10.1039/c7sc00601b
   
   for metadynamics refer to:
   S. Grimme, ChemRxiv, Preprint. DOI: 10.26434/chemrxiv.7660532.v1
   
   with help from (in alphabetical order)
   C. Bannwarth, F. Bohle, G. Brandenburg, E. Caldeweyher, M. Checinski,
   S. Dohm, S. Ehlert, S. Ehrlich, F. März, H. Neugebauer, J. Pisarek,
   P. Pracht, P. Shushkov, and S. Spicher.
   
 * started run on 2019/05/31 at 05:35:28.026     

           -------------------------------------------------
          |                Calculation Setup                |
           -------------------------------------------------

          program call               : /home/lum/install/xtb/xtb-190329/bin/xtb xtb_tmp.xyz --chrg 0 --grad --gfn 2 --etemp 500 --acc 0.1 --gbsa h2o --parallel 2
          hostname                   : cpu02
          coordinate file            : xtb_tmp.xyz
          omp threads                :                     2
          number of atoms            :                   331
          number of electrons        :                   870
          charge                     :                     0
          spin                       :                   0.0
          first test random number   :      0.31538534202043


molecular fragmentation (1/2 indicates fragments):
111111111111111111122222222222222222222222222222222222222222222222222222
222222222222222222222222222222222222222222222222222222222222222222222222
222222222222222222222222222222222222222222222222222222222222222222222222
222222222222222222222222222222222222222222222222222222222222222222222222
2222222222222222222222222222211222222222222
# atoms in fragment 1/2:    21   310
 fragment masses (1/2) :      115.17     2051.45
CMA distance (Bohr)    :  10.788
constraining FC (au)   :  0.0500

########################################################################
# WARNING! Please study the warnings concerning your input carefully
#  - XTBPATH is not set, using XTBHOME instead
#  - Process number higher than OMP_NUM_THREADS, I hope you know what you are doing.
########################################################################

           ------------------------------------------------- 
          |                 G F N 2 - x T B                 |
          | Geometry, Frequencies, Noncovalent interactions |
          |            JCTC 2018 parametrisation            |
           ------------------------------------------------- 
 
             k(s)              :                1.8500
             k(p)              :                2.2300
             k(d)              :                2.2300
             k(f)              :                2.0000
             kEN (H0ij)        :               -2.0000
             D4 a1             :                0.5200
             D4 a2             :                5.0000
             D4 s6             :                1.0000
             D4 s8             :                2.7000
             D4 s9             :                5.0000
             alphaj            :                2.0000

  Z AO/shell   Hii/eV     exponent
  1     Wed Apr 25 08:07:45 CEST 2018   EN: 2.200 GM2: 0.406  GM3: 0.0800  RAES: 1.40
     1s    -10.707211    1.230000
  6     Wed Apr 25 08:07:45 CEST 2018   EN: 2.550 GM2: 0.538  GM3: 0.1500  RAES: 3.00
     2s    -13.970922    2.096432
     2p    -10.063292    1.800000
  7     Wed Apr 25 08:07:45 CEST 2018   EN: 3.040 GM2: 0.461  GM3:-0.0640  RAES: 1.90
     2s    -16.686243    2.339881
     2p    -12.523956    2.014332
  8     Wed Apr 25 08:07:45 CEST 2018   EN: 3.440 GM2: 0.452  GM3:-0.0517  RAES: 1.80
     2s    -20.229985    2.439742
     2p    -15.503117    2.137023

 Solvent             : h2o
 Using internal parameter file: .param_gbsa2_h2o
 Gsolv ref. state (COSMO-RS): gsolv [1 M gas/solution]
 temperature (mdtemp)       :    298.150000000000     
 dielectric constant        :    80.2000000000000     
 rho                        :    1.00000000000000     
 mass                       :    18.0000000000000     
 surface tension            :    15.5689454083859     
 probe radius               :   0.975313790000000     
 vdW radii scaling          :    1.00000000000000     
 Gshift (Eh)                :   1.857443126794793E-003
 c1                         :    1.55243817000000     
 soset                      :   0.130326360000000     
 HB correction              :  T
 Number of grid points      :          230

            Z     q(EN)     CN     RAES       Cart. coordinates
     1  N   5.0   -0.72    3.00    1.93   274.51535   130.60239   216.97680
     2  C   4.0    0.06    3.98    3.59   274.11440   129.46938   214.52352
     3  C   4.0    0.06    3.00    3.02   273.57649   131.48427   212.53764
     4  O   6.0   -0.43    1.00    1.80   274.36633   131.21780   210.36779
     5  C   4.0   -0.14    3.99    3.60   271.93471   127.57459   214.55431
     6  C   4.0   -0.11    3.98    3.58   272.51482   125.12314   215.98917
     7  C   4.0   -0.24    3.98    3.59   270.09776   123.55438   216.19408
     8  C   4.0   -0.24    3.98    3.59   274.56957   123.57539   214.68606
     9  H   1.0    0.25    1.00    1.43   273.37717   130.05323   218.42023
    10  H   1.0    0.10    0.99    1.43   275.86343   128.53361   213.91658
    11  H   1.0    0.10    0.99    1.43   270.30632   128.51392   215.40188
    12  H   1.0    0.11    0.99    1.43   271.46121   127.11203   212.59976
    13  H   1.0    0.10    0.99    1.43   273.14401   125.61083   217.89664
    14  H   1.0    0.09    0.99    1.43   270.45065   121.81461   217.22721
    15  H   1.0    0.09    0.99    1.43   268.62814   124.59560   217.18645
    16  H   1.0    0.11    0.99    1.43   269.39200   123.05655   214.32782
    17  H   1.0    0.09    0.99    1.43   274.80547   121.78249   215.65719
    18  H   1.0    0.09    0.99    1.43   274.04233   123.19467   212.73652
    19  H   1.0    0.09    0.99    1.43   276.37558   124.55016   214.70273
    20  N   5.0   -0.69    3.00    1.93   279.68431   134.12343   210.70218
    21  C   4.0    0.08    3.98    3.59   280.91640   132.29362   209.07262
    22  C   4.0    0.09    3.00    3.02   279.78105   132.48956   206.41235
    23  O   6.0   -0.40    1.00    1.80   281.11291   132.63830   204.52881
    24  C   4.0   -0.08    3.98    3.59   280.69815   129.63041   210.20870
    25  C   4.0   -0.17    3.98    3.59   282.41173   129.49711   212.54463
    26  C   4.0   -0.22    3.98    3.59   281.37371   127.63204   208.24122
    27  C   4.0   -0.25    3.98    3.58   282.08474   127.10520   214.10889
    28  H   1.0    0.27    1.00    1.43   278.80198   133.50954   212.29491
    29  H   1.0    0.12    0.99    1.43   282.92458   132.79426   208.88595
    30  H   1.0    0.13    0.99    1.43   278.72896   129.36279   210.78016
    31  H   1.0    0.10    0.99    1.43   284.37845   129.64651   211.93854
    32  H   1.0    0.10    0.99    1.43   282.00187   131.11779   213.75357
    33  H   1.0    0.09    0.99    1.43   281.20609   125.75508   209.04951
    34  H   1.0    0.12    0.99    1.43   280.10564   127.75613   206.63114
    35  H   1.0    0.11    0.99    1.43   283.29441   127.90075   207.56880
    36  H   1.0    0.09    0.99    1.43   283.40430   127.13684   215.68161
    37  H   1.0    0.09    0.99    1.43   280.17736   127.00001   214.86490
    38  H   1.0    0.10    0.99    1.43   282.45589   125.41604   213.00519
    39  N   5.0   -0.72    3.00    1.93   289.15466   126.69975   220.26461
    40  C   4.0    0.07    3.98    3.58   288.59585   124.09500   220.86634
    41  C   4.0    0.10    3.00    3.02   289.44930   123.39849   223.54137
    42  O   6.0   -0.41    1.00    1.80   288.07442   122.31110   225.03728
    43  C   4.0   -0.01    3.98    3.59   289.96373   122.35743   218.97634
    44  O   6.0   -0.47    1.99    1.82   289.57767   119.78991   219.50204
    45  H   1.0    0.25    1.00    1.43   289.80324   127.06974   218.49686
    46  H   1.0    0.11    0.99    1.43   286.55063   123.75252   220.74838
    47  H   1.0    0.11    0.99    1.43   289.31743   122.82829   217.06417
    48  H   1.0    0.12    0.99    1.43   291.99803   122.70005   219.09096
    49  H   1.0    0.31    0.99    1.43   287.92880   119.34233   218.83360
    50  N   5.0   -0.71    3.00    1.93   281.01535   119.45502   226.96499
    51  C   4.0    0.08    3.98    3.58   281.59897   118.69839   224.40644
    52  C   4.0    0.09    3.00    3.02   283.86605   116.92250   224.21001
    53  O   6.0   -0.44    1.00    1.80   284.73049   116.34571   222.13546
    54  C   4.0   -0.12    3.99    3.60   282.10127   121.00017   222.72670
    55  C   4.0   -0.11    3.98    3.58   279.78437   122.65722   222.23237
    56  C   4.0   -0.24    3.99    3.60   280.62748   125.08732   220.92606
    57  C   4.0   -0.23    3.98    3.59   277.82427   121.29562   220.61842
    58  H   1.0    0.27    1.00    1.43   282.20203   120.69459   227.80064
    59  H   1.0    0.14    0.99    1.43   279.97634   117.61876   223.69907
    60  H   1.0    0.13    0.99    1.43   283.58511   122.11342   223.63874
    61  H   1.0    0.13    0.99    1.43   282.83458   120.30391   220.92902
    62  H   1.0    0.11    0.99    1.43   278.91470   123.14491   224.04567
    63  H   1.0    0.09    0.99    1.43   279.00693   126.26304   220.47565
    64  H   1.0    0.10    0.99    1.43   281.89424   126.16257   222.13816
    65  H   1.0    0.09    0.99    1.43   281.60292   124.63481   219.17507
    66  H   1.0    0.09    0.99    1.43   276.20479   122.51556   220.29627
    67  H   1.0    0.10    0.99    1.43   278.63291   120.78560   218.80129
    68  H   1.0    0.11    0.99    1.43   277.16878   119.57753   221.53257
    69  N   5.0   -0.70    3.00    1.93   274.55008   111.55059   222.57962
    70  C   4.0    0.07    3.99    3.60   276.20690   110.33334   220.77993
    71  C   4.0    0.27    3.01    3.02   278.73833   111.70837   220.64485
    72  O   6.0   -0.43    1.00    1.80   278.91714   113.98167   221.01411
    73  C   4.0   -0.16    3.99    3.60   275.06328   110.39904   218.10278
    74  C   4.0   -0.18    3.98    3.58   272.69921   108.76572   217.82172
    75  C   4.0   -0.16    3.98    3.59   273.21872   106.03194   218.57789
    76  C   4.0   -0.06    3.98    3.58   271.41205   104.15381   217.35919
    77  N   5.0   -0.72    3.98    2.81   271.90014   101.61301   218.45306
    78  H   1.0    0.28    1.00    1.43   274.65764   113.45653   222.64491
    79  H   1.0    0.11    0.99    1.43   276.51321   108.38491   221.37704
    80  H   1.0    0.10    0.99    1.43   274.62598   112.36133   217.64296
    81  H   1.0    0.11    0.99    1.43   276.50397   109.73218   216.78637
    82  H   1.0    0.10    0.99    1.43   271.16503   109.53146   218.96973
    83  H   1.0    0.09    0.99    1.43   272.12567   108.82184   215.84684
    84  H   1.0    0.10    0.99    1.43   275.13868   105.54366   218.00902
    85  H   1.0    0.11    0.99    1.43   273.09259   105.86435   220.62875
    86  H   1.0    0.11    0.99    1.43   269.45039   104.69488   217.69589
    87  H   1.0    0.10    0.99    1.43   271.75633   104.08374   215.32967
    88  H   1.0    0.24    1.00    1.43   271.23891   100.19297   217.31413
    89  H   1.0    0.22    0.99    1.43   273.88887   101.39639   218.76045
    90  H   1.0    0.24    1.00    1.43   271.06736   101.46572   220.19627
    91  N   5.0   -0.50    3.01    1.93   280.67510   110.22598   219.96292
    92  C   4.0    0.07    4.00    3.61   283.14620   111.27199   219.38497
    93  C   4.0    0.28    3.01    3.02   283.09811   112.39858   216.70745
    94  O   6.0   -0.48    1.00    1.80   282.97536   111.04493   214.82435
    95  C   4.0   -0.14    3.98    3.59   285.21768   109.26842   219.52842
    96  C   4.0   -0.11    3.99    3.60   287.79635   110.52989   219.16674
    97  C   4.0    0.27    3.00    3.02   289.98688   108.67072   219.16600
    98  O   6.0   -0.43    1.00    1.80   291.39190   108.42839   217.33589
    99  N   5.0   -0.65    3.00    1.93   290.27303   107.34614   221.29127
   100  H   1.0    0.22    1.00    1.43   280.40799   108.34236   219.73416
   101  H   1.0    0.16    0.99    1.43   283.51786   112.79754   220.73132
   102  H   1.0    0.12    0.99    1.43   285.12158   108.32302   221.35403
   103  H   1.0    0.13    0.99    1.43   284.88516   107.86477   218.05269
   104  H   1.0    0.14    0.99    1.43   287.80765   111.53513   217.36774
   105  H   1.0    0.12    0.99    1.43   288.08850   111.88423   220.69360
   106  H   1.0    0.26    1.00    1.43   289.39141   107.92150   222.88663
   107  H   1.0    0.29    1.00    1.43   291.76700   106.17356   221.43701
   108  N   5.0   -0.49    3.01    1.93   283.20860   114.91011   216.61841
   109  C   4.0    0.08    4.00    3.62   283.22783   116.33615   214.27838
   110  C   4.0    0.26    3.01    3.02   285.70058   117.82309   214.17262
   111  O   6.0   -0.47    1.00    1.80   286.12251   119.55752   215.64528
   112  C   4.0   -0.08    3.98    3.59   280.97490   118.16475   214.10334
   113  C   4.0   -0.16    3.98    3.58   278.45595   116.75733   214.37145
   114  C   4.0   -0.24    3.98    3.59   281.13975   119.65678   211.63771
   115  C   4.0   -0.23    3.98    3.58   278.03512   114.66060   212.43706
   116  H   1.0    0.28    1.00    1.43   283.30946   115.89701   218.25751
   117  H   1.0    0.13    0.99    1.43   283.15293   114.99639   212.71490
   118  H   1.0    0.11    0.99    1.43   281.13983   119.49755   215.68020
   119  H   1.0    0.13    0.99    1.43   278.34789   115.95650   216.27184
   120  H   1.0    0.09    0.99    1.43   276.93803   118.14105   214.19107
   121  H   1.0    0.08    0.99    1.43   279.48907   120.86265   211.43716
   122  H   1.0    0.11    0.99    1.43   282.82011   120.84050   211.62893
   123  H   1.0    0.10    0.99    1.43   281.24614   118.39263   210.02395
   124  H   1.0    0.09    0.99    1.43   276.12594   113.93164   212.61799
   125  H   1.0    0.10    0.99    1.43   278.26793   115.35099   210.51820
   126  H   1.0    0.14    0.99    1.43   279.33475   113.09770   212.72440
   127  N   5.0   -0.47    3.01    1.93   287.33935   117.07455   212.40447
   128  C   4.0    0.07    3.99    3.60   289.69085   118.38132   211.92415
   129  C   4.0    0.07    3.00    3.02   290.47622   117.80797   209.21016
   130  O   6.0   -0.43    1.00    1.80   289.25542   116.35707   207.87154
   131  C   4.0   -0.09    3.99    3.60   291.74303   117.65065   213.84808
   132  C   4.0    0.30    3.00    3.02   292.26523   114.84394   213.73060
   133  O   6.0   -0.41    1.00    1.80   292.76057   113.76381   211.72873
   134  N   5.0   -0.64    3.00    1.93   292.13114   113.63279   215.92881
   135  H   1.0    0.29    1.00    1.43   286.94335   115.63192   211.19675
   136  H   1.0    0.11    0.99    1.43   289.37117   120.42414   212.08559
   137  H   1.0    0.10    0.99    1.43   293.46149   118.70224   213.40560
   138  H   1.0    0.14    0.99    1.43   291.11191   118.19647   215.73101
   139  H   1.0    0.32    1.00    1.43   292.27954   111.71451   216.04303
   140  H   1.0    0.27    1.00    1.43   291.81384   114.61736   217.52627
   141  N   5.0   -0.68    3.00    1.93   290.62693   110.63729   207.67120
   142  C   4.0    0.10    3.98    3.59   288.31341   109.19671   207.49777
   143  C   4.0    0.30    3.01    3.02   286.77116   109.96794   205.17128
   144  O   6.0   -0.39    1.00    1.80   285.55948   108.40169   203.97424
   145  C   4.0    0.04    3.98    3.58   286.66606   109.26405   209.87866
   146  O   6.0   -0.46    1.98    1.82   285.88414   111.75503   210.44961
   147  C   4.0   -0.19    3.98    3.59   288.03254   108.09503   212.13140
   148  H   1.0    0.34    1.00    1.43   290.96980   111.77849   209.16858
   149  H   1.0    0.11    0.99    1.43   288.84419   107.21290   207.17610
   150  H   1.0    0.12    0.99    1.43   284.98777   108.12219   209.40791
   151  H   1.0    0.29    0.99    1.43   284.72229   111.56563   211.88580
   152  H   1.0    0.13    0.99    1.43   286.71877   107.91297   213.69843
   153  H   1.0    0.11    0.99    1.43   288.77197   106.24867   211.63191
   154  H   1.0    0.15    0.99    1.43   289.58518   109.31518   212.69374
   155  N   5.0   -0.47    3.01    1.93   286.82909   112.42111   204.59575
   156  C   4.0    0.07    3.99    3.61   285.51325   113.39147   202.40180
   157  C   4.0    0.09    3.00    3.02   286.64684   112.31458   199.96570
   158  O   6.0   -0.39    1.00    1.80   285.32758   111.68721   198.17724
   159  C   4.0   -0.13    3.99    3.60   285.65496   116.27434   202.34900
   160  C   4.0   -0.09    3.98    3.58   284.19274   117.54601   204.50708
   161  C   4.0   -0.22    3.98    3.59   284.85110   120.35723   204.57674
   162  C   4.0   -0.22    3.98    3.59   281.34519   117.19714   204.23497
   163  H   1.0    0.30    1.00    1.43   287.78770   113.64797   205.70344
   164  H   1.0    0.17    0.99    1.43   283.54404   112.74249   202.46112
   165  H   1.0    0.12    0.99    1.43   287.64921   116.80676   202.47289
   166  H   1.0    0.12    0.99    1.43   284.92179   116.92259   200.53441
   167  H   1.0    0.14    0.99    1.43   284.80815   116.68668   206.28527
   168  H   1.0    0.09    0.99    1.43   283.81640   121.29439   206.08324
   169  H   1.0    0.11    0.99    1.43   286.86477   120.61170   204.91707
   170  H   1.0    0.10    0.99    1.43   284.36721   121.24094   202.78573
   171  H   1.0    0.09    0.99    1.43   280.37037   118.10870   205.79445
   172  H   1.0    0.11    0.99    1.43   280.67870   118.03191   202.48180
   173  H   1.0    0.14    0.99    1.43   280.83433   115.21071   204.22944
   174  N   5.0   -0.71    3.00    1.93   271.03938   114.55822   199.96056
   175  C   4.0    0.06    3.98    3.59   271.52482   113.42121   202.41082
   176  C   4.0    0.27    3.01    3.02   270.78796   115.30912   204.48765
   177  O   6.0   -0.45    1.00    1.80   269.17657   114.84248   206.08842
   178  C   4.0   -0.14    3.99    3.60   274.30516   112.69629   202.69592
   179  C   4.0   -0.12    3.98    3.59   275.18723   110.66975   200.83642
   180  C   4.0    0.28    3.00    3.02   278.05879   110.47647   200.87508
   181  O   6.0   -0.42    1.00    1.80   279.37582   111.49880   202.46723
   182  N   5.0   -0.64    3.00    1.93   279.06175   109.14219   198.96392
   183  H   1.0    0.26    1.00    1.43   272.48051   114.64348   198.69939
   184  H   1.0    0.10    0.99    1.43   270.29707   111.76242   202.64106
   185  H   1.0    0.12    0.99    1.43   275.46404   114.37460   202.40467
   186  H   1.0    0.11    0.99    1.43   274.61543   112.04335   204.62625
   187  H   1.0    0.10    0.99    1.43   274.37627   108.83396   201.30961
   188  H   1.0    0.11    0.99    1.43   274.61067   111.16430   198.92064
   189  H   1.0    0.26    1.00    1.43   277.97468   108.24649   197.69200
   190  H   1.0    0.32    1.00    1.43   280.95760   108.96293   198.86643
   191  N   5.0   -0.49    3.01    1.93   272.09226   117.46400   204.45993
   192  C   4.0    0.07    4.00    3.62   271.62326   119.41239   206.32745
   193  C   4.0    0.30    3.01    3.02   268.78851   119.71710   206.77670
   194  O   6.0   -0.48    1.00    1.80   267.86395   119.71615   208.91144
   195  C   4.0   -0.09    3.98    3.59   272.77598   121.94370   205.47818
   196  C   4.0   -0.21    3.98    3.59   271.81765   124.10667   207.13770
   197  C   4.0   -0.24    3.98    3.59   275.65633   121.78045   205.54832
   198  H   1.0    0.23    1.00    1.43   273.27495   117.84913   203.00275
   199  H   1.0    0.11    0.99    1.43   272.45027   118.82200   208.14110
   200  H   1.0    0.13    0.99    1.43   272.14058   122.27174   203.53771
   201  H   1.0    0.12    0.99    1.43   272.95384   125.78612   206.81546
   202  H   1.0    0.14    0.99    1.43   269.85416   124.53444   206.70124
   203  H   1.0    0.10    0.99    1.43   271.93770   123.58184   209.12058
   204  H   1.0    0.10    0.99    1.43   276.48019   123.55408   204.92369
   205  H   1.0    0.09    0.99    1.43   276.29319   121.39151   207.46205
   206  H   1.0    0.10    0.99    1.43   276.32831   120.28386   204.31442
   207  N   5.0   -0.48    3.01    1.93   267.45256   120.18919   204.69969
   208  C   4.0    0.08    4.00    3.62   264.86520   121.02689   204.82895
   209  C   4.0    0.28    3.01    3.02   263.05781   118.97772   205.72146
   210  O   6.0   -0.44    1.00    1.80   261.25241   119.51628   207.08193
   211  C   4.0   -0.10    3.98    3.58   264.07283   122.09510   202.28155
   212  C   4.0    0.31    2.99    3.02   265.34630   124.75045   201.82051
   213  O   6.0   -0.38    1.00    1.80   265.86034   125.29879   199.60055
   214  O   6.0   -0.40    1.00    1.80   265.67369   126.10911   203.70844
   215  H   1.0    0.25    1.00    1.43   268.28519   120.12376   202.97826
   216  H   1.0    0.15    0.99    1.43   264.75080   122.56630   206.22679
   217  H   1.0    0.12    0.99    1.43   264.60421   120.81012   200.76012
   218  H   1.0    0.12    0.99    1.43   262.02499   122.35276   202.23415
   219  N   5.0   -0.49    3.00    1.93   263.54182   116.62963   204.92398
   220  C   4.0    0.09    4.00    3.62   261.91086   114.57296   205.65849
   221  C   4.0    0.29    3.01    3.02   262.09183   113.96860   208.48561
   222  O   6.0   -0.39    1.00    1.80   260.49203   112.63190   209.49346
   223  C   4.0    0.03    3.98    3.58   262.38031   112.13702   204.11922
   224  O   6.0   -0.47    1.99    1.82   260.21025   110.59697   204.16518
   225  C   4.0   -0.20    3.98    3.58   264.70528   110.71609   205.06357
   226  H   1.0    0.26    1.00    1.43   265.01500   116.27067   203.75172
   227  H   1.0    0.16    0.99    1.43   259.93520   115.15093   205.36399
   228  H   1.0    0.13    0.99    1.43   262.64154   112.66158   202.13089
   229  H   1.0    0.29    0.99    1.43   259.77458   110.27999   205.91401
   230  H   1.0    0.11    0.99    1.43   265.08261   109.12313   203.82557
   231  H   1.0    0.13    0.99    1.43   266.32500   111.97460   205.10144
   232  H   1.0    0.13    0.99    1.43   264.36305   110.00570   206.96456
   233  N   5.0   -0.47    3.01    1.93   264.07009   114.96584   209.69291
   234  C   4.0    0.07    3.99    3.61   264.41372   114.78978   212.39847
   235  C   4.0    0.28    3.01    3.02   263.28483   117.12868   213.66616
   236  O   6.0   -0.45    1.00    1.80   261.97130   116.97959   215.57816
   237  C   4.0   -0.14    3.99    3.60   267.22398   114.50740   212.99077
   238  C   4.0   -0.09    3.98    3.58   268.37280   112.13991   211.77391
   239  C   4.0   -0.23    3.98    3.59   271.24972   112.34195   211.86692
   240  C   4.0   -0.22    3.98    3.59   267.43356   109.72974   213.04868
   241  H   1.0    0.29    1.00    1.43   265.44906   115.85088   208.70889
   242  H   1.0    0.16    0.99    1.43   263.32225   113.16514   213.08440
   243  H   1.0    0.13    0.99    1.43   268.18857   116.18022   212.26068
   244  H   1.0    0.10    0.99    1.43   267.45838   114.44014   215.03729
   245  H   1.0    0.14    0.99    1.43   267.81088   112.09935   209.78663
   246  H   1.0    0.10    0.99    1.43   272.11873   110.62700   211.14697
   247  H   1.0    0.11    0.99    1.43   271.85653   113.91043   210.68756
   248  H   1.0    0.09    0.99    1.43   271.87904   112.67631   213.79169
   249  H   1.0    0.10    0.99    1.43   268.28161   108.08373   212.16019
   250  H   1.0    0.10    0.99    1.43   267.89461   109.74865   215.04838
   251  H   1.0    0.13    0.99    1.43   265.38997   109.55473   212.89140
   252  N   5.0   -0.48    3.01    1.93   263.77018   119.33573   212.54331
   253  C   4.0    0.07    4.00    3.61   262.58097   121.64211   213.42004
   254  C   4.0    0.29    3.01    3.02   259.77288   121.13514   213.90924
   255  O   6.0   -0.42    1.00    1.80   258.71057   121.84116   215.84755
   256  C   4.0   -0.14    3.98    3.59   262.85735   123.76168   211.46614
   257  C   4.0   -0.16    3.98    3.59   261.56229   126.18995   212.37296
   258  C   4.0   -0.03    3.98    3.59   260.99411   128.06399   210.24625
   259  N   5.0   -0.47    3.02    1.93   263.13722   129.68073   209.69851
   260  C   4.0    0.38    3.00    3.02   263.69552   130.72976   207.48471
   261  N   5.0   -0.62    3.01    1.93   262.40554   130.19441   205.38040
   262  N   5.0   -0.63    3.02    1.93   265.50932   132.46476   207.41935
   263  H   1.0    0.29    1.00    1.43   264.98089   119.42841   211.05512
   264  H   1.0    0.11    0.99    1.43   263.40836   122.22192   215.23649
   265  H   1.0    0.12    0.99    1.43   264.86306   124.07985   211.11574
   266  H   1.0    0.14    0.99    1.43   261.98600   123.10918   209.71516
   267  H   1.0    0.13    0.99    1.43   259.77424   125.67930   213.25996
   268  H   1.0    0.10    0.99    1.43   262.71234   127.09896   213.82198
   269  H   1.0    0.12    0.99    1.43   260.46970   127.00222   208.56034
   270  H   1.0    0.12    0.99    1.43   259.38814   129.24318   210.80567
   271  H   1.0    0.23    1.00    1.43   264.06821   130.37561   211.22155
   272  H   1.0    0.27    1.00    1.43   261.42408   128.56295   205.29779
   273  H   1.0    0.29    1.00    1.43   263.19581   130.70082   203.72108
   274  H   1.0    0.26    1.00    1.43   266.24183   133.12884   209.06946
   275  H   1.0    0.28    1.00    1.43   266.01910   133.26841   205.77222
   276  N   5.0   -0.47    3.01    1.93   258.54540   120.04555   211.99083
   277  C   4.0    0.09    3.99    3.61   255.86557   119.53763   212.13302
   278  C   4.0    0.30    3.01    3.02   255.14036   118.07648   214.51257
   279  O   6.0   -0.37    1.00    1.80   253.20445   118.61664   215.66646
   280  C   4.0   -0.01    3.98    3.59   255.00985   118.08418   209.75263
   281  O   6.0   -0.44    1.99    1.82   256.54830   116.00683   209.18236
   282  H   1.0    0.31    1.00    1.43   259.45221   119.48731   210.38991
   283  H   1.0    0.13    0.99    1.43   254.81953   121.33002   212.22626
   284  H   1.0    0.12    0.99    1.43   253.02664   117.53756   209.99274
   285  H   1.0    0.13    0.99    1.43   255.19048   119.33838   208.12189
   286  H   1.0    0.30    0.99    1.43   256.27828   114.62283   210.33710
   287  N   5.0   -0.46    3.01    1.93   256.62906   116.15037   215.16336
   288  C   4.0    0.09    4.00    3.62   256.10198   114.68248   217.41214
   289  C   4.0    0.29    3.01    3.02   255.90664   116.41188   219.70256
   290  O   6.0   -0.36    1.00    1.80   254.19114   116.22359   221.25227
   291  C   4.0   -0.10    3.98    3.59   258.18072   112.75424   217.87440
   292  C   4.0    0.32    2.99    3.02   258.35751   110.75165   215.67842
   293  O   6.0   -0.36    1.00    1.80   256.36500   110.25840   214.54100
   294  O   6.0   -0.40    1.00    1.80   260.49171   109.84395   215.31394
   295  H   1.0    0.30    1.00    1.43   258.27952   115.79968   214.27737
   296  H   1.0    0.16    0.99    1.43   254.29838   113.68504   217.16608
   297  H   1.0    0.13    0.99    1.43   260.01943   113.66504   218.06293
   298  H   1.0    0.12    0.99    1.43   257.79606   111.70058   219.60998
   299  N   5.0   -0.47    3.01    1.93   257.78025   118.07990   219.90851
   300  C   4.0    0.07    3.99    3.60   258.03451   119.74647   222.06482
   301  C   4.0    0.11    3.00    3.02   255.74447   121.50518   222.22573
   302  O   6.0   -0.37    1.00    1.80   254.61793   121.87110   224.21946
   303  C   4.0   -0.14    3.99    3.60   260.48801   121.24501   221.86253
   304  C   4.0   -0.10    3.98    3.58   262.86506   119.58871   221.99625
   305  C   4.0   -0.23    3.98    3.59   265.18177   121.17986   221.34737
   306  C   4.0   -0.22    3.98    3.59   263.18823   118.37841   224.59226
   307  H   1.0    0.29    1.00    1.43   259.12940   118.14446   218.55886
   308  H   1.0    0.14    0.99    1.43   258.00868   118.60175   223.79645
   309  H   1.0    0.13    0.99    1.43   260.45353   122.24652   220.05899
   310  H   1.0    0.11    0.99    1.43   260.52352   122.66315   223.36066
   311  H   1.0    0.13    0.99    1.43   262.70291   118.07305   220.59138
   312  H   1.0    0.10    0.99    1.43   266.87527   120.02252   221.41211
   313  H   1.0    0.10    0.99    1.43   264.99910   121.97463   219.46256
   314  H   1.0    0.10    0.99    1.43   265.38091   122.72532   222.68721
   315  H   1.0    0.10    0.99    1.43   264.79556   117.09911   224.59221
   316  H   1.0    0.11    0.99    1.43   263.46852   119.82212   226.02768
   317  H   1.0    0.11    0.99    1.43   261.53924   117.26565   225.10411
   318  H   1.0    0.28    1.00    1.43   276.09516   130.26309   217.50750
   319  H   1.0    0.14    1.00    1.43   272.58133   133.02322   212.99847
   320  H   1.0    0.29    1.00    1.43   280.83014   135.25040   211.25857
   321  H   1.0    0.16    1.00    1.43   277.90521   132.49805   206.18387
   322  H   1.0    0.29    1.00    1.43   287.74610   127.63712   220.43742
   323  H   1.0    0.14    1.00    1.43   291.19423   123.83563   224.12034
   324  H   1.0    0.29    1.00    1.43   279.48517   120.19642   227.00272
   325  H   1.0    0.15    1.00    1.43   284.65589   116.22168   225.77719
   326  H   1.0    0.29    1.00    1.43   272.93350   111.17674   222.20616
   327  H   1.0    0.12    1.00    1.43   292.01848   118.62091   208.48104
   328  H   1.0    0.30    1.00    1.43   291.95703   109.57739   207.67135
   329  H   1.0    0.15    1.00    1.43   288.51832   112.10739   199.80541
   330  H   1.0    0.29    1.00    1.43   269.81206   113.69024   199.16503
   331  H   1.0    0.16    1.00    1.43   255.12599   122.39517   220.67767

           ------------------------------------------------- 
          |        Self-Consistent Charge Iterations        |
           ------------------------------------------------- 

          ...................................................
          :                      SETUP                      :
          :.................................................:
          :  # basis functions                 784          :
          :  # atomic orbitals                 784          :
          :  # shells                          482          :
          :  # electrons                       870          :
          :  max. iterations                   250          :
          :  Hamiltonian                  GFN2-xTB          :
          :  restarted?                      false          :
          :  GBSA solvation                   true          :
          :  PC potential                    false          :
          :  electronic temp.          500.0000000     K    :
          :  accuracy                    0.1000000          :
          :  -> integral cutoff          0.3500000E+02      :
          :  -> integral neglect         0.1000000E-08      :
          :  -> SCF convergence          0.1000000E-06 Eh   :
          :  -> wf. convergence          0.1000000E-04 e    :
          :  Broyden damping             0.4000000          :
          ...................................................

 iter      E             dE          RMSdq      gap      omega  full diag
   1   -497.9809363 -0.497981E+03  0.419E+00    1.51       0.0  T
   2   -499.3062038 -0.132527E+01  0.213E+00    1.68       1.0  T
   3   -499.3562328 -0.500290E-01  0.115E+00    2.15       1.0  T
   4   -499.3741946 -0.179618E-01  0.260E-01    1.58       1.0  T
   5   -499.3851488 -0.109542E-01  0.111E-01    1.73       1.0  T
   6   -499.3856485 -0.499731E-03  0.471E-02    1.71       1.0  T
   7   -499.3856894 -0.408773E-04  0.167E-02    1.73       1.0  T
   8   -499.3857085 -0.191074E-04  0.637E-03    1.73       1.0  T
   9   -499.3857105 -0.201985E-05  0.267E-03    1.73       2.1  T
  10   -499.3857108 -0.229548E-06  0.113E-03    1.73       4.9  T
  11   -499.3857109 -0.831649E-07  0.385E-04    1.73      14.3  T
  12   -499.3857109 -0.822388E-08  0.162E-04    1.73      33.9  T
  13   -499.3857109 -0.130251E-08  0.759E-05    1.73      72.4  T
  14   -499.3857109 -0.268756E-09  0.270E-05    1.73     203.9  T

   *** convergence criteria satisfied after 14 iterations ***

         #    Occupation            Energy/Eh            Energy/eV
      -------------------------------------------------------------
         1        2.0000           -0.7314431             -19.9036
       ...           ...                  ...                  ...
       429        2.0000           -0.3692602             -10.0481
       430        2.0000           -0.3664147              -9.9707
       431        2.0000           -0.3661317              -9.9629
       432        2.0000           -0.3649341              -9.9304
       433        2.0000           -0.3636205              -9.8946
       434        2.0000           -0.3584074              -9.7528
       435        2.0000           -0.3535251              -9.6199 (HOMO)
       436                         -0.2900721              -7.8933 (LUMO)
       437                         -0.2847613              -7.7487
       438                         -0.2839944              -7.7279
       439                         -0.2811187              -7.6496
       440                         -0.2807645              -7.6400
       ...                                ...                  ...
       784                          0.6590659              17.9341
      -------------------------------------------------------------
                  HL-Gap            0.0634530 Eh            1.7266 eV
             Fermi-level           -0.3218095 Eh           -8.7569 eV

 SCC (total)                   0 d,  0 h,  0 min,  3.035 sec
 SCC setup                      ...        0 min,  0.053 sec (  1.731%)
 Dispersion                     ...        0 min,  0.030 sec (  0.994%)
 integral evaluation            ...        0 min,  0.138 sec (  4.543%)
 zeroth order Hamiltonian       ...        0 min,  0.003 sec (  0.089%)
 iterations                     ...        0 min,  2.238 sec ( 73.746%)
 molecular gradient             ...        0 min,  0.556 sec ( 18.335%)
 printout                       ...        0 min,  0.017 sec (  0.560%)

         :::::::::::::::::::::::::::::::::::::::::::::::::::::
         ::                     SUMMARY                     ::
         :::::::::::::::::::::::::::::::::::::::::::::::::::::
         :: total energy             -493.409876221117 Eh   ::
         :: total w/o Gsasa/hb       -493.345228733434 Eh   ::
         :: gradient norm               0.589200806402 Eh/α ::
         :: HOMO-LUMO gap               1.726643366776 eV   ::
         ::.................................................::
         :: SCC energy               -499.400961647018 Eh   ::
         :: -> isotropic ES             1.594513347281 Eh   ::
         :: -> anisotropic ES          -0.042157844450 Eh   ::
         :: -> anisotropic XC           0.164339688097 Eh   ::
         :: -> dispersion              -0.401193433147 Eh   ::
         :: -> Gsolv                   -0.400777373423 Eh   ::
         ::    -> Gborn                -0.336129885740 Eh   ::
         ::    -> Gsasa                -0.017108218923 Eh   ::
         ::    -> Ghb                  -0.049396711886 Eh   ::
         ::    -> Gshift                0.001857443127 Eh   ::
         :: repulsion energy            5.955912661534 Eh   ::
         :: add. restraining            0.000000000000 Eh   ::
         :::::::::::::::::::::::::::::::::::::::::::::::::::::

           -------------------------------------------------
          |                Property Printout                |
           -------------------------------------------------

    * Orbital Energies and Occupations

         #    Occupation            Energy/Eh            Energy/eV
      -------------------------------------------------------------
         1        2.0000           -0.7314431             -19.9036
       ...           ...                  ...                  ...
       423        2.0000           -0.3951072             -10.7514
       424        2.0000           -0.3892747             -10.5927
       425        2.0000           -0.3841393             -10.4530
       426        2.0000           -0.3794508             -10.3254
       427        2.0000           -0.3793727             -10.3233
       428        2.0000           -0.3751867             -10.2093
       429        2.0000           -0.3692602             -10.0481
       430        2.0000           -0.3664147              -9.9707
       431        2.0000           -0.3661317              -9.9629
       432        2.0000           -0.3649341              -9.9304
       433        2.0000           -0.3636205              -9.8946
       434        2.0000           -0.3584074              -9.7528
       435        2.0000           -0.3535251              -9.6199 (HOMO)
       436                         -0.2900721              -7.8933 (LUMO)
       437                         -0.2847613              -7.7487
       438                         -0.2839944              -7.7279
       439                         -0.2811187              -7.6496
       440                         -0.2807645              -7.6400
       441                         -0.2781680              -7.5693
       442                         -0.2753106              -7.4916
       443                         -0.2440978              -6.6422
       444                         -0.2406626              -6.5488
       445                         -0.2393680              -6.5135
       446                         -0.2376140              -6.4658
       ...                                ...                  ...
       784                          0.6590659              17.9341
      -------------------------------------------------------------
                  HL-Gap            0.0634530 Eh            1.7266 eV
             Fermi-level           -0.3218095 Eh           -8.7569 eV

   #   Z        covCN         q      C6AA      α(0)
   1   7 N      2.635    -0.388    30.053     8.142
   2   6 C      3.783     0.041    19.904     6.355
   3   6 C      2.768     0.189    23.952     8.015
   4   8 O      0.856    -0.374    21.171     6.169
   5   6 C      3.811    -0.074    21.910     6.663
   6   6 C      3.849    -0.009    20.697     6.471
   7   6 C      3.757    -0.117    22.793     6.807
   8   6 C      3.756    -0.113    22.711     6.795
   9   1 H      0.860     0.167     1.293     1.782
  10   1 H      0.924     0.052     2.301     2.372
  11   1 H      0.924     0.054     2.271     2.357
  12   1 H      0.924     0.047     2.352     2.398
  13   1 H      0.924     0.035     2.515     2.480
  14   1 H      0.925     0.042     2.421     2.433
  15   1 H      0.925     0.038     2.478     2.462
  16   1 H      0.925     0.037     2.484     2.464
  17   1 H      0.925     0.045     2.382     2.414
  18   1 H      0.925     0.037     2.489     2.467
  19   1 H      0.925     0.041     2.430     2.438
  20   7 N      2.636    -0.385    29.969     8.130
  21   6 C      3.787     0.038    19.948     6.361
  22   6 C      2.765     0.207    23.609     7.957
  23   8 O      0.856    -0.389    21.472     6.213
  24   6 C      3.853    -0.022    20.927     6.506
  25   6 C      3.805    -0.061    21.663     6.626
  26   6 C      3.755    -0.113    22.722     6.797
  27   6 C      3.751    -0.106    22.586     6.777
  28   1 H      0.860     0.158     1.347     1.818
  29   1 H      0.923     0.041     2.430     2.438
  30   1 H      0.924     0.054     2.266     2.354
  31   1 H      0.924     0.036     2.497     2.471
  32   1 H      0.924     0.036     2.509     2.477
  33   1 H      0.925     0.057     2.237     2.339
  34   1 H      0.925     0.030     2.588     2.516
  35   1 H      0.925     0.041     2.430     2.438
  36   1 H      0.925     0.040     2.448     2.447
  37   1 H      0.925     0.036     2.501     2.473
  38   1 H      0.925     0.045     2.383     2.414
  39   7 N      2.635    -0.391    30.111     8.150
  40   6 C      3.780     0.030    20.091     6.386
  41   6 C      2.766     0.208    23.597     7.955
  42   8 O      0.856    -0.376    21.205     6.174
  43   6 C      3.680     0.073    19.571     6.336
  44   8 O      1.655    -0.473    22.313     6.377
  45   1 H      0.860     0.172     1.258     1.757
  46   1 H      0.923     0.049     2.335     2.390
  47   1 H      0.924     0.054     2.269     2.356
  48   1 H      0.924     0.058     2.219     2.329
  49   1 H      0.804     0.326     0.647     1.263
  50   7 N      2.634    -0.393    30.185     8.160
  51   6 C      3.782     0.036    19.984     6.368
  52   6 C      2.767     0.200    23.750     7.981
  53   8 O      0.856    -0.388    21.446     6.209
  54   6 C      3.813    -0.066    21.753     6.639
  55   6 C      3.850    -0.009    20.700     6.471
  56   6 C      3.758    -0.111    22.665     6.787
  57   6 C      3.756    -0.114    22.743     6.800
  58   1 H      0.860     0.158     1.351     1.821
  59   1 H      0.924     0.094     1.843     2.123
  60   1 H      0.924     0.040     2.446     2.446
  61   1 H      0.924     0.045     2.386     2.415
  62   1 H      0.924     0.026     2.642     2.542
  63   1 H      0.925     0.042     2.426     2.436
  64   1 H      0.925     0.029     2.594     2.519
  65   1 H      0.925     0.043     2.412     2.428
  66   1 H      0.925     0.045     2.383     2.414
  67   1 H      0.925     0.043     2.408     2.426
  68   1 H      0.925     0.036     2.497     2.471
  69   7 N      2.635    -0.386    29.994     8.134
  70   6 C      3.788     0.020    20.249     6.409
  71   6 C      2.761     0.269    22.465     7.762
  72   8 O      0.858    -0.487    23.497     6.499
  73   6 C      3.809    -0.072    21.868     6.657
  74   6 C      3.802    -0.072    21.885     6.660
  75   6 C      3.805    -0.098    22.371     6.733
  76   6 C      3.731    -0.048    21.530     6.623
  77   7 N      3.481    -0.149    24.222     7.310
  78   1 H      0.860     0.151     1.392     1.848
  79   1 H      0.924     0.060     2.197     2.318
  80   1 H      0.924     0.038     2.470     2.458
  81   1 H      0.924     0.044     2.400     2.423
  82   1 H      0.924     0.043     2.414     2.430
  83   1 H      0.925     0.066     2.134     2.284
  84   1 H      0.924     0.077     2.009     2.217
  85   1 H      0.924     0.080     1.982     2.202
  86   1 H      0.924     0.109     1.705     2.042
  87   1 H      0.925     0.114     1.660     2.015
  88   1 H      0.859     0.301     0.709     1.319
  89   1 H      0.854     0.304     0.702     1.313
  90   1 H      0.859     0.297     0.723     1.332
  91   7 N      2.691    -0.185    25.016     7.428
  92   6 C      3.799     0.015    20.324     6.419
  93   6 C      2.756     0.271    22.419     7.754
  94   8 O      0.858    -0.489    23.548     6.506
  95   6 C      3.806    -0.072    21.880     6.659
  96   6 C      3.809    -0.105    22.501     6.752
  97   6 C      2.743     0.288    22.124     7.701
  98   8 O      0.859    -0.499    23.760     6.535
  99   7 N      2.638    -0.280    27.245     7.752
 100   1 H      0.860     0.215     1.033     1.592
 101   1 H      0.924     0.081     1.967     2.193
 102   1 H      0.925     0.076     2.024     2.225
 103   1 H      0.924     0.067     2.114     2.274
 104   1 H      0.924     0.059     2.205     2.322
 105   1 H      0.924     0.077     2.005     2.215
 106   1 H      0.860     0.236     0.939     1.518
 107   1 H      0.860     0.235     0.943     1.521
 108   7 N      2.692    -0.160    24.451     7.344
 109   6 C      3.800     0.009    20.424     6.435
 110   6 C      2.759     0.268    22.480     7.764
 111   8 O      0.859    -0.474    23.220     6.461
 112   6 C      3.853    -0.017    20.845     6.494
 113   6 C      3.802    -0.062    21.687     6.630
 114   6 C      3.755    -0.116    22.771     6.804
 115   6 C      3.751    -0.117    22.793     6.809
 116   1 H      0.860     0.217     1.025     1.586
 117   1 H      0.924     0.079     1.989     2.205
 118   1 H      0.924     0.049     2.330     2.387
 119   1 H      0.924     0.036     2.509     2.477
 120   1 H      0.924     0.047     2.353     2.399
 121   1 H      0.925     0.057     2.232     2.336
 122   1 H      0.925     0.036     2.508     2.477
 123   1 H      0.925     0.049     2.332     2.388
 124   1 H      0.925     0.043     2.403     2.424
 125   1 H      0.925     0.042     2.427     2.436
 126   1 H      0.925     0.038     2.478     2.462
 127   7 N      2.692    -0.167    24.607     7.367
 128   6 C      3.794     0.033    20.023     6.372
 129   6 C      2.768     0.197    23.791     7.988
 130   8 O      0.856    -0.346    20.634     6.090
 131   6 C      3.809    -0.113    22.652     6.775
 132   6 C      2.745     0.291    22.071     7.692
 133   8 O      0.859    -0.505    23.896     6.554
 134   7 N      2.639    -0.277    27.160     7.740
 135   1 H      0.860     0.223     0.997     1.564
 136   1 H      0.924     0.107     1.725     2.054
 137   1 H      0.924     0.096     1.823     2.112
 138   1 H      0.925     0.099     1.799     2.097
 139   1 H      0.860     0.236     0.941     1.519
 140   1 H      0.860     0.220     1.010     1.574
 141   7 N      2.633    -0.399    30.341     8.181
 142   6 C      3.787     0.032    20.046     6.377
 143   6 C      2.757     0.271    22.428     7.755
 144   8 O      0.858    -0.526    24.373     6.619
 145   6 C      3.726     0.124    18.651     6.166
 146   8 O      1.653    -0.493    22.737     6.437
 147   6 C      3.753    -0.121    22.883     6.821
 148   1 H      0.860     0.181     1.210     1.723
 149   1 H      0.923     0.024     2.670     2.555
 150   1 H      0.923     0.002     3.020     2.718
 151   1 H      0.803     0.330     0.637     1.254
 152   1 H      0.925     0.056     2.247     2.344
 153   1 H      0.925     0.039     2.462     2.454
 154   1 H      0.925     0.058     2.226     2.333
 155   7 N      2.690    -0.170    24.670     7.377
 156   6 C      3.794     0.025    20.162     6.394
 157   6 C      2.766     0.206    23.617     7.959
 158   8 O      0.856    -0.379    21.273     6.184
 159   6 C      3.811    -0.073    21.883     6.659
 160   6 C      3.849    -0.012    20.758     6.480
 161   6 C      3.757    -0.119    22.831     6.812
 162   6 C      3.756    -0.122    22.895     6.822
 163   1 H      0.860     0.240     0.922     1.504
 164   1 H      0.924     0.101     1.774     2.083
 165   1 H      0.924     0.059     2.209     2.325
 166   1 H      0.924     0.056     2.242     2.341
 167   1 H      0.924     0.046     2.377     2.411
 168   1 H      0.925     0.052     2.297     2.370
 169   1 H      0.925     0.036     2.499     2.472
 170   1 H      0.925     0.045     2.377     2.411
 171   1 H      0.925     0.047     2.356     2.400
 172   1 H      0.925     0.036     2.503     2.474
 173   1 H      0.925     0.053     2.278     2.360
 174   7 N      2.636    -0.401    30.402     8.189
 175   6 C      3.786     0.025    20.160     6.395
 176   6 C      2.760     0.263    22.562     7.779
 177   8 O      0.859    -0.492    23.605     6.514
 178   6 C      3.808    -0.066    21.749     6.639
 179   6 C      3.805    -0.099    22.386     6.736
 180   6 C      2.745     0.288    22.113     7.700
 181   8 O      0.859    -0.487    23.506     6.500
 182   7 N      2.639    -0.286    27.391     7.773
 183   1 H      0.860     0.170     1.271     1.766
 184   1 H      0.923     0.043     2.415     2.430
 185   1 H      0.924     0.059     2.209     2.324
 186   1 H      0.924     0.058     2.219     2.330
 187   1 H      0.924     0.074     2.043     2.235
 188   1 H      0.924     0.066     2.127     2.280
 189   1 H      0.860     0.226     0.981     1.552
 190   1 H      0.860     0.216     1.029     1.589
 191   7 N      2.691    -0.172    24.726     7.385
 192   6 C      3.804     0.015    20.318     6.417
 193   6 C      2.760     0.286    22.151     7.707
 194   8 O      0.858    -0.486    23.474     6.496
 195   6 C      3.853    -0.020    20.889     6.500
 196   6 C      3.755    -0.115    22.750     6.801
 197   6 C      3.756    -0.124    22.939     6.829
 198   1 H      0.860     0.215     1.032     1.592
 199   1 H      0.923     0.084     1.941     2.179
 200   1 H      0.924     0.035     2.521     2.483
 201   1 H      0.925     0.066     2.133     2.284
 202   1 H      0.925     0.035     2.521     2.483
 203   1 H      0.925     0.051     2.306     2.375
 204   1 H      0.925     0.063     2.169     2.303
 205   1 H      0.925     0.061     2.183     2.310
 206   1 H      0.925     0.050     2.319     2.381
 207   7 N      2.693    -0.181    24.913     7.413
 208   6 C      3.801     0.032    20.029     6.372
 209   6 C      2.761     0.268    22.482     7.765
 210   8 O      0.858    -0.492    23.602     6.514
 211   6 C      3.801    -0.105    22.494     6.753
 212   6 C      2.681     0.369    20.736     7.452
 213   8 O      0.856    -0.630    26.874     6.950
 214   8 O      0.856    -0.603    26.199     6.863
 215   1 H      0.860     0.196     1.125     1.661
 216   1 H      0.923     0.087     1.905     2.158
 217   1 H      0.924     0.030     2.587     2.515
 218   1 H      0.924     0.037     2.489     2.467
 219   7 N      2.687    -0.178    24.863     7.406
 220   6 C      3.800     0.007    20.457     6.440
 221   6 C      2.754     0.286    22.154     7.707
 222   8 O      0.858    -0.509    23.995     6.568
 223   6 C      3.727     0.113    18.830     6.196
 224   8 O      1.655    -0.471    22.270     6.371
 225   6 C      3.752    -0.139    23.234     6.874
 226   1 H      0.860     0.204     1.083     1.631
 227   1 H      0.923     0.083     1.948     2.183
 228   1 H      0.924     0.057     2.234     2.337
 229   1 H      0.805     0.321     0.660     1.276
 230   1 H      0.925     0.070     2.081     2.256
 231   1 H      0.925     0.072     2.060     2.245
 232   1 H      0.925     0.043     2.413     2.429
 233   7 N      2.692    -0.180    24.909     7.412
 234   6 C      3.796     0.029    20.099     6.384
 235   6 C      2.759     0.269    22.455     7.760
 236   8 O      0.859    -0.513    24.076     6.579
 237   6 C      3.811    -0.078    21.975     6.673
 238   6 C      3.850    -0.012    20.764     6.481
 239   6 C      3.757    -0.117    22.796     6.807
 240   6 C      3.755    -0.119    22.840     6.815
 241   1 H      0.860     0.216     1.029     1.589
 242   1 H      0.924     0.071     2.077     2.254
 243   1 H      0.924     0.064     2.148     2.292
 244   1 H      0.924     0.060     2.203     2.321
 245   1 H      0.924     0.037     2.484     2.465
 246   1 H      0.925     0.054     2.273     2.358
 247   1 H      0.925     0.039     2.457     2.451
 248   1 H      0.925     0.053     2.282     2.362
 249   1 H      0.925     0.054     2.273     2.358
 250   1 H      0.925     0.054     2.276     2.359
 251   1 H      0.925     0.021     2.723     2.580
 252   7 N      2.690    -0.184    24.987     7.424
 253   6 C      3.800     0.023    20.187     6.397
 254   6 C      2.760     0.283    22.203     7.716
 255   8 O      0.858    -0.492    23.612     6.515
 256   6 C      3.805    -0.085    22.113     6.694
 257   6 C      3.802    -0.084    22.100     6.693
 258   6 C      3.737    -0.022    21.058     6.548
 259   7 N      2.701    -0.138    23.995     7.275
 260   6 C      2.735     0.238    23.017     7.855
 261   7 N      2.648    -0.238    26.225     7.606
 262   7 N      2.656    -0.253    26.586     7.658
 263   1 H      0.860     0.232     0.957     1.532
 264   1 H      0.923     0.078     1.996     2.210
 265   1 H      0.924     0.080     1.983     2.202
 266   1 H      0.924     0.061     2.182     2.310
 267   1 H      0.924     0.061     2.191     2.315
 268   1 H      0.924     0.087     1.913     2.163
 269   1 H      0.924     0.076     2.024     2.225
 270   1 H      0.924     0.092     1.858     2.131
 271   1 H      0.860     0.242     0.914     1.498
 272   1 H      0.860     0.220     1.007     1.572
 273   1 H      0.860     0.236     0.938     1.517
 274   1 H      0.860     0.259     0.850     1.444
 275   1 H      0.860     0.255     0.864     1.456
 276   7 N      2.690    -0.186    25.033     7.431
 277   6 C      3.795     0.012    20.374     6.427
 278   6 C      2.759     0.284    22.193     7.715
 279   8 O      0.859    -0.506    23.916     6.557
 280   6 C      3.678     0.069    19.638     6.348
 281   8 O      1.656    -0.446    21.753     6.296
 282   1 H      0.860     0.225     0.989     1.558
 283   1 H      0.923     0.081     1.966     2.193
 284   1 H      0.924     0.040     2.449     2.448
 285   1 H      0.924     0.089     1.884     2.147
 286   1 H      0.805     0.302     0.716     1.329
 287   7 N      2.691    -0.179    24.866     7.406
 288   6 C      3.803     0.048    19.762     6.329
 289   6 C      2.760     0.280    22.264     7.727
 290   8 O      0.858    -0.515    24.121     6.585
 291   6 C      3.803    -0.101    22.425     6.742
 292   6 C      2.681     0.375    20.646     7.436
 293   8 O      0.856    -0.643    27.197     6.992
 294   8 O      0.856    -0.616    26.524     6.905
 295   1 H      0.860     0.196     1.127     1.663
 296   1 H      0.923     0.046     2.367     2.406
 297   1 H      0.924     0.047     2.355     2.400
 298   1 H      0.924     0.027     2.626     2.534
 299   7 N      2.693    -0.171    24.705     7.382
 300   6 C      3.792     0.037    19.956     6.362
 301   6 C      2.766     0.212    23.513     7.941
 302   8 O      0.856    -0.368    21.058     6.152
 303   6 C      3.810    -0.078    21.986     6.674
 304   6 C      3.849    -0.009    20.709     6.473
 305   6 C      3.757    -0.119    22.826     6.812
 306   6 C      3.756    -0.119    22.842     6.815
 307   1 H      0.860     0.217     1.023     1.584
 308   1 H      0.923     0.077     2.011     2.218
 309   1 H      0.924     0.072     2.068     2.249
 310   1 H      0.924     0.069     2.096     2.264
 311   1 H      0.924     0.028     2.611     2.527
 312   1 H      0.925     0.056     2.241     2.341
 313   1 H      0.925     0.039     2.462     2.454
 314   1 H      0.925     0.057     2.235     2.338
 315   1 H      0.925     0.053     2.289     2.366
 316   1 H      0.925     0.054     2.265     2.353
 317   1 H      0.925     0.026     2.642     2.542
 318   1 H      0.862     0.173     1.253     1.754
 319   1 H      0.930     0.078     1.999     2.211
 320   1 H      0.862     0.182     1.200     1.716
 321   1 H      0.930     0.073     2.050     2.239
 322   1 H      0.862     0.186     1.177     1.699
 323   1 H      0.930     0.073     2.047     2.237
 324   1 H      0.862     0.183     1.197     1.714
 325   1 H      0.930     0.070     2.088     2.260
 326   1 H      0.862     0.187     1.177     1.699
 327   1 H      0.930     0.088     1.899     2.155
 328   1 H      0.862     0.176     1.239     1.743
 329   1 H      0.930     0.065     2.139     2.287
 330   1 H      0.862     0.180     1.213     1.725
 331   1 H      0.930     0.067     2.115     2.274

 Mol. C6AA /au·bohr⁶  :     936556.126587
 Mol. C8AA /au·bohr⁸  :   20382612.408103
 Mol. α(0) /au        :       1438.155158


Wiberg/Mayer (AO) data.
largest (>0.10) Wiberg bond orders for each atom
          total WBO             WBO to atom ...
     1  N   2.999        C    2 1.016    H  318 0.959    H    9 0.952
     2  C   3.985        N    1 1.016    C    3 0.980    C    5 0.960    H   10 0.944
     3  C   3.895        O    4 1.888    C    2 0.980    H  319 0.953
     4  O   2.031        C    3 1.888
     5  C   3.990        C    6 0.990    H   11 0.972    H   12 0.972    C    2 0.960
     6  C   3.995        C    8 1.011    C    7 1.006    C    5 0.990    H   13 0.965
     7  C   3.993        C    6 1.006    H   16 0.986    H   15 0.985    H   14 0.985
     8  C   3.995        C    6 1.011    H   18 0.981    H   17 0.980    H   19 0.979
     9  H   0.972        N    1 0.952
    10  H   0.997        C    2 0.944
    11  H   0.997        C    5 0.972
    12  H   0.998        C    5 0.972
    13  H   0.998        C    6 0.965
    14  H   0.997        C    7 0.985
    15  H   0.999        C    7 0.985
    16  H   0.999        C    7 0.986
    17  H   0.998        C    8 0.980
    18  H   0.999        C    8 0.981
    19  H   0.998        C    8 0.979
    20  N   3.004        C   21 1.010    H  320 0.956    H   28 0.952
    21  C   3.982        N   20 1.010    C   22 0.971    H   29 0.960    C   24 0.952
    22  C   3.885        O   23 1.887    C   21 0.971    H  321 0.954
    23  O   2.024        C   22 1.887
    24  C   3.990        C   26 1.009    C   25 0.994    H   30 0.958    C   21 0.952
    25  C   3.996        C   27 1.018    C   24 0.994    H   31 0.977    H   32 0.973
    26  C   3.995        C   24 1.009    H   35 0.986    H   34 0.982    H   33 0.981
    27  C   3.995        C   25 1.018    H   36 0.984    H   37 0.982    H   38 0.982
    28  H   0.975        N   20 0.952
    29  H   0.998        C   21 0.960
    30  H   0.997        C   24 0.958
    31  H   0.998        C   25 0.977
    32  H   0.999        C   25 0.973
    33  H   0.997        C   26 0.981
    34  H   0.999        C   26 0.982
    35  H   0.998        C   26 0.986
    36  H   0.998        C   27 0.984
    37  H   0.999        C   27 0.982
    38  H   0.998        C   27 0.982
    39  N   2.992        C   40 1.014    H  322 0.955    H   45 0.951
    40  C   3.985        N   39 1.014    C   41 0.974    H   46 0.956    C   43 0.948
    41  C   3.890        O   42 1.896    C   40 0.974    H  323 0.953
    42  O   2.037        C   41 1.896
    43  C   3.955        O   44 1.010    H   48 0.970    H   47 0.962    C   40 0.948
    44  O   1.954        C   43 1.010    H   49 0.856
    45  H   0.970        N   39 0.951
    46  H   0.998        C   40 0.956
    47  H   0.997        C   43 0.962
    48  H   0.996        C   43 0.970
    49  H   0.893        O   44 0.856
    50  N   2.999        C   51 1.025    H   58 0.957    H  324 0.951
    51  C   3.984        N   50 1.025    C   52 1.000    C   54 0.958    H   59 0.912
    52  C   3.893        O   53 1.847    C   51 1.000    H  325 0.955
    53  O   2.031        C   52 1.847
    54  C   3.992        C   55 0.995    H   61 0.970    H   60 0.969    C   51 0.958
    55  C   3.996        C   57 1.010    C   56 1.006    C   54 0.995    H   62 0.966
    56  C   3.996        C   55 1.006    H   64 0.987    H   63 0.985    H   65 0.984
    57  C   3.995        C   55 1.010    H   66 0.983    H   68 0.981    H   67 0.980
    58  H   0.975        N   50 0.957
    59  H   0.991        C   51 0.912
    60  H   0.998        C   54 0.969
    61  H   0.998        C   54 0.970
    62  H   0.999        C   55 0.966
    63  H   0.997        C   56 0.985
    64  H   0.999        C   56 0.987
    65  H   0.998        C   56 0.984
    66  H   0.998        C   57 0.983
    67  H   0.998        C   57 0.980
    68  H   0.999        C   57 0.981
    69  N   2.993        C   70 1.024    H   78 0.957    H  326 0.947
    70  C   3.986        N   69 1.024    C   73 0.960    H   79 0.950    C   71 0.948
    71  C   3.941        O   72 1.644    N   91 1.276    C   70 0.948
    72  O   1.962        C   71 1.644    N   91 0.189
    73  C   3.994        C   74 1.004    H   80 0.974    H   81 0.974    C   70 0.960
    74  C   3.993        C   73 1.004    C   75 1.004    H   82 0.974    H   83 0.966
    75  C   3.987        C   76 1.010    C   74 1.004    H   85 0.970    H   84 0.968
    76  C   3.917        C   75 1.010    H   87 0.966    H   86 0.966    N   77 0.959
    77  N   3.663        C   76 0.959    H   90 0.898    H   88 0.897    H   89 0.888
    78  H   0.977        N   69 0.957
    79  H   0.996        C   70 0.950
    80  H   0.998        C   73 0.974
    81  H   0.998        C   73 0.974
    82  H   0.998        C   74 0.974
    83  H   0.996        C   74 0.966
    84  H   0.994        C   75 0.968
    85  H   0.994        C   75 0.970
    86  H   0.988        C   76 0.966
    87  H   0.987        C   76 0.966
    88  H   0.909        N   77 0.897
    89  H   0.908        N   77 0.888
    90  H   0.912        N   77 0.898
    91  N   3.450        C   71 1.276    C   92 0.978    H  100 0.921    O   72 0.189
    92  C   3.966        C   95 0.988    N   91 0.978    H  101 0.942    C   93 0.927
    93  C   3.946        O   94 1.596    N  108 1.332    C   92 0.927
    94  O   1.966        C   93 1.596    N  108 0.199
    95  C   3.988        C   96 0.993    C   92 0.988    H  103 0.971    H  102 0.970
    96  C   3.993        C   95 0.993    H  104 0.970    C   97 0.969    H  105 0.957
    97  C   3.944        O   98 1.621    N   99 1.323    C   96 0.969
    98  O   1.960        C   97 1.621    N   99 0.194
    99  N   3.399        C   97 1.323    H  106 0.924    H  107 0.923    O   98 0.194
   100  H   0.953        N   91 0.921
   101  H   0.993        C   92 0.942
   102  H   0.993        C   95 0.970
   103  H   0.995        C   95 0.971
   104  H   0.996        C   96 0.970
   105  H   0.994        C   96 0.957
   106  H   0.944        N   99 0.924
   107  H   0.945        N   99 0.923
   108  N   3.505        C   93 1.332    C  109 0.974    H  116 0.909    O   94 0.199
   109  C   3.958        N  108 0.974    C  112 0.960    H  117 0.948    C  110 0.934
   110  C   3.950        O  111 1.618    N  127 1.315    C  109 0.934
   111  O   1.962        C  110 1.618    N  127 0.198
   112  C   3.988        C  114 1.007    C  113 0.994    C  109 0.960    H  118 0.959
   113  C   3.995        C  115 1.020    C  112 0.994    H  119 0.976    H  120 0.972
   114  C   3.993        C  112 1.007    H  122 0.983    H  121 0.982    H  123 0.979
   115  C   3.994        C  113 1.020    H  125 0.984    H  126 0.983    H  124 0.982
   116  H   0.953        N  108 0.909
   117  H   0.993        C  109 0.948
   118  H   0.997        C  112 0.959
   119  H   0.999        C  113 0.976
   120  H   0.997        C  113 0.972
   121  H   0.996        C  114 0.982
   122  H   0.999        C  114 0.983
   123  H   0.997        C  114 0.979
   124  H   0.998        C  115 0.982
   125  H   0.998        C  115 0.984
   126  H   0.998        C  115 0.983
   127  N   3.487        C  110 1.315    C  128 0.993    H  135 0.897    O  111 0.198
   128  C   3.973        N  127 0.993    C  129 0.990    C  131 0.952    H  136 0.924
   129  C   3.906        O  130 1.880    C  128 0.990    H  327 0.952
   130  O   2.077        C  129 1.880
   131  C   3.984        C  132 0.970    H  138 0.957    C  128 0.952    H  137 0.951
   132  C   3.947        O  133 1.608    N  134 1.338    C  131 0.970
   133  O   1.952        C  132 1.608    N  134 0.200
   134  N   3.423        C  132 1.338    H  140 0.930    H  139 0.890    O  133 0.200
   135  H   0.950        N  127 0.897
   136  H   0.988        C  128 0.924
   137  H   0.990        C  131 0.951
   138  H   0.990        C  131 0.957
   139  H   0.944        N  134 0.890
   140  H   0.952        N  134 0.930
   141  N   2.995        C  142 1.023    H  328 0.958    H  148 0.926
   142  C   3.986        N  141 1.023    H  149 0.961    C  145 0.959    C  143 0.934
   143  C   3.945        O  144 1.612    N  155 1.322    C  142 0.934
   144  O   1.921        C  143 1.612    N  155 0.197
   145  C   3.960        C  147 0.998    O  146 0.987    H  150 0.962    C  142 0.959
   146  O   1.931        C  145 0.987    H  151 0.830
   147  C   3.993        C  145 0.998    H  153 0.985    H  154 0.980    H  152 0.980
   148  H   0.967        N  141 0.926
   149  H   0.999        C  142 0.961
   150  H   1.000        C  145 0.962
   151  H   0.891        O  146 0.830
   152  H   0.996        C  147 0.980
   153  H   0.998        C  147 0.985
   154  H   0.997        C  147 0.980
   155  N   3.482        C  143 1.322    C  156 0.982    H  163 0.890    O  144 0.197
   156  C   3.962        N  155 0.982    C  157 0.976    C  159 0.962    H  164 0.932
   157  C   3.896        O  158 1.884    C  156 0.976    H  329 0.954
   158  O   2.028        C  157 1.884
   159  C   3.984        C  160 0.988    H  166 0.972    H  165 0.971    C  156 0.962
   160  C   3.993        C  162 1.011    C  161 1.006    C  159 0.988    H  167 0.962
   161  C   3.993        C  160 1.006    H  169 0.986    H  170 0.986    H  168 0.984
   162  C   3.994        C  160 1.011    H  172 0.986    H  171 0.980    H  173 0.977
   163  H   0.942        N  155 0.890
   164  H   0.990        C  156 0.932
   165  H   0.996        C  159 0.971
   166  H   0.996        C  159 0.972
   167  H   0.998        C  160 0.962
   168  H   0.996        C  161 0.984
   169  H   0.999        C  161 0.986
   170  H   0.998        C  161 0.986
   171  H   0.997        C  162 0.980
   172  H   0.998        C  162 0.986
   173  H   0.997        C  162 0.977
   174  N   2.991        C  175 1.010    H  330 0.957    H  183 0.948
   175  C   3.983        N  174 1.010    C  178 0.982    H  184 0.964    C  176 0.933
   176  C   3.941        O  177 1.616    N  191 1.312    C  175 0.933
   177  O   1.968        C  176 1.616    N  191 0.195
   178  C   3.991        C  179 1.007    C  175 0.982    H  186 0.974    H  185 0.968
   179  C   3.995        C  178 1.007    C  180 0.965    H  188 0.958    H  187 0.957
   180  C   3.942        O  181 1.648    N  182 1.299    C  179 0.965
   181  O   1.966        C  180 1.648    N  182 0.198
   182  N   3.392        C  180 1.299    H  190 0.931    H  189 0.931    O  181 0.198
   183  H   0.971        N  174 0.948
   184  H   0.998        C  175 0.964
   185  H   0.996        C  178 0.968
   186  H   0.997        C  178 0.974
   187  H   0.994        C  179 0.957
   188  H   0.995        C  179 0.958
   189  H   0.949        N  182 0.931
   190  H   0.953        N  182 0.931
   191  N   3.473        C  176 1.312    C  192 0.976    H  198 0.913    O  177 0.195
   192  C   3.959        N  191 0.976    C  195 0.963    H  199 0.949    C  193 0.941
   193  C   3.942        O  194 1.604    N  207 1.296    C  192 0.941
   194  O   1.961        C  193 1.604    N  207 0.183
   195  C   3.987        C  197 1.007    C  196 1.006    H  200 0.965    C  192 0.963
   196  C   3.992        C  195 1.006    H  202 0.985    H  201 0.982    H  203 0.979
   197  C   3.990        C  195 1.007    H  205 0.983    H  204 0.981    H  206 0.980
   198  H   0.954        N  191 0.913
   199  H   0.993        C  192 0.949
   200  H   0.999        C  195 0.965
   201  H   0.995        C  196 0.982
   202  H   0.999        C  196 0.985
   203  H   0.997        C  196 0.979
   204  H   0.995        C  197 0.981
   205  H   0.996        C  197 0.983
   206  H   0.997        C  197 0.980
   207  N   3.467        C  193 1.296    C  208 0.981    H  215 0.925    O  194 0.183
   208  C   3.963        N  207 0.981    C  211 0.980    C  209 0.943    H  216 0.937
   209  C   3.944        O  210 1.611    N  219 1.288    C  208 0.943
   210  O   1.952        C  209 1.611    N  219 0.188
   211  C   3.971        C  208 0.980    H  217 0.974    H  218 0.965    C  212 0.884
   212  C   3.942        O  213 1.520    O  214 1.514    C  211 0.884
   213  O   1.821        C  212 1.520    O  214 0.224
   214  O   1.827        C  212 1.514    O  213 0.224
   215  H   0.961        N  207 0.925
   216  H   0.992        C  208 0.937
   217  H   0.999        C  211 0.974
   218  H   0.998        C  211 0.965
   219  N   3.468        C  209 1.288    C  220 0.988    H  226 0.921    O  210 0.188
   220  C   3.961        N  219 0.988    C  223 0.951    H  227 0.941    C  221 0.933
   221  C   3.947        O  222 1.623    N  233 1.306    C  220 0.933
   222  O   1.953        C  221 1.623    N  233 0.194
   223  C   3.952        C  225 1.000    O  224 0.999    H  228 0.959    C  220 0.951
   224  O   1.952        C  223 0.999    H  229 0.873
   225  C   3.988        C  223 1.000    H  230 0.983    H  232 0.982    H  231 0.969
   226  H   0.958        N  219 0.921
   227  H   0.993        C  220 0.941
   228  H   0.996        C  223 0.959
   229  H   0.897        O  224 0.873
   230  H   0.995        C  225 0.983
   231  H   0.995        C  225 0.969
   232  H   0.998        C  225 0.982
   233  N   3.472        C  221 1.306    C  234 0.974    H  241 0.906    O  222 0.194
   234  C   3.956        N  233 0.974    C  237 0.973    H  242 0.949    C  235 0.936
   235  C   3.944        O  236 1.593    N  252 1.326    C  234 0.936
   236  O   1.945        C  235 1.593    N  252 0.195
   237  C   3.982        C  238 0.991    C  234 0.973    H  244 0.972    H  243 0.968
   238  C   3.990        C  240 1.010    C  239 1.005    C  237 0.991    H  245 0.963
   239  C   3.993        C  238 1.005    H  247 0.984    H  246 0.984    H  248 0.981
   240  C   3.994        C  238 1.010    H  249 0.984    H  251 0.984    H  250 0.982
   241  H   0.953        N  233 0.906
   242  H   0.994        C  234 0.949
   243  H   0.996        C  237 0.968
   244  H   0.996        C  237 0.972
   245  H   0.999        C  238 0.963
   246  H   0.996        C  239 0.984
   247  H   0.998        C  239 0.984
   248  H   0.997        C  239 0.981
   249  H   0.997        C  240 0.984
   250  H   0.997        C  240 0.982
   251  H   1.000        C  240 0.984
   252  N   3.473        C  235 1.326    C  253 0.976    H  263 0.883    O  236 0.195
   253  C   3.960        C  256 0.979    N  252 0.976    H  264 0.948    C  254 0.936
   254  C   3.941        O  255 1.624    N  276 1.295    C  253 0.936
   255  O   1.952        C  254 1.624    N  276 0.191
   256  C   3.983        C  257 1.005    C  253 0.979    H  265 0.969    H  266 0.965
   257  C   3.987        C  258 1.005    C  256 1.005    H  267 0.969    H  268 0.968
   258  C   3.960        C  257 1.005    N  259 0.989    H  269 0.958    H  270 0.957
   259  N   3.469        C  260 1.319    C  258 0.989    H  271 0.907    N  262 0.105
   260  C   3.976        N  262 1.326    N  259 1.319    N  261 1.298
   261  N   3.371        C  260 1.298    H  273 0.920    H  272 0.918
   262  N   3.394        C  260 1.326    H  275 0.916    H  274 0.912    N  259 0.105
   263  H   0.946        N  252 0.883
   264  H   0.993        C  253 0.948
   265  H   0.993        C  256 0.969
   266  H   0.996        C  256 0.965
   267  H   0.996        C  257 0.969
   268  H   0.992        C  257 0.968
   269  H   0.994        C  258 0.958
   270  H   0.991        C  258 0.957
   271  H   0.941        N  259 0.907
   272  H   0.951        N  261 0.918
   273  H   0.944        N  261 0.920
   274  H   0.933        N  262 0.912
   275  H   0.934        N  262 0.916
   276  N   3.461        C  254 1.295    C  277 0.992    H  282 0.895    O  255 0.191
   277  C   3.974        N  276 0.992    C  280 0.961    H  283 0.949    C  278 0.940
   278  C   3.945        O  279 1.621    N  287 1.304    C  277 0.940
   279  O   1.938        C  278 1.621    N  287 0.196
   280  C   3.951        O  281 1.012    H  284 0.969    H  285 0.963    C  277 0.961
   281  O   1.975        C  280 1.012    H  286 0.889
   282  H   0.949        N  276 0.895
   283  H   0.993        C  277 0.949
   284  H   0.998        C  280 0.969
   285  H   0.992        C  280 0.963
   286  H   0.909        O  281 0.889
   287  N   3.476        C  278 1.304    C  288 0.973    H  295 0.916    O  279 0.196
   288  C   3.963        C  291 0.985    N  287 0.973    H  296 0.954    C  289 0.936
   289  C   3.951        O  290 1.615    N  299 1.313    C  288 0.936
   290  O   1.928        C  289 1.615    N  299 0.195
   291  C   3.975        C  288 0.985    H  297 0.971    H  298 0.966    C  292 0.890
   292  C   3.938        O  294 1.512    O  293 1.511    C  291 0.890
   293  O   1.808        C  292 1.511    O  294 0.220
   294  O   1.814        C  292 1.512    O  293 0.220
   295  H   0.962        N  287 0.916
   296  H   0.997        C  288 0.954
   297  H   0.998        C  291 0.971
   298  H   0.999        C  291 0.966
   299  N   3.477        C  289 1.313    C  300 0.970    H  307 0.905    O  290 0.195
   300  C   3.956        C  301 0.973    N  299 0.970    C  303 0.965    H  308 0.944
   301  C   3.897        O  302 1.894    C  300 0.973    H  331 0.955
   302  O   2.032        C  301 1.894
   303  C   3.977        C  304 0.989    H  310 0.970    H  309 0.966    C  300 0.965
   304  C   3.992        C  306 1.010    C  305 1.006    C  303 0.989    H  311 0.964
   305  C   3.992        C  304 1.006    H  314 0.985    H  312 0.984    H  313 0.982
   306  C   3.994        C  304 1.010    H  316 0.985    H  315 0.985    H  317 0.982
   307  H   0.953        N  299 0.905
   308  H   0.994        C  300 0.944
   309  H   0.995        C  303 0.966
   310  H   0.995        C  303 0.970
   311  H   0.999        C  304 0.964
   312  H   0.996        C  305 0.984
   313  H   0.998        C  305 0.982
   314  H   0.997        C  305 0.985
   315  H   0.997        C  306 0.985
   316  H   0.997        C  306 0.985
   317  H   0.999        C  306 0.982
   318  H   0.970        N    1 0.959
   319  H   0.994        C    3 0.953
   320  H   0.967        N   20 0.956
   321  H   0.995        C   22 0.954
   322  H   0.965        N   39 0.955
   323  H   0.995        C   41 0.953
   324  H   0.967        N   50 0.951
   325  H   0.995        C   52 0.955
   326  H   0.965        N   69 0.947
   327  H   0.992        C  129 0.952
   328  H   0.969        N  141 0.958
   329  H   0.996        C  157 0.954
   330  H   0.967        N  174 0.957
   331  H   0.995        C  301 0.955
 
molecular dipole:
                 x           y           z       tot (Debye)
 q only:       21.594      -0.377       7.621
   full:       21.898      -1.812       6.778      58.448
molecular quadrupole (traceless):
                xx          xy          yy          xz          yz          zz
 q only:     9670.191    3475.064   -7060.996   10258.744    1101.095   -2609.195
  q+dip:    10185.743    2952.421   -7310.044   10036.072     504.341   -2875.698
   full:    10186.271    2952.611   -7304.577   10037.249     502.654   -2881.694


           -------------------------------------------------
          | TOTAL ENERGY             -493.409876221117 Eh   |
          | GRADIENT NORM               0.589200806402 Eh/α |
          | HOMO-LUMO GAP               1.726643366776 eV   |
           -------------------------------------------------

------------------------------------------------------------------------
 * finished run on 2019/05/31 at 05:35:31.490     
------------------------------------------------------------------------
 total:
 * wall-time:     0 d,  0 h,  0 min,  3.464 sec
 *  cpu-time:     0 d,  0 h,  0 min,  6.440 sec
 * ratio c/w:     1.859 speedup
 SCF:
 * wall-time:     0 d,  0 h,  0 min,  3.036 sec
 *  cpu-time:     0 d,  0 h,  0 min,  5.889 sec
 * ratio c/w:     1.939 speedup

