      -----------------------------------------------------------      
     |                   =====================                   |     
     |                           x T B                           |     
     |                   =====================                   |     
     |                         S. Grimme                         |     
     |          Mulliken Center for Theoretical Chemistry        |     
     |                    University of Bonn                     |     
     |                 Version 6.0.1 (SAW181210)                 |     
      -----------------------------------------------------------      

   This program is distributed in the hope that it will be useful,
   but WITHOUT ANY WARRANTY; without even the implied warranty of
   MERCHANTABILITY or FITNESS FOR A PARTICULAR PURPOSE.
   
   FOR NON-COMMERCIAL, ACADEMIA USE ONLY.
   
   Cite this work as:
   S. Grimme, C. Bannwarth, P. Shushkov, J. Comput. Theory Chem., 2017,
   13, 1989-2009.
   C. Bannwarth, S. Ehlert and S. Grimme., ChemRxiv, 2018, preprint.
   http://doi.org/10.26434/chemrxiv.7246238.v1
   
   for sTDA-xTB:
   S. Grimme and C. Bannwarth, J. Chem. Phys., 2016, 145, 054103.
   
   in the mass-spec context:
   V. Asgeirsson, C. Bauer and S. Grimme, Chem. Sci., 2017, 8, 4879.
   
   if GBSA is used:
   P. Shushkov, F. März and S. Grimme, unpublished.
   
   for ANC optimizer:
   S. Grimme, unpublished.
   Rational Function algorithm used in ANCopt:
   F. Eckert, P. Pulay, H.-J. Werner, J. Comput. Chem., 1997, 18, 1473.
   
   with help from (in alphabetical order)
   C. Bannwarth, F. Bohle, G. Brandenburg, E. Caldeweyher, M. Checinski,
   S. Dohm, S. Ehlert, S. Ehrlich, F. März, H. Neugebauer, J. Pisarek,
   P. Pracht, P. Shushkov, and S. Spicher.
   
 * started run on 2019/02/13 at 00:18:59.908     
========================================================================
 # omp threads = 16
========================================================================
number of atoms            : 50
number of electrons        : 142
charge                     : 0
spin                       : .0
first test random number   : .9966

########################################################################
# WARNING! Please study the warnings concerning your input carefully
#  - Process number higher than OMP_NUM_THREADS, I hope you know what you are doing.
########################################################################

           ------------------------------------------------- 
          |                 G F N 2 - x T B                 |
          | Geometry, Frequencies, Noncovalent interactions |
          |            JCTC 2018 parametrisation            |
           ------------------------------------------------- 
 
      method parameters     
 k(s)        :  1.8500
 k(p)        :  2.2300
 k(d)        :  2.2300
 k(f)        :  2.0000
 kEN (H0ij)  : -2.0000
 D4 a1       :  0.5200
 D4 a2       :  5.0000
 D4 s6       :  1.0000
 D4 s8       :  2.7000
 D4 s9       :  5.0000
 alphaj      :  2.0000

 Solvent             : h2o
 Using internal parameter file: .param_gbsa2_h2o
 Gsolv ref. state (COSMO-RS): gsolv [1 M gas/solution]
 temperature (mdtemp)       :    298.150000000000     
 dielectric constant        :    80.2000000000000     
 rho                        :    1.00000000000000     
 mass                       :    18.0000000000000     
 surface tension            :    15.5689454083859     
 probe radius               :   0.975313790000000     
 vdW radii scaling          :    1.00000000000000     
 Gshift (Eh)                :   1.857443126794793E-003
 c1                         :    1.55243817000000     
 soset                      :   0.130326360000000     
 HB correction              :  T

            Z     q(EN)     CN     RAES       Cart. coordinates
     1  N   5.0   -0.17    3.29    1.98   361.19386   140.44518   208.56584
     2  C   4.0    0.03    4.31    4.21   361.29394   141.55897   211.06253
     3  C   4.0    0.15    3.40    3.08   363.52200   143.42504   211.12844
     4  O   6.0   -0.27    1.28    1.80   364.68061   143.91898   209.18418
     5  C   4.0   -0.04    4.26    4.13   361.29870   139.51997   213.14442
     6  C   4.0    0.15    3.28    3.05   359.64775   137.30554   212.28632
     7  O   6.0   -0.27    1.19    1.80   360.52131   135.34473   211.40077
     8  N   5.0   -0.18    3.19    1.95   357.16502   137.64463   212.60707
     9  H   1.0    0.11    1.02    1.43   362.63232   139.31992   207.98437
    10  H   1.0    0.05    1.05    1.44   359.55066   142.69070   211.18605
    11  H   1.0    0.06    1.03    1.43   363.21112   138.81514   213.43080
    12  H   1.0    0.04    1.03    1.43   360.53800   140.27036   214.90211
    13  H   1.0    0.10    1.03    1.43   355.96984   136.28583   212.00064
    14  H   1.0    0.08    1.03    1.43   356.44136   139.33537   213.09352
    15  N   5.0   -0.15    3.44    2.04   364.02135   144.57533   213.34347
    16  C   4.0    0.04    4.39    4.36   365.38564   146.95950   213.36724
    17  C   4.0    0.16    3.41    3.08   368.02320   146.93635   212.15844
    18  O   6.0   -0.28    1.24    1.80   368.95801   148.97578   211.57066
    19  C   4.0   -0.05    4.24    4.07   365.50735   148.14035   216.03736
    20  C   4.0   -0.05    4.18    3.97   365.40349   146.30988   218.27556
    21  C   4.0   -0.04    4.17    3.94   367.48491   144.30200   218.23479
    22  C   4.0   -0.03    4.12    3.84   367.03291   142.19275   220.14481
    23  N   5.0   -0.12    4.02    2.91   367.09914   143.17215   222.78672
    24  H   1.0    0.07    1.07    1.44   362.80400   144.30783   214.78810
    25  H   1.0    0.06    1.06    1.44   364.37343   148.29574   212.13250
    26  H   1.0    0.06    1.03    1.43   367.24374   149.24971   216.11224
    27  H   1.0    0.05    1.03    1.43   363.93447   149.45946   216.22515
    28  H   1.0    0.04    1.03    1.43   365.58003   147.49514   219.95321
    29  H   1.0    0.04    1.03    1.43   363.55511   145.39556   218.33320
    30  H   1.0    0.05    1.04    1.43   367.57538   143.42847   216.37325
    31  H   1.0    0.05    1.02    1.43   369.32150   145.18062   218.55248
    32  H   1.0    0.04    1.02    1.43   365.19520   141.31997   219.80467
    33  H   1.0    0.05    1.02    1.43   368.49311   140.75748   219.91299
    34  H   1.0    0.06    1.02    1.43   366.86795   141.71290   224.05302
    35  H   1.0    0.06    1.02    1.43   368.80703   144.03897   223.13264
    36  H   1.0    0.06    1.02    1.43   365.67226   144.47207   223.03253
    37  N   5.0   -0.13    3.49    2.07   369.25560   144.75340   211.86939
    38  C   4.0    0.05    4.36    4.30   371.76387   144.62755   210.80303
    39  C   4.0    0.11    3.24    3.04   371.84053   143.22924   208.28001
    40  O   6.0   -0.26    1.13    1.80   373.87359   142.66899   207.29292
    41  C   4.0   -0.02    4.28    4.16   373.57315   143.31642   212.63302
    42  C   4.0    0.26    3.14    3.03   372.57087   140.64880   213.35916
    43  O   6.0   -0.27    1.26    1.80   370.69190   139.85788   212.14858
    44  O   6.0   -0.27    1.16    1.80   373.65540   139.53134   215.10805
    45  H   1.0    0.11    1.09    1.44   368.52809   143.04166   212.31702
    46  H   1.0    0.07    1.06    1.44   372.38866   146.57455   210.45203
    47  H   1.0    0.07    1.03    1.43   375.40788   143.03372   211.73093
    48  H   1.0    0.05    1.02    1.43   373.86106   144.41590   214.35176
    49  H   1.0    0.10    1.09    1.44   359.81120   139.46320   208.43726
    50  H   1.0    0.08    1.04    1.44   370.22968   142.75855   207.41128

  Z AO/shell   Hii/eV     exponent
  1     Wed Apr 25 08:07:45 CEST 2018   EN: 2.200 GM2: 0.406  GM3: 0.0800  RAES: 1.40
     1s    -10.707211    1.230000
  6     Wed Apr 25 08:07:45 CEST 2018   EN: 2.550 GM2: 0.538  GM3: 0.1500  RAES: 3.00
     2s    -13.970922    2.096432
     2p    -10.063292    1.800000
  7     Wed Apr 25 08:07:45 CEST 2018   EN: 3.040 GM2: 0.461  GM3:-0.0640  RAES: 1.90
     2s    -16.686243    2.339881
     2p    -12.523956    2.014332
  8     Wed Apr 25 08:07:45 CEST 2018   EN: 3.440 GM2: 0.452  GM3:-0.0517  RAES: 1.80
     2s    -20.229985    2.439742
     2p    -15.503117    2.137023
 no old-style atom pair restraining (fixing) potential
           ------------------------------------------------- 
          |        Self-Consistent Charge Iterations        |
           ------------------------------------------------- 

 Ncao       : 125
 Nao        : 125
 Nshell     : 75
 Nel        : 142
 T(el)      :   500.0
 intcut     :    35.0
 scfconv/Eh :  0.100E-06
   qconv/e  :  0.100E-04
 intneglect :  0.100E-08
 broydamp   :      0.400
 iter      E             dE          RMSdq      gap      omega  full diag
   1    -82.3938795 -0.823939E+02  0.512E+00    3.69       0.0  T
   2    -82.6343196 -0.240440E+00  0.234E+00    2.49       1.0  T
   3    -82.6492203 -0.149008E-01  0.132E+00    2.70       1.0  T
   4    -82.6613171 -0.120967E-01  0.291E-01    2.18       1.0  T
   5    -82.6622885 -0.971422E-03  0.136E-01    2.34       1.0  T
   6    -82.6624114 -0.122924E-03  0.511E-02    2.32       1.0  T
   7    -82.6624403 -0.289122E-04  0.181E-02    2.33       1.0  T
   8    -82.6624420 -0.165079E-05  0.745E-03    2.34       1.9  T
   9    -82.6624427 -0.764341E-06  0.259E-03    2.34       5.5  T
  10    -82.6624428 -0.318475E-07  0.818E-04    2.34      17.3  T
  11    -82.6624428 -0.675618E-08  0.342E-04    2.34      41.3  T
  12    -82.6624428 -0.929958E-09  0.115E-04    2.34     123.3  T
  13    -82.6624428 -0.103000E-09  0.492E-05    2.34     287.5  T
  14    -82.6624428 -0.120508E-10  0.170E-05    2.34     829.6  T
speedup 15.55
cpu  time for SCC    1.00 s
wall time for SCC    0.06 s

   *** convergence criteria satisfied after 14 iterations ***

          eigenvalues
 #    :          59         60         61         62         63         64         65         66
 occ. :        2.000      2.000      2.000      2.000      2.000      2.000      2.000      2.000
 eps  :       -12.268    -12.077    -11.814    -11.797    -11.572    -11.354    -11.034    -10.937
 #    :          67         68         69         70         71         72         73         74
 occ. :        2.000      2.000      2.000      2.000      2.000      0.000      0.000      0.000
 eps  :       -10.879    -10.823    -10.454    -10.201     -9.987     -7.652     -6.373     -6.024
 #    :          75         76         77         78         79         80         81         82
 occ. :        0.000      0.000      0.000      0.000      0.000      0.000      0.000      0.000
 eps  :        -5.940     -4.779     -2.018     -0.728     -0.273      0.168      0.631      0.712


   #   Z            q   n(s)   n(p)   n(d)      C6AA      α(0)
   1   7 N     -0.377  1.306  4.071  0.000    29.744     8.100
   2   6 C      0.030  1.064  2.905  0.000    20.080     6.383
   3   6 C      0.269  1.048  2.683  0.000    22.454     7.760
   4   8 O     -0.488  1.767  4.722  0.000    23.530     6.504
   5   6 C     -0.115  1.067  3.049  0.000    22.704     6.783
   6   6 C      0.296  1.035  2.668  0.000    21.975     7.676
   7   8 O     -0.517  1.767  4.749  0.000    24.156     6.590
   8   7 N     -0.287  1.268  4.019  0.000    27.400     7.774
   9   1 H      0.145  0.855  0.000  0.000     1.432     1.875
  10   1 H      0.072  0.928  0.000  0.000     2.067     2.248
  11   1 H      0.063  0.937  0.000  0.000     2.166     2.301
  12   1 H      0.082  0.918  0.000  0.000     1.957     2.188
  13   1 H      0.231  0.769  0.000  0.000     0.960     1.535
  14   1 H      0.238  0.762  0.000  0.000     0.933     1.513
  15   7 N     -0.195  1.262  3.933  0.000    25.234     7.461
  16   6 C      0.021  1.063  2.916  0.000    20.229     6.405
  17   6 C      0.283  1.041  2.676  0.000    22.201     7.716
  18   8 O     -0.509  1.751  4.758  0.000    23.994     6.567
  19   6 C     -0.081  1.055  3.026  0.000    22.040     6.684
  20   6 C     -0.091  1.057  3.034  0.000    22.239     6.714
  21   6 C     -0.088  1.047  3.040  0.000    22.173     6.704
  22   6 C     -0.046  1.058  2.988  0.000    21.495     6.618
  23   7 N     -0.146  1.229  3.917  0.000    24.140     7.297
  24   1 H      0.229  0.771  0.000  0.000     0.971     1.543
  25   1 H      0.067  0.933  0.000  0.000     2.117     2.275
  26   1 H      0.067  0.933  0.000  0.000     2.122     2.278
  27   1 H      0.078  0.922  0.000  0.000     2.000     2.211
  28   1 H      0.090  0.910  0.000  0.000     1.880     2.144
  29   1 H      0.073  0.927  0.000  0.000     2.052     2.240
  30   1 H      0.056  0.944  0.000  0.000     2.244     2.342
  31   1 H      0.069  0.931  0.000  0.000     2.099     2.266
  32   1 H      0.119  0.881  0.000  0.000     1.623     1.992
  33   1 H      0.105  0.895  0.000  0.000     1.739     2.062
  34   1 H      0.307  0.693  0.000  0.000     0.693     1.304
  35   1 H      0.298  0.702  0.000  0.000     0.719     1.329
  36   1 H      0.302  0.698  0.000  0.000     0.706     1.317
  37   7 N     -0.164  1.234  3.930  0.000    24.546     7.358
  38   6 C      0.041  1.053  2.906  0.000    19.899     6.352
  39   6 C      0.212  1.084  2.703  0.000    23.506     7.940
  40   8 O     -0.402  1.757  4.644  0.000    21.714     6.248
  41   6 C     -0.098  1.071  3.028  0.000    22.373     6.734
  42   6 C      0.375  1.020  2.605  0.000    20.655     7.437
  43   8 O     -0.639  1.776  4.863  0.000    27.099     6.979
  44   8 O     -0.618  1.765  4.854  0.000    26.568     6.911
  45   1 H      0.205  0.795  0.000  0.000     1.082     1.629
  46   1 H      0.097  0.903  0.000  0.000     1.813     2.106
  47   1 H      0.046  0.954  0.000  0.000     2.375     2.410
  48   1 H      0.055  0.945  0.000  0.000     2.258     2.350
  49   1 H      0.178  0.822  0.000  0.000     1.228     1.736
  50   1 H      0.063  0.937  0.000  0.000     2.166     2.301

 Mol. C6AA /au·bohr⁶  :      23023.714653
 Mol. C8AA /au·bohr⁸  :     507763.467655
 Mol. α(0) /au        :        225.190878

 
molecular dipole:
                 x           y           z       tot (Debye)
 q only:       -8.017       3.598      12.935
   full:       -8.277       3.308      12.867      39.785
molecular quadrupole (traceless):
                xx          xy          yy          xz          yz          zz
 q only:    -9181.879     280.106    1146.764    4553.606    3934.609    8035.115
  q+dip:    -9311.565      67.193    1172.073    4433.335    3829.812    8139.492
   full:    -9312.930      66.542    1171.953    4433.373    3829.134    8140.978
speedup 15.59
cpu  time for grad    1.12 s
wall time for grad    0.07 s

SCC energy    :     -82.6618339
rep           :       0.9127331
ES            :       0.4621144
AES           :      -0.0201845
AXC           :       0.0243602
disp          :      -0.0484762
XB            :       0.0000000
fix           :       0.0000000
Gborn         :       0.0000000
Gsasa         :       0.0000000
Ghb           :       0.0000000
Gshift        :       0.0000000
Gsolv         :      -0.1747882     -109.68
Etot ala COSMO:     -82.6618339
grad norm     :       0.2263321
total E       :     -81.7476948
atomizationE  :      13.9421742     8748.85
(atE without considering molecular charge,
 total energy contains solvation terms)
H-L gap (eV)  :          2.3350

------------------------------------------------------------------------
 * finished run on 2019/02/13 at 00:19:00.044     
------------------------------------------------------------------------
 total:
 * wall-time:     0 d,  0 h,  0 min,  0.135 sec
 *  cpu-time:     0 d,  0 h,  0 min,  1.814 sec
 * ratio c/w:    13.458 speedup
 SCF:
 * wall-time:     0 d,  0 h,  0 min,  0.079 sec
 *  cpu-time:     0 d,  0 h,  0 min,  1.241 sec
 * ratio c/w:    15.625 speedup

