      -----------------------------------------------------------      
     |                   =====================                   |     
     |                           x T B                           |     
     |                   =====================                   |     
     |                         S. Grimme                         |     
     |          Mulliken Center for Theoretical Chemistry        |     
     |                    University of Bonn                     |     
     |                 Version 6.0.1 (SAW181210)                 |     
      -----------------------------------------------------------      

   This program is distributed in the hope that it will be useful,
   but WITHOUT ANY WARRANTY; without even the implied warranty of
   MERCHANTABILITY or FITNESS FOR A PARTICULAR PURPOSE.
   
   FOR NON-COMMERCIAL, ACADEMIA USE ONLY.
   
   Cite this work as:
   S. Grimme, C. Bannwarth, P. Shushkov, J. Comput. Theory Chem., 2017,
   13, 1989-2009.
   C. Bannwarth, S. Ehlert and S. Grimme., ChemRxiv, 2018, preprint.
   http://doi.org/10.26434/chemrxiv.7246238.v1
   
   for sTDA-xTB:
   S. Grimme and C. Bannwarth, J. Chem. Phys., 2016, 145, 054103.
   
   in the mass-spec context:
   V. Asgeirsson, C. Bauer and S. Grimme, Chem. Sci., 2017, 8, 4879.
   
   if GBSA is used:
   P. Shushkov, F. März and S. Grimme, unpublished.
   
   for ANC optimizer:
   S. Grimme, unpublished.
   Rational Function algorithm used in ANCopt:
   F. Eckert, P. Pulay, H.-J. Werner, J. Comput. Chem., 1997, 18, 1473.
   
   with help from (in alphabetical order)
   C. Bannwarth, F. Bohle, G. Brandenburg, E. Caldeweyher, M. Checinski,
   S. Dohm, S. Ehlert, S. Ehrlich, F. März, H. Neugebauer, J. Pisarek,
   P. Pracht, P. Shushkov, and S. Spicher.
   
 * started run on 2019/03/14 at 15:08:19.097     
========================================================================
 # omp threads = 1
========================================================================
number of atoms            : 290
number of electrons        : 796
charge                     : -1
spin                       : .0
first test random number   : .8829
           ------------------------------------------------- 
          |                 G F N 2 - x T B                 |
          | Geometry, Frequencies, Noncovalent interactions |
          |            JCTC 2018 parametrisation            |
           ------------------------------------------------- 
 
      method parameters     
 k(s)        :  1.8500
 k(p)        :  2.2300
 k(d)        :  2.2300
 k(f)        :  2.0000
 kEN (H0ij)  : -2.0000
 D4 a1       :  0.5200
 D4 a2       :  5.0000
 D4 s6       :  1.0000
 D4 s8       :  2.7000
 D4 s9       :  5.0000
 alphaj      :  2.0000

 Solvent             : h2o
 Using internal parameter file: .param_gbsa2_h2o
 Gsolv ref. state (COSMO-RS): gsolv [1 M gas/solution]
 temperature (mdtemp)       :    298.150000000000     
 dielectric constant        :    80.2000000000000     
 rho                        :    1.00000000000000     
 mass                       :    18.0000000000000     
 surface tension            :    15.5689454083859     
 probe radius               :   0.975313790000000     
 vdW radii scaling          :    1.00000000000000     
 Gshift (Eh)                :   1.857443126794793E-003
 c1                         :    1.55243817000000     
 soset                      :   0.130326360000000     
 HB correction              :  T

            Z     q(EN)     CN     RAES       Cart. coordinates
     1  N   5.0   -0.21    3.22    1.96    46.71273    63.93400   100.12205
     2  C   4.0    0.02    4.27    4.15    44.33603    62.86007    99.26250
     3  C   4.0    0.07    3.19    3.03    44.45826    62.40176    96.39761
     4  O   6.0   -0.31    1.13    1.80    44.47489    64.05702    94.79083
     5  C   4.0   -0.02    4.31    4.22    42.01603    64.45158   100.06898
     6  C   4.0   -0.04    4.19    3.98    42.02080    67.10713    98.91959
     7  C   4.0   -0.09    4.13    3.86    41.90356    64.57113   102.95137
     8  C   4.0   -0.08    4.02    3.65    39.53554    68.49104    99.38940
     9  H   1.0    0.08    1.02    1.43    47.43752    65.39807    99.14122
    10  H   1.0    0.03    1.06    1.44    44.18949    61.02188   100.20668
    11  H   1.0    0.03    1.06    1.44    40.35335    63.44482    99.36205
    12  H   1.0    0.04    1.02    1.43    43.58696    68.19820    99.70550
    13  H   1.0    0.06    1.04    1.43    42.31759    66.94504    96.88982
    14  H   1.0    0.03    1.00    1.43    40.10886    65.34066   103.57696
    15  H   1.0    0.03    1.00    1.43    42.17143    62.71535   103.78913
    16  H   1.0    0.03    1.00    1.43    43.40036    65.78931   103.66416
    17  H   1.0    0.04    1.00    1.43    39.49589    70.27590    98.37289
    18  H   1.0    0.03    1.00    1.43    37.95685    67.35028    98.73842
    19  H   1.0    0.03    1.00    1.43    39.27297    68.90101   101.38419
    20  N   5.0   -0.21    3.24    1.96    41.08354    60.29455    90.83344
    21  C   4.0    0.02    4.30    4.20    38.94203    60.05811    89.11373
    22  C   4.0    0.15    3.44    3.09    39.49602    61.95173    86.99551
    23  O   6.0   -0.29    1.24    1.80    40.17094    61.33106    84.87100
    24  C   4.0   -0.06    4.24    4.08    36.37482    60.55028    90.37736
    25  C   4.0   -0.06    4.17    3.93    35.44128    58.40773    92.09000
    26  C   4.0   -0.06    4.15    3.90    36.37902    58.57146    94.83377
    27  C   4.0   -0.05    4.13    3.86    34.31948    57.61270    96.61551
    28  N   5.0   -0.13    4.01    2.88    35.19888    57.56082    99.29027
    29  H   1.0    0.10    1.03    1.43    41.81772    62.04166    91.07843
    30  H   1.0    0.05    1.05    1.44    38.97118    58.14631    88.31870
    31  H   1.0    0.04    1.03    1.43    36.46645    62.28897    91.48023
    32  H   1.0    0.04    1.03    1.43    35.00891    60.81990    88.85707
    33  H   1.0    0.03    1.04    1.43    33.38378    58.48826    92.09232
    34  H   1.0    0.03    1.03    1.43    35.99482    56.59518    91.28736
    35  H   1.0    0.03    1.02    1.43    38.08362    57.43235    95.01940
    36  H   1.0    0.03    1.03    1.43    36.83809    60.52715    95.29344
    37  H   1.0    0.03    1.02    1.43    32.66815    58.84187    96.49995
    38  H   1.0    0.03    1.02    1.43    33.76757    55.70532    96.06846
    39  H   1.0    0.04    1.02    1.43    33.77330    56.93960   100.46412
    40  H   1.0    0.04    1.02    1.43    36.71754    56.35411    99.46782
    41  H   1.0    0.04    1.02    1.43    35.73537    59.34283    99.86646
    42  N   5.0   -0.15    3.49    2.07    39.49346    64.36146    87.77114
    43  C   4.0    0.04    4.31    4.23    40.21995    66.42952    86.11716
    44  C   4.0    0.10    3.25    3.04    42.80803    65.85351    84.95703
    45  O   6.0   -0.28    1.12    1.80    43.23575    66.27917    82.72774
    46  C   4.0   -0.04    4.29    4.19    40.18094    68.93498    87.59600
    47  C   4.0   -0.01    3.52    3.12    39.13780    71.19657    86.19671
    48  C   4.0   -0.05    3.46    3.10    39.93954    73.61606    86.84564
    49  C   4.0   -0.04    3.48    3.11    37.26093    70.96161    84.38360
    50  C   4.0   -0.04    3.43    3.09    38.94937    75.72596    85.67086
    51  C   4.0   -0.04    3.44    3.09    36.29828    73.04670    83.14812
    52  C   4.0    0.07    3.45    3.10    37.13001    75.45393    83.78695
    53  O   6.0   -0.25    2.11    1.84    36.17432    77.54210    82.64989
    54  H   1.0    0.07    1.07    1.44    38.62267    64.82450    89.40809
    55  H   1.0    0.06    1.06    1.44    38.93098    66.49766    84.49812
    56  H   1.0    0.04    1.04    1.43    38.98814    68.68199    89.26644
    57  H   1.0    0.04    1.03    1.43    42.08813    69.37526    88.24366
    58  H   1.0    0.05    1.03    1.43    41.31852    73.87641    88.32846
    59  H   1.0    0.05    1.04    1.43    36.48400    69.13620    83.93814
    60  H   1.0    0.05    1.03    1.43    39.56095    77.59970    86.19370
    61  H   1.0    0.06    1.03    1.43    34.87321    72.84249    81.69973
    62  H   1.0    0.13    1.05    1.44    34.94942    77.03049    81.38156
    63  N   5.0   -0.22    3.23    1.96    30.03488    68.17758    69.84511
    64  C   4.0    0.02    4.25    4.10    31.52540    69.13673    71.93198
    65  C   4.0    0.14    3.43    3.09    30.20669    71.32155    73.27521
    66  O   6.0   -0.33    1.34    1.80    30.37004    71.55833    75.59127
    67  C   4.0   -0.08    4.12    3.84    34.08657    70.03281    70.95803
    68  H   1.0    0.07    1.03    1.43    30.91405    68.12429    68.13420
    69  H   1.0    0.04    1.05    1.44    31.77988    67.63722    73.34594
    70  H   1.0    0.04    1.00    1.43    35.24303    70.70700    72.51369
    71  H   1.0    0.03    1.00    1.43    35.03981    68.47949    70.01449
    72  H   1.0    0.04    1.00    1.43    33.80543    71.55931    69.61423
    73  N   5.0   -0.15    3.53    2.10    29.01537    72.95828    71.80396
    74  C   4.0    0.03    4.51    4.55    27.68978    75.13556    72.78726
    75  C   4.0    0.15    3.49    3.11    25.35144    74.24973    74.21681
    76  O   6.0   -0.33    1.34    1.80    24.65594    75.32887    76.15669
    77  C   4.0   -0.03    4.34    4.27    26.94418    76.98705    70.66981
    78  C   4.0   -0.05    4.19    3.98    29.30950    78.10427    69.42780
    79  C   4.0   -0.08    4.14    3.88    25.27299    79.09376    71.71723
    80  C   4.0   -0.09    4.02    3.65    28.70245    79.51837    66.99285
    81  H   1.0    0.07    1.07    1.44    28.98850    72.67385    69.90656
    82  H   1.0    0.05    1.05    1.44    28.90442    76.10276    74.16633
    83  H   1.0    0.03    1.05    1.44    25.88072    75.89715    69.26686
    84  H   1.0    0.04    1.03    1.43    30.22800    79.38086    70.76143
    85  H   1.0    0.04    1.03    1.43    30.60976    76.56990    68.99292
    86  H   1.0    0.03    1.00    1.43    24.68359    80.35431    70.21098
    87  H   1.0    0.05    1.01    1.43    23.58994    78.33695    72.61551
    88  H   1.0    0.04    1.00    1.43    26.30294    80.18685    73.12067
    89  H   1.0    0.03    1.00    1.43    30.43506    80.12769    66.07551
    90  H   1.0    0.03    1.00    1.43    27.67507    78.28607    65.70814
    91  H   1.0    0.03    1.00    1.43    27.55483    81.17923    67.36098
    92  N   5.0   -0.15    3.54    2.11    24.16347    72.27570    73.23040
    93  C   4.0    0.03    4.45    4.47    21.99278    71.13680    74.43303
    94  C   4.0    0.15    3.47    3.10    22.80375    69.75694    76.83958
    95  O   6.0   -0.32    1.33    1.80    21.47691    69.80825    78.74166
    96  C   4.0   -0.04    4.33    4.26    20.69523    69.27694    72.65633
    97  C   4.0   -0.02    3.53    3.13    19.32141    70.45489    70.45523
    98  C   4.0   -0.05    3.47    3.10    18.10468    68.85295    68.75847
    99  C   4.0   -0.05    3.48    3.11    19.18168    73.04290    70.05380
   100  C   4.0   -0.05    3.37    3.07    16.75403    69.81117    66.73879
   101  C   4.0   -0.05    3.37    3.07    17.83811    74.00883    68.02366
   102  C   4.0   -0.05    3.37    3.07    16.61197    72.40136    66.36763
   103  H   1.0    0.07    1.07    1.44    24.67273    71.59426    71.50730
   104  H   1.0    0.05    1.05    1.44    20.67346    72.62020    75.03998
   105  H   1.0    0.04    1.03    1.43    22.13737    67.97678    71.95039
   106  H   1.0    0.04    1.03    1.43    19.35382    68.16830    73.77363
   107  H   1.0    0.04    1.03    1.43    18.22774    66.83252    69.03131
   108  H   1.0    0.05    1.04    1.43    20.12708    74.34059    71.31040
   109  H   1.0    0.04    1.03    1.43    15.84233    68.53576    65.43270
   110  H   1.0    0.04    1.03    1.43    17.75823    76.02866    67.73644
   111  H   1.0    0.04    1.03    1.43    15.58966    73.15675    64.77350
   112  N   5.0   -0.14    3.53    2.10    25.00095    68.55219    76.72042
   113  C   4.0    0.03    4.44    4.45    26.04261    67.37695    78.94825
   114  C   4.0    0.16    3.48    3.11    26.63819    69.45070    80.86601
   115  O   6.0   -0.32    1.34    1.80    26.20462    69.11887    83.11583
   116  C   4.0   -0.05    4.34    4.28    28.42183    65.83740    78.40469
   117  C   4.0   -0.03    4.17    3.95    28.02610    63.53895    76.68343
   118  C   4.0   -0.08    4.11    3.82    30.55064    62.20341    76.26600
   119  C   4.0   -0.08    4.11    3.82    26.12338    61.67235    77.77535
   120  H   1.0    0.08    1.06    1.44    25.90800    68.31735    75.04223
   121  H   1.0    0.05    1.06    1.44    24.59746    66.17621    79.83059
   122  H   1.0    0.05    1.03    1.43    29.80837    67.10473    77.55162
   123  H   1.0    0.04    1.03    1.43    29.15848    65.19343    80.22049
   124  H   1.0    0.03    1.06    1.44    27.31393    64.21156    74.86754
   125  H   1.0    0.03    1.00    1.43    30.31937    60.63891    74.95546
   126  H   1.0    0.04    1.00    1.43    31.94741    63.50213    75.50529
   127  H   1.0    0.04    1.00    1.43    31.25949    61.45501    78.04219
   128  H   1.0    0.03    1.00    1.43    26.03353    60.00416    76.58132
   129  H   1.0    0.04    1.00    1.43    26.67946    61.08258    79.66394
   130  H   1.0    0.04    1.00    1.43    24.24857    62.50150    77.86336
   131  N   5.0   -0.13    3.53    2.10    27.60663    71.59915    79.96017
   132  C   4.0    0.04    4.47    4.49    28.08468    73.72943    81.62159
   133  C   4.0    0.16    3.47    3.10    25.57029    74.62200    82.74141
   134  O   6.0   -0.32    1.28    1.80    25.34472    75.08204    84.99880
   135  C   4.0    0.05    4.23    4.05    29.41257    75.89998    80.18037
   136  O   6.0   -0.27    2.13    1.84    31.84444    75.17512    79.37526
   137  C   4.0   -0.06    4.10    3.80    29.70830    78.22253    81.85754
   138  H   1.0    0.12    1.12    1.45    28.30909    71.67432    78.16882
   139  H   1.0    0.06    1.05    1.44    29.28245    73.14893    83.21714
   140  H   1.0    0.05    1.04    1.43    28.23643    76.39185    78.54056
   141  H   1.0    0.14    1.05    1.44    31.69775    73.88819    78.07154
   142  H   1.0    0.05    1.00    1.43    30.68463    79.70406    80.82426
   143  H   1.0    0.05    1.00    1.43    27.87117    78.91317    82.45358
   144  H   1.0    0.05    1.00    1.43    30.81239    77.75445    83.52464
   145  N   5.0   -0.13    3.44    2.04    23.68289    74.80432    81.07768
   146  C   4.0    0.02    4.25    4.11    21.21307    75.77115    81.73476
   147  C   4.0    0.16    3.35    3.07    20.00329    74.15259    83.79120
   148  O   6.0   -0.33    1.30    1.80    19.13680    75.12824    85.71305
   149  H   1.0    0.12    1.14    1.45    24.04658    74.66213    79.19204
   150  H   1.0    0.05    1.02    1.43    21.33450    77.70266    82.47272
   151  H   1.0    0.04    1.02    1.43    20.04523    75.75096    80.03596
   152  N   5.0   -0.14    3.53    2.10    19.98334    71.68570    83.32477
   153  C   4.0    0.03    4.43    4.43    18.98153    69.80758    85.05124
   154  C   4.0    0.15    3.45    3.10    20.56423    69.73656    87.47918
   155  O   6.0   -0.32    1.29    1.80    19.56014    69.79251    89.57120
   156  C   4.0   -0.04    4.30    4.19    18.93375    67.24088    83.72065
   157  C   4.0    0.06    3.78    3.31    17.19578    67.24398    81.49015
   158  N   5.0   -0.18    2.52    1.90    17.11811    65.24069    79.86371
   159  C   4.0   -0.01    3.62    3.18    15.50378    69.04256    80.71149
   160  C   4.0    0.06    3.63    3.19    15.42655    65.81198    78.15923
   161  N   5.0   -0.13    3.45    2.05    14.38932    68.10263    78.58104
   162  H   1.0    0.12    1.14    1.45    20.67211    71.00460    81.66006
   163  H   1.0    0.05    1.05    1.44    17.05959    70.34215    85.63235
   164  H   1.0    0.06    1.03    1.43    20.82968    66.73097    83.08279
   165  H   1.0    0.04    1.03    1.43    18.33218    65.78768    85.05676
   166  H   1.0    0.04    1.02    1.43    15.00777    70.85427    81.45561
   167  H   1.0    0.03    1.02    1.43    14.90681    64.61575    76.61235
   168  H   1.0    0.06    1.05    1.44    13.04286    68.97685    77.55739
   169  N   5.0   -0.14    3.50    2.08    23.05647    69.56919    87.15902
   170  C   4.0    0.04    4.44    4.44    24.76267    69.76247    89.28482
   171  C   4.0    0.16    3.46    3.10    24.24721    72.11880    90.88999
   172  O   6.0   -0.32    1.30    1.80    24.81199    72.10906    93.12177
   173  C   4.0   -0.03    4.34    4.28    27.53246    69.85401    88.39726
   174  C   4.0   -0.01    3.57    3.15    29.30610    69.58508    90.59835
   175  C   4.0   -0.04    3.47    3.10    30.02494    67.19184    91.41392
   176  C   4.0   -0.03    3.48    3.10    30.17379    71.68950    91.90869
   177  C   4.0   -0.05    3.37    3.07    31.53809    66.90403    93.52607
   178  C   4.0   -0.04    3.37    3.07    31.66294    71.40173    94.03953
   179  C   4.0   -0.05    3.37    3.07    32.33413    69.00938    94.85960
   180  H   1.0    0.12    1.12    1.45    23.87487    69.60359    85.41951
   181  H   1.0    0.05    1.05    1.44    24.50031    68.12948    90.54502
   182  H   1.0    0.06    1.04    1.43    27.82759    68.32049    87.05408
   183  H   1.0    0.06    1.03    1.43    27.81414    71.64860    87.42200
   184  H   1.0    0.04    1.03    1.43    29.37201    65.54703    90.39592
   185  H   1.0    0.06    1.03    1.43    29.64891    73.56765    91.29296
   186  H   1.0    0.04    1.03    1.43    32.06464    65.03273    94.14296
   187  H   1.0    0.05    1.03    1.43    32.26485    73.05893    95.07234
   188  H   1.0    0.04    1.03    1.43    33.45421    68.81286    96.55149
   189  N   5.0   -0.13    3.52    2.09    23.25955    74.13096    89.69349
   190  C   4.0    0.05    4.42    4.42    22.73649    76.50354    90.96361
   191  C   4.0    0.16    3.44    3.09    20.15421    76.38668    92.28842
   192  O   6.0   -0.30    1.26    1.80    19.82173    77.17323    94.43763
   193  C   4.0   -0.02    4.31    4.21    22.81717    78.71119    89.09619
   194  C   4.0    0.16    3.22    3.04    23.29946    81.21950    90.42264
   195  O   6.0   -0.28    1.21    1.80    24.09619    81.37360    92.57720
   196  N   5.0   -0.18    3.17    1.95    23.04853    83.26689    88.91187
   197  H   1.0    0.12    1.11    1.45    23.31741    74.20750    87.78189
   198  H   1.0    0.07    1.06    1.44    24.13638    76.84272    92.46135
   199  H   1.0    0.06    1.03    1.43    24.38535    78.40417    87.78494
   200  H   1.0    0.06    1.03    1.43    21.06404    78.80881    88.01711
   201  H   1.0    0.10    1.03    1.43    23.05743    84.97138    89.77063
   202  H   1.0    0.08    1.03    1.43    22.05731    83.12644    87.29753
   203  N   5.0   -0.13    3.51    2.09    18.35481    75.20676    90.95752
   204  C   4.0    0.05    4.43    4.43    15.77528    75.14555    91.86528
   205  C   4.0    0.15    3.48    3.11    15.59387    73.55077    94.27079
   206  O   6.0   -0.31    1.30    1.80    14.58338    74.36164    96.19876
   207  C   4.0   -0.04    4.28    4.17    13.98578    74.06674    89.86877
   208  C   4.0   -0.03    4.22    4.03    13.64875    75.81556    87.59390
   209  C   4.0    0.15    3.22    3.04    12.35304    78.29470    88.26474
   210  O   6.0   -0.29    1.21    1.80    11.33026    78.71151    90.28696
   211  N   5.0   -0.19    3.18    1.95    12.26290    79.97463    86.34223
   212  H   1.0    0.12    1.11    1.45    18.68634    74.74117    89.12413
   213  H   1.0    0.08    1.05    1.44    15.20584    77.07207    92.40487
   214  H   1.0    0.05    1.03    1.43    14.74296    72.24932    89.25136
   215  H   1.0    0.05    1.03    1.43    12.15843    73.76667    90.77820
   216  H   1.0    0.06    1.05    1.44    15.48315    76.21294    86.74589
   217  H   1.0    0.04    1.03    1.43    12.47100    74.86322    86.19211
   218  H   1.0    0.08    1.03    1.43    13.30296    79.73905    84.77311
   219  H   1.0    0.10    1.03    1.43    11.60713    81.72243    86.73494
   220  N   5.0   -0.15    3.49    2.07    16.49960    71.18963    94.13663
   221  C   4.0    0.04    4.51    4.56    16.15987    69.54004    96.30389
   222  C   4.0    0.15    3.53    3.13    17.16432    70.62886    98.80927
   223  O   6.0   -0.29    1.25    1.80    15.90095    70.29725   100.73594
   224  C   4.0   -0.03    4.24    4.09    17.14724    66.81649    95.96289
   225  C   4.0   -0.08    4.13    3.85    15.61419    65.07214    97.68604
   226  C   4.0   -0.08    4.13    3.86    16.90547    65.89881    93.24054
   227  H   1.0    0.10    1.08    1.44    17.55737    70.63107    92.63745
   228  H   1.0    0.05    1.07    1.44    14.10836    69.43329    96.64011
   229  H   1.0    0.04    1.05    1.44    19.13095    66.78123    96.55122
   230  H   1.0    0.03    1.00    1.43    16.39610    63.17449    97.68501
   231  H   1.0    0.06    1.00    1.43    15.58712    65.80072    99.60719
   232  H   1.0    0.04    1.00    1.43    13.67009    64.96846    97.02414
   233  H   1.0    0.04    1.00    1.43    17.34632    63.89646    93.16019
   234  H   1.0    0.04    1.00    1.43    14.98025    66.17382    92.58246
   235  H   1.0    0.06    1.02    1.43    18.18403    66.90768    91.99942
   236  N   5.0   -0.10    3.65    2.21    19.44527    71.72542    98.90762
   237  C   4.0    0.04    4.57    4.63    20.36020    72.81268   101.25520
   238  C   4.0    0.16    3.43    3.09    18.86436    75.11362   102.16436
   239  O   6.0   -0.27    1.22    1.80    18.87064    75.70178   104.40362
   240  C   4.0   -0.05    4.32    4.23    23.09843    73.62523   100.73673
   241  C   4.0   -0.03    4.26    4.12    23.33535    73.72204    97.86392
   242  C   4.0    0.01    4.40    4.38    21.19189    72.08731    96.83045
   243  H   1.0    0.06    1.05    1.44    20.23505    71.42944   102.79299
   244  H   1.0    0.05    1.03    1.43    23.44648    75.46863   101.58281
   245  H   1.0    0.04    1.02    1.43    24.41137    72.26903   101.54945
   246  H   1.0    0.06    1.03    1.43    23.08859    75.64275    97.16287
   247  H   1.0    0.06    1.03    1.43    25.14825    73.02773    97.20068
   248  H   1.0    0.07    1.07    1.44    20.27523    73.05177    95.27132
   249  H   1.0    0.05    1.02    1.43    21.86814    70.26514    96.13556
   250  N   5.0   -0.14    3.51    2.09    17.82912    76.54806   100.35353
   251  C   4.0    0.04    4.43    4.43    16.33919    78.74687   100.96874
   252  C   4.0    0.17    3.43    3.09    13.80914    78.00108   102.16879
   253  O   6.0   -0.28    1.21    1.80    12.82677    79.30921   103.82747
   254  C   4.0   -0.04    4.27    4.14    15.83226    80.37030    98.62881
   255  C   4.0   -0.02    4.17    3.94    18.18376    81.71169    97.65655
   256  C   4.0    0.26    3.10    3.02    17.54571    83.31020    95.26871
   257  O   6.0   -0.27    1.16    1.80    17.14466    82.16546    93.24907
   258  O   6.0   -0.28    1.16    1.80    17.49305    85.65488    95.55060
   259  H   1.0    0.11    1.08    1.44    17.80433    75.96763    98.53782
   260  H   1.0    0.06    1.05    1.44    17.36284    79.85495   102.39674
   261  H   1.0    0.07    1.03    1.43    15.06773    79.17631    97.12571
   262  H   1.0    0.06    1.03    1.43    14.39418    81.77207    99.12411
   263  H   1.0    0.05    1.02    1.43    18.93979    82.97153    99.10542
   264  H   1.0    0.08    1.04    1.43    19.60197    80.32284    97.11866
   265  N   5.0   -0.13    3.52    2.09    12.73283    75.98508   101.14394
   266  C   4.0    0.04    4.39    4.37    10.47709    74.83480   102.13583
   267  C   4.0    0.26    3.18    3.03    10.89522    73.73472   104.87652
   268  O   6.0   -0.29    1.17    1.80     8.91993    73.51185   106.14500
   269  C   4.0   -0.03    4.33    4.25     9.63790    72.69899   100.40743
   270  C   4.0   -0.01    3.53    3.13     8.74747    73.47993    97.81467
   271  C   4.0   -0.04    3.47    3.10     7.96994    71.60966    96.13264
   272  C   4.0   -0.03    3.49    3.11     8.62535    75.98449    97.03448
   273  C   4.0   -0.05    3.37    3.07     7.07847    72.22015    93.75347
   274  C   4.0   -0.03    3.38    3.07     7.72640    76.60188    94.65435
   275  C   4.0   -0.04    3.37    3.07     6.94461    74.72595    93.01221
   276  O   6.0   -0.25    1.17    1.80    13.06840    73.14018   105.51373
   277  H   1.0    0.11    1.11    1.45    13.67645    75.00580    99.80479
   278  H   1.0    0.06    1.05    1.44     9.00540    76.28605   102.34536
   279  H   1.0    0.06    1.03    1.43    11.24357    71.39724   100.25197
   280  H   1.0    0.05    1.03    1.43     8.12346    71.69045   101.39244
   281  H   1.0    0.04    1.03    1.43     8.06463    69.65330    96.71483
   282  H   1.0    0.06    1.04    1.43     9.25186    77.48579    98.27157
   283  H   1.0    0.04    1.03    1.43     6.48597    70.73607    92.48364
   284  H   1.0    0.06    1.03    1.43     7.68314    78.56088    94.07914
   285  H   1.0    0.05    1.03    1.43     6.25621    75.22992    91.16083
   286  H   1.0    0.08    1.08    1.44    46.53259    64.51240   101.71125
   287  H   1.0    0.05    1.05    1.44    44.53193    60.63721    95.72531
   288  H   1.0    0.09    1.08    1.44    40.62509    59.77329    92.38607
   289  H   1.0    0.06    1.05    1.44    44.18048    65.11722    86.02723
   290  H   1.0    0.08    1.07    1.44    29.55389    66.58055    70.17782

  Z AO/shell   Hii/eV     exponent
  1     Wed Apr 25 08:07:45 CEST 2018   EN: 2.200 GM2: 0.406  GM3: 0.0800  RAES: 1.40
     1s    -10.707211    1.230000
  6     Wed Apr 25 08:07:45 CEST 2018   EN: 2.550 GM2: 0.538  GM3: 0.1500  RAES: 3.00
     2s    -13.970922    2.096432
     2p    -10.063292    1.800000
  7     Wed Apr 25 08:07:45 CEST 2018   EN: 3.040 GM2: 0.461  GM3:-0.0640  RAES: 1.90
     2s    -16.686243    2.339881
     2p    -12.523956    2.014332
  8     Wed Apr 25 08:07:45 CEST 2018   EN: 3.440 GM2: 0.452  GM3:-0.0517  RAES: 1.80
     2s    -20.229985    2.439742
     2p    -15.503117    2.137023
 no old-style atom pair restraining (fixing) potential

molecular fragmentation (1/2 indicates fragments):
111111111111111111122222222222222222222222222222222222222222222222222222
222222222222222222222222222222222222222222222222222222222222222222222222
222222222222222222222222222222222222222222222222222222222222222222222222
222222222222222222222222222222222222222222222222222222222222222222222112
22
# atoms in fragment 1/2:    21   269
 fragment masses (1/2) :      115.17     1912.19
CMA distance (Bohr)    :  24.072
constraining FC (au)   :  0.0500
           ------------------------------------------------- 
          |        Self-Consistent Charge Iterations        |
           ------------------------------------------------- 

 Ncao       : 725
 Nao        : 725
 Nshell     : 435
 Nel        : 796
 T(el)      :   500.0
 intcut     :    35.0
 scfconv/Eh :  0.100E-06
   qconv/e  :  0.100E-04
 intneglect :  0.100E-08
 broydamp   :      0.400
 iter      E             dE          RMSdq      gap      omega  full diag
   1   -453.1960129 -0.453196E+03  0.455E+00    3.34       0.0  T
   2   -454.1730375 -0.977025E+00  0.220E+00    2.23       1.0  T
   3   -454.2236273 -0.505898E-01  0.121E+00    2.37       1.0  T
   4   -454.2913385 -0.677112E-01  0.240E-01    1.44       1.0  T
   5   -454.2959468 -0.460831E-02  0.115E-01    1.59       1.0  T
   6   -454.2964625 -0.515655E-03  0.541E-02    1.62       1.0  T
   7   -454.2967093 -0.246840E-03  0.227E-02    1.64       1.0  T
   8   -454.2967362 -0.269272E-04  0.114E-02    1.66       1.0  T
   9   -454.2967442 -0.792388E-05  0.509E-03    1.67       1.2  T
  10   -454.2967460 -0.184393E-05  0.243E-03    1.67       2.4  T
  11   -454.2967464 -0.353516E-06  0.110E-03    1.67       5.4  T
  12   -454.2967464 -0.823397E-07  0.519E-04    1.67      11.3  T
  13   -454.2967465 -0.237629E-07  0.246E-04    1.67      23.8  T
  14   -454.2967465 -0.326503E-08  0.116E-04    1.67      50.7  T
  15   -454.2967465 -0.851003E-09  0.440E-05    1.67     133.6  T
  16   -454.2967465 -0.142961E-09  0.201E-05    1.67     292.2  T
speedup  1.00
cpu  time for SCC    3.80 s
wall time for SCC    3.80 s

   *** convergence criteria satisfied after 16 iterations ***

          eigenvalues
 #    :         386        387        388        389        390        391        392        393
 occ. :        2.000      2.000      2.000      2.000      2.000      2.000      2.000      2.000
 eps  :       -10.559    -10.541    -10.494    -10.443    -10.431    -10.414    -10.229    -10.184
 #    :         394        395        396        397        398        399        400        401
 occ. :        2.000      2.000      2.000      2.000      2.000      0.000      0.000      0.000
 eps  :       -10.139     -9.994     -9.938     -9.617     -9.459     -7.786     -7.711     -7.006
 #    :         402        403        404        405        406        407        408        409
 occ. :        0.000      0.000      0.000      0.000      0.000      0.000      0.000      0.000
 eps  :        -6.792     -6.751     -6.601     -6.507     -6.448     -6.292     -6.250     -6.241


   #   Z            q   n(s)   n(p)   n(d)      C6AA      α(0)
   1   7 N     -0.382  1.316  4.066  0.000    29.882     8.119
   2   6 C      0.027  1.065  2.908  0.000    20.142     6.393
   3   6 C      0.199  1.090  2.711  0.000    23.760     7.983
   4   8 O     -0.373  1.758  4.614  0.000    21.146     6.165
   5   6 C     -0.024  1.069  2.955  0.000    20.970     6.513
   6   6 C     -0.059  1.045  3.013  0.000    21.626     6.621
   7   6 C     -0.116  1.039  3.077  0.000    22.781     6.805
   8   6 C     -0.108  1.037  3.071  0.000    22.632     6.784
   9   1 H      0.148  0.852  0.000  0.000     1.417     1.865
  10   1 H      0.066  0.934  0.000  0.000     2.125     2.279
  11   1 H      0.045  0.955  0.000  0.000     2.380     2.413
  12   1 H      0.024  0.976  0.000  0.000     2.674     2.557
  13   1 H      0.049  0.951  0.000  0.000     2.327     2.386
  14   1 H      0.053  0.947  0.000  0.000     2.288     2.365
  15   1 H      0.052  0.948  0.000  0.000     2.296     2.370
  16   1 H      0.030  0.970  0.000  0.000     2.587     2.515
  17   1 H      0.026  0.974  0.000  0.000     2.645     2.543
  18   1 H      0.043  0.957  0.000  0.000     2.409     2.427
  19   1 H      0.035  0.965  0.000  0.000     2.516     2.481
  20   7 N     -0.390  1.323  4.067  0.000    30.107     8.149
  21   6 C      0.020  1.065  2.914  0.000    20.247     6.409
  22   6 C      0.275  1.047  2.678  0.000    22.350     7.742
  23   8 O     -0.502  1.763  4.738  0.000    23.818     6.543
  24   6 C     -0.084  1.060  3.024  0.000    22.095     6.692
  25   6 C     -0.077  1.052  3.025  0.000    21.971     6.673
  26   6 C     -0.091  1.055  3.036  0.000    22.230     6.713
  27   6 C     -0.052  1.062  2.990  0.000    21.598     6.633
  28   7 N     -0.145  1.229  3.917  0.000    24.134     7.296
  29   1 H      0.148  0.852  0.000  0.000     1.416     1.864
  30   1 H      0.063  0.937  0.000  0.000     2.162     2.299
  31   1 H      0.051  0.949  0.000  0.000     2.312     2.378
  32   1 H      0.043  0.957  0.000  0.000     2.411     2.428
  33   1 H      0.064  0.936  0.000  0.000     2.155     2.296
  34   1 H      0.062  0.938  0.000  0.000     2.181     2.310
  35   1 H      0.076  0.924  0.000  0.000     2.022     2.224
  36   1 H      0.068  0.932  0.000  0.000     2.107     2.270
  37   1 H      0.114  0.886  0.000  0.000     1.659     2.014
  38   1 H      0.121  0.879  0.000  0.000     1.606     1.982
  39   1 H      0.302  0.698  0.000  0.000     0.709     1.319
  40   1 H      0.301  0.699  0.000  0.000     0.709     1.319
  41   1 H      0.291  0.709  0.000  0.000     0.741     1.349
  42   7 N     -0.184  1.251  3.933  0.000    24.978     7.423
  43   6 C      0.028  1.060  2.912  0.000    20.106     6.386
  44   6 C      0.215  1.081  2.705  0.000    23.462     7.933
  45   8 O     -0.374  1.759  4.615  0.000    21.160     6.167
  46   6 C     -0.078  1.058  3.019  0.000    21.976     6.673
  47   6 C     -0.001  1.076  2.925  0.000    28.059     8.689
  48   6 C     -0.044  1.083  2.961  0.000    29.101     8.847
  49   6 C     -0.045  1.079  2.966  0.000    29.107     8.848
  50   6 C     -0.062  1.075  2.987  0.000    29.540     8.913
  51   6 C     -0.079  1.080  2.999  0.000    29.974     8.978
  52   6 C      0.143  1.046  2.811  0.000    24.876     8.174
  53   8 O     -0.433  1.718  4.715  0.000    21.496     6.259
  54   1 H      0.213  0.787  0.000  0.000     1.041     1.598
  55   1 H      0.083  0.917  0.000  0.000     1.949     2.183
  56   1 H      0.085  0.915  0.000  0.000     1.931     2.173
  57   1 H      0.067  0.933  0.000  0.000     2.116     2.275
  58   1 H      0.042  0.958  0.000  0.000     2.418     2.432
  59   1 H      0.047  0.953  0.000  0.000     2.359     2.402
  60   1 H      0.040  0.960  0.000  0.000     2.443     2.444
  61   1 H      0.055  0.945  0.000  0.000     2.256     2.349
  62   1 H      0.343  0.657  0.000  0.000     0.606     1.223
  63   7 N     -0.396  1.312  4.084  0.000    30.251     8.169
  64   6 C      0.032  1.054  2.915  0.000    20.058     6.379
  65   6 C      0.262  1.051  2.687  0.000    22.592     7.784
  66   8 O     -0.511  1.741  4.770  0.000    24.020     6.571
  67   6 C     -0.125  1.044  3.081  0.000    22.940     6.828
  68   1 H      0.174  0.826  0.000  0.000     1.250     1.751
  69   1 H      0.044  0.956  0.000  0.000     2.391     2.418
  70   1 H      0.053  0.947  0.000  0.000     2.288     2.365
  71   1 H      0.066  0.934  0.000  0.000     2.132     2.284
  72   1 H      0.058  0.942  0.000  0.000     2.227     2.334
  73   7 N     -0.163  1.241  3.922  0.000    24.522     7.355
  74   6 C      0.008  1.066  2.926  0.000    20.436     6.436
  75   6 C      0.270  1.041  2.689  0.000    22.437     7.757
  76   8 O     -0.485  1.744  4.742  0.000    23.464     6.495
  77   6 C     -0.027  1.069  2.958  0.000    21.013     6.520
  78   6 C     -0.067  1.051  3.016  0.000    21.780     6.644
  79   6 C     -0.115  1.036  3.079  0.000    22.755     6.802
  80   6 C     -0.115  1.037  3.077  0.000    22.759     6.803
  81   1 H      0.230  0.770  0.000  0.000     0.966     1.539
  82   1 H      0.084  0.916  0.000  0.000     1.939     2.178
  83   1 H      0.058  0.942  0.000  0.000     2.225     2.333
  84   1 H      0.047  0.953  0.000  0.000     2.364     2.404
  85   1 H      0.047  0.953  0.000  0.000     2.359     2.402
  86   1 H      0.061  0.939  0.000  0.000     2.191     2.315
  87   1 H      0.038  0.962  0.000  0.000     2.480     2.463
  88   1 H      0.046  0.954  0.000  0.000     2.366     2.406
  89   1 H      0.045  0.955  0.000  0.000     2.381     2.413
  90   1 H      0.047  0.953  0.000  0.000     2.358     2.401
  91   1 H      0.042  0.958  0.000  0.000     2.421     2.433
  92   7 N     -0.171  1.241  3.930  0.000    24.695     7.381
  93   6 C      0.014  1.060  2.926  0.000    20.346     6.422
  94   6 C      0.266  1.041  2.693  0.000    22.505     7.769
  95   8 O     -0.478  1.742  4.736  0.000    23.302     6.472
  96   6 C     -0.081  1.054  3.027  0.000    22.035     6.681
  97   6 C      0.010  1.078  2.913  0.000    27.803     8.649
  98   6 C     -0.042  1.081  2.961  0.000    29.046     8.838
  99   6 C     -0.044  1.076  2.968  0.000    29.099     8.846
 100   6 C     -0.031  1.081  2.950  0.000    28.766     8.795
 101   6 C     -0.032  1.081  2.951  0.000    28.805     8.801
 102   6 C     -0.034  1.080  2.953  0.000    28.839     8.806
 103   1 H      0.226  0.774  0.000  0.000     0.982     1.552
 104   1 H      0.086  0.914  0.000  0.000     1.919     2.166
 105   1 H      0.079  0.921  0.000  0.000     1.994     2.208
 106   1 H      0.077  0.923  0.000  0.000     2.015     2.220
 107   1 H      0.046  0.954  0.000  0.000     2.370     2.408
 108   1 H      0.035  0.965  0.000  0.000     2.520     2.483
 109   1 H      0.040  0.960  0.000  0.000     2.455     2.450
 110   1 H      0.037  0.963  0.000  0.000     2.485     2.465
 111   1 H      0.035  0.965  0.000  0.000     2.522     2.483
 112   7 N     -0.167  1.238  3.929  0.000    24.605     7.367
 113   6 C      0.017  1.061  2.922  0.000    20.285     6.412
 114   6 C      0.272  1.044  2.684  0.000    22.397     7.750
 115   8 O     -0.488  1.740  4.748  0.000    23.514     6.501
 116   6 C     -0.080  1.058  3.022  0.000    22.014     6.679
 117   6 C     -0.012  1.057  2.956  0.000    20.761     6.481
 118   6 C     -0.118  1.042  3.076  0.000    22.816     6.810
 119   6 C     -0.123  1.041  3.083  0.000    22.919     6.826
 120   1 H      0.210  0.790  0.000  0.000     1.055     1.609
 121   1 H      0.088  0.912  0.000  0.000     1.895     2.153
 122   1 H      0.059  0.941  0.000  0.000     2.208     2.324
 123   1 H      0.066  0.934  0.000  0.000     2.131     2.283
 124   1 H      0.037  0.963  0.000  0.000     2.488     2.467
 125   1 H      0.052  0.948  0.000  0.000     2.299     2.371
 126   1 H      0.038  0.962  0.000  0.000     2.479     2.462
 127   1 H      0.046  0.954  0.000  0.000     2.367     2.406
 128   1 H      0.053  0.947  0.000  0.000     2.289     2.366
 129   1 H      0.046  0.954  0.000  0.000     2.375     2.410
 130   1 H      0.042  0.958  0.000  0.000     2.423     2.434
 131   7 N     -0.199  1.256  3.943  0.000    25.311     7.472
 132   6 C      0.011  1.068  2.921  0.000    20.398     6.431
 133   6 C      0.273  1.042  2.684  0.000    22.382     7.747
 134   8 O     -0.500  1.749  4.750  0.000    23.776     6.538
 135   6 C      0.112  1.047  2.841  0.000    18.840     6.197
 136   8 O     -0.469  1.712  4.757  0.000    22.235     6.366
 137   6 C     -0.127  1.040  3.087  0.000    22.991     6.837
 138   1 H      0.236  0.764  0.000  0.000     0.941     1.519
 139   1 H      0.074  0.926  0.000  0.000     2.042     2.235
 140   1 H      0.041  0.959  0.000  0.000     2.432     2.439
 141   1 H      0.337  0.663  0.000  0.000     0.621     1.238
 142   1 H      0.076  0.924  0.000  0.000     2.016     2.220
 143   1 H      0.039  0.961  0.000  0.000     2.467     2.456
 144   1 H      0.060  0.940  0.000  0.000     2.201     2.320
 145   7 N     -0.192  1.255  3.938  0.000    25.173     7.452
 146   6 C     -0.030  1.052  2.978  0.000    21.180     6.565
 147   6 C      0.273  1.038  2.689  0.000    22.385     7.747
 148   8 O     -0.511  1.750  4.761  0.000    24.040     6.574
 149   1 H      0.247  0.753  0.000  0.000     0.895     1.482
 150   1 H      0.076  0.924  0.000  0.000     2.016     2.220
 151   1 H      0.100  0.900  0.000  0.000     1.789     2.092
 152   7 N     -0.185  1.253  3.932  0.000    25.018     7.429
 153   6 C      0.017  1.064  2.919  0.000    20.296     6.415
 154   6 C      0.269  1.043  2.688  0.000    22.452     7.759
 155   8 O     -0.509  1.749  4.760  0.000    23.982     6.566
 156   6 C     -0.080  1.053  3.028  0.000    22.029     6.681
 157   6 C      0.062  1.061  2.877  0.000    26.149     8.341
 158   7 N     -0.292  1.481  3.811  0.000    28.419     7.904
 159   6 C     -0.031  1.062  2.969  0.000    28.738     8.793
 160   6 C      0.083  1.060  2.857  0.000    25.893     8.324
 161   7 N     -0.099  1.243  3.857  0.000    23.181     7.151
 162   1 H      0.253  0.747  0.000  0.000     0.871     1.462
 163   1 H      0.067  0.933  0.000  0.000     2.116     2.275
 164   1 H      0.080  0.920  0.000  0.000     1.980     2.201
 165   1 H      0.077  0.923  0.000  0.000     2.009     2.216
 166   1 H      0.031  0.969  0.000  0.000     2.569     2.506
 167   1 H      0.054  0.946  0.000  0.000     2.265     2.353
 168   1 H      0.210  0.790  0.000  0.000     1.057     1.611
 169   7 N     -0.185  1.253  3.932  0.000    25.013     7.428
 170   6 C      0.027  1.064  2.909  0.000    20.119     6.387
 171   6 C      0.280  1.041  2.678  0.000    22.253     7.725
 172   8 O     -0.486  1.748  4.738  0.000    23.468     6.495
 173   6 C     -0.077  1.056  3.021  0.000    21.963     6.671
 174   6 C      0.012  1.081  2.907  0.000    27.744     8.640
 175   6 C     -0.046  1.083  2.964  0.000    29.154     8.855
 176   6 C     -0.027  1.080  2.947  0.000    28.678     8.782
 177   6 C     -0.039  1.080  2.959  0.000    28.971     8.826
 178   6 C     -0.032  1.080  2.951  0.000    28.787     8.798
 179   6 C     -0.038  1.080  2.958  0.000    28.941     8.822
 180   1 H      0.241  0.759  0.000  0.000     0.917     1.500
 181   1 H      0.078  0.922  0.000  0.000     2.003     2.213
 182   1 H      0.092  0.908  0.000  0.000     1.858     2.131
 183   1 H      0.048  0.952  0.000  0.000     2.350     2.397
 184   1 H      0.057  0.943  0.000  0.000     2.237     2.339
 185   1 H      0.000  1.000  0.000  0.000     3.050     2.731
 186   1 H      0.070  0.930  0.000  0.000     2.086     2.259
 187   1 H      0.021  0.979  0.000  0.000     2.714     2.576
 188   1 H      0.051  0.949  0.000  0.000     2.313     2.378
 189   7 N     -0.204  1.255  3.949  0.000    25.435     7.490
 190   6 C      0.042  1.052  2.905  0.000    19.871     6.348
 191   6 C      0.285  1.041  2.674  0.000    22.171     7.711
 192   8 O     -0.512  1.766  4.746  0.000    24.044     6.574
 193   6 C     -0.104  1.062  3.042  0.000    22.479     6.749
 194   6 C      0.296  1.038  2.666  0.000    21.971     7.675
 195   8 O     -0.498  1.760  4.738  0.000    23.745     6.533
 196   7 N     -0.299  1.281  4.018  0.000    27.698     7.816
 197   1 H      0.227  0.773  0.000  0.000     0.977     1.548
 198   1 H      0.066  0.934  0.000  0.000     2.132     2.283
 199   1 H      0.110  0.890  0.000  0.000     1.693     2.035
 200   1 H      0.069  0.931  0.000  0.000     2.094     2.263
 201   1 H      0.223  0.777  0.000  0.000     0.996     1.563
 202   1 H      0.233  0.767  0.000  0.000     0.952     1.529
 203   7 N     -0.206  1.261  3.945  0.000    25.474     7.496
 204   6 C      0.047  1.051  2.902  0.000    19.793     6.335
 205   6 C      0.283  1.045  2.672  0.000    22.205     7.717
 206   8 O     -0.529  1.763  4.766  0.000    24.431     6.627
 207   6 C     -0.064  1.051  3.013  0.000    21.718     6.634
 208   6 C     -0.110  1.061  3.049  0.000    22.588     6.766
 209   6 C      0.292  1.039  2.669  0.000    22.051     7.689
 210   8 O     -0.506  1.770  4.737  0.000    23.927     6.558
 211   7 N     -0.303  1.274  4.029  0.000    27.815     7.833
 212   1 H      0.244  0.756  0.000  0.000     0.907     1.492
 213   1 H      0.042  0.958  0.000  0.000     2.420     2.433
 214   1 H      0.072  0.928  0.000  0.000     2.065     2.247
 215   1 H      0.055  0.945  0.000  0.000     2.255     2.349
 216   1 H      0.090  0.910  0.000  0.000     1.882     2.145
 217   1 H      0.098  0.902  0.000  0.000     1.803     2.100
 218   1 H      0.237  0.763  0.000  0.000     0.936     1.515
 219   1 H      0.222  0.778  0.000  0.000     1.001     1.568
 220   7 N     -0.192  1.255  3.937  0.000    25.163     7.450
 221   6 C      0.033  1.063  2.903  0.000    20.012     6.369
 222   6 C      0.268  1.047  2.685  0.000    22.474     7.763
 223   8 O     -0.533  1.770  4.763  0.000    24.528     6.640
 224   6 C     -0.015  1.061  2.953  0.000    20.806     6.488
 225   6 C     -0.118  1.042  3.076  0.000    22.813     6.810
 226   6 C     -0.135  1.044  3.092  0.000    23.159     6.861
 227   1 H      0.242  0.758  0.000  0.000     0.917     1.500
 228   1 H      0.053  0.947  0.000  0.000     2.278     2.360
 229   1 H      0.040  0.960  0.000  0.000     2.444     2.445
 230   1 H      0.074  0.926  0.000  0.000     2.040     2.234
 231   1 H      0.029  0.971  0.000  0.000     2.601     2.522
 232   1 H      0.048  0.952  0.000  0.000     2.347     2.396
 233   1 H      0.081  0.919  0.000  0.000     1.968     2.194
 234   1 H      0.052  0.948  0.000  0.000     2.293     2.368
 235   1 H      0.066  0.934  0.000  0.000     2.125     2.279
 236   7 N     -0.099  1.235  3.864  0.000    23.177     7.150
 237   6 C      0.029  1.063  2.908  0.000    20.064     6.375
 238   6 C      0.286  1.041  2.673  0.000    22.156     7.708
 239   8 O     -0.512  1.754  4.758  0.000    24.055     6.576
 240   6 C     -0.070  1.056  3.013  0.000    21.817     6.647
 241   6 C     -0.064  1.048  3.015  0.000    21.709     6.631
 242   6 C      0.005  1.047  2.947  0.000    20.537     6.461
 243   1 H      0.068  0.932  0.000  0.000     2.111     2.272
 244   1 H      0.046  0.954  0.000  0.000     2.367     2.406
 245   1 H      0.089  0.911  0.000  0.000     1.889     2.149
 246   1 H      0.039  0.961  0.000  0.000     2.459     2.452
 247   1 H      0.102  0.898  0.000  0.000     1.770     2.080
 248   1 H      0.041  0.959  0.000  0.000     2.431     2.438
 249   1 H      0.075  0.925  0.000  0.000     2.029     2.227
 250   7 N     -0.187  1.246  3.941  0.000    25.046     7.433
 251   6 C      0.043  1.058  2.899  0.000    19.857     6.345
 252   6 C      0.279  1.041  2.679  0.000    22.270     7.728
 253   8 O     -0.547  1.752  4.795  0.000    24.848     6.683
 254   6 C     -0.028  1.045  2.982  0.000    21.065     6.534
 255   6 C     -0.087  1.064  3.022  0.000    22.153     6.701
 256   6 C      0.374  1.027  2.600  0.000    20.670     7.440
 257   8 O     -0.640  1.765  4.875  0.000    27.120     6.982
 258   8 O     -0.649  1.766  4.883  0.000    27.343     7.011
 259   1 H      0.203  0.797  0.000  0.000     1.090     1.635
 260   1 H      0.046  0.954  0.000  0.000     2.366     2.406
 261   1 H      0.031  0.969  0.000  0.000     2.576     2.510
 262   1 H      0.012  0.988  0.000  0.000     2.866     2.647
 263   1 H      0.008  0.992  0.000  0.000     2.924     2.674
 264   1 H      0.039  0.961  0.000  0.000     2.460     2.453
 265   7 N     -0.182  1.255  3.927  0.000    24.935     7.416
 266   6 C      0.035  1.065  2.900  0.000    19.995     6.369
 267   6 C      0.373  1.025  2.603  0.000    20.687     7.443
 268   8 O     -0.637  1.761  4.877  0.000    27.056     6.974
 269   6 C     -0.054  1.049  3.005  0.000    21.541     6.606
 270   6 C      0.016  1.088  2.896  0.000    27.652     8.625
 271   6 C     -0.045  1.079  2.966  0.000    29.109     8.848
 272   6 C     -0.028  1.075  2.953  0.000    28.705     8.786
 273   6 C     -0.040  1.080  2.960  0.000    28.983     8.828
 274   6 C     -0.024  1.080  2.944  0.000    28.591     8.768
 275   6 C     -0.036  1.078  2.958  0.000    28.896     8.815
 276   8 O     -0.626  1.774  4.852  0.000    26.758     6.935
 277   1 H      0.211  0.789  0.000  0.000     1.053     1.608
 278   1 H      0.012  0.988  0.000  0.000     2.856     2.643
 279   1 H      0.040  0.960  0.000  0.000     2.445     2.445
 280   1 H      0.047  0.953  0.000  0.000     2.360     2.402
 281   1 H      0.038  0.962  0.000  0.000     2.474     2.460
 282   1 H     -0.010  1.010  0.000  0.000     3.238     2.814
 283   1 H      0.065  0.935  0.000  0.000     2.142     2.289
 284   1 H      0.027  0.973  0.000  0.000     2.625     2.533
 285   1 H      0.052  0.948  0.000  0.000     2.291     2.367
 286   1 H      0.187  0.813  0.000  0.000     1.175     1.698
 287   1 H      0.080  0.920  0.000  0.000     1.980     2.200
 288   1 H      0.195  0.805  0.000  0.000     1.132     1.666
 289   1 H      0.072  0.928  0.000  0.000     2.062     2.246
 290   1 H      0.183  0.817  0.000  0.000     1.197     1.714

 Mol. C6AA /au·bohr⁶  :     826453.798534
 Mol. C8AA /au·bohr⁸  :   18701473.252632
 Mol. α(0) /au        :       1374.480520

 
molecular dipole:
                 x           y           z       tot (Debye)
 q only:       10.318    -105.839    -125.307
   full:        9.832    -104.118    -126.577     417.342
molecular quadrupole (traceless):
                xx          xy          yy          xz          yz          zz
 q only:    13126.481    -136.974   -3194.628     861.651  -18555.998   -9931.853
  q+dip:    13064.381    -124.045   -2827.005     771.947  -18455.810  -10237.376
   full:    13073.090    -121.472   -2833.376     765.117  -18457.203  -10239.714
speedup  1.00
cpu  time for grad    4.73 s
wall time for grad    4.73 s

SCC energy    :    -454.3160339
rep           :       5.7194225
ES            :       1.6750058
AES           :      -0.0561421
AXC           :       0.1581007
disp          :      -0.3821248
XB            :       0.0000000
fix           :       0.0000000
Gborn         :       0.0000000
Gsasa         :       0.0000000
Ghb           :       0.0000000
Gshift        :       0.0000000
Gsolv         :      -0.6410226     -402.25
Etot ala COSMO:    -454.3160339
grad norm     :       0.3683550
total E       :    -448.5665184
atomizationE  :      84.7925421    53208.12
(atE without considering molecular charge,
 total energy contains solvation terms)
H-L gap (eV)  :          1.6733

------------------------------------------------------------------------
 * finished run on 2019/03/14 at 15:08:24.381     
------------------------------------------------------------------------
 total:
 * wall-time:     0 d,  0 h,  0 min,  5.283 sec
 *  cpu-time:     0 d,  0 h,  0 min,  5.089 sec
 * ratio c/w:     0.963 speedup
 SCF:
 * wall-time:     0 d,  0 h,  0 min,  5.009 sec
 *  cpu-time:     0 d,  0 h,  0 min,  5.004 sec
 * ratio c/w:     0.999 speedup

