[Molden Format]
[Title]
[Atoms] AU
N      1     7  0.55558654916313E+02  0.52970581573176E+02  0.35067620155862E+02
C      2     6  0.54829281853684E+02  0.55226818014440E+02  0.33722398540897E+02
C      3     6  0.51993106402002E+02  0.55823357456441E+02  0.33639689240426E+02
O      4     8  0.51276852258920E+02  0.57714221164001E+02  0.32504744626026E+02
C      5     6  0.55840019299771E+02  0.55213640176073E+02  0.31005130938733E+02
O      6     8  0.54893137175244E+02  0.53250271058511E+02  0.29476834905000E+02
H      7     1  0.55513005569438E+02  0.51302717587109E+02  0.34133639974439E+02
H      8     1  0.55685528518931E+02  0.56832941878871E+02  0.34723010248022E+02
H      9     1  0.55260731665416E+02  0.57008497472284E+02  0.30151389425918E+02
H     10     1  0.57913378661245E+02  0.55130258457629E+02  0.31036291889224E+02
H     11     1  0.54228150432428E+02  0.51871686676975E+02  0.30506781585248E+02
N     12     7  0.50385121270517E+02  0.54199849997145E+02  0.34700338003753E+02
C     13     6  0.47700554149851E+02  0.54739220247484E+02  0.34542208840380E+02
C     14     6  0.46971534585783E+02  0.56836542170576E+02  0.36398429870172E+02
O     15     8  0.47876990777533E+02  0.56955135097264E+02  0.38529667959655E+02
C     16     6  0.46179500249689E+02  0.52299110442501E+02  0.34985638846613E+02
C     17     6  0.46141940573750E+02  0.51506984350008E+02  0.37754709245254E+02
C     18     6  0.43474812639341E+02  0.52591721268975E+02  0.34026385619820E+02
H     19     1  0.50940975957848E+02  0.52786350864737E+02  0.35865153136399E+02
H     20     1  0.47363958673508E+02  0.55410430597868E+02  0.32614326018847E+02
H     21     1  0.47141705194210E+02  0.50836078093189E+02  0.33880243016111E+02
H     22     1  0.45141221787573E+02  0.49723432965733E+02  0.37942789953408E+02
H     23     1  0.48035285546095E+02  0.51279921152697E+02  0.38508507488776E+02
H     24     1  0.45165262185680E+02  0.52921019656627E+02  0.38874941841983E+02
H     25     1  0.42483173587051E+02  0.50797031287966E+02  0.34162541120909E+02
H     26     1  0.42473101296908E+02  0.53954488035068E+02  0.35193694449002E+02
H     27     1  0.43429890183112E+02  0.53204709681591E+02  0.32065632269799E+02
N     28     7  0.45251153673157E+02  0.58533898770896E+02  0.35633588402117E+02
C     29     6  0.44249841064032E+02  0.60300566056637E+02  0.37498370202076E+02
C     30     6  0.43016948258699E+02  0.58800223768119E+02  0.39639026604053E+02
O     31     8  0.41739351384827E+02  0.56919382495574E+02  0.39226534458983E+02
C     32     6  0.42325964163124E+02  0.61893665631437E+02  0.36029296041179E+02
C     33     6  0.43342311540182E+02  0.61789415736421E+02  0.33330590236625E+02
C     34     6  0.44281736784570E+02  0.59066784825561E+02  0.33122870007113E+02
H     35     1  0.45798056607723E+02  0.61452275405221E+02  0.38249471310237E+02
H     36     1  0.40468118297071E+02  0.61004938438209E+02  0.36125534629738E+02
H     37     1  0.42175568419172E+02  0.63803125064369E+02  0.36772065142595E+02
H     38     1  0.41914379912130E+02  0.62231675407216E+02  0.31921835864791E+02
H     39     1  0.44922803480822E+02  0.63091517578817E+02  0.33110708834881E+02
H     40     1  0.42716196473371E+02  0.57793198695840E+02  0.32675969870474E+02
H     41     1  0.45779960006218E+02  0.58865756980941E+02  0.31724147080697E+02
N     42     7  0.43408006978229E+02  0.59725487315347E+02  0.41961071742765E+02
C     43     6  0.42265778567280E+02  0.58638334151018E+02  0.44188123564493E+02
C     44     6  0.40423823120064E+02  0.60502595752508E+02  0.45417975182267E+02
O     45     8  0.40335551169187E+02  0.62737883876378E+02  0.44839973140380E+02
C     46     6  0.44297112642936E+02  0.57959098631903E+02  0.46143006507498E+02
C     47     6  0.46199720606664E+02  0.55944055666338E+02  0.45288141817545E+02
C     48     6  0.47937319108535E+02  0.55336229220432E+02  0.47509263723275E+02
C     49     6  0.44892390891665E+02  0.53536810181904E+02  0.44384694065274E+02
H     50     1  0.44432892020530E+02  0.61312223179998E+02  0.42207857331398E+02
H     51     1  0.41202999882686E+02  0.56984371119613E+02  0.43550875354886E+02
H     52     1  0.45292787101056E+02  0.59706279616966E+02  0.46610029069087E+02
H     53     1  0.43371459442343E+02  0.57330470096920E+02  0.47873612148224E+02
H     54     1  0.47320458656897E+02  0.56683492495123E+02  0.43715669655571E+02
H     55     1  0.49308896366220E+02  0.53923055508281E+02  0.46945959541610E+02
H     56     1  0.48927330474858E+02  0.57005517056988E+02  0.48178975124706E+02
H     57     1  0.46858793777722E+02  0.54593296889968E+02  0.49092143586442E+02
H     58     1  0.46285812035272E+02  0.52132279541831E+02  0.43831714945574E+02
H     59     1  0.43704825390645E+02  0.52756725953417E+02  0.45867129623446E+02
H     60     1  0.43723642343777E+02  0.53908870493226E+02  0.42739246369733E+02
H     61     1  0.57164364864242E+02  0.53124986700109E+02  0.35606523294104E+02
H     62     1  0.39227104242159E+02  0.59906431203601E+02  0.46753458585881E+02
[GTO]
           1 0
 s           4   1.00000000000000     
   63.5940244669410      -0.192343884147216     
   10.9514172315237      -0.234781079249537     
  0.879993102573770       0.375937539017009     
  0.335387152965211       0.149828892718628     
 p           4   1.00000000000000     
   7.29650404814951       0.976586663156674     
   1.89187454507126       0.903722267303458     
  0.666944321108241       0.474049584615364     
  0.265522026741309       7.151606771501186E-002
 
           2 0
 s           4   1.00000000000000     
   51.0493630955799      -0.163120632101274     
   8.79112274068875      -0.199110245810007     
  0.706404222589298       0.318820477536558     
  0.269228134134116       0.127065041842404     
 p           4   1.00000000000000     
   5.82636561408000       0.737164515452096     
   1.51068960187200       0.682163716148503     
  0.532564832880000       0.357830539292537     
  0.212023236906000       5.398303027584788E-002
 
           3 0
 s           4   1.00000000000000     
   51.0493630955799      -0.163120632101274     
   8.79112274068875      -0.199110245810007     
  0.706404222589298       0.318820477536558     
  0.269228134134116       0.127065041842404     
 p           4   1.00000000000000     
   5.82636561408000       0.737164515452096     
   1.51068960187200       0.682163716148503     
  0.532564832880000       0.357830539292537     
  0.212023236906000       5.398303027584788E-002
 
           4 0
 s           4   1.00000000000000     
   69.1379619061966      -0.204787563700778     
   11.9061291327073      -0.249970231368273     
  0.956708277443407       0.400258802406396     
  0.364625204960737       0.159522066676936     
 p           4   1.00000000000000     
   8.21241932577816        1.13215567991868     
   2.12935769970981        1.04768407822548     
  0.750664482023609       0.549565082171590     
  0.298852465432831       8.290848659276662E-002
 
           5 0
 s           4   1.00000000000000     
   51.0493630955799      -0.163120632101274     
   8.79112274068875      -0.199110245810007     
  0.706404222589298       0.318820477536558     
  0.269228134134116       0.127065041842404     
 p           4   1.00000000000000     
   5.82636561408000       0.737164515452096     
   1.51068960187200       0.682163716148503     
  0.532564832880000       0.357830539292537     
  0.212023236906000       5.398303027584788E-002
 
           6 0
 s           4   1.00000000000000     
   69.1379619061966      -0.204787563700778     
   11.9061291327073      -0.249970231368273     
  0.956708277443407       0.400258802406396     
  0.364625204960737       0.159522066676936     
 p           4   1.00000000000000     
   8.21241932577816        1.13215567991868     
   2.12935769970981        1.04768407822548     
  0.750664482023609       0.549565082171590     
  0.298852465432831       8.290848659276662E-002
 
           7 0
 s           3   1.00000000000000     
   3.37022769753360       0.273591105889083     
  0.613891182214980       0.264605406538605     
  0.166142911484160       8.246594753408232E-002
 
           8 0
 s           3   1.00000000000000     
   3.37022769753360       0.273591105889083     
  0.613891182214980       0.264605406538605     
  0.166142911484160       8.246594753408232E-002
 
           9 0
 s           3   1.00000000000000     
   3.37022769753360       0.273591105889083     
  0.613891182214980       0.264605406538605     
  0.166142911484160       8.246594753408232E-002
 
          10 0
 s           3   1.00000000000000     
   3.37022769753360       0.273591105889083     
  0.613891182214980       0.264605406538605     
  0.166142911484160       8.246594753408232E-002
 
          11 0
 s           3   1.00000000000000     
   3.37022769753360       0.273591105889083     
  0.613891182214980       0.264605406538605     
  0.166142911484160       8.246594753408232E-002
 
          12 0
 s           4   1.00000000000000     
   63.5940244669410      -0.192343884147216     
   10.9514172315237      -0.234781079249537     
  0.879993102573770       0.375937539017009     
  0.335387152965211       0.149828892718628     
 p           4   1.00000000000000     
   7.29650404814951       0.976586663156674     
   1.89187454507126       0.903722267303458     
  0.666944321108241       0.474049584615364     
  0.265522026741309       7.151606771501186E-002
 
          13 0
 s           4   1.00000000000000     
   51.0493630955799      -0.163120632101274     
   8.79112274068875      -0.199110245810007     
  0.706404222589298       0.318820477536558     
  0.269228134134116       0.127065041842404     
 p           4   1.00000000000000     
   5.82636561408000       0.737164515452096     
   1.51068960187200       0.682163716148503     
  0.532564832880000       0.357830539292537     
  0.212023236906000       5.398303027584788E-002
 
          14 0
 s           4   1.00000000000000     
   51.0493630955799      -0.163120632101274     
   8.79112274068875      -0.199110245810007     
  0.706404222589298       0.318820477536558     
  0.269228134134116       0.127065041842404     
 p           4   1.00000000000000     
   5.82636561408000       0.737164515452096     
   1.51068960187200       0.682163716148503     
  0.532564832880000       0.357830539292537     
  0.212023236906000       5.398303027584788E-002
 
          15 0
 s           4   1.00000000000000     
   69.1379619061966      -0.204787563700778     
   11.9061291327073      -0.249970231368273     
  0.956708277443407       0.400258802406396     
  0.364625204960737       0.159522066676936     
 p           4   1.00000000000000     
   8.21241932577816        1.13215567991868     
   2.12935769970981        1.04768407822548     
  0.750664482023609       0.549565082171590     
  0.298852465432831       8.290848659276662E-002
 
          16 0
 s           4   1.00000000000000     
   51.0493630955799      -0.163120632101274     
   8.79112274068875      -0.199110245810007     
  0.706404222589298       0.318820477536558     
  0.269228134134116       0.127065041842404     
 p           4   1.00000000000000     
   5.82636561408000       0.737164515452096     
   1.51068960187200       0.682163716148503     
  0.532564832880000       0.357830539292537     
  0.212023236906000       5.398303027584788E-002
 
          17 0
 s           4   1.00000000000000     
   51.0493630955799      -0.163120632101274     
   8.79112274068875      -0.199110245810007     
  0.706404222589298       0.318820477536558     
  0.269228134134116       0.127065041842404     
 p           4   1.00000000000000     
   5.82636561408000       0.737164515452096     
   1.51068960187200       0.682163716148503     
  0.532564832880000       0.357830539292537     
  0.212023236906000       5.398303027584788E-002
 
          18 0
 s           4   1.00000000000000     
   51.0493630955799      -0.163120632101274     
   8.79112274068875      -0.199110245810007     
  0.706404222589298       0.318820477536558     
  0.269228134134116       0.127065041842404     
 p           4   1.00000000000000     
   5.82636561408000       0.737164515452096     
   1.51068960187200       0.682163716148503     
  0.532564832880000       0.357830539292537     
  0.212023236906000       5.398303027584788E-002
 
          19 0
 s           3   1.00000000000000     
   3.37022769753360       0.273591105889083     
  0.613891182214980       0.264605406538605     
  0.166142911484160       8.246594753408232E-002
 
          20 0
 s           3   1.00000000000000     
   3.37022769753360       0.273591105889083     
  0.613891182214980       0.264605406538605     
  0.166142911484160       8.246594753408232E-002
 
          21 0
 s           3   1.00000000000000     
   3.37022769753360       0.273591105889083     
  0.613891182214980       0.264605406538605     
  0.166142911484160       8.246594753408232E-002
 
          22 0
 s           3   1.00000000000000     
   3.37022769753360       0.273591105889083     
  0.613891182214980       0.264605406538605     
  0.166142911484160       8.246594753408232E-002
 
          23 0
 s           3   1.00000000000000     
   3.37022769753360       0.273591105889083     
  0.613891182214980       0.264605406538605     
  0.166142911484160       8.246594753408232E-002
 
          24 0
 s           3   1.00000000000000     
   3.37022769753360       0.273591105889083     
  0.613891182214980       0.264605406538605     
  0.166142911484160       8.246594753408232E-002
 
          25 0
 s           3   1.00000000000000     
   3.37022769753360       0.273591105889083     
  0.613891182214980       0.264605406538605     
  0.166142911484160       8.246594753408232E-002
 
          26 0
 s           3   1.00000000000000     
   3.37022769753360       0.273591105889083     
  0.613891182214980       0.264605406538605     
  0.166142911484160       8.246594753408232E-002
 
          27 0
 s           3   1.00000000000000     
   3.37022769753360       0.273591105889083     
  0.613891182214980       0.264605406538605     
  0.166142911484160       8.246594753408232E-002
 
          28 0
 s           4   1.00000000000000     
   63.5940244669410      -0.192343884147216     
   10.9514172315237      -0.234781079249537     
  0.879993102573770       0.375937539017009     
  0.335387152965211       0.149828892718628     
 p           4   1.00000000000000     
   7.29650404814951       0.976586663156674     
   1.89187454507126       0.903722267303458     
  0.666944321108241       0.474049584615364     
  0.265522026741309       7.151606771501186E-002
 
          29 0
 s           4   1.00000000000000     
   51.0493630955799      -0.163120632101274     
   8.79112274068875      -0.199110245810007     
  0.706404222589298       0.318820477536558     
  0.269228134134116       0.127065041842404     
 p           4   1.00000000000000     
   5.82636561408000       0.737164515452096     
   1.51068960187200       0.682163716148503     
  0.532564832880000       0.357830539292537     
  0.212023236906000       5.398303027584788E-002
 
          30 0
 s           4   1.00000000000000     
   51.0493630955799      -0.163120632101274     
   8.79112274068875      -0.199110245810007     
  0.706404222589298       0.318820477536558     
  0.269228134134116       0.127065041842404     
 p           4   1.00000000000000     
   5.82636561408000       0.737164515452096     
   1.51068960187200       0.682163716148503     
  0.532564832880000       0.357830539292537     
  0.212023236906000       5.398303027584788E-002
 
          31 0
 s           4   1.00000000000000     
   69.1379619061966      -0.204787563700778     
   11.9061291327073      -0.249970231368273     
  0.956708277443407       0.400258802406396     
  0.364625204960737       0.159522066676936     
 p           4   1.00000000000000     
   8.21241932577816        1.13215567991868     
   2.12935769970981        1.04768407822548     
  0.750664482023609       0.549565082171590     
  0.298852465432831       8.290848659276662E-002
 
          32 0
 s           4   1.00000000000000     
   51.0493630955799      -0.163120632101274     
   8.79112274068875      -0.199110245810007     
  0.706404222589298       0.318820477536558     
  0.269228134134116       0.127065041842404     
 p           4   1.00000000000000     
   5.82636561408000       0.737164515452096     
   1.51068960187200       0.682163716148503     
  0.532564832880000       0.357830539292537     
  0.212023236906000       5.398303027584788E-002
 
          33 0
 s           4   1.00000000000000     
   51.0493630955799      -0.163120632101274     
   8.79112274068875      -0.199110245810007     
  0.706404222589298       0.318820477536558     
  0.269228134134116       0.127065041842404     
 p           4   1.00000000000000     
   5.82636561408000       0.737164515452096     
   1.51068960187200       0.682163716148503     
  0.532564832880000       0.357830539292537     
  0.212023236906000       5.398303027584788E-002
 
          34 0
 s           4   1.00000000000000     
   51.0493630955799      -0.163120632101274     
   8.79112274068875      -0.199110245810007     
  0.706404222589298       0.318820477536558     
  0.269228134134116       0.127065041842404     
 p           4   1.00000000000000     
   5.82636561408000       0.737164515452096     
   1.51068960187200       0.682163716148503     
  0.532564832880000       0.357830539292537     
  0.212023236906000       5.398303027584788E-002
 
          35 0
 s           3   1.00000000000000     
   3.37022769753360       0.273591105889083     
  0.613891182214980       0.264605406538605     
  0.166142911484160       8.246594753408232E-002
 
          36 0
 s           3   1.00000000000000     
   3.37022769753360       0.273591105889083     
  0.613891182214980       0.264605406538605     
  0.166142911484160       8.246594753408232E-002
 
          37 0
 s           3   1.00000000000000     
   3.37022769753360       0.273591105889083     
  0.613891182214980       0.264605406538605     
  0.166142911484160       8.246594753408232E-002
 
          38 0
 s           3   1.00000000000000     
   3.37022769753360       0.273591105889083     
  0.613891182214980       0.264605406538605     
  0.166142911484160       8.246594753408232E-002
 
          39 0
 s           3   1.00000000000000     
   3.37022769753360       0.273591105889083     
  0.613891182214980       0.264605406538605     
  0.166142911484160       8.246594753408232E-002
 
          40 0
 s           3   1.00000000000000     
   3.37022769753360       0.273591105889083     
  0.613891182214980       0.264605406538605     
  0.166142911484160       8.246594753408232E-002
 
          41 0
 s           3   1.00000000000000     
   3.37022769753360       0.273591105889083     
  0.613891182214980       0.264605406538605     
  0.166142911484160       8.246594753408232E-002
 
          42 0
 s           4   1.00000000000000     
   63.5940244669410      -0.192343884147216     
   10.9514172315237      -0.234781079249537     
  0.879993102573770       0.375937539017009     
  0.335387152965211       0.149828892718628     
 p           4   1.00000000000000     
   7.29650404814951       0.976586663156674     
   1.89187454507126       0.903722267303458     
  0.666944321108241       0.474049584615364     
  0.265522026741309       7.151606771501186E-002
 
          43 0
 s           4   1.00000000000000     
   51.0493630955799      -0.163120632101274     
   8.79112274068875      -0.199110245810007     
  0.706404222589298       0.318820477536558     
  0.269228134134116       0.127065041842404     
 p           4   1.00000000000000     
   5.82636561408000       0.737164515452096     
   1.51068960187200       0.682163716148503     
  0.532564832880000       0.357830539292537     
  0.212023236906000       5.398303027584788E-002
 
          44 0
 s           4   1.00000000000000     
   51.0493630955799      -0.163120632101274     
   8.79112274068875      -0.199110245810007     
  0.706404222589298       0.318820477536558     
  0.269228134134116       0.127065041842404     
 p           4   1.00000000000000     
   5.82636561408000       0.737164515452096     
   1.51068960187200       0.682163716148503     
  0.532564832880000       0.357830539292537     
  0.212023236906000       5.398303027584788E-002
 
          45 0
 s           4   1.00000000000000     
   69.1379619061966      -0.204787563700778     
   11.9061291327073      -0.249970231368273     
  0.956708277443407       0.400258802406396     
  0.364625204960737       0.159522066676936     
 p           4   1.00000000000000     
   8.21241932577816        1.13215567991868     
   2.12935769970981        1.04768407822548     
  0.750664482023609       0.549565082171590     
  0.298852465432831       8.290848659276662E-002
 
          46 0
 s           4   1.00000000000000     
   51.0493630955799      -0.163120632101274     
   8.79112274068875      -0.199110245810007     
  0.706404222589298       0.318820477536558     
  0.269228134134116       0.127065041842404     
 p           4   1.00000000000000     
   5.82636561408000       0.737164515452096     
   1.51068960187200       0.682163716148503     
  0.532564832880000       0.357830539292537     
  0.212023236906000       5.398303027584788E-002
 
          47 0
 s           4   1.00000000000000     
   51.0493630955799      -0.163120632101274     
   8.79112274068875      -0.199110245810007     
  0.706404222589298       0.318820477536558     
  0.269228134134116       0.127065041842404     
 p           4   1.00000000000000     
   5.82636561408000       0.737164515452096     
   1.51068960187200       0.682163716148503     
  0.532564832880000       0.357830539292537     
  0.212023236906000       5.398303027584788E-002
 
          48 0
 s           4   1.00000000000000     
   51.0493630955799      -0.163120632101274     
   8.79112274068875      -0.199110245810007     
  0.706404222589298       0.318820477536558     
  0.269228134134116       0.127065041842404     
 p           4   1.00000000000000     
   5.82636561408000       0.737164515452096     
   1.51068960187200       0.682163716148503     
  0.532564832880000       0.357830539292537     
  0.212023236906000       5.398303027584788E-002
 
          49 0
 s           4   1.00000000000000     
   51.0493630955799      -0.163120632101274     
   8.79112274068875      -0.199110245810007     
  0.706404222589298       0.318820477536558     
  0.269228134134116       0.127065041842404     
 p           4   1.00000000000000     
   5.82636561408000       0.737164515452096     
   1.51068960187200       0.682163716148503     
  0.532564832880000       0.357830539292537     
  0.212023236906000       5.398303027584788E-002
 
          50 0
 s           3   1.00000000000000     
   3.37022769753360       0.273591105889083     
  0.613891182214980       0.264605406538605     
  0.166142911484160       8.246594753408232E-002
 
          51 0
 s           3   1.00000000000000     
   3.37022769753360       0.273591105889083     
  0.613891182214980       0.264605406538605     
  0.166142911484160       8.246594753408232E-002
 
          52 0
 s           3   1.00000000000000     
   3.37022769753360       0.273591105889083     
  0.613891182214980       0.264605406538605     
  0.166142911484160       8.246594753408232E-002
 
          53 0
 s           3   1.00000000000000     
   3.37022769753360       0.273591105889083     
  0.613891182214980       0.264605406538605     
  0.166142911484160       8.246594753408232E-002
 
          54 0
 s           3   1.00000000000000     
   3.37022769753360       0.273591105889083     
  0.613891182214980       0.264605406538605     
  0.166142911484160       8.246594753408232E-002
 
          55 0
 s           3   1.00000000000000     
   3.37022769753360       0.273591105889083     
  0.613891182214980       0.264605406538605     
  0.166142911484160       8.246594753408232E-002
 
          56 0
 s           3   1.00000000000000     
   3.37022769753360       0.273591105889083     
  0.613891182214980       0.264605406538605     
  0.166142911484160       8.246594753408232E-002
 
          57 0
 s           3   1.00000000000000     
   3.37022769753360       0.273591105889083     
  0.613891182214980       0.264605406538605     
  0.166142911484160       8.246594753408232E-002
 
          58 0
 s           3   1.00000000000000     
   3.37022769753360       0.273591105889083     
  0.613891182214980       0.264605406538605     
  0.166142911484160       8.246594753408232E-002
 
          59 0
 s           3   1.00000000000000     
   3.37022769753360       0.273591105889083     
  0.613891182214980       0.264605406538605     
  0.166142911484160       8.246594753408232E-002
 
          60 0
 s           3   1.00000000000000     
   3.37022769753360       0.273591105889083     
  0.613891182214980       0.264605406538605     
  0.166142911484160       8.246594753408232E-002
 
          61 0
 s           3   1.00000000000000     
   3.37022769753360       0.273591105889083     
  0.613891182214980       0.264605406538605     
  0.166142911484160       8.246594753408232E-002
 
          62 0
 s           3   1.00000000000000     
   3.37022769753360       0.273591105889083     
  0.613891182214980       0.264605406538605     
  0.166142911484160       8.246594753408232E-002
 
[MO]
Sym=     1a
Ene=  -0.735086405108861     
Spin= Alpha
Occup=     2.00000000
           1 -1.555654467711210E-007
           2 -1.095926075045245E-008
           3 -4.479779335540684E-008
           4  3.684653995969180E-008
           5  1.967190917106275E-007
           6 -8.355716997331191E-007
           7  2.191098672107078E-007
           8 -5.752627782863650E-008
           9  9.801760373571520E-006
          10 -6.029806124614732E-006
          11  5.065342117239910E-007
          12 -3.584544652024773E-008
          13  9.158369944566176E-006
          14 -2.292597849728968E-006
          15 -4.030042529668461E-006
          16  3.016502785948717E-006
          17 -7.038434606946353E-008
          18 -8.964997725658699E-008
          19  2.331873551342787E-008
          20  1.040406067552904E-008
          21 -3.071815412319184E-008
          22 -3.158060333105082E-008
          23 -1.223460196411971E-008
          24 -6.230141670954616E-009
          25 -3.407301485391935E-008
          26 -6.755867502391560E-009
          27 -4.719938096437698E-008
          28 -1.659507769864647E-008
          29  2.586704515961771E-008
          30  1.816558135383445E-005
          31 -1.020794146258267E-005
          32  5.498153933295390E-006
          33 -2.985621627340829E-006
          34  2.316928687279891E-005
          35  1.164329143826825E-005
          36 -1.057751425630699E-005
          37 -2.036917380099411E-005
          38 -4.009854525194804E-004
          39  1.760035789426864E-004
          40 -1.859716844700779E-004
          41 -2.567864507374152E-004
          42 -4.612298857894972E-004
          43  2.747958728046022E-004
          44 -1.251836164820314E-004
          45  7.596858837027043E-005
          46  4.948351225293315E-006
          47  2.796308491800720E-006
          48  7.239184124587226E-007
          49 -2.756587205430509E-006
          50 -6.672692630798225E-007
          51  7.494845329076953E-007
          52 -1.756118266461034E-006
          53 -7.052454228421184E-007
          54  4.080007254455178E-007
          55  7.929954393391729E-007
          56 -5.074706392180389E-007
          57 -1.071169519348683E-006
          58  1.198013293338082E-006
          59  8.628160624386150E-006
          60  7.013926284338202E-007
          61  4.091102984183497E-007
          62  1.908699218160284E-006
          63 -9.380032881914288E-006
          64  2.246281002422695E-007
          65 -4.210988777700030E-006
          66  8.121974477540785E-007
          67 -6.918324969904129E-004
          68  2.417616933124001E-004
          69 -1.910360402088089E-004
          70 -7.044912320433678E-004
          71 -2.239018253120572E-003
          72  2.113795873985206E-004
          73  6.789156448946402E-004
          74 -8.271005433531102E-004
          75 -2.802322691775811E-003
          76 -2.618416264751299E-003
          77  7.436700908761254E-004
          78  3.324533406138346E-003
          79 -1.878890083358536E-003
          80 -1.198486657260682E-003
          81 -4.603935416630074E-004
          82  7.559373758463027E-004
          83 -3.176635899497669E-004
          84 -1.579645468173251E-004
          85  2.042506018213805E-004
          86 -1.904701695326894E-004
          87 -3.646745065329256E-005
          88 -9.894777649036158E-007
          89  2.167169030862047E-005
          90 -5.986363092954492E-005
          91  1.577091536819468E-006
          92  3.098690165365779E-005
          93 -3.014681780603635E-005
          94 -8.299705589539288E-005
          95 -4.637257594387305E-004
          96 -4.546916296523190E-005
          97 -4.691172785379460E-005
          98  3.348541848414425E-007
          99 -3.729003324404058E-007
         100  9.215025293544176E-006
         101  1.802593812415097E-005
         102  2.113635724975296E-002
         103 -1.762783095147653E-002
         104  4.127044979950542E-003
         105  2.322288976578863E-002
         106  6.200150426794930E-002
         107 -2.505022773690683E-002
         108  4.943789095045194E-002
         109  1.019233171166866E-002
         110  0.356210624508121     
         111  4.321566193690934E-003
         112  0.213310653546038     
         113 -6.021372162241802E-002
         114  0.643032788502612     
         115  1.941727568996275E-002
         116 -0.198695771426579     