      -----------------------------------------------------------      
     |                   =====================                   |     
     |                           x T B                           |     
     |                   =====================                   |     
     |                         S. Grimme                         |     
     |          Mulliken Center for Theoretical Chemistry        |     
     |                    University of Bonn                     |     
     |                Version 6.1 RC1 (SAW190329)                |     
      -----------------------------------------------------------      

   This program is distributed in the hope that it will be useful,
   but WITHOUT ANY WARRANTY; without even the implied warranty of
   MERCHANTABILITY or FITNESS FOR A PARTICULAR PURPOSE.
   
   FOR NON-COMMERCIAL, ACADEMIA USE ONLY.
   
   Cite this work as:
   S. Grimme, C. Bannwarth, P. Shushkov, J. Comput. Theory Chem., 2017,
   13, 1989-2009. DOI: 10.1021/acs.jctc.7b00118
   C. Bannwarth, S. Ehlert and S. Grimme., J. Comput. Theory Chem., 2019,
   just accepted. DOI: 10.1021/acs.jctc.8b01176
   
   for sTDA-xTB:
   S. Grimme and C. Bannwarth, J. Chem. Phys., 2016, 145, 054103.
   DOI: 10.1063/1.4959605
   
   in the mass-spec context:
   V. Asgeirsson, C. Bauer and S. Grimme, Chem. Sci., 2017, 8, 4879.
   DOI: 10.1039/c7sc00601b
   
   for metadynamics refer to:
   S. Grimme, ChemRxiv, Preprint. DOI: 10.26434/chemrxiv.7660532.v1
   
   with help from (in alphabetical order)
   C. Bannwarth, F. Bohle, G. Brandenburg, E. Caldeweyher, M. Checinski,
   S. Dohm, S. Ehlert, S. Ehrlich, F. März, H. Neugebauer, J. Pisarek,
   P. Pracht, P. Shushkov, and S. Spicher.
   
 * started run on 2019/05/31 at 05:34:52.024     

           -------------------------------------------------
          |                Calculation Setup                |
           -------------------------------------------------

          program call               : /home/lum/install/xtb/xtb-190329/bin/xtb xtb_tmp.xyz --chrg -2 --grad --gfn 2 --etemp 500 --acc 0.1 --gbsa h2o --parallel 2
          hostname                   : cpu02
          coordinate file            : xtb_tmp.xyz
          omp threads                :                     2
          number of atoms            :                   545
          number of electrons        :                  1432
          charge                     :                    -2
          spin                       :                   0.0
          first test random number   :      0.60521872874517


molecular fragmentation (1/2 indicates fragments):
111111111111111122222222222222222222222222222222222222222222222222222222
222222222222222222222222222222222222222222222222222222222222222222222222
222222222222222222222222222222222222222222222222222222222222222222222222
222222222222222222222222222222222222222222222222222222222222222222222222
222222222222222222222222222222222222222222222222222222222222222222222222
222222222222222222222222222222222222222222222222222222222222222222222222
222222222222222222222222222222222222222222222222222222222222222222222222
22222222222222211222222222222222222222222
# atoms in fragment 1/2:    18   527
 fragment masses (1/2) :      101.15     3484.27
CMA distance (Bohr)    :  23.664
constraining FC (au)   :  0.0500

########################################################################
# WARNING! Please study the warnings concerning your input carefully
#  - XTBPATH is not set, using XTBHOME instead
#  - Process number higher than OMP_NUM_THREADS, I hope you know what you are doing.
########################################################################

           ------------------------------------------------- 
          |                 G F N 2 - x T B                 |
          | Geometry, Frequencies, Noncovalent interactions |
          |            JCTC 2018 parametrisation            |
           ------------------------------------------------- 
 
             k(s)              :                1.8500
             k(p)              :                2.2300
             k(d)              :                2.2300
             k(f)              :                2.0000
             kEN (H0ij)        :               -2.0000
             D4 a1             :                0.5200
             D4 a2             :                5.0000
             D4 s6             :                1.0000
             D4 s8             :                2.7000
             D4 s9             :                5.0000
             alphaj            :                2.0000

  Z AO/shell   Hii/eV     exponent
  1     Wed Apr 25 08:07:45 CEST 2018   EN: 2.200 GM2: 0.406  GM3: 0.0800  RAES: 1.40
     1s    -10.707211    1.230000
  6     Wed Apr 25 08:07:45 CEST 2018   EN: 2.550 GM2: 0.538  GM3: 0.1500  RAES: 3.00
     2s    -13.970922    2.096432
     2p    -10.063292    1.800000
  7     Wed Apr 25 08:07:45 CEST 2018   EN: 3.040 GM2: 0.461  GM3:-0.0640  RAES: 1.90
     2s    -16.686243    2.339881
     2p    -12.523956    2.014332
  8     Wed Apr 25 08:07:45 CEST 2018   EN: 3.440 GM2: 0.452  GM3:-0.0517  RAES: 1.80
     2s    -20.229985    2.439742
     2p    -15.503117    2.137023
 16     Tue Apr 24 11:44:34 CEST 2018   EN: 2.580 GM2: 0.340  GM3:-0.0502  RAES: 3.10
     3s    -20.029654    1.981333
     3p    -11.377694    2.025643
     3d     -0.420282    1.702555

 Solvent             : h2o
 Using internal parameter file: .param_gbsa2_h2o
 Gsolv ref. state (COSMO-RS): gsolv [1 M gas/solution]
 temperature (mdtemp)       :    298.150000000000     
 dielectric constant        :    80.2000000000000     
 rho                        :    1.00000000000000     
 mass                       :    18.0000000000000     
 surface tension            :    15.5689454083859     
 probe radius               :   0.975313790000000     
 vdW radii scaling          :    1.00000000000000     
 Gshift (Eh)                :   1.857443126794793E-003
 c1                         :    1.55243817000000     
 soset                      :   0.130326360000000     
 HB correction              :  T
 Number of grid points      :          230

            Z     q(EN)     CN     RAES       Cart. coordinates
     1  N   5.0   -0.69    3.00    1.93   337.19107   125.40752   170.58217
     2  C   4.0    0.06    3.98    3.59   339.12707   125.86980   172.45635
     3  C   4.0    0.07    3.00    3.02   341.72996   125.65144   171.21066
     4  O   6.0   -0.38    1.00    1.80   342.15163   124.16394   169.49722
     5  C   4.0   -0.09    3.98    3.58   338.85727   123.97063   174.65296
     6  C   4.0   -0.24    3.98    3.59   340.88582   124.41106   176.65391
     7  C   4.0   -0.24    3.98    3.59   336.23811   124.20313   175.84510
     8  H   1.0    0.27    1.00    1.43   337.05351   123.61719   169.94213
     9  H   1.0    0.10    0.99    1.43   338.85884   127.79994   173.15010
    10  H   1.0    0.13    0.99    1.43   339.09405   122.06643   173.87684
    11  H   1.0    0.10    0.99    1.43   340.57531   123.15533   178.24938
    12  H   1.0    0.11    0.99    1.43   342.77035   124.03809   175.92212
    13  H   1.0    0.09    0.99    1.43   340.81353   126.34808   177.33832
    14  H   1.0    0.10    0.99    1.43   336.01941   122.80342   177.33143
    15  H   1.0    0.09    0.99    1.43   336.02043   126.06632   176.68174
    16  H   1.0    0.09    0.99    1.43   334.73434   123.92841   174.47139
    17  N   5.0   -0.69    3.00    1.93   350.13089   128.39303   173.06600
    18  C   4.0    0.06    3.98    3.59   351.88951   129.11396   175.02000
    19  C   4.0    0.08    3.00    3.02   354.45920   129.66610   173.82431
    20  O   6.0   -0.38    1.00    1.80   355.12320   128.71748   171.82764
    21  C   4.0   -0.11    3.98    3.59   352.16242   126.98952   176.97907
    22  C   4.0    0.32    3.00    3.02   353.13540   124.55990   175.72681
    23  O   6.0   -0.49    1.03    1.80   355.42617   124.02170   176.07858
    24  O   6.0   -0.45    1.00    1.80   351.64446   123.23113   174.49385
    25  H   1.0    0.32    1.00    1.43   350.87496   127.35497   171.64632
    26  H   1.0    0.10    0.99    1.43   351.16256   130.81462   175.94977
    27  H   1.0    0.09    0.99    1.43   353.47439   127.56400   178.44885
    28  H   1.0    0.10    0.99    1.43   350.31014   126.61905   177.80837
    29  N   5.0   -0.73    3.00    1.92   373.16508   122.62442   201.49499
    30  C   4.0    0.06    3.98    3.58   370.55812   122.04626   202.12301
    31  C   4.0    0.04    3.00    3.02   370.28635   120.44913   204.50809
    32  O   6.0   -0.43    1.00    1.80   368.33929   119.25826   204.90793
    33  C   4.0   -0.11    3.99    3.60   369.12174   120.73551   199.96157
    34  C   4.0   -0.10    3.98    3.58   369.12775   122.19318   197.46478
    35  C   4.0   -0.23    3.99    3.60   367.40106   120.85219   195.57521
    36  C   4.0   -0.24    3.98    3.59   368.22718   124.90362   197.83971
    37  H   1.0    0.24    1.00    1.43   373.57725   124.49118   201.34118
    38  H   1.0    0.10    0.99    1.43   369.64981   123.85853   202.54079
    39  H   1.0    0.12    0.99    1.43   369.95911   118.87930   199.68255
    40  H   1.0    0.11    0.99    1.43   367.17821   120.48761   200.60015
    41  H   1.0    0.12    0.99    1.43   371.04801   122.23939   196.70169
    42  H   1.0    0.11    0.99    1.43   367.38079   121.87953   193.79897
    43  H   1.0    0.11    0.99    1.43   368.04444   118.94326   195.18521
    44  H   1.0    0.10    0.99    1.43   365.47894   120.76846   196.29633
    45  H   1.0    0.09    0.99    1.43   368.08032   125.83623   196.02263
    46  H   1.0    0.09    0.99    1.43   366.38292   124.91835   198.74350
    47  H   1.0    0.09    0.99    1.43   369.54149   125.99093   198.98417
    48  N   5.0   -0.69    3.00    1.93   363.50813   119.96344   207.58504
    49  C   4.0    0.07    3.98    3.58   361.59257   119.01515   205.86752
    50  C   4.0    0.08    3.00    3.02   361.98809   116.18229   205.40985
    51  O   6.0   -0.49    1.00    1.80   360.23484   114.68025   205.55631
    52  C   4.0   -0.22    3.98    3.59   361.69401   120.48666   203.39950
    53  H   1.0    0.29    1.00    1.43   364.69563   121.30769   206.94023
    54  H   1.0    0.11    0.99    1.43   359.73677   119.21922   206.76953
    55  H   1.0    0.09    0.99    1.43   360.24687   119.80102   202.11744
    56  H   1.0    0.11    0.99    1.43   361.38136   122.48536   203.76817
    57  H   1.0    0.11    0.99    1.43   363.53746   120.24982   202.52728
    58  N   5.0   -0.72    3.00    1.93   357.43404   110.17095   206.72715
    59  C   4.0    0.06    3.98    3.58   356.75148   108.41991   204.73756
    60  C   4.0    0.08    3.00    3.02   357.40123   105.70676   205.49687
    61  O   6.0   -0.46    1.00    1.80   355.93546   103.94921   205.11774
    62  C   4.0   -0.13    3.99    3.60   358.12677   109.10737   202.29373
    63  C   4.0   -0.10    3.98    3.58   357.20501   111.56294   201.05526
    64  C   4.0   -0.23    3.99    3.60   358.90583   112.13829   198.79629
    65  C   4.0   -0.23    3.98    3.59   354.45734   111.37903   200.19765
    66  H   1.0    0.31    1.00    1.43   358.62948   111.60987   206.29429
    67  H   1.0    0.11    0.99    1.43   354.69594   108.45934   204.46609
    68  H   1.0    0.12    0.99    1.43   360.13581   109.26352   202.73613
    69  H   1.0    0.10    0.99    1.43   357.89923   107.55235   200.95922
    70  H   1.0    0.13    0.99    1.43   357.37466   113.10058   202.42327
    71  H   1.0    0.09    0.99    1.43   358.21335   113.78659   197.79030
    72  H   1.0    0.10    0.99    1.43   360.82753   112.50451   199.42124
    73  H   1.0    0.10    0.99    1.43   358.92045   110.53794   197.50773
    74  H   1.0    0.10    0.99    1.43   353.91712   113.07132   199.16721
    75  H   1.0    0.10    0.99    1.43   354.20032   109.75786   198.96193
    76  H   1.0    0.09    0.99    1.43   353.18601   111.18275   201.79676
    77  N   5.0   -0.69    3.00    1.93   354.89710    99.65175   201.73088
    78  C   4.0    0.07    3.98    3.59   355.28219   100.45077   199.14505
    79  C   4.0    0.07    3.00    3.02   357.97614    99.79702   198.29459
    80  O   6.0   -0.38    1.00    1.80   359.84038   100.41869   199.49420
    81  C   4.0   -0.08    3.98    3.59   354.81877   103.30611   198.93435
    82  C   4.0   -0.23    3.98    3.59   355.60621   104.30832   196.35053
    83  C   4.0   -0.23    3.98    3.59   352.04256   103.88490   199.45193
    84  H   1.0    0.32    1.00    1.43   355.24799   100.92086   203.12690
    85  H   1.0    0.09    0.99    1.43   353.92344    99.40377   197.98365
    86  H   1.0    0.14    0.99    1.43   355.97742   104.19107   200.39763
    87  H   1.0    0.09    0.99    1.43   355.15163   106.30697   196.22903
    88  H   1.0    0.13    0.99    1.43   357.62731   104.09198   196.04559
    89  H   1.0    0.09    0.99    1.43   354.58207   103.31243   194.87294
    90  H   1.0    0.10    0.99    1.43   351.73307   105.91423   199.48176
    91  H   1.0    0.10    0.99    1.43   350.85317   103.06418   197.99067
    92  H   1.0    0.11    0.99    1.43   351.46499   103.10662   201.26404
    93  N   5.0   -0.70    3.00    1.92   359.95333   100.72666   191.69659
    94  C   4.0    0.01    3.98    3.59   360.77919   102.20576   189.55145
    95  C   4.0    0.28    3.01    3.02   362.30531   104.53562   190.34985
    96  O   6.0   -0.40    1.00    1.80   361.70865   105.84453   192.15529
    97  H   1.0    0.25    1.00    1.43   358.25090   101.08572   192.47493
    98  H   1.0    0.10    0.99    1.43   361.93541   100.98864   188.35172
    99  H   1.0    0.10    0.99    1.43   359.11149   102.84074   188.51898
   100  N   5.0   -0.47    3.01    1.93   364.26035   105.07400   188.84012
   101  C   4.0    0.10    4.00    3.61   365.84868   107.25113   189.31708
   102  C   4.0    0.28    3.01    3.02   364.19707   109.64345   189.25396
   103  O   6.0   -0.41    1.00    1.80   362.41475   109.85391   187.80529
   104  C   4.0    0.03    3.98    3.58   367.91620   107.39347   187.26923
   105  O   6.0   -0.50    1.99    1.82   368.87432   104.91014   187.00071
   106  C   4.0   -0.22    3.98    3.59   369.99005   109.26043   187.99742
   107  H   1.0    0.25    1.00    1.43   364.93919   103.80329   187.59053
   108  H   1.0    0.12    0.99    1.43   366.72579   107.03700   191.18360
   109  H   1.0    0.12    0.99    1.43   367.01494   107.98045   185.48530
   110  H   1.0    0.24    0.99    1.43   370.36242   104.94939   185.94859
   111  H   1.0    0.10    0.99    1.43   371.39843   109.34586   186.50325
   112  H   1.0    0.13    0.99    1.43   369.22535   111.14609   188.26865
   113  H   1.0    0.11    0.99    1.43   370.90315   108.61784   189.72179
   114  N   5.0   -0.49    3.01    1.93   364.95259   111.44826   190.85386
   115  C   4.0    0.07    3.99    3.60   363.69761   113.85618   191.19376
   116  C   4.0    0.27    3.01    3.02   365.26510   116.00919   190.03002
   117  O   6.0   -0.43    1.00    1.80   367.55862   115.91454   189.83698
   118  C   4.0   -0.22    3.99    3.60   363.36925   114.36929   194.01570
   119  H   1.0    0.23    1.00    1.43   366.45949   111.12523   191.97511
   120  H   1.0    0.15    0.99    1.43   361.87483   113.74017   190.22808
   121  H   1.0    0.09    0.99    1.43   362.32432   116.10734   194.30265
   122  H   1.0    0.10    0.99    1.43   362.33286   112.82363   194.88013
   123  H   1.0    0.11    0.99    1.43   365.20886   114.53713   194.91317
   124  N   5.0   -0.49    3.01    1.93   363.85399   118.01887   189.39450
   125  C   4.0    0.07    3.98    3.59   364.78104   120.24093   188.08875
   126  C   4.0    0.27    3.01    3.02   363.05039   122.46980   188.75280
   127  O   6.0   -0.47    1.00    1.80   360.98540   122.09031   189.72790
   128  C   4.0   -0.01    3.98    3.58   364.75206   119.76201   185.19802
   129  O   6.0   -0.49    1.99    1.82   362.32729   119.22499   184.27661
   130  H   1.0    0.28    1.00    1.43   361.94592   117.84906   189.43775
   131  H   1.0    0.11    0.99    1.43   366.72910   120.59153   188.68217
   132  H   1.0    0.11    0.99    1.43   365.38606   121.44643   184.18798
   133  H   1.0    0.12    0.99    1.43   366.05471   118.19715   184.80308
   134  H   1.0    0.30    0.99    1.43   361.69677   117.68716   185.05758
   135  N   5.0   -0.50    3.00    1.93   363.92603   124.78364   188.23545
   136  C   4.0    0.08    4.00    3.62   362.44796   127.04394   188.70151
   137  C   4.0    0.26    3.01    3.02   361.70720   128.26665   186.19732
   138  O   6.0   -0.43    1.00    1.80   363.27316   128.59333   184.51232
   139  C   4.0   -0.09    3.98    3.59   363.90889   129.03722   190.24850
   140  C   4.0   -0.23    3.98    3.59   362.08556   131.10105   191.10606
   141  C   4.0   -0.23    3.98    3.59   365.18781   127.80415   192.51359
   142  H   1.0    0.23    1.00    1.43   365.58892   125.01708   187.33280
   143  H   1.0    0.15    0.99    1.43   360.76286   126.44608   189.73766
   144  H   1.0    0.12    0.99    1.43   365.35192   129.89130   189.03429
   145  H   1.0    0.09    0.99    1.43   363.10498   132.52369   192.17676
   146  H   1.0    0.12    0.99    1.43   361.20138   132.01529   189.49348
   147  H   1.0    0.10    0.99    1.43   360.60501   130.30822   192.29016
   148  H   1.0    0.08    0.99    1.43   366.09607   129.24056   193.66512
   149  H   1.0    0.10    0.99    1.43   363.80331   126.80223   193.65614
   150  H   1.0    0.10    0.99    1.43   366.61344   126.45964   191.89828
   151  N   5.0   -0.48    3.01    1.93   359.31267   129.03202   186.06987
   152  C   4.0    0.07    3.99    3.61   358.26102   130.19332   183.84347
   153  C   4.0    0.04    3.00    3.02   356.44208   132.32341   184.53266
   154  O   6.0   -0.47    1.00    1.80   355.31076   132.41284   186.54703
   155  C   4.0   -0.09    3.98    3.59   356.82967   128.24966   182.19145
   156  C   4.0   -0.20    3.98    3.59   358.60992   126.18605   181.25350
   157  C   4.0   -0.21    3.98    3.59   354.59520   127.10622   183.60929
   158  H   1.0    0.28    1.00    1.43   358.08645   128.60757   187.48112
   159  H   1.0    0.12    0.99    1.43   359.82214   130.96270   182.73003
   160  H   1.0    0.09    0.99    1.43   356.14060   129.30308   180.54913
   161  H   1.0    0.12    0.99    1.43   357.70525   125.11784   179.75199
   162  H   1.0    0.13    0.99    1.43   360.32737   127.01315   180.49448
   163  H   1.0    0.13    0.99    1.43   359.12278   124.90574   182.77587
   164  H   1.0    0.09    0.99    1.43   353.65007   125.70755   182.43924
   165  H   1.0    0.14    0.99    1.43   355.23117   126.19690   185.33889
   166  H   1.0    0.12    0.99    1.43   353.21532   128.54994   184.09348
   167  N   5.0   -0.67    3.00    1.93   349.93769   134.91313   181.65276
   168  C   4.0    0.07    3.98    3.58   347.87192   133.81987   180.22921
   169  C   4.0    0.06    3.00    3.02   346.78458   135.73851   178.34516
   170  O   6.0   -0.39    1.00    1.80   346.98346   138.01731   178.69309
   171  C   4.0   -0.14    4.00    3.63   345.74362   133.00667   182.01134
   172  C   4.0   -0.14    3.98    3.58   346.57112   131.05779   183.96535
   173  S   6.0   -0.19    2.01    3.10   347.96324   128.20438   182.59358
   174  C   4.0   -0.21    3.98    3.58   345.24247   126.99725   180.89734
   175  H   1.0    0.27    1.00    1.43   349.57325   135.59466   183.40462
   176  H   1.0    0.10    0.99    1.43   348.59179   132.17532   179.19647
   177  H   1.0    0.11    0.99    1.43   345.05777   134.67830   183.01037
   178  H   1.0    0.09    0.99    1.43   344.20537   132.24367   180.86999
   179  H   1.0    0.12    0.99    1.43   348.02434   131.81649   185.21045
   180  H   1.0    0.10    0.99    1.43   344.95699   130.45098   185.09061
   181  H   1.0    0.11    0.99    1.43   345.61115   125.01365   180.52532
   182  H   1.0    0.09    0.99    1.43   343.57155   127.19158   182.06950
   183  H   1.0    0.09    0.99    1.43   345.03831   128.00140   179.11892
   184  N   5.0   -0.70    3.00    1.93   351.04366   137.00263   191.49375
   185  C   4.0    0.08    3.99    3.60   352.74575   134.87726   191.36368
   186  C   4.0    0.28    3.01    3.02   351.35909   132.40507   191.90341
   187  O   6.0   -0.42    1.00    1.80   349.55710   132.23888   193.35379
   188  C   4.0   -0.14    3.99    3.60   354.87164   135.14311   193.31095
   189  C   4.0   -0.11    3.98    3.58   356.44241   137.56204   193.01957
   190  C   4.0   -0.24    3.98    3.59   358.39495   137.68096   195.14295
   191  C   4.0   -0.23    3.98    3.59   357.76026   137.68588   190.45772
   192  H   1.0    0.28    1.00    1.43   350.66099   137.65849   193.24252
   193  H   1.0    0.14    0.99    1.43   353.50635   134.78140   189.44730
   194  H   1.0    0.14    0.99    1.43   354.02397   135.10834   195.19645
   195  H   1.0    0.10    0.99    1.43   356.11687   133.50712   193.13558
   196  H   1.0    0.11    0.99    1.43   355.18445   139.19320   193.19953
   197  H   1.0    0.09    0.99    1.43   359.41625   139.46315   195.09382
   198  H   1.0    0.10    0.99    1.43   357.49639   137.48895   196.98306
   199  H   1.0    0.09    0.99    1.43   359.75652   136.15549   194.93624
   200  H   1.0    0.09    0.99    1.43   358.98484   139.33235   190.38247
   201  H   1.0    0.11    0.99    1.43   358.91078   136.00842   190.17052
   202  H   1.0    0.11    0.99    1.43   356.39445   137.81418   188.93226
   203  N   5.0   -0.50    3.01    1.93   352.34871   130.43222   190.68369
   204  C   4.0    0.08    4.00    3.61   351.65411   127.86509   191.23217
   205  C   4.0    0.27    3.02    3.02   354.05734   126.28489   191.29303
   206  O   6.0   -0.46    1.00    1.80   355.90151   126.80808   189.99063
   207  C   4.0   -0.20    3.98    3.59   349.84582   126.75407   189.26138
   208  H   1.0    0.29    1.00    1.43   353.77500   130.68273   189.42949
   209  H   1.0    0.16    0.99    1.43   350.71730   127.83725   193.07337
   210  H   1.0    0.12    0.99    1.43   349.40612   124.81282   189.76749
   211  H   1.0    0.11    0.99    1.43   348.10764   127.84714   189.24550
   212  H   1.0    0.11    0.99    1.43   350.67648   126.80087   187.38368
   213  N   5.0   -0.50    3.01    1.93   353.95893   124.33039   192.88179
   214  C   4.0    0.08    4.01    3.63   355.75924   122.27594   192.70773
   215  C   4.0    0.27    3.01    3.02   354.65353   120.40442   190.79635
   216  O   6.0   -0.47    1.00    1.80   352.50928   119.54210   191.04814
   217  C   4.0   -0.09    3.98    3.58   356.28785   121.05385   195.27605
   218  C   4.0   -0.23    3.99    3.60   358.14286   118.87814   194.91056
   219  C   4.0   -0.23    3.99    3.60   357.41515   123.01270   197.06280
   220  H   1.0    0.28    1.00    1.43   352.31688   124.03112   193.83375
   221  H   1.0    0.15    0.99    1.43   357.51285   123.05679   191.94818
   222  H   1.0    0.11    0.99    1.43   354.50848   120.33289   196.04877
   223  H   1.0    0.08    0.99    1.43   358.67883   118.09881   196.73300
   224  H   1.0    0.11    0.99    1.43   357.32300   117.37830   193.76867
   225  H   1.0    0.12    0.99    1.43   359.82150   119.58219   193.95544
   226  H   1.0    0.08    0.99    1.43   357.68453   122.19746   198.92556
   227  H   1.0    0.10    0.99    1.43   359.23386   123.63174   196.33855
   228  H   1.0    0.11    0.99    1.43   356.18462   124.64567   197.22060
   229  N   5.0   -0.49    3.01    1.93   356.12740   119.96573   188.80745
   230  C   4.0    0.08    4.00    3.61   355.43396   118.34203   186.71617
   231  C   4.0    0.27    3.01    3.02   356.79692   115.81301   187.05543
   232  O   6.0   -0.45    1.00    1.80   359.09553   115.71169   187.34485
   233  C   4.0   -0.14    3.99    3.60   356.19147   119.55416   184.20888
   234  C   4.0   -0.15    3.98    3.59   355.37070   117.96837   181.94256
   235  C   4.0   -0.14    3.98    3.59   356.46582   119.11105   179.53474
   236  C   4.0   -0.03    3.98    3.58   355.34426   117.95625   177.15184
   237  N   5.0   -0.70    3.96    2.77   356.33639   119.32940   174.92242
   238  H   1.0    0.29    1.00    1.43   357.93021   120.63600   188.82502
   239  H   1.0    0.15    0.99    1.43   353.39314   118.03801   186.77632
   240  H   1.0    0.11    0.99    1.43   355.31176   121.41312   184.08558
   241  H   1.0    0.15    0.99    1.43   358.23699   119.79823   184.16349
   242  H   1.0    0.15    0.99    1.43   356.01517   116.01916   182.13782
   243  H   1.0    0.13    0.99    1.43   353.31011   117.90221   181.83756
   244  H   1.0    0.12    0.99    1.43   356.06781   121.13260   179.52497
   245  H   1.0    0.12    0.99    1.43   358.51134   118.86551   179.55506
   246  H   1.0    0.14    0.99    1.43   355.75490   115.93874   177.03619
   247  H   1.0    0.14    0.99    1.43   353.29297   118.16233   177.17846
   248  H   1.0    0.26    1.00    1.43   355.40294   118.80598   173.31546
   249  H   1.0    0.32    1.01    1.43   356.01703   121.40221   175.25873
   250  H   1.0    0.25    1.00    1.43   358.23200   119.01392   174.71457
   251  N   5.0   -0.49    3.02    1.93   355.25624   113.82601   187.10356
   252  C   4.0    0.08    3.99    3.61   356.02840   111.22074   187.47399
   253  C   4.0    0.28    3.02    3.02   354.91244   109.79005   185.22867
   254  O   6.0   -0.44    1.00    1.80   352.66776   109.22170   185.16187
   255  C   4.0   -0.08    3.98    3.59   354.92933   110.17666   189.95602
   256  C   4.0   -0.22    3.98    3.59   355.57959   107.38455   190.24347
   257  C   4.0   -0.22    3.98    3.59   355.89620   111.68109   192.21122
   258  H   1.0    0.29    1.00    1.43   353.39293   114.10058   186.72648
   259  H   1.0    0.16    0.99    1.43   358.09541   111.13728   187.49163
   260  H   1.0    0.13    0.99    1.43   352.87135   110.36918   189.81746
   261  H   1.0    0.10    0.99    1.43   354.59540   106.61766   191.86958
   262  H   1.0    0.12    0.99    1.43   354.99637   106.32495   188.58053
   263  H   1.0    0.14    0.99    1.43   357.59936   107.13768   190.52919
   264  H   1.0    0.09    0.99    1.43   355.03064   110.99577   193.94047
   265  H   1.0    0.12    0.99    1.43   357.93355   111.46540   192.36430
   266  H   1.0    0.12    0.99    1.43   355.44212   113.67321   191.99359
   267  N   5.0   -0.49    3.00    1.93   356.51013   109.30128   183.32944
   268  C   4.0    0.02    3.99    3.61   355.63079   108.19109   180.97743
   269  C   4.0    0.30    3.00    3.02   353.63239   109.91932   179.77315
   270  O   6.0   -0.41    1.00    1.80   354.22446   111.94819   178.83630
   271  H   1.0    0.25    1.00    1.43   358.33436   109.83631   183.47340
   272  H   1.0    0.11    0.99    1.43   357.22219   108.03147   179.68540
   273  H   1.0    0.12    0.99    1.43   354.81469   106.32666   181.32805
   274  N   5.0   -0.47    3.01    1.93   351.25306   109.10390   179.99367
   275  C   4.0    0.08    3.99    3.61   349.11336   110.32376   178.82420
   276  C   4.0    0.28    3.01    3.02   347.41100   111.66728   180.74517
   277  O   6.0   -0.41    1.00    1.80   345.50756   112.81086   180.07812
   278  C   4.0   -0.09    3.98    3.59   347.50327   108.34625   177.46395
   279  C   4.0    0.32    2.99    3.02   349.19587   106.72327   175.66500
   280  O   6.0   -0.40    1.00    1.80   350.55837   105.10861   176.70994
   281  O   6.0   -0.38    1.00    1.80   349.06538   107.18448   173.36509
   282  H   1.0    0.27    1.00    1.43   350.93587   107.28297   180.47711
   283  H   1.0    0.15    0.99    1.43   349.81697   111.74348   177.48524
   284  H   1.0    0.14    0.99    1.43   346.65804   107.10292   178.88321
   285  H   1.0    0.13    0.99    1.43   346.01600   109.28298   176.39307
   286  N   5.0   -0.44    3.01    1.93   348.15734   111.47157   183.13634
   287  C   4.0    0.08    4.00    3.61   346.70259   112.41680   185.22767
   288  C   4.0    0.28    3.01    3.02   347.87911   114.87502   186.19247
   289  O   6.0   -0.43    1.00    1.80   350.12262   115.36110   185.92379
   290  C   4.0   -0.10    3.98    3.59   346.62472   110.45529   187.35085
   291  C   4.0    0.32    2.99    3.02   344.77558   108.26486   186.64853
   292  O   6.0   -0.37    1.00    1.80   345.08430   107.13881   184.63196
   293  O   6.0   -0.47    1.01    1.80   343.06056   107.83866   188.24102
   294  H   1.0    0.31    1.00    1.43   349.72828   110.45374   183.55382
   295  H   1.0    0.14    0.99    1.43   344.79528   112.80247   184.50975
   296  H   1.0    0.13    0.99    1.43   348.52587   109.69436   187.60061
   297  H   1.0    0.11    0.99    1.43   345.98760   111.33606   189.09876
   298  N   5.0   -0.49    3.01    1.93   346.27965   116.37762   187.45324
   299  C   4.0    0.08    3.99    3.61   346.97722   118.85408   188.37870
   300  C   4.0    0.27    3.01    3.02   345.82364   119.25106   191.00349
   301  O   6.0   -0.47    1.00    1.80   343.60484   118.72136   191.41446
   302  C   4.0   -0.13    3.99    3.60   345.90579   120.94076   186.64097
   303  C   4.0   -0.02    3.03    3.02   346.62615   120.58124   183.91880
   304  C   4.0   -0.09    3.03    3.02   345.05408   119.23894   182.29596
   305  C   4.0   -0.10    3.03    3.02   348.84805   121.58700   182.95589
   306  C   4.0   -0.06    3.03    3.02   345.64318   118.95015   179.77411
   307  C   4.0   -0.10    3.03    3.02   349.44957   121.32571   180.42620
   308  C   4.0    0.11    3.03    3.02   347.84137   120.02683   178.79974
   309  O   6.0   -0.45    1.99    1.83   348.31579   119.75871   176.29285
   310  H   1.0    0.24    1.00    1.43   344.41397   115.97210   187.47101
   311  H   1.0    0.15    0.99    1.43   349.03827   118.92261   188.44728
   312  H   1.0    0.11    0.99    1.43   343.84927   120.88621   186.81119
   313  H   1.0    0.09    0.99    1.43   346.59566   122.76014   187.31820
   314  H   1.0    0.12    0.99    1.43   343.31692   118.42239   182.99220
   315  H   1.0    0.11    1.00    1.43   350.10606   122.62239   184.18267
   316  H   1.0    0.15    1.00    1.43   344.43619   117.87370   178.53345
   317  H   1.0    0.12    1.00    1.43   351.16844   122.14070   179.68793
   318  H   1.0    0.31    0.99    1.43   349.60717   120.96378   175.70102
   319  N   5.0   -0.49    3.01    1.93   347.36795   120.28805   192.69524
   320  C   4.0    0.08    3.99    3.61   346.63246   120.90504   195.26110
   321  C   4.0    0.28    3.02    3.02   346.98165   123.74510   195.67503
   322  O   6.0   -0.46    1.00    1.80   349.00930   124.75042   195.17195
   323  C   4.0   -0.12    3.99    3.60   348.30293   119.48749   197.17331
   324  C   4.0   -0.03    3.03    3.02   347.85122   116.68964   197.09036
   325  C   4.0   -0.10    3.03    3.02   349.09826   115.16720   195.34724
   326  C   4.0   -0.11    3.03    3.02   346.14738   115.58168   198.75077
   327  C   4.0   -0.09    3.03    3.02   348.65848   112.59316   195.26276
   328  C   4.0   -0.11    3.03    3.02   345.72165   113.00583   198.70651
   329  C   4.0    0.09    3.03    3.02   346.98179   111.49715   196.96482
   330  O   6.0   -0.51    1.99    1.83   346.55680   108.95402   196.83412
   331  H   1.0    0.28    1.00    1.43   349.23931   120.45164   192.27060
   332  H   1.0    0.15    0.99    1.43   344.65299   120.39741   195.52468
   333  H   1.0    0.11    0.99    1.43   350.27496   119.91138   196.74040
   334  H   1.0    0.11    0.99    1.43   347.84721   120.22517   199.04026
   335  H   1.0    0.14    1.00    1.43   350.43380   115.99749   194.04684
   336  H   1.0    0.13    1.00    1.43   345.14045   116.74495   200.09154
   337  H   1.0    0.12    1.00    1.43   349.61992   111.41288   193.90680
   338  H   1.0    0.11    1.00    1.43   344.41575   112.17362   200.03461
   339  H   1.0    0.24    0.99    1.43   345.71286   108.38833   198.36348
   340  N   5.0   -0.48    3.01    1.93   344.96174   125.04470   196.47943
   341  C   4.0    0.10    4.00    3.62   345.27121   127.71199   197.03723
   342  C   4.0    0.31    3.01    3.02   347.41680   128.05870   198.95759
   343  O   6.0   -0.40    1.00    1.80   347.61581   126.67381   200.80689
   344  C   4.0   -0.01    3.98    3.58   342.80093   128.81651   198.06883
   345  O   6.0   -0.45    1.98    1.82   342.08327   127.50691   200.26017
   346  H   1.0    0.30    1.00    1.43   343.60651   124.11190   197.46373
   347  H   1.0    0.12    0.99    1.43   345.78642   128.70292   195.29261
   348  H   1.0    0.12    0.99    1.43   343.10069   130.83430   198.45866
   349  H   1.0    0.10    0.99    1.43   341.33074   128.64186   196.60842
   350  H   1.0    0.30    0.99    1.43   340.56013   128.31083   201.00103
   351  N   5.0   -0.47    3.01    1.93   349.02274   129.93774   198.45182
   352  C   4.0    0.07    3.99    3.61   351.20708   130.37311   200.02982
   353  C   4.0    0.05    3.00    3.02   351.63125   133.19707   200.36346
   354  O   6.0   -0.41    1.00    1.80   351.07106   134.75462   198.75081
   355  C   4.0   -0.21    3.98    3.59   353.55497   129.15889   198.86403
   356  H   1.0    0.29    1.00    1.43   348.90745   131.00113   196.85679
   357  H   1.0    0.13    0.99    1.43   350.83790   129.53096   201.88091
   358  H   1.0    0.08    0.99    1.43   355.14710   129.36591   200.14001
   359  H   1.0    0.12    0.99    1.43   353.18920   127.15859   198.57616
   360  H   1.0    0.12    0.99    1.43   353.98035   130.04696   197.05856
   361  N   5.0   -0.71    3.00    1.93   364.96795   132.39954   206.00617
   362  C   4.0    0.06    3.98    3.59   362.58873   131.82567   204.78092
   363  C   4.0    0.06    3.00    3.02   361.40949   129.53370   206.07590
   364  O   6.0   -0.44    1.00    1.80   362.53031   127.53784   206.40860
   365  C   4.0   -0.09    3.98    3.58   362.93262   131.44989   201.90552
   366  C   4.0   -0.17    3.98    3.59   360.39071   130.72862   200.72136
   367  C   4.0   -0.22    3.98    3.59   364.99718   129.52177   201.35124
   368  C   4.0   -0.25    3.98    3.59   360.44894   130.78875   197.84274
   369  H   1.0    0.27    1.00    1.43   366.04605   130.92861   206.56004
   370  H   1.0    0.10    0.99    1.43   361.35805   133.45950   205.08954
   371  H   1.0    0.09    0.99    1.43   363.53382   133.28270   201.14911
   372  H   1.0    0.11    0.99    1.43   359.86071   128.84331   201.37370
   373  H   1.0    0.09    0.99    1.43   358.96295   132.05265   201.40930
   374  H   1.0    0.08    0.99    1.43   365.17494   129.22819   199.33145
   375  H   1.0    0.09    0.99    1.43   366.80977   130.19485   202.05090
   376  H   1.0    0.12    0.99    1.43   364.57080   127.73504   202.27064
   377  H   1.0    0.09    0.99    1.43   358.55489   130.53634   197.09594
   378  H   1.0    0.09    0.99    1.43   361.17987   132.59388   197.19402
   379  H   1.0    0.09    0.99    1.43   361.64516   129.29544   197.10690
   380  N   5.0   -0.69    3.00    1.93   354.23732   125.15728   206.89411
   381  C   4.0    0.07    3.99    3.60   351.84798   124.47075   205.73905
   382  C   4.0    0.07    3.00    3.02   349.72508   125.27852   207.52382
   383  O   6.0   -0.40    1.00    1.80   349.98424   125.21598   209.82903
   384  C   4.0   -0.09    3.98    3.59   351.76895   121.62888   205.14636
   385  C   4.0   -0.17    3.98    3.59   353.82501   121.01327   203.19772
   386  C   4.0   -0.23    3.98    3.59   349.14861   120.92401   204.17672
   387  C   4.0   -0.24    3.98    3.58   354.27252   118.18696   202.86513
   388  H   1.0    0.28    1.00    1.43   354.65236   124.21974   208.50425
   389  H   1.0    0.12    0.99    1.43   351.68200   125.54824   203.98359
   390  H   1.0    0.11    0.99    1.43   352.15155   120.60023   206.90314
   391  H   1.0    0.10    0.99    1.43   353.27587   121.85924   201.39837
   392  H   1.0    0.09    0.99    1.43   355.57934   121.91241   203.80322
   393  H   1.0    0.09    0.99    1.43   349.14513   118.98824   203.49744
   394  H   1.0    0.11    0.99    1.43   347.73709   121.10863   205.65811
   395  H   1.0    0.13    0.99    1.43   348.61286   122.17968   202.63869
   396  H   1.0    0.09    0.99    1.43   355.85975   117.87254   201.60176
   397  H   1.0    0.10    0.99    1.43   354.69632   117.30862   204.67323
   398  H   1.0    0.09    0.99    1.43   352.62772   117.26306   202.05755
   399  N   5.0   -0.69    3.00    1.93   341.91466   114.36588   209.40389
   400  C   4.0    0.07    3.98    3.59   342.89228   116.17431   207.60937
   401  C   4.0    0.29    3.01    3.02   340.84891   116.91798   205.69166
   402  O   6.0   -0.41    1.00    1.80   339.06702   115.53417   205.20573
   403  C   4.0   -0.14    3.99    3.60   345.13083   115.01124   206.17693
   404  C   4.0   -0.11    3.98    3.58   347.19363   113.88631   207.88041
   405  C   4.0   -0.24    3.98    3.59   349.29787   112.78552   206.23503
   406  C   4.0   -0.23    3.98    3.59   348.26255   115.84213   209.70875
   407  H   1.0    0.26    1.00    1.43   341.84084   112.55311   208.81887
   408  H   1.0    0.11    0.99    1.43   343.45580   117.86553   208.65299
   409  H   1.0    0.11    0.99    1.43   344.39507   113.51755   204.95754
   410  H   1.0    0.10    0.99    1.43   345.94634   116.47956   204.98747
   411  H   1.0    0.10    0.99    1.43   346.37369   112.35403   209.00212
   412  H   1.0    0.09    0.99    1.43   350.70140   111.84502   207.40653
   413  H   1.0    0.09    0.99    1.43   348.53789   111.40876   204.91543
   414  H   1.0    0.09    0.99    1.43   350.22804   114.27923   205.17662
   415  H   1.0    0.10    0.99    1.43   349.81327   115.02812   210.78428
   416  H   1.0    0.10    0.99    1.43   348.95652   117.48960   208.69669
   417  H   1.0    0.10    0.99    1.43   346.83372   116.46030   211.05083
   418  N   5.0   -0.48    3.01    1.93   341.32438   119.09758   204.48190
   419  C   4.0    0.08    3.99    3.61   339.46838   120.26991   202.83524
   420  C   4.0    0.28    3.01    3.02   340.30194   119.94845   200.06928
   421  O   6.0   -0.45    1.00    1.80   342.12419   121.07644   199.19898
   422  C   4.0   -0.09    3.99    3.60   339.23241   123.08998   203.39425
   423  C   4.0    0.27    3.00    3.02   338.51781   123.64192   206.11759
   424  O   6.0   -0.38    1.00    1.80   338.22579   121.98774   207.70435
   425  N   5.0   -0.64    3.00    1.93   338.24929   126.10283   206.63913
   426  H   1.0    0.24    1.00    1.43   342.65248   120.26203   205.21531
   427  H   1.0    0.16    0.99    1.43   337.66649   119.29806   203.15065
   428  H   1.0    0.15    0.99    1.43   341.02661   124.01936   202.96994
   429  H   1.0    0.11    0.99    1.43   337.81058   123.93201   202.16332
   430  H   1.0    0.29    1.00    1.43   337.77840   126.61042   208.42033
   431  H   1.0    0.32    1.00    1.43   338.28145   127.44043   205.25945
   432  N   5.0   -0.48    3.01    1.93   338.95994   118.26938   198.75126
   433  C   4.0    0.08    3.99    3.61   339.35657   117.82855   196.07339
   434  C   4.0    0.28    3.01    3.02   337.68148   119.63828   194.57319
   435  O   6.0   -0.47    1.00    1.80   335.76886   120.55969   195.51010
   436  C   4.0   -0.14    3.98    3.59   338.71717   115.05704   195.51216
   437  C   4.0   -0.15    3.98    3.58   339.38600   114.24963   192.82310
   438  C   4.0   -0.15    3.98    3.59   338.61721   111.51284   192.27988
   439  C   4.0   -0.05    3.98    3.58   340.06013   109.52873   193.78820
   440  N   5.0   -0.71    3.97    2.80   342.73345   109.43752   192.96445
   441  H   1.0    0.29    1.00    1.43   337.28815   117.64701   199.46073
   442  H   1.0    0.14    0.99    1.43   341.33874   118.20640   195.62723
   443  H   1.0    0.12    0.99    1.43   339.75778   113.94081   196.89650
   444  H   1.0    0.11    0.99    1.43   336.70312   114.77301   195.84046
   445  H   1.0    0.14    0.99    1.43   338.36276   115.43802   191.48861
   446  H   1.0    0.13    0.99    1.43   341.39547   114.57223   192.48625
   447  H   1.0    0.10    0.99    1.43   336.61169   111.31878   192.70033
   448  H   1.0    0.13    0.99    1.43   338.87560   111.12870   190.27164
   449  H   1.0    0.10    0.99    1.43   339.97905   109.95863   195.80119
   450  H   1.0    0.11    0.99    1.43   339.22118   107.68054   193.44860
   451  H   1.0    0.30    0.99    1.43   342.87036   108.83609   190.99787
   452  H   1.0    0.26    1.00    1.43   343.51706   111.20134   193.12455
   453  H   1.0    0.27    1.00    1.43   343.80199   108.22105   194.04469
   454  N   5.0   -0.48    3.01    1.93   338.37511   120.14477   192.20328
   455  C   4.0    0.06    3.99    3.61   336.78585   121.68629   190.58399
   456  C   4.0    0.05    3.00    3.02   335.17835   119.96269   188.88887
   457  O   6.0   -0.42    1.00    1.80   336.03780   118.05564   187.91267
   458  C   4.0   -0.14    3.99    3.60   338.36762   123.45362   188.93319
   459  C   4.0   -0.09    3.98    3.58   339.78154   125.49100   190.43495
   460  C   4.0   -0.23    3.98    3.59   341.64695   126.85713   188.70635
   461  C   4.0   -0.23    3.98    3.59   337.96861   127.41129   191.60102
   462  H   1.0    0.28    1.00    1.43   340.05374   119.51103   191.52204
   463  H   1.0    0.12    0.99    1.43   335.50924   122.76155   191.80309
   464  H   1.0    0.12    0.99    1.43   339.73237   122.30372   187.89746
   465  H   1.0    0.09    0.99    1.43   337.12114   124.34646   187.55113
   466  H   1.0    0.14    0.99    1.43   340.83546   124.57536   191.96669
   467  H   1.0    0.10    0.99    1.43   342.63925   128.31248   189.76533
   468  H   1.0    0.10    0.99    1.43   343.03000   125.54637   187.94297
   469  H   1.0    0.09    0.99    1.43   340.63720   127.73892   187.14893
   470  H   1.0    0.10    0.99    1.43   339.01453   128.87941   192.59124
   471  H   1.0    0.09    0.99    1.43   336.82207   128.31604   190.15334
   472  H   1.0    0.10    0.99    1.43   336.69345   126.54263   192.96067
   473  N   5.0   -0.70    3.00    1.93   330.55064   126.55246   196.13004
   474  C   4.0    0.07    3.98    3.59   332.06511   124.91958   197.73340
   475  C   4.0    0.28    3.01    3.02   330.35733   122.72993   198.57178
   476  O   6.0   -0.41    1.00    1.80   328.32530   123.15007   199.62915
   477  C   4.0   -0.13    3.98    3.59   333.10078   126.34300   200.01675
   478  C   4.0   -0.13    3.98    3.58   335.24788   128.14751   199.34324
   479  C   4.0    0.30    2.99    3.02   335.90203   129.78440   201.68835
   480  O   6.0   -0.40    1.00    1.80   334.20536   131.11704   202.58235
   481  O   6.0   -0.48    1.00    1.80   338.12681   129.62441   202.54409
   482  H   1.0    0.27    1.00    1.43   329.59225   127.96256   196.98013
   483  H   1.0    0.13    0.99    1.43   333.61797   124.16368   196.59796
   484  H   1.0    0.14    0.99    1.43   331.59104   127.42854   200.91392
   485  H   1.0    0.12    0.99    1.43   333.77835   124.96545   201.40172
   486  H   1.0    0.11    0.99    1.43   336.91939   127.11031   198.72634
   487  H   1.0    0.10    0.99    1.43   334.64614   129.42318   197.83792
   488  N   5.0   -0.49    3.01    1.93   331.16627   120.43924   197.96185
   489  C   4.0    0.08    4.00    3.61   329.86418   118.15969   198.70809
   490  C   4.0    0.26    3.02    3.02   331.60832   116.70508   200.49047
   491  O   6.0   -0.45    1.00    1.80   333.89025   117.07786   200.55392
   492  C   4.0   -0.09    3.98    3.58   329.06575   116.54052   196.40862
   493  C   4.0   -0.22    3.98    3.59   327.40053   118.09377   194.63510
   494  C   4.0   -0.21    3.98    3.59   331.36637   115.51828   195.00298
   495  H   1.0    0.30    1.00    1.43   332.90362   120.23497   197.15996
   496  H   1.0    0.13    0.99    1.43   328.17510   118.75485   199.75035
   497  H   1.0    0.10    0.99    1.43   327.96905   114.95036   197.15318
   498  H   1.0    0.09    0.99    1.43   326.71108   116.91282   193.10521
   499  H   1.0    0.11    0.99    1.43   325.78677   118.87638   195.63907
   500  H   1.0    0.12    0.99    1.43   328.47038   119.65947   193.83515
   501  H   1.0    0.10    0.99    1.43   330.76335   114.39896   193.39321
   502  H   1.0    0.13    0.99    1.43   332.52802   117.06899   194.31791
   503  H   1.0    0.12    0.99    1.43   332.48367   114.34203   196.26039
   504  N   5.0   -0.49    3.01    1.93   330.47210   114.96529   201.93368
   505  C   4.0    0.08    4.00    3.61   331.90984   113.65376   203.85821
   506  C   4.0    0.05    3.00    3.02   330.99608   110.94170   204.15741
   507  O   6.0   -0.43    1.00    1.80   328.75619   110.40379   204.30448
   508  C   4.0   -0.07    3.98    3.58   331.77878   115.07254   206.41467
   509  C   4.0   -0.21    3.98    3.59   329.10506   115.11629   207.49683
   510  C   4.0   -0.22    3.98    3.59   333.66814   113.92889   208.26387
   511  H   1.0    0.24    1.00    1.43   328.55986   114.83853   201.95589
   512  H   1.0    0.14    0.99    1.43   333.88427   113.68845   203.23710
   513  H   1.0    0.14    0.99    1.43   332.37060   117.01645   206.00368
   514  H   1.0    0.10    0.99    1.43   329.05525   116.20852   209.23842
   515  H   1.0    0.11    0.99    1.43   327.80619   115.98124   206.15841
   516  H   1.0    0.13    0.99    1.43   328.46596   113.20877   207.91065
   517  H   1.0    0.11    0.99    1.43   333.65654   115.00588   210.01048
   518  H   1.0    0.10    0.99    1.43   333.20740   111.97191   208.68869
   519  H   1.0    0.14    0.99    1.43   335.56065   114.04004   207.47172
   520  H   1.0    0.28    1.00    1.43   335.66756   125.79237   171.23285
   521  H   1.0    0.12    1.00    1.43   343.15274   126.74867   171.79622
   522  H   1.0    0.30    1.00    1.43   348.88037   127.46046   173.74356
   523  H   1.0    0.12    1.00    1.43   355.66634   130.84177   174.67970
   524  H   1.0    0.29    1.00    1.43   374.19084   122.00235   202.70056
   525  H   1.0    0.12    1.00    1.43   371.70167   120.36859   205.75767
   526  H   1.0    0.29    1.00    1.43   362.75836   120.65083   208.94809
   527  H   1.0    0.14    1.00    1.43   363.70733   115.52543   204.98111
   528  H   1.0    0.29    1.00    1.43   356.03231   110.92773   207.32296
   529  H   1.0    0.14    1.00    1.43   359.05695   105.32821   206.32535
   530  H   1.0    0.28    1.00    1.43   353.27350    99.19413   201.94788
   531  H   1.0    0.12    1.00    1.43   358.25313    98.82370   196.69866
   532  H   1.0    0.28    1.00    1.43   359.87991    99.08466   191.25955
   533  H   1.0    0.11    1.00    1.43   356.13029   133.73172   183.31180
   534  H   1.0    0.29    1.00    1.43   351.15016   133.74296   181.88337
   535  H   1.0    0.11    1.00    1.43   345.89044   135.13616   176.79315
   536  H   1.0    0.28    1.00    1.43   351.70346   138.31195   190.63183
   537  H   1.0    0.11    1.00    1.43   352.40096   133.85491   201.95904
   538  H   1.0    0.28    1.00    1.43   365.94726   133.30330   204.94942
   539  H   1.0    0.12    1.00    1.43   359.62916   129.61554   206.70423
   540  H   1.0    0.28    1.00    1.43   355.50552   124.84151   205.80575
   541  H   1.0    0.14    1.00    1.43   348.07587   125.87618   206.82097
   542  H   1.0    0.28    1.00    1.43   342.88721   114.36798   210.79914
   543  H   1.0    0.11    1.00    1.43   333.36773   120.38833   188.55489
   544  H   1.0    0.28    1.00    1.43   331.55295   127.31174   194.98487
   545  H   1.0    0.11    1.00    1.43   332.24632   109.52707   204.23990

           ------------------------------------------------- 
          |        Self-Consistent Charge Iterations        |
           ------------------------------------------------- 

          ...................................................
          :                      SETUP                      :
          :.................................................:
          :  # basis functions                1301          :
          :  # atomic orbitals                1300          :
          :  # shells                          796          :
          :  # electrons                      1432          :
          :  max. iterations                   250          :
          :  Hamiltonian                  GFN2-xTB          :
          :  restarted?                      false          :
          :  GBSA solvation                   true          :
          :  PC potential                    false          :
          :  electronic temp.          500.0000000     K    :
          :  accuracy                    0.1000000          :
          :  -> integral cutoff          0.3500000E+02      :
          :  -> integral neglect         0.1000000E-08      :
          :  -> SCF convergence          0.1000000E-06 Eh   :
          :  -> wf. convergence          0.1000000E-04 e    :
          :  Broyden damping             0.4000000          :
          ...................................................

 iter      E             dE          RMSdq      gap      omega  full diag
   1   -816.9421569 -0.816942E+03  0.416E+00    2.12       0.0  T
   2   -819.0147523 -0.207260E+01  0.210E+00    1.61       1.0  T
   3   -819.0917029 -0.769506E-01  0.117E+00    1.89       1.0  T
   4   -819.1370863 -0.453834E-01  0.273E-01    1.37       1.0  T
   5   -819.1573812 -0.202949E-01  0.106E-01    1.49       1.0  T
   6   -819.1579713 -0.590142E-03  0.475E-02    1.48       1.0  T
   7   -819.1580952 -0.123901E-03  0.215E-02    1.49       1.0  T
   8   -819.1581755 -0.803013E-04  0.904E-03    1.49       1.0  T
   9   -819.1581838 -0.828212E-05  0.454E-03    1.49       1.0  T
  10   -819.1581859 -0.212001E-05  0.201E-03    1.49       2.1  T
  11   -819.1581862 -0.271527E-06  0.879E-04    1.49       4.9  T
  12   -819.1581862 -0.562009E-07  0.419E-04    1.49      10.2  T
  13   -819.1581863 -0.256322E-07  0.197E-04    1.49      21.7  T
  14   -819.1581863 -0.351849E-08  0.894E-05    1.49      47.9  T
  15   -819.1581863 -0.918249E-09  0.340E-05    1.49     126.2  T

   *** convergence criteria satisfied after 15 iterations ***

         #    Occupation            Energy/Eh            Energy/eV
      -------------------------------------------------------------
         1        2.0000           -0.7392873             -20.1170
       ...           ...                  ...                  ...
       710        2.0000           -0.3622750              -9.8580
       711        2.0000           -0.3622639              -9.8577
       712        2.0000           -0.3586648              -9.7598
       713        2.0000           -0.3585552              -9.7568
       714        2.0000           -0.3561849              -9.6923
       715        2.0000           -0.3526143              -9.5951
       716        2.0000           -0.3512279              -9.5574 (HOMO)
       717                         -0.2965444              -8.0694 (LUMO)
       718                         -0.2964329              -8.0664
       719                         -0.2946569              -8.0180
       720                         -0.2897702              -7.8850
       721                         -0.2855143              -7.7692
       ...                                ...                  ...
      1300                          0.6586604              17.9231
      -------------------------------------------------------------
                  HL-Gap            0.0546835 Eh            1.4880 eV
             Fermi-level           -0.3242172 Eh           -8.8224 eV

 SCC (total)                   0 d,  0 h,  0 min, 12.459 sec
 SCC setup                      ...        0 min,  0.173 sec (  1.386%)
 Dispersion                     ...        0 min,  0.189 sec (  1.514%)
 integral evaluation            ...        0 min,  0.515 sec (  4.133%)
 zeroth order Hamiltonian       ...        0 min,  0.007 sec (  0.060%)
 iterations                     ...        0 min,  9.371 sec ( 75.211%)
 molecular gradient             ...        0 min,  2.138 sec ( 17.159%)
 printout                       ...        0 min,  0.067 sec (  0.537%)

         :::::::::::::::::::::::::::::::::::::::::::::::::::::
         ::                     SUMMARY                     ::
         :::::::::::::::::::::::::::::::::::::::::::::::::::::
         :: total energy             -809.068818453561 Eh   ::
         :: total w/o Gsasa/hb       -808.992653497243 Eh   ::
         :: gradient norm               0.797107504893 Eh/α ::
         :: HOMO-LUMO gap               1.488014402490 eV   ::
         ::.................................................::
         :: SCC energy               -819.176771643318 Eh   ::
         :: -> isotropic ES             2.342610713159 Eh   ::
         :: -> anisotropic ES          -0.045370744071 Eh   ::
         :: -> anisotropic XC           0.281358194782 Eh   ::
         :: -> dispersion              -0.698879759841 Eh   ::
         :: -> Gsolv                   -0.507074848245 Eh   ::
         ::    -> Gborn                -0.430909891927 Eh   ::
         ::    -> Gsasa                -0.020442814477 Eh   ::
         ::    -> Ghb                  -0.057579584967 Eh   ::
         ::    -> Gshift                0.001857443127 Eh   ::
         :: repulsion energy           10.028482665452 Eh   ::
         :: add. restraining            0.000000000000 Eh   ::
         :::::::::::::::::::::::::::::::::::::::::::::::::::::

           -------------------------------------------------
          |                Property Printout                |
           -------------------------------------------------

    * Orbital Energies and Occupations

         #    Occupation            Energy/Eh            Energy/eV
      -------------------------------------------------------------
         1        2.0000           -0.7392873             -20.1170
       ...           ...                  ...                  ...
       704        2.0000           -0.3691492             -10.0451
       705        2.0000           -0.3677539             -10.0071
       706        2.0000           -0.3677105             -10.0059
       707        2.0000           -0.3673336              -9.9957
       708        2.0000           -0.3649695              -9.9313
       709        2.0000           -0.3643308              -9.9139
       710        2.0000           -0.3622750              -9.8580
       711        2.0000           -0.3622639              -9.8577
       712        2.0000           -0.3586648              -9.7598
       713        2.0000           -0.3585552              -9.7568
       714        2.0000           -0.3561849              -9.6923
       715        2.0000           -0.3526143              -9.5951
       716        2.0000           -0.3512279              -9.5574 (HOMO)
       717                         -0.2965444              -8.0694 (LUMO)
       718                         -0.2964329              -8.0664
       719                         -0.2946569              -8.0180
       720                         -0.2897702              -7.8850
       721                         -0.2855143              -7.7692
       722                         -0.2832947              -7.7088
       723                         -0.2819449              -7.6721
       724                         -0.2810686              -7.6483
       725                         -0.2806592              -7.6371
       726                         -0.2789066              -7.5894
       727                         -0.2759020              -7.5077
       ...                                ...                  ...
      1300                          0.6586604              17.9231
      -------------------------------------------------------------
                  HL-Gap            0.0546835 Eh            1.4880 eV
             Fermi-level           -0.3242172 Eh           -8.8224 eV

   #   Z        covCN         q      C6AA      α(0)
   1   7 N      2.637    -0.383    29.896     8.120
   2   6 C      3.785     0.032    20.046     6.377
   3   6 C      2.766     0.204    23.657     7.965
   4   8 O      0.856    -0.376    21.216     6.176
   5   6 C      3.852    -0.013    20.766     6.481
   6   6 C      3.756    -0.115    22.746     6.800
   7   6 C      3.757    -0.117    22.785     6.806
   8   1 H      0.860     0.157     1.356     1.824
   9   1 H      0.924     0.064     2.150     2.293
  10   1 H      0.924     0.028     2.611     2.527
  11   1 H      0.925     0.045     2.377     2.411
  12   1 H      0.925     0.023     2.694     2.567
  13   1 H      0.925     0.051     2.313     2.378
  14   1 H      0.925     0.047     2.354     2.399
  15   1 H      0.925     0.053     2.288     2.366
  16   1 H      0.925     0.047     2.355     2.400
  17   7 N      2.637    -0.377    29.735     8.099
  18   6 C      3.784     0.047    19.802     6.339
  19   6 C      2.768     0.202    23.702     7.973
  20   8 O      0.856    -0.375    21.195     6.172
  21   6 C      3.805    -0.099    22.384     6.735
  22   6 C      2.687     0.371    20.714     7.448
  23   8 O      0.883    -0.560    25.136     6.723
  24   8 O      0.856    -0.597    26.050     6.843
  25   1 H      0.860     0.160     1.338     1.812
  26   1 H      0.924     0.061     2.188     2.313
  27   1 H      0.925     0.057     2.237     2.339
  28   1 H      0.924     0.052     2.290     2.366
  29   7 N      2.632    -0.383    29.918     8.124
  30   6 C      3.782     0.036    19.982     6.368
  31   6 C      2.766     0.186    24.014     8.025
  32   8 O      0.856    -0.378    21.240     6.179
  33   6 C      3.811    -0.067    21.774     6.642
  34   6 C      3.850    -0.013    20.771     6.482
  35   6 C      3.758    -0.113    22.711     6.794
  36   6 C      3.757    -0.124    22.922     6.826
  37   1 H      0.860     0.165     1.304     1.789
  38   1 H      0.924     0.072     2.066     2.248
  39   1 H      0.925     0.044     2.398     2.422
  40   1 H      0.924     0.054     2.271     2.357
  41   1 H      0.924     0.045     2.379     2.412
  42   1 H      0.925     0.034     2.526     2.486
  43   1 H      0.925     0.032     2.558     2.501
  44   1 H      0.925     0.042     2.428     2.437
  45   1 H      0.925     0.049     2.332     2.388
  46   1 H      0.925     0.045     2.387     2.416
  47   1 H      0.925     0.039     2.462     2.454
  48   7 N      2.637    -0.383    29.907     8.122
  49   6 C      3.781     0.047    19.799     6.339
  50   6 C      2.765     0.201    23.723     7.977
  51   8 O      0.856    -0.369    21.070     6.154
  52   6 C      3.757    -0.114    22.734     6.798
  53   1 H      0.860     0.163     1.316     1.797
  54   1 H      0.924     0.045     2.387     2.416
  55   1 H      0.925     0.049     2.327     2.385
  56   1 H      0.925     0.058     2.223     2.332
  57   1 H      0.925     0.061     2.186     2.312
  58   7 N      2.636    -0.404    30.481     8.200
  59   6 C      3.782     0.044    19.855     6.347
  60   6 C      2.766     0.198    23.774     7.985
  61   8 O      0.856    -0.385    21.387     6.200
  62   6 C      3.812    -0.065    21.734     6.636
  63   6 C      3.849    -0.011    20.732     6.476
  64   6 C      3.759    -0.118    22.819     6.810
  65   6 C      3.756    -0.112    22.695     6.793
  66   1 H      0.860     0.191     1.151     1.681
  67   1 H      0.924     0.047     2.355     2.400
  68   1 H      0.924     0.048     2.342     2.393
  69   1 H      0.924     0.035     2.510     2.477
  70   1 H      0.924     0.050     2.320     2.382
  71   1 H      0.925     0.047     2.358     2.401
  72   1 H      0.925     0.040     2.455     2.450
  73   1 H      0.925     0.038     2.472     2.459
  74   1 H      0.925     0.042     2.427     2.436
  75   1 H      0.925     0.034     2.524     2.484
  76   1 H      0.925     0.038     2.476     2.461
  77   7 N      2.636    -0.394    30.215     8.164
  78   6 C      3.786     0.037    19.966     6.364
  79   6 C      2.765     0.204    23.660     7.966
  80   8 O      0.856    -0.370    21.088     6.157
  81   6 C      3.855    -0.011    20.744     6.478
  82   6 C      3.756    -0.110    22.662     6.788
  83   6 C      3.757    -0.115    22.761     6.802
  84   1 H      0.860     0.178     1.227     1.735
  85   1 H      0.924     0.040     2.455     2.450
  86   1 H      0.924     0.040     2.447     2.446
  87   1 H      0.925     0.048     2.351     2.398
  88   1 H      0.925     0.035     2.516     2.481
  89   1 H      0.925     0.031     2.572     2.508
  90   1 H      0.925     0.050     2.319     2.381
  91   1 H      0.925     0.043     2.405     2.425
  92   1 H      0.925     0.048     2.347     2.396
  93   7 N      2.632    -0.378    29.778     8.105
  94   6 C      3.736    -0.010    20.831     6.513
  95   6 C      2.754     0.275    22.342     7.740
  96   8 O      0.859    -0.481    23.373     6.482
  97   1 H      0.860     0.149     1.408     1.859
  98   1 H      0.924     0.051     2.305     2.374
  99   1 H      0.924     0.038     2.471     2.458
 100   7 N      2.693    -0.179    24.866     7.406
 101   6 C      3.799     0.018    20.279     6.412
 102   6 C      2.752     0.278    22.298     7.732
 103   8 O      0.858    -0.490    23.558     6.507
 104   6 C      3.727     0.115    18.793     6.189
 105   8 O      1.656    -0.487    22.608     6.419
 106   6 C      3.752    -0.144    23.341     6.890
 107   1 H      0.860     0.219     1.013     1.577
 108   1 H      0.924     0.063     2.164     2.300
 109   1 H      0.923     0.024     2.671     2.556
 110   1 H      0.805     0.350     0.588     1.204
 111   1 H      0.925     0.069     2.093     2.262
 112   1 H      0.925     0.059     2.215     2.327
 113   1 H      0.925     0.069     2.094     2.263
 114   7 N      2.692    -0.167    24.609     7.368
 115   6 C      3.793     0.014    20.341     6.423
 116   6 C      2.752     0.272    22.409     7.752
 117   8 O      0.858    -0.473    23.205     6.459
 118   6 C      3.758    -0.136    23.174     6.863
 119   1 H      0.860     0.212     1.048     1.604
 120   1 H      0.924     0.081     1.967     2.193
 121   1 H      0.925     0.075     2.033     2.230
 122   1 H      0.925     0.072     2.059     2.244
 123   1 H      0.925     0.068     2.106     2.269
 124   7 N      2.693    -0.171    24.711     7.383
 125   6 C      3.787     0.003    20.551     6.457
 126   6 C      2.756     0.272    22.406     7.751
 127   8 O      0.859    -0.471    23.149     6.451
 128   6 C      3.676     0.069    19.646     6.350
 129   8 O      1.655    -0.464    22.141     6.352
 130   1 H      0.860     0.217     1.026     1.586
 131   1 H      0.924     0.086     1.921     2.167
 132   1 H      0.924     0.068     2.105     2.269
 133   1 H      0.924     0.043     2.405     2.425
 134   1 H      0.804     0.325     0.651     1.268
 135   7 N      2.688    -0.151    24.269     7.317
 136   6 C      3.802     0.004    20.504     6.447
 137   6 C      2.761     0.272    22.408     7.752
 138   8 O      0.858    -0.493    23.624     6.517
 139   6 C      3.855    -0.019    20.875     6.498
 140   6 C      3.757    -0.120    22.860     6.817
 141   6 C      3.756    -0.118    22.820     6.811
 142   1 H      0.860     0.209     1.064     1.616
 143   1 H      0.924     0.089     1.889     2.149
 144   1 H      0.924     0.050     2.324     2.384
 145   1 H      0.925     0.062     2.180     2.309
 146   1 H      0.925     0.032     2.560     2.502
 147   1 H      0.925     0.052     2.297     2.370
 148   1 H      0.925     0.061     2.186     2.312
 149   1 H      0.925     0.051     2.304     2.374
 150   1 H      0.925     0.044     2.400     2.423
 151   7 N      2.690    -0.162    24.511     7.353
 152   6 C      3.795     0.018    20.273     6.411
 153   6 C      2.767     0.194    23.853     7.999
 154   8 O      0.856    -0.354    20.787     6.113
 155   6 C      3.853    -0.010    20.726     6.475
 156   6 C      3.756    -0.121    22.874     6.819
 157   6 C      3.755    -0.117    22.795     6.808
 158   1 H      0.860     0.230     0.965     1.539
 159   1 H      0.924     0.096     1.820     2.110
 160   1 H      0.924     0.040     2.448     2.447
 161   1 H      0.925     0.063     2.166     2.301
 162   1 H      0.925     0.054     2.269     2.356
 163   1 H      0.925     0.047     2.358     2.401
 164   1 H      0.925     0.046     2.369     2.407
 165   1 H      0.925     0.057     2.232     2.336
 166   1 H      0.925     0.042     2.416     2.431
 167   7 N      2.635    -0.368    29.484     8.064
 168   6 C      3.782     0.041    19.907     6.356
 169   6 C      2.767     0.194    23.858     7.999
 170   8 O      0.856    -0.361    20.923     6.133
 171   6 C      3.826    -0.065    21.732     6.633
 172   6 C      3.794    -0.014    20.825     6.498
 173  16 S      1.958    -0.214   150.184    20.626
 174   6 C      3.745    -0.057    21.665     6.640
 175   1 H      0.860     0.164     1.312     1.794
 176   1 H      0.924     0.056     2.249     2.345
 177   1 H      0.924     0.059     2.214     2.327
 178   1 H      0.924     0.050     2.326     2.385
 179   1 H      0.925     0.064     2.154     2.295
 180   1 H      0.925     0.055     2.259     2.350
 181   1 H      0.925     0.045     2.384     2.415
 182   1 H      0.925     0.059     2.214     2.327
 183   1 H      0.925     0.050     2.320     2.382
 184   7 N      2.636    -0.390    30.085     8.146
 185   6 C      3.790     0.025    20.166     6.395
 186   6 C      2.760     0.269    22.449     7.759
 187   8 O      0.858    -0.504    23.869     6.550
 188   6 C      3.812    -0.068    21.796     6.645
 189   6 C      3.849    -0.008    20.682     6.469
 190   6 C      3.757    -0.115    22.760     6.802
 191   6 C      3.756    -0.115    22.757     6.802
 192   1 H      0.860     0.154     1.373     1.835
 193   1 H      0.924     0.059     2.209     2.324
 194   1 H      0.924     0.035     2.515     2.480
 195   1 H      0.924     0.032     2.559     2.501
 196   1 H      0.924     0.026     2.638     2.540
 197   1 H      0.925     0.043     2.406     2.425
 198   1 H      0.925     0.035     2.515     2.480
 199   1 H      0.925     0.046     2.371     2.408
 200   1 H      0.925     0.046     2.375     2.410
 201   1 H      0.925     0.042     2.427     2.436
 202   1 H      0.925     0.032     2.554     2.499
 203   7 N      2.696    -0.185    25.009     7.427
 204   6 C      3.799     0.017    20.292     6.414
 205   6 C      2.764     0.264    22.545     7.776
 206   8 O      0.858    -0.479    23.315     6.474
 207   6 C      3.756    -0.117    22.801     6.808
 208   1 H      0.860     0.225     0.988     1.557
 209   1 H      0.924     0.082     1.958     2.188
 210   1 H      0.925     0.043     2.407     2.426
 211   1 H      0.925     0.057     2.233     2.337
 212   1 H      0.925     0.064     2.152     2.294
 213   7 N      2.696    -0.175    24.792     7.395
 214   6 C      3.808     0.006    20.476     6.441
 215   6 C      2.758     0.267    22.487     7.765
 216   8 O      0.858    -0.504    23.871     6.551
 217   6 C      3.852    -0.015    20.809     6.488
 218   6 C      3.759    -0.119    22.835     6.813
 219   6 C      3.759    -0.127    22.979     6.834
 220   1 H      0.860     0.217     1.021     1.583
 221   1 H      0.924     0.099     1.798     2.097
 222   1 H      0.924     0.040     2.453     2.449
 223   1 H      0.925     0.061     2.184     2.311
 224   1 H      0.925     0.027     2.623     2.533
 225   1 H      0.925     0.056     2.250     2.346
 226   1 H      0.925     0.059     2.210     2.325
 227   1 H      0.925     0.059     2.210     2.325
 228   1 H      0.925     0.047     2.358     2.401
 229   7 N      2.693    -0.175    24.793     7.395
 230   6 C      3.798     0.016    20.318     6.418
 231   6 C      2.755     0.271    22.426     7.755
 232   8 O      0.858    -0.484    23.423     6.489
 233   6 C      3.810    -0.083    22.078     6.688
 234   6 C      3.803    -0.058    21.612     6.618
 235   6 C      3.807    -0.084    22.105     6.693
 236   6 C      3.732    -0.020    21.020     6.544
 237   7 N      3.466    -0.197    25.255     7.464
 238   1 H      0.860     0.237     0.935     1.515
 239   1 H      0.924     0.074     2.039     2.233
 240   1 H      0.924     0.063     2.161     2.299
 241   1 H      0.924     0.085     1.930     2.173
 242   1 H      0.924     0.030     2.593     2.518
 243   1 H      0.924     0.032     2.561     2.503
 244   1 H      0.924     0.072     2.059     2.244
 245   1 H      0.924     0.077     2.006     2.215
 246   1 H      0.924     0.090     1.883     2.146
 247   1 H      0.924     0.069     2.101     2.267
 248   1 H      0.860     0.257     0.855     1.449
 249   1 H      0.866     0.308     0.690     1.301
 250   1 H      0.859     0.271     0.805     1.406
 251   7 N      2.699    -0.175    24.796     7.396
 252   6 C      3.796     0.015    20.323     6.419
 253   6 C      2.765     0.272    22.400     7.751
 254   8 O      0.859    -0.492    23.618     6.516
 255   6 C      3.854    -0.008    20.688     6.469
 256   6 C      3.756    -0.115    22.753     6.801
 257   6 C      3.756    -0.112    22.699     6.793
 258   1 H      0.860     0.214     1.036     1.595
 259   1 H      0.924     0.087     1.912     2.162
 260   1 H      0.924     0.037     2.489     2.467
 261   1 H      0.925     0.061     2.186     2.312
 262   1 H      0.925     0.019     2.746     2.592
 263   1 H      0.925     0.054     2.272     2.357
 264   1 H      0.925     0.063     2.163     2.300
 265   1 H      0.925     0.052     2.295     2.369
 266   1 H      0.925     0.036     2.508     2.477
 267   7 N      2.687    -0.169    24.651     7.374
 268   6 C      3.746    -0.027    21.124     6.556
 269   6 C      2.751     0.279    22.273     7.728
 270   8 O      0.858    -0.477    23.291     6.470
 271   1 H      0.860     0.229     0.970     1.543
 272   1 H      0.925     0.101     1.774     2.083
 273   1 H      0.924     0.069     2.096     2.264
 274   7 N      2.690    -0.173    24.753     7.389
 275   6 C      3.796     0.043    19.862     6.346
 276   6 C      2.758     0.275    22.353     7.742
 277   8 O      0.858    -0.513    24.068     6.578
 278   6 C      3.805    -0.090    22.213     6.710
 279   6 C      2.684     0.373    20.682     7.442
 280   8 O      0.856    -0.635    26.993     6.966
 281   8 O      0.856    -0.630    26.875     6.951
 282   1 H      0.860     0.206     1.074     1.623
 283   1 H      0.924     0.055     2.259     2.350
 284   1 H      0.924     0.020     2.735     2.586
 285   1 H      0.925     0.032     2.563     2.504
 286   7 N      2.693    -0.174    24.773     7.392
 287   6 C      3.799     0.043    19.855     6.344
 288   6 C      2.756     0.270    22.431     7.756
 289   8 O      0.858    -0.476    23.263     6.467
 290   6 C      3.803    -0.113    22.649     6.775
 291   6 C      2.684     0.372    20.701     7.446
 292   8 O      0.856    -0.609    26.341     6.881
 293   8 O      0.863    -0.578    25.588     6.782
 294   1 H      0.860     0.225     0.986     1.555
 295   1 H      0.924     0.049     2.329     2.387
 296   1 H      0.924     0.060     2.202     2.321
 297   1 H      0.925     0.053     2.286     2.365
 298   7 N      2.692    -0.166    24.594     7.365
 299   6 C      3.795     0.016    20.317     6.418
 300   6 C      2.757     0.265    22.530     7.773
 301   8 O      0.858    -0.484    23.426     6.489
 302   6 C      3.813    -0.072    21.859     6.655
 303   6 C      2.968    -0.001    28.057     8.688
 304   6 C      2.925    -0.042    29.044     8.838
 305   6 C      2.924    -0.040    29.005     8.832
 306   6 C      2.918    -0.056    29.389     8.890
 307   6 C      2.918    -0.072    29.789     8.950
 308   6 C      2.845     0.147    24.804     8.162
 309   8 O      1.657    -0.455    21.955     6.325
 310   1 H      0.860     0.205     1.082     1.629
 311   1 H      0.924     0.089     1.891     2.150
 312   1 H      0.924     0.058     2.224     2.332
 313   1 H      0.924     0.066     2.134     2.284
 314   1 H      0.926     0.032     2.558     2.501
 315   1 H      0.926     0.054     2.266     2.354
 316   1 H      0.926     0.031     2.572     2.508
 317   1 H      0.926     0.038     2.475     2.460
 318   1 H      0.802     0.343     0.605     1.222
 319   7 N      2.691    -0.169    24.659     7.375
 320   6 C      3.795     0.022    20.208     6.401
 321   6 C      2.766     0.273    22.390     7.749
 322   8 O      0.859    -0.474    23.226     6.461
 323   6 C      3.813    -0.069    21.801     6.646
 324   6 C      2.970     0.002    27.977     8.676
 325   6 C      2.924    -0.042    29.034     8.836
 326   6 C      2.925    -0.037    28.930     8.821
 327   6 C      2.917    -0.064    29.600     8.922
 328   6 C      2.917    -0.076    29.892     8.966
 329   6 C      2.847     0.131    25.121     8.214
 330   8 O      1.658    -0.430    21.435     6.250
 331   1 H      0.860     0.231     0.961     1.535
 332   1 H      0.924     0.078     2.005     2.214
 333   1 H      0.924     0.062     2.174     2.306
 334   1 H      0.925     0.063     2.166     2.302
 335   1 H      0.926     0.048     2.350     2.397
 336   1 H      0.926     0.037     2.489     2.467
 337   1 H      0.926     0.052     2.294     2.369
 338   1 H      0.926     0.055     2.262     2.352
 339   1 H      0.804     0.355     0.576     1.192
 340   7 N      2.689    -0.170    24.686     7.379
 341   6 C      3.802     0.025    20.147     6.390
 342   6 C      2.759     0.281    22.235     7.722
 343   8 O      0.858    -0.484    23.423     6.489
 344   6 C      3.677     0.095    19.221     6.281
 345   8 O      1.652    -0.490    22.669     6.427
 346   1 H      0.860     0.229     0.969     1.542
 347   1 H      0.924     0.065     2.145     2.291
 348   1 H      0.923     0.020     2.728     2.583
 349   1 H      0.923     0.025     2.665     2.553
 350   1 H      0.801     0.321     0.661     1.278
 351   7 N      2.691    -0.175    24.779     7.393
 352   6 C      3.795     0.032    20.043     6.375
 353   6 C      2.768     0.195    23.843     7.997
 354   8 O      0.856    -0.355    20.806     6.116
 355   6 C      3.757    -0.118    22.819     6.811
 356   1 H      0.860     0.225     0.985     1.555
 357   1 H      0.924     0.085     1.931     2.173
 358   1 H      0.925     0.085     1.928     2.172
 359   1 H      0.925     0.072     2.059     2.244
 360   1 H      0.925     0.059     2.207     2.323
 361   7 N      2.637    -0.387    30.010     8.136
 362   6 C      3.786     0.034    20.022     6.373
 363   6 C      2.766     0.203    23.681     7.970
 364   8 O      0.856    -0.375    21.192     6.172
 365   6 C      3.852    -0.022    20.937     6.508
 366   6 C      3.803    -0.064    21.723     6.635
 367   6 C      3.754    -0.113    22.710     6.795
 368   6 C      3.752    -0.115    22.752     6.802
 369   1 H      0.860     0.162     1.322     1.801
 370   1 H      0.924     0.047     2.356     2.400
 371   1 H      0.924     0.046     2.365     2.405
 372   1 H      0.924     0.030     2.582     2.513
 373   1 H      0.924     0.028     2.614     2.528
 374   1 H      0.925     0.059     2.216     2.328
 375   1 H      0.925     0.040     2.454     2.450
 376   1 H      0.925     0.044     2.391     2.418
 377   1 H      0.925     0.036     2.508     2.476
 378   1 H      0.925     0.046     2.365     2.405
 379   1 H      0.925     0.054     2.272     2.357
 380   7 N      2.637    -0.383    29.897     8.121
 381   6 C      3.789     0.034    20.008     6.371
 382   6 C      2.767     0.205    23.652     7.965
 383   8 O      0.856    -0.376    21.217     6.176
 384   6 C      3.853    -0.017    20.839     6.493
 385   6 C      3.804    -0.063    21.708     6.633
 386   6 C      3.756    -0.108    22.617     6.781
 387   6 C      3.752    -0.106    22.591     6.778
 388   1 H      0.860     0.164     1.310     1.793
 389   1 H      0.924     0.059     2.216     2.328
 390   1 H      0.924     0.038     2.471     2.458
 391   1 H      0.924     0.041     2.437     2.441
 392   1 H      0.924     0.044     2.401     2.423
 393   1 H      0.925     0.053     2.285     2.364
 394   1 H      0.925     0.015     2.812     2.622
 395   1 H      0.925     0.044     2.403     2.424
 396   1 H      0.925     0.046     2.376     2.410
 397   1 H      0.925     0.044     2.395     2.420
 398   1 H      0.925     0.038     2.470     2.457
 399   7 N      2.637    -0.386    29.974     8.131
 400   6 C      3.787     0.036    19.980     6.367
 401   6 C      2.756     0.275    22.356     7.743
 402   8 O      0.858    -0.464    23.010     6.431
 403   6 C      3.811    -0.073    21.879     6.658
 404   6 C      3.849    -0.009    20.699     6.471
 405   6 C      3.757    -0.112    22.705     6.794
 406   6 C      3.755    -0.110    22.665     6.788
 407   1 H      0.860     0.167     1.292     1.780
 408   1 H      0.924     0.028     2.617     2.530
 409   1 H      0.924     0.040     2.442     2.444
 410   1 H      0.925     0.035     2.520     2.483
 411   1 H      0.924     0.035     2.513     2.479
 412   1 H      0.925     0.040     2.448     2.447
 413   1 H      0.925     0.041     2.436     2.441
 414   1 H      0.925     0.044     2.396     2.420
 415   1 H      0.925     0.045     2.382     2.414
 416   1 H      0.925     0.037     2.493     2.469
 417   1 H      0.925     0.026     2.645     2.543
 418   7 N      2.691    -0.177    24.828     7.400
 419   6 C      3.796     0.035    19.993     6.367
 420   6 C      2.757     0.270    22.445     7.758
 421   8 O      0.859    -0.485    23.448     6.492
 422   6 C      3.813    -0.093    22.256     6.715
 423   6 C      2.743     0.291    22.073     7.693
 424   8 O      0.859    -0.501    23.815     6.543
 425   7 N      2.639    -0.304    27.823     7.834
 426   1 H      0.860     0.184     1.190     1.709
 427   1 H      0.924     0.070     2.088     2.260
 428   1 H      0.924     0.090     1.877     2.142
 429   1 H      0.924     0.050     2.314     2.379
 430   1 H      0.860     0.225     0.989     1.558
 431   1 H      0.860     0.222     0.999     1.566
 432   7 N      2.693    -0.171    24.689     7.380
 433   6 C      3.795     0.017    20.294     6.415
 434   6 C      2.760     0.270    22.445     7.758
 435   8 O      0.859    -0.498    23.740     6.533
 436   6 C      3.807    -0.085    22.106     6.693
 437   6 C      3.801    -0.079    22.005     6.679
 438   6 C      3.803    -0.090    22.220     6.711
 439   6 C      3.731    -0.040    21.392     6.602
 440   7 N      3.476    -0.172    24.703     7.382
 441   1 H      0.860     0.233     0.953     1.529
 442   1 H      0.924     0.080     1.981     2.201
 443   1 H      0.924     0.077     2.014     2.219
 444   1 H      0.924     0.066     2.134     2.285
 445   1 H      0.925     0.057     2.230     2.335
 446   1 H      0.924     0.051     2.307     2.375
 447   1 H      0.925     0.084     1.942     2.179
 448   1 H      0.924     0.070     2.081     2.256
 449   1 H      0.925     0.107     1.723     2.052
 450   1 H      0.925     0.114     1.666     2.018
 451   1 H      0.856     0.295     0.730     1.339
 452   1 H      0.859     0.239     0.928     1.509
 453   1 H      0.859     0.277     0.786     1.389
 454   7 N      2.689    -0.166    24.582     7.364
 455   6 C      3.795     0.025    20.160     6.394
 456   6 C      2.766     0.197    23.806     7.991
 457   8 O      0.856    -0.352    20.748     6.107
 458   6 C      3.809    -0.073    21.883     6.659
 459   6 C      3.849    -0.011    20.732     6.476
 460   6 C      3.757    -0.116    22.779     6.805
[...]
   207  C   3.989        H  211 0.982    H  212 0.980    H  210 0.979    C  204 0.975
   208  H   0.949        N  203 0.891
   209  H   0.993        C  204 0.942
   210  H   0.998        C  207 0.979
   211  H   0.996        C  207 0.982
   212  H   0.996        C  207 0.980
   213  N   3.478        C  205 1.315    C  214 0.973    H  220 0.893    O  206 0.193
   214  C   3.953        N  213 0.973    C  217 0.968    H  221 0.944    C  215 0.929
   215  C   3.943        O  216 1.587    N  229 1.333    C  214 0.929
   216  O   1.951        C  215 1.587    N  229 0.194
   217  C   3.989        C  219 1.007    C  218 1.006    C  214 0.968    H  222 0.962
   218  C   3.992        C  217 1.006    H  224 0.983    H  223 0.980    H  225 0.979
   219  C   3.990        C  217 1.007    H  227 0.984    H  226 0.980    H  228 0.979
   220  H   0.952        N  213 0.893
   221  H   0.990        C  214 0.944
   222  H   0.998        C  217 0.962
   223  H   0.996        C  218 0.980
   224  H   0.999        C  218 0.983
   225  H   0.997        C  218 0.979
   226  H   0.996        C  219 0.980
   227  H   0.996        C  219 0.984
   228  H   0.998        C  219 0.979
   229  N   3.491        C  215 1.333    C  230 0.981    H  238 0.877    O  216 0.194
   230  C   3.966        N  229 0.981    C  233 0.976    H  239 0.950    C  231 0.929
   231  C   3.946        O  232 1.601    N  251 1.323    C  230 0.929
   232  O   1.952        C  231 1.601    N  251 0.194
   233  C   3.985        C  234 1.005    C  230 0.976    H  240 0.969    H  241 0.960
   234  C   3.995        C  233 1.005    C  235 1.005    H  242 0.975    H  243 0.975
   235  C   3.987        C  236 1.008    C  234 1.005    H  245 0.972    H  244 0.963
   236  C   3.938        C  235 1.008    N  237 0.972    H  247 0.970    H  246 0.968
   237  N   3.607        C  236 0.972    H  248 0.920    H  250 0.913    H  249 0.697
   238  H   0.944        N  229 0.877
   239  H   0.994        C  230 0.950
   240  H   0.995        C  233 0.969
   241  H   0.993        C  233 0.960
   242  H   0.999        C  234 0.975
   243  H   0.999        C  234 0.975
   244  H   0.995        C  235 0.963
   245  H   0.994        C  235 0.972
   246  H   0.992        C  236 0.968
   247  H   0.995        C  236 0.970
   248  H   0.933        N  237 0.920
   249  H   0.905        N  237 0.697    O   23 0.187
   250  H   0.926        N  237 0.913
   251  N   3.494        C  231 1.323    C  252 0.970    H  258 0.894    O  232 0.194
   252  C   3.957        N  251 0.970    C  255 0.962    H  259 0.950    C  253 0.935
   253  C   3.940        O  254 1.614    N  267 1.302    C  252 0.935
   254  O   1.965        C  253 1.614    N  267 0.191
   255  C   3.988        C  257 1.009    C  256 1.007    H  260 0.964    C  252 0.962
   256  C   3.993        C  255 1.007    H  262 0.985    H  263 0.981    H  261 0.979
   257  C   3.993        C  255 1.009    H  265 0.983    H  266 0.983    H  264 0.981
   258  H   0.954        N  251 0.894
   259  H   0.992        C  252 0.950
   260  H   0.998        C  255 0.964
   261  H   0.995        C  256 0.979
   262  H   1.000        C  256 0.985
   263  H   0.997        C  256 0.981
   264  H   0.995        C  257 0.981
   265  H   0.997        C  257 0.983
   266  H   0.999        C  257 0.983
   267  N   3.472        C  253 1.302    C  268 0.990    H  271 0.920    O  254 0.191
   268  C   3.966        N  267 0.990    H  273 0.964    H  272 0.963    C  269 0.940
   269  C   3.947        O  270 1.637    N  274 1.300    C  268 0.940
   270  O   1.954        C  269 1.637    N  274 0.196
   271  H   0.947        N  267 0.920
   272  H   0.989        C  268 0.963
   273  H   0.995        C  268 0.964
   274  N   3.484        C  269 1.300    C  275 0.988    H  282 0.916    O  270 0.196
   275  C   3.969        N  274 0.988    C  278 0.970    H  283 0.949    C  276 0.930
   276  C   3.952        O  277 1.609    N  286 1.327    C  275 0.930
   277  O   1.923        C  276 1.609    N  286 0.196
   278  C   3.980        H  285 0.977    H  284 0.974    C  275 0.970    C  279 0.903
   279  C   3.938        O  281 1.517    O  280 1.497    C  278 0.903
   280  O   1.801        C  279 1.497    O  281 0.220
   281  O   1.811        C  279 1.517    O  280 0.220
   282  H   0.957        N  274 0.916
   283  H   0.997        C  275 0.949
   284  H   1.000        C  278 0.974
   285  H   0.998        C  278 0.977
   286  N   3.486        C  276 1.327    C  287 0.987    H  294 0.879    O  277 0.196
   287  C   3.964        N  286 0.987    C  290 0.967    H  295 0.952    C  288 0.933
   288  C   3.950        O  289 1.620    N  298 1.301    C  287 0.933
   289  O   1.974        C  288 1.620    N  298 0.191
   290  C   3.979        H  297 0.973    C  287 0.967    H  296 0.962    C  291 0.910
   291  C   3.934        O  292 1.566    O  293 1.429    C  290 0.910
   292  O   1.862        C  291 1.566    O  293 0.209
   293  O   1.895        C  291 1.429    O  292 0.209    H  451 0.130
   294  H   0.949        N  286 0.879
   295  H   0.997        C  287 0.952
   296  H   0.996        C  290 0.962
   297  H   0.997        C  290 0.973
   298  N   3.471        C  288 1.301    C  299 0.979    H  310 0.924    O  289 0.191
   299  C   3.953        N  298 0.979    H  311 0.948    C  302 0.948    C  300 0.937
   300  C   3.953        O  301 1.599    N  319 1.333    C  299 0.937
   301  O   1.956        C  300 1.599    N  319 0.200
   302  C   3.989        C  303 1.010    H  312 0.966    H  313 0.962    C  299 0.948
   303  C   3.986        C  305 1.409    C  304 1.398    C  302 1.010
   304  C   3.989        C  306 1.465    C  303 1.398    H  314 0.968    C  307 0.102
   305  C   3.989        C  307 1.447    C  303 1.409    H  315 0.965    C  306 0.107
   306  C   3.989        C  304 1.465    C  308 1.356    H  316 0.969    C  305 0.107
   307  C   3.986        C  305 1.447    C  308 1.366    H  317 0.962    C  304 0.102
   308  C   3.936        C  307 1.366    C  306 1.356    O  309 1.082
   309  O   2.083        C  308 1.082    H  318 0.808
   310  H   0.958        N  298 0.924
   311  H   0.992        C  299 0.948
   312  H   0.996        C  302 0.966
   313  H   0.995        C  302 0.962
   314  H   0.999        C  304 0.968
   315  H   0.997        C  305 0.965
   316  H   0.999        C  306 0.969
   317  H   0.998        C  307 0.962
   318  H   0.882        O  309 0.808
   319  N   3.494        C  300 1.333    C  320 0.980    H  331 0.882    O  301 0.200
   320  C   3.960        N  319 0.980    C  323 0.953    H  332 0.948    C  321 0.936
   321  C   3.946        O  322 1.612    N  340 1.308    C  320 0.936
   322  O   1.973        C  321 1.612    N  340 0.188
   323  C   3.986        C  324 1.010    H  333 0.962    H  334 0.962    C  320 0.953
   324  C   3.988        C  326 1.410    C  325 1.405    C  323 1.010
   325  C   3.990        C  327 1.455    C  324 1.405    H  335 0.967    C  328 0.106
   326  C   3.991        C  328 1.450    C  324 1.410    H  336 0.967    C  327 0.108
   327  C   3.989        C  325 1.455    C  329 1.371    H  337 0.967    C  326 0.108
   328  C   3.986        C  326 1.450    C  329 1.376    H  338 0.964    C  325 0.106
   329  C   3.944        C  328 1.376    C  327 1.371    O  330 1.061
   330  O   2.091        C  329 1.061    H  339 0.853
   331  H   0.946        N  319 0.882
   332  H   0.994        C  320 0.948
   333  H   0.995        C  323 0.962
   334  H   0.995        C  323 0.962
   335  H   0.998        C  325 0.967
   336  H   0.999        C  326 0.967
   337  H   0.997        C  327 0.967
   338  H   0.997        C  328 0.964
   339  H   0.874        O  330 0.853
   340  N   3.459        C  321 1.308    C  341 0.986    H  346 0.894    O  322 0.188
   341  C   3.971        N  340 0.986    C  344 0.978    H  347 0.955    C  342 0.929
   342  C   3.954        O  343 1.636    N  351 1.311    C  341 0.929
   343  O   1.954        C  342 1.636    N  351 0.201
   344  C   3.967        O  345 1.014    C  341 0.978    H  348 0.968    H  349 0.962
   345  O   1.924        C  344 1.014    H  350 0.804
   346  H   0.947        N  340 0.894
   347  H   0.995        C  341 0.955
   348  H   0.999        C  344 0.968
   349  H   0.999        C  344 0.962
   350  H   0.897        O  345 0.804
   351  N   3.475        C  342 1.311    C  352 0.983    H  356 0.894    O  343 0.201
   352  C   3.966        C  353 0.985    N  351 0.983    C  355 0.960    H  357 0.944
   353  C   3.903        O  354 1.903    C  352 0.985    H  537 0.951
   354  O   2.050        C  353 1.903
   355  C   3.981        H  360 0.983    H  358 0.976    H  359 0.973    C  352 0.960
   356  H   0.949        N  351 0.894
   357  H   0.992        C  352 0.944
   358  H   0.992        C  355 0.976
   359  H   0.995        C  355 0.973
   360  H   0.996        C  355 0.983
   361  N   2.995        C  362 1.011    H  369 0.955    H  538 0.948
   362  C   3.984        N  361 1.011    C  363 0.988    H  370 0.960    C  365 0.936
   363  C   3.899        O  364 1.884    C  362 0.988    H  539 0.958
   364  O   2.033        C  363 1.884
   365  C   3.991        C  367 1.013    C  366 0.995    H  371 0.963    C  362 0.936
   366  C   3.997        C  368 1.019    C  365 0.995    H  373 0.976    H  372 0.974
   367  C   3.994        C  365 1.013    H  375 0.983    H  376 0.982    H  374 0.976
   368  C   3.994        C  366 1.019    H  377 0.983    H  378 0.982    H  379 0.981
   369  H   0.974        N  361 0.955
   370  H   0.998        C  362 0.960
   371  H   0.998        C  365 0.963
   372  H   0.999        C  366 0.974
   373  H   0.999        C  366 0.976
   374  H   0.997        C  367 0.976
   375  H   0.998        C  367 0.983
   376  H   0.998        C  367 0.982
   377  H   0.998        C  368 0.983
   378  H   0.998        C  368 0.982
   379  H   0.997        C  368 0.981
   380  N   2.997        C  381 1.019    H  388 0.956    H  540 0.945
   381  C   3.985        N  380 1.019    C  382 0.987    H  389 0.950    C  384 0.937
   382  C   3.898        O  383 1.887    C  381 0.987    H  541 0.958
   383  O   2.029        C  382 1.887
   384  C   3.991        C  386 1.008    C  385 0.993    H  390 0.964    C  381 0.937
   385  C   3.995        C  387 1.018    C  384 0.993    H  391 0.976    H  392 0.965
   386  C   3.994        C  384 1.008    H  394 0.982    H  395 0.979    H  393 0.976
   387  C   3.994        C  385 1.018    H  397 0.986    H  398 0.983    H  396 0.982
   388  H   0.973        N  380 0.956
   389  H   0.997        C  381 0.950
   390  H   0.998        C  384 0.964
   391  H   0.998        C  385 0.976
   392  H   0.998        C  385 0.965
   393  H   0.997        C  386 0.976
   394  H   1.000        C  386 0.982
   395  H   0.998        C  386 0.979
   396  H   0.997        C  387 0.982
   397  H   0.998        C  387 0.986
   398  H   0.999        C  387 0.983
   399  N   2.999        C  400 1.025    H  407 0.955    H  542 0.953
   400  C   3.988        N  399 1.025    C  403 0.965    H  408 0.958    C  401 0.938
   401  C   3.938        O  402 1.664    N  418 1.259    C  400 0.938
   402  O   1.973        C  401 1.664    N  418 0.184
   403  C   3.993        C  404 0.992    H  409 0.974    H  410 0.970    C  400 0.965
   404  C   3.995        C  406 1.010    C  405 1.007    C  403 0.992    H  411 0.966
   405  C   3.994        C  404 1.007    H  413 0.986    H  412 0.986    H  414 0.984
   406  C   3.996        C  404 1.010    H  415 0.985    H  416 0.984    H  417 0.984
   407  H   0.972        N  399 0.955
   408  H   0.999        C  400 0.958
   409  H   0.998        C  403 0.974
   410  H   0.999        C  403 0.970
   411  H   0.998        C  404 0.966
   412  H   0.998        C  405 0.986
   413  H   0.998        C  405 0.986
   414  H   0.998        C  405 0.984
   415  H   0.998        C  406 0.985
   416  H   0.999        C  406 0.984
   417  H   0.999        C  406 0.984
   418  N   3.437        C  401 1.259    C  419 0.980    H  426 0.932    O  402 0.184
   419  C   3.970        C  422 0.990    N  418 0.980    H  427 0.954    C  420 0.926
   420  C   3.951        O  421 1.616    N  432 1.328    C  419 0.926
   421  O   1.958        C  420 1.616    N  432 0.200
   422  C   3.993        C  419 0.990    C  423 0.967    H  429 0.952    H  428 0.947
   423  C   3.947        O  424 1.634    N  425 1.315    C  422 0.967
   424  O   1.935        C  423 1.634    N  425 0.201
   425  N   3.393        C  423 1.315    H  430 0.927    H  431 0.891    O  424 0.201
   426  H   0.966        N  418 0.932
   427  H   0.995        C  419 0.954
   428  H   0.992        C  422 0.947
   429  H   0.997        C  422 0.952
   430  H   0.949        N  425 0.927
   431  H   0.951        N  425 0.891
   432  N   3.482        C  420 1.328    C  433 0.981    H  441 0.888    O  421 0.200
   433  C   3.962        N  432 0.981    C  436 0.969    H  442 0.942    C  434 0.942
   434  C   3.946        O  435 1.589    N  454 1.324    C  433 0.942
   435  O   1.967        C  434 1.589    N  454 0.192
   436  C   3.983        C  437 1.008    C  433 0.969    H  444 0.968    H  443 0.965
   437  C   3.991        C  436 1.008    C  438 1.005    H  445 0.969    H  446 0.968
   438  C   3.987        C  439 1.012    C  437 1.005    H  448 0.971    H  447 0.967
   439  C   3.923        C  438 1.012    H  450 0.966    H  449 0.963    N  440 0.960
   440  N   3.636        C  439 0.960    H  452 0.917    H  453 0.892    H  451 0.762
   441  H   0.945        N  432 0.888
   442  H   0.993        C  433 0.942
   443  H   0.994        C  436 0.965
   444  H   0.995        C  436 0.968
   445  H   0.997        C  437 0.969
   446  H   0.997        C  437 0.968
   447  H   0.993        C  438 0.967
   448  H   0.995        C  438 0.971
   449  H   0.988        C  439 0.963
   450  H   0.987        C  439 0.966
   451  H   0.913        N  440 0.762    O  293 0.130
   452  H   0.943        N  440 0.917
   453  H   0.923        N  440 0.892
   454  N   3.490        C  434 1.324    C  455 0.982    H  462 0.890    O  435 0.192
   455  C   3.966        N  454 0.982    C  456 0.967    C  458 0.963    H  463 0.945
   456  C   3.901        O  457 1.911    C  455 0.967    H  543 0.952
   457  O   2.051        C  456 1.911
   458  C   3.985        C  459 0.991    H  465 0.969    H  464 0.968    C  455 0.963
   459  C   3.994        C  461 1.010    C  460 1.006    C  458 0.991    H  466 0.968
   460  C   3.993        C  459 1.006    H  469 0.985    H  467 0.985    H  468 0.983
   461  C   3.995        C  459 1.010    H  471 0.985    H  470 0.983    H  472 0.982
   462  H   0.945        N  454 0.890
   463  H   0.993        C  455 0.945
   464  H   0.996        C  458 0.968
   465  H   0.995        C  458 0.969
   466  H   0.999        C  459 0.968
   467  H   0.997        C  460 0.985
   468  H   0.998        C  460 0.983
   469  H   0.997        C  460 0.985
   470  H   0.998        C  461 0.983
   471  H   0.997        C  461 0.985
   472  H   0.999        C  461 0.982
   473  N   2.999        C  474 1.013    H  482 0.958    H  544 0.956
   474  C   3.985        N  473 1.013    C  477 0.976    H  483 0.959    C  475 0.935
   475  C   3.948        O  476 1.611    N  488 1.331    C  474 0.935
   476  O   1.919        C  475 1.611    N  488 0.199
   477  C   3.994        C  478 0.999    C  474 0.976    H  484 0.973    H  485 0.972
   478  C   3.993        C  477 0.999    H  486 0.978    H  487 0.969    C  479 0.925
   479  C   3.929        O  480 1.555    O  481 1.414    C  478 0.925
   480  O   1.842        C  479 1.555    O  481 0.202
   481  O   1.844        C  479 1.414    O  480 0.202
   482  H   0.975        N  473 0.958
   483  H   0.998        C  474 0.959
   484  H   0.999        C  477 0.973
   485  H   1.000        C  477 0.972
   486  H   1.000        C  478 0.978
   487  H   0.999        C  478 0.969
   488  N   3.483        C  475 1.331    C  489 0.987    H  495 0.868    O  476 0.199
   489  C   3.964        N  488 0.987    C  492 0.950    H  496 0.948    C  490 0.941
   490  C   3.949        O  491 1.622    N  504 1.298    C  489 0.941
   491  O   1.976        C  490 1.622    N  504 0.193
   492  C   3.988        C  494 1.010    C  493 1.009    H  497 0.965    C  489 0.950
   493  C   3.993        C  492 1.009    H  499 0.986    H  500 0.986    H  498 0.983
   494  C   3.994        C  492 1.010    H  501 0.983    H  502 0.982    H  503 0.981
   495  H   0.945        N  488 0.868
   496  H   0.995        C  489 0.948
   497  H   0.997        C  492 0.965
   498  H   0.995        C  493 0.983
   499  H   0.998        C  493 0.986
   500  H   0.998        C  493 0.986
   501  H   0.996        C  494 0.983
   502  H   0.998        C  494 0.982
   503  H   0.998        C  494 0.981
   504  N   3.470        C  490 1.298    C  505 0.977    H  511 0.923    O  491 0.193
   505  C   3.959        C  506 0.987    N  504 0.977    H  512 0.950    C  508 0.928
   506  C   3.905        O  507 1.903    C  505 0.987    H  545 0.952
   507  O   2.049        C  506 1.903
   508  C   3.987        C  509 1.012    C  510 1.008    H  513 0.964    C  505 0.928
   509  C   3.994        C  508 1.012    H  515 0.984    H  516 0.983    H  514 0.982
   510  C   3.990        C  508 1.008    H  518 0.985    H  517 0.984    H  519 0.978
   511  H   0.957        N  504 0.923
   512  H   0.991        C  505 0.950
   513  H   0.999        C  508 0.964
   514  H   0.998        C  509 0.982
   515  H   0.998        C  509 0.984
   516  H   0.997        C  509 0.983
   517  H   0.997        C  510 0.984
   518  H   0.998        C  510 0.985
   519  H   0.996        C  510 0.978
   520  H   0.964        N    1 0.946
   521  H   0.996        C    3 0.955
   522  H   0.969        N   17 0.953
   523  H   0.995        C   19 0.954
   524  H   0.969        N   29 0.955
   525  H   0.996        C   31 0.953
   526  H   0.968        N   48 0.957
   527  H   0.994        C   50 0.954
   528  H   0.971        N   58 0.959
   529  H   0.996        C   60 0.955
   530  H   0.966        N   77 0.952
   531  H   0.996        C   79 0.954
   532  H   0.965        N   93 0.954
   533  H   0.992        C  153 0.952
   534  H   0.971        N  167 0.958
   535  H   0.995        C  169 0.955
   536  H   0.967        N  184 0.954
   537  H   0.992        C  353 0.951
   538  H   0.965        N  361 0.948
   539  H   0.997        C  363 0.958
   540  H   0.967        N  380 0.945
   541  H   0.997        C  382 0.958
   542  H   0.967        N  399 0.953
   543  H   0.993        C  456 0.952
   544  H   0.968        N  473 0.956
   545  H   0.992        C  506 0.952
 
molecular dipole:
                 x           y           z       tot (Debye)
 q only:     -679.798    -232.939    -372.980
   full:     -680.397    -232.433    -373.376    2059.288
molecular quadrupole (traceless):
                xx          xy          yy          xz          yz          zz
 q only:  -182170.726 -118388.920  123104.325 -189826.414  -65524.884   59066.401
  q+dip:  -182563.136 -118251.556  123515.287 -190216.072  -65377.781   59047.849
   full:  -182570.241 -118253.278  123515.944 -190211.465  -65379.581   59054.297


           -------------------------------------------------
          | TOTAL ENERGY             -809.068818453561 Eh   |
          | GRADIENT NORM               0.797107504893 Eh/α |
          | HOMO-LUMO GAP               1.488014402490 eV   |
           -------------------------------------------------

------------------------------------------------------------------------
 * finished run on 2019/05/31 at 05:35:05.283     
------------------------------------------------------------------------
 total:
 * wall-time:     0 d,  0 h,  0 min, 13.258 sec
 *  cpu-time:     0 d,  0 h,  0 min, 26.104 sec
 * ratio c/w:     1.969 speedup
 SCF:
 * wall-time:     0 d,  0 h,  0 min, 12.461 sec
 *  cpu-time:     0 d,  0 h,  0 min, 24.850 sec
 * ratio c/w:     1.994 speedup

