      -----------------------------------------------------------      
     |                   =====================                   |     
     |                           x T B                           |     
     |                   =====================                   |     
     |                         S. Grimme                         |     
     |          Mulliken Center for Theoretical Chemistry        |     
     |                    University of Bonn                     |     
     |                Version 6.1 RC1 (SAW190329)                |     
      -----------------------------------------------------------      

   This program is distributed in the hope that it will be useful,
   but WITHOUT ANY WARRANTY; without even the implied warranty of
   MERCHANTABILITY or FITNESS FOR A PARTICULAR PURPOSE.
   
   FOR NON-COMMERCIAL, ACADEMIA USE ONLY.
   
   Cite this work as:
   S. Grimme, C. Bannwarth, P. Shushkov, J. Comput. Theory Chem., 2017,
   13, 1989-2009. DOI: 10.1021/acs.jctc.7b00118
   C. Bannwarth, S. Ehlert and S. Grimme., J. Comput. Theory Chem., 2019,
   just accepted. DOI: 10.1021/acs.jctc.8b01176
   
   for sTDA-xTB:
   S. Grimme and C. Bannwarth, J. Chem. Phys., 2016, 145, 054103.
   DOI: 10.1063/1.4959605
   
   in the mass-spec context:
   V. Asgeirsson, C. Bauer and S. Grimme, Chem. Sci., 2017, 8, 4879.
   DOI: 10.1039/c7sc00601b
   
   for metadynamics refer to:
   S. Grimme, ChemRxiv, Preprint. DOI: 10.26434/chemrxiv.7660532.v1
   
   with help from (in alphabetical order)
   C. Bannwarth, F. Bohle, G. Brandenburg, E. Caldeweyher, M. Checinski,
   S. Dohm, S. Ehlert, S. Ehrlich, F. März, H. Neugebauer, J. Pisarek,
   P. Pracht, P. Shushkov, and S. Spicher.
   
 * started run on 2019/05/31 at 06:33:09.891     

           -------------------------------------------------
          |                Calculation Setup                |
           -------------------------------------------------

          program call               : /home/lum/qr/xtb-190329/bin/xtb xtb_tmp.xyz --chrg 1 --grad --gfn 2 --etemp 500 --acc 0.1 --gbsa h2o --parallel 2
          hostname                   : cu39
          coordinate file            : xtb_tmp.xyz
          omp threads                :                     2
          number of atoms            :                   585
          number of electrons        :                  1568
          charge                     :                     1
          spin                       :                   0.0
          first test random number   :      0.87708543918666


molecular fragmentation (1/2 indicates fragments):
111111111111111111111111111111111111111111111111111111111111111111111111
111111111111111111111111111111111111111111111111111111111111111111111111
111111111111111111111111111111111111111111111111111111122222222222222222
222222222222222222222222222222222222222222222222222222222222222222222222
222222222222222222222222222222222222222222222222222222222222222222222222
222222222222222222222222222222222222222222222222222222222222222222222222
222222222222222222222222222222222222222222222222222222222222222222222222
222222222222222222222222222222222222222222222222222222222222222222222221
122222222
# atoms in fragment 1/2:   201   384
 fragment masses (1/2) :     1376.68     2592.09
CMA distance (Bohr)    :  17.455
constraining FC (au)   :  0.0500

########################################################################
# WARNING! Please study the warnings concerning your input carefully
#  - XTBPATH is not set, using XTBHOME instead
#  - Process number higher than OMP_NUM_THREADS, I hope you know what you are doing.
########################################################################

           ------------------------------------------------- 
          |                 G F N 2 - x T B                 |
          | Geometry, Frequencies, Noncovalent interactions |
          |            JCTC 2018 parametrisation            |
           ------------------------------------------------- 
 
             k(s)              :                1.8500
             k(p)              :                2.2300
             k(d)              :                2.2300
             k(f)              :                2.0000
             kEN (H0ij)        :               -2.0000
             D4 a1             :                0.5200
             D4 a2             :                5.0000
             D4 s6             :                1.0000
             D4 s8             :                2.7000
             D4 s9             :                5.0000
             alphaj            :                2.0000

  Z AO/shell   Hii/eV     exponent
  1     Wed Apr 25 08:07:45 CEST 2018   EN: 2.200 GM2: 0.406  GM3: 0.0800  RAES: 1.40
     1s    -10.707211    1.230000
  6     Wed Apr 25 08:07:45 CEST 2018   EN: 2.550 GM2: 0.538  GM3: 0.1500  RAES: 3.00
     2s    -13.970922    2.096432
     2p    -10.063292    1.800000
  7     Wed Apr 25 08:07:45 CEST 2018   EN: 3.040 GM2: 0.461  GM3:-0.0640  RAES: 1.90
     2s    -16.686243    2.339881
     2p    -12.523956    2.014332
  8     Wed Apr 25 08:07:45 CEST 2018   EN: 3.440 GM2: 0.452  GM3:-0.0517  RAES: 1.80
     2s    -20.229985    2.439742
     2p    -15.503117    2.137023
 16     Tue Apr 24 11:44:34 CEST 2018   EN: 2.580 GM2: 0.340  GM3:-0.0502  RAES: 3.10
     3s    -20.029654    1.981333
     3p    -11.377694    2.025643
     3d     -0.420282    1.702555

 Solvent             : h2o
 Using internal parameter file: .param_gbsa2_h2o
 Gsolv ref. state (COSMO-RS): gsolv [1 M gas/solution]
 temperature (mdtemp)       :    298.150000000000     
 dielectric constant        :    80.2000000000000     
 rho                        :    1.00000000000000     
 mass                       :    18.0000000000000     
 surface tension            :    15.5689454083859     
 probe radius               :   0.975313790000000     
 vdW radii scaling          :    1.00000000000000     
 Gshift (Eh)                :   1.857443126794793E-003
 c1                         :    1.55243817000000     
 soset                      :   0.130326360000000     
 HB correction              :  T
 Number of grid points      :          230

            Z     q(EN)     CN     RAES       Cart. coordinates
     1  N   5.0   -0.68    3.00    1.93   111.76938    44.74925    45.68229
     2  C   4.0    0.08    3.98    3.59   111.26521    45.40516    48.29061
     3  C   4.0    0.28    3.01    3.02   112.02011    43.19841    50.02259
     4  O   6.0   -0.38    1.00    1.80   111.08475    41.09506    49.83689
     5  C   4.0   -0.14    4.01    3.64   108.47342    46.02114    48.67101
     6  C   4.0   -0.14    3.98    3.58   107.63298    48.27090    47.09892
     7  S   6.0   -0.16    2.02    3.10   109.16323    51.19641    48.07031
     8  C   4.0   -0.21    3.98    3.58   107.87770    53.18908    45.58877
     9  H   1.0    0.27    1.00    1.43   110.28580    44.27902    44.56681
    10  H   1.0    0.11    0.99    1.43   112.44627    47.05130    48.74640
    11  H   1.0    0.12    0.99    1.43   107.38095    44.35622    48.11535
    12  H   1.0    0.11    0.99    1.43   108.17391    46.39805    50.67833
    13  H   1.0    0.11    0.99    1.43   108.08648    47.97202    45.11143
    14  H   1.0    0.10    0.99    1.43   105.60025    48.54681    47.29919
    15  H   1.0    0.11    0.99    1.43   108.77045    55.02363    45.74015
    16  H   1.0    0.11    0.99    1.43   108.30166    52.33837    43.76699
    17  H   1.0    0.10    0.99    1.43   105.85008    53.36643    45.85206
    18  N   5.0   -0.49    3.01    1.93   113.76290    43.80145    51.76015
    19  C   4.0    0.08    3.99    3.60   114.41189    42.18643    53.86935
    20  C   4.0    0.27    3.02    3.02   113.33661    43.51177    56.21319
    21  O   6.0   -0.42    1.00    1.80   113.13326    45.81563    56.25458
    22  C   4.0   -0.09    3.99    3.60   117.28255    41.84597    54.05457
    23  C   4.0    0.28    3.00    3.02   118.00366    39.64630    55.75642
    24  O   6.0   -0.39    1.00    1.80   116.46790    38.46741    57.01673
    25  N   5.0   -0.64    3.00    1.93   120.48245    39.13464    55.81098
    26  H   1.0    0.25    1.00    1.43   114.29508    45.62468    51.97670
    27  H   1.0    0.16    0.99    1.43   113.50504    40.34871    53.57824
    28  H   1.0    0.13    0.99    1.43   118.00565    41.49726    52.15589
    29  H   1.0    0.12    0.99    1.43   118.15803    43.56972    54.77577
    30  H   1.0    0.30    1.00    1.43   121.09690    37.66577    56.85788
    31  H   1.0    0.27    1.00    1.43   121.70517    40.04837    54.67892
    32  N   5.0   -0.47    3.01    1.93   112.59363    42.03245    58.11053
    33  C   4.0    0.09    4.00    3.63   111.32739    43.14574    60.25856
    34  C   4.0    0.27    3.01    3.02   111.01996    41.20612    62.33677
    35  O   6.0   -0.41    1.00    1.80   110.49948    38.98728    61.92921
    36  C   4.0   -0.11    3.99    3.60   108.67961    44.15108    59.50624
    37  C   4.0   -0.02    3.02    3.02   107.06928    42.15436    58.29739
    38  C   4.0   -0.08    3.03    3.02   107.38207    41.51488    55.76318
    39  C   4.0   -0.10    3.03    3.02   105.22674    40.89064    59.67969
    40  C   4.0   -0.06    3.02    3.02   105.86642    39.72633    54.61149
    41  C   4.0   -0.08    3.03    3.02   103.67263    39.13054    58.54299
    42  C   4.0    0.13    3.03    3.02   103.94584    38.55855    55.98337
    43  O   6.0   -0.48    1.99    1.83   102.24383    36.97979    54.93628
    44  H   1.0    0.30    1.00    1.43   112.94081    40.14672    58.10428
    45  H   1.0    0.14    0.99    1.43   112.43124    44.76697    60.93042
    46  H   1.0    0.11    0.99    1.43   107.77951    44.90941    61.20124
    47  H   1.0    0.13    0.99    1.43   109.00559    45.71507    58.20328
    48  H   1.0    0.14    0.99    1.43   108.80989    42.45496    54.64758
    49  H   1.0    0.12    1.00    1.43   104.99263    41.34332    61.65239
    50  H   1.0    0.16    0.99    1.43   106.15527    39.23680    52.64836
    51  H   1.0    0.11    1.00    1.43   102.22078    38.15929    59.58561
    52  H   1.0    0.32    0.99    1.43   102.60743    36.77230    53.11508
    53  N   5.0   -0.49    3.01    1.93   111.25083    42.15269    64.66052
    54  C   4.0    0.07    4.00    3.61   110.91613    40.60037    66.88901
    55  C   4.0    0.28    3.00    3.02   108.13847    40.80768    67.69334
    56  O   6.0   -0.44    1.00    1.80   107.40236    42.14761    69.43438
    57  C   4.0   -0.09    3.98    3.58   112.76576    41.37138    68.95919
    58  C   4.0    0.33    2.99    3.02   112.97685    44.26175    69.53595
    59  O   6.0   -0.40    1.00    1.80   112.04977    45.81887    68.03656
    60  O   6.0   -0.47    1.00    1.80   114.15535    44.73358    71.52690
    61  H   1.0    0.29    1.00    1.43   111.56417    44.01413    65.06484
    62  H   1.0    0.13    0.99    1.43   111.28006    38.63905    66.30570
    63  H   1.0    0.10    0.99    1.43   112.25954    40.43903    70.72637
    64  H   1.0    0.12    0.99    1.43   114.66442    40.77262    68.40942
    65  N   5.0   -0.50    3.01    1.93   106.62048    39.28724    66.37731
    66  C   4.0    0.06    3.99    3.60   103.92946    38.87998    66.83631
    67  C   4.0    0.30    3.01    3.02   103.17007    39.79511    69.47377
    68  O   6.0   -0.47    1.00    1.80   101.57749    41.43639    69.78872
    69  C   4.0   -0.16    3.98    3.59   103.48576    36.01256    66.47468
    70  C   4.0   -0.16    3.98    3.58   101.22839    34.81445    67.83383
    71  C   4.0   -0.16    3.98    3.58    98.66421    35.44449    66.66311
    72  C   4.0   -0.06    3.98    3.58    96.60678    33.61316    67.55362
    73  N   5.0   -0.73    3.98    2.81    95.08307    34.67778    69.67538
    74  H   1.0    0.26    1.00    1.43   107.34931    38.39368    64.84410
    75  H   1.0    0.10    0.99    1.43   102.81229    39.98836    65.49229
    76  H   1.0    0.10    0.99    1.43   103.33975    35.67011    64.44910
    77  H   1.0    0.11    0.99    1.43   105.18824    35.04015    67.11452
    78  H   1.0    0.10    0.99    1.43   101.50584    32.77908    67.67720
    79  H   1.0    0.12    0.99    1.43   101.25834    35.33206    69.82311
    80  H   1.0    0.11    0.99    1.43    98.13355    37.38814    67.08812
    81  H   1.0    0.09    0.99    1.43    98.83903    35.28054    64.62330
    82  H   1.0    0.10    0.99    1.43    95.33315    33.17212    65.99699
    83  H   1.0    0.11    0.99    1.43    97.44596    31.83951    68.18660
    84  H   1.0    0.24    1.00    1.43    93.73084    33.38535    70.22257
    85  H   1.0    0.23    1.00    1.43    96.21186    35.07980    71.21188
    86  H   1.0    0.23    1.00    1.43    94.18131    36.31929    69.12580
    87  N   5.0   -0.49    3.01    1.93   104.16622    38.43637    71.36014
    88  C   4.0    0.07    3.99    3.60   103.41217    38.73103    73.97096
    89  C   4.0    0.30    3.01    3.02   103.76354    41.42747    74.97104
    90  O   6.0   -0.47    1.00    1.80   102.13392    42.37188    76.32454
    91  C   4.0   -0.16    3.98    3.58   104.59125    36.63140    75.61131
    92  C   4.0   -0.15    3.98    3.58   107.42273    36.06491    75.34448
    93  C   4.0   -0.15    3.98    3.58   109.14931    37.72741    76.96042
    94  C   4.0   -0.06    3.98    3.58   111.93887    37.13061    76.51820
    95  N   5.0   -0.73    3.98    2.81   112.60018    34.52714    77.39066
    96  H   1.0    0.23    1.00    1.43   105.52366    37.16209    70.94100
    97  H   1.0    0.12    0.99    1.43   101.35419    38.46647    74.07771
    98  H   1.0    0.11    0.99    1.43   104.15158    37.06069    77.57616
    99  H   1.0    0.10    0.99    1.43   103.57844    34.90714    75.10919
   100  H   1.0    0.10    0.99    1.43   107.63051    34.09906    75.92460
   101  H   1.0    0.10    0.99    1.43   108.02517    36.20445    73.37789
   102  H   1.0    0.12    0.99    1.43   108.83076    39.70520    76.48333
   103  H   1.0    0.11    0.99    1.43   108.68817    37.48728    78.95513
   104  H   1.0    0.11    0.99    1.43   112.39713    37.28583    74.51287
   105  H   1.0    0.11    0.99    1.43   113.09813    38.47590    77.55936
   106  H   1.0    0.24    1.00    1.43   114.52581    34.24458    77.29529
   107  H   1.0    0.24    1.00    1.43   112.02380    34.27667    79.23789
   108  H   1.0    0.24    1.00    1.43   111.72672    33.18985    76.27432
   109  N   5.0   -0.49    3.00    1.93   105.94336    42.59690    74.40375
   110  C   4.0    0.07    4.00    3.61   106.31389    45.21039    75.16926
   111  C   4.0    0.29    3.01    3.02   104.27249    46.91391    74.00852
   112  O   6.0   -0.37    1.00    1.80   102.96996    48.34708    75.26942
   113  C   4.0   -0.14    3.98    3.59   108.93617    46.17071    74.38336
   114  C   4.0   -0.15    3.98    3.58   110.10653    47.95687    76.34486
   115  C   4.0   -0.15    3.98    3.58   111.88959    46.57718    78.18340
   116  C   4.0   -0.05    3.98    3.58   114.57946    47.60386    78.13370
   117  N   5.0   -0.72    3.98    2.81   115.69587    47.55788    75.53766
   118  H   1.0    0.29    1.00    1.43   106.88960    42.07666    72.81295
   119  H   1.0    0.13    0.99    1.43   106.08406    45.30974    77.22570
   120  H   1.0    0.13    0.99    1.43   110.18663    44.56235    74.07709
   121  H   1.0    0.14    0.99    1.43   108.79983    47.13033    72.56252
   122  H   1.0    0.13    0.99    1.43   111.11404    49.45170    75.35137
   123  H   1.0    0.12    0.99    1.43   108.57984    48.89416    77.36241
   124  H   1.0    0.10    0.99    1.43   111.20092    46.75924    80.11323
   125  H   1.0    0.11    0.99    1.43   111.92371    44.57288    77.71761
   126  H   1.0    0.11    0.99    1.43   114.59642    49.54560    78.82972
   127  H   1.0    0.11    0.99    1.43   115.75214    46.45746    79.38049
   128  H   1.0    0.25    1.00    1.43   117.60471    47.23518    75.62547
   129  H   1.0    0.31    0.99    1.43   114.89488    46.21925    74.28033
   130  H   1.0    0.26    1.00    1.43   115.42454    49.25423    74.64214
   131  N   5.0   -0.47    3.01    1.93   104.03641    46.64166    71.49549
   132  C   4.0    0.07    3.99    3.61   102.41686    48.27840    69.99170
   133  C   4.0    0.30    3.01    3.02    99.76606    48.28988    71.16586
   134  O   6.0   -0.41    1.00    1.80    98.61732    50.23239    71.66305
   135  C   4.0   -0.14    3.98    3.59   102.48247    47.28798    67.26788
   136  C   4.0   -0.11    3.97    3.58   100.81132    48.65638    65.32529
   137  C   4.0   -0.23    3.98    3.59    98.02317    47.94570    65.56961
   138  C   4.0   -0.21    3.98    3.59   101.13716    51.52122    65.45605
   139  H   1.0    0.28    1.00    1.43   105.30072    45.56798    70.53776
   140  H   1.0    0.13    0.99    1.43   103.11373    50.23408    70.07291
   141  H   1.0    0.12    0.99    1.43   104.45133    47.45410    66.65522
   142  H   1.0    0.13    0.99    1.43   101.96984    45.28832    67.30594
   143  H   1.0    0.10    0.99    1.43   101.47550    48.04551    63.46199
   144  H   1.0    0.09    0.99    1.43    96.98359    48.71467    63.97642
   145  H   1.0    0.10    0.99    1.43    97.79482    45.90630    65.63454
   146  H   1.0    0.13    0.99    1.43    97.23442    48.76993    67.27498
   147  H   1.0    0.12    0.99    1.43   100.16323    52.44835    63.90105
   148  H   1.0    0.13    0.99    1.43   100.35801    52.26739    67.20773
   149  H   1.0    0.12    0.99    1.43   103.12080    52.07349    65.35479
   150  N   5.0   -0.48    3.01    1.93    98.82946    45.97019    71.52020
   151  C   4.0    0.07    3.99    3.60    96.26663    45.50515    72.38851
   152  C   4.0    0.30    3.01    3.02    95.80681    46.79892    74.92950
   153  O   6.0   -0.48    1.00    1.80    93.95420    48.13797    75.31820
   154  C   4.0   -0.14    3.99    3.60    95.91393    42.63096    72.48487
   155  C   4.0   -0.11    3.97    3.58    93.18412    41.63693    72.51026
   156  C   4.0   -0.21    3.98    3.59    91.77375    42.34989    74.92837
   157  C   4.0   -0.23    3.98    3.59    91.70909    42.43889    70.15267
   158  H   1.0    0.29    1.00    1.43    99.91843    44.45764    71.06826
   159  H   1.0    0.12    0.99    1.43    94.94804    46.37507    71.04882
   160  H   1.0    0.12    0.99    1.43    96.87264    41.91861    70.80145
   161  H   1.0    0.13    0.99    1.43    96.91648    41.94109    74.14826
   162  H   1.0    0.10    0.99    1.43    93.33942    39.57611    72.50339
   163  H   1.0    0.11    0.99    1.43    90.00448    41.30961    75.05294
   164  H   1.0    0.12    0.99    1.43    92.90270    41.93507    76.60042
   165  H   1.0    0.13    0.99    1.43    91.33351    44.35523    74.95528
   166  H   1.0    0.11    0.99    1.43    90.00395    41.30820    69.95864
   167  H   1.0    0.10    0.99    1.43    91.13313    44.40445    70.31044
   168  H   1.0    0.09    0.99    1.43    92.83979    42.23260    68.44794
   169  N   5.0   -0.46    3.01    1.93    97.49775    46.24026    76.72576
   170  C   4.0    0.09    3.99    3.61    97.15772    46.90950    79.36287
   171  C   4.0    0.28    3.00    3.02    97.97321    49.65893    79.84203
   172  O   6.0   -0.41    1.00    1.80    99.83764    50.21653    81.07263
   173  C   4.0    0.05    3.98    3.58    98.66160    45.03627    81.02780
   174  O   6.0   -0.48    1.99    1.82    98.34875    42.53021    80.18292
   175  C   4.0   -0.19    3.98    3.59    97.78725    45.19813    83.76693
   176  H   1.0    0.30    1.00    1.43    99.15987    45.41878    76.25692
   177  H   1.0    0.12    0.99    1.43    95.13233    46.75977    79.78750
   178  H   1.0    0.14    0.99    1.43   100.65867    45.59387    80.92264
   179  H   1.0    0.30    0.99    1.43    99.51886    42.22196    78.80112
   180  H   1.0    0.12    0.99    1.43    98.80682    43.81070    84.88292
   181  H   1.0    0.12    0.99    1.43    98.14861    47.07678    84.50376
   182  H   1.0    0.12    0.99    1.43    95.77558    44.80740    83.89594
   183  N   5.0   -0.48    3.01    1.93    96.38828    51.36116    78.81170
   184  C   4.0    0.07    3.99    3.60    97.04296    54.01393    78.57318
   185  C   4.0    0.08    3.00    3.02    94.74699    55.63783    79.29180
   186  O   6.0   -0.41    1.00    1.80    93.27333    56.47321    77.72375
   187  C   4.0   -0.09    3.98    3.59    97.88453    54.59970    75.85537
   188  C   4.0    0.10    3.22    3.04    98.83554    57.22967    75.64514
   189  N   5.0   -0.44    3.15    1.95    97.56569    59.09015    74.38012
   190  C   4.0    0.07    3.36    3.07   100.93928    58.38128    76.61101
   191  C   4.0    0.20    3.41    3.08    98.92569    61.23613    74.63885
   192  N   5.0   -0.36    2.09    1.90   100.97478    60.87429    75.96870
   193  H   1.0    0.29    1.00    1.43    95.01034    50.69774    77.64309
   194  H   1.0    0.14    0.99    1.43    98.60221    54.37311    79.88751
   195  H   1.0    0.16    0.99    1.43    99.34942    53.25006    75.32023
   196  H   1.0    0.15    0.99    1.43    96.28230    54.34840    74.58108
   197  H   1.0    0.29    1.00    1.43    95.92835    58.86638    73.42305
   198  H   1.0    0.13    1.00    1.43   102.42742    57.58682    77.72819
   199  H   1.0    0.14    1.00    1.43    98.35442    63.01146    73.83840
   200  N   5.0   -0.69    3.00    1.93    82.33588    54.60857    50.40515
   201  C   4.0    0.07    3.98    3.59    82.75369    55.76902    52.83895
   202  C   4.0    0.28    3.01    3.02    85.59864    56.07859    53.25563
   203  O   6.0   -0.43    1.00    1.80    87.15632    54.65833    52.30133
   204  C   4.0   -0.15    3.99    3.60    81.69173    54.08355    54.95856
   205  C   4.0   -0.11    3.98    3.58    78.88531    54.49197    55.53216
   206  C   4.0   -0.22    3.98    3.59    77.28174    54.37603    53.14609
   207  C   4.0   -0.23    3.99    3.60    78.00917    52.44655    57.37009
   208  H   1.0    0.33    1.00    1.43    82.98123    52.80835    50.19155
   209  H   1.0    0.11    0.99    1.43    81.82730    57.62021    52.87360
   210  H   1.0    0.11    0.99    1.43    81.95301    52.11231    54.40340
   211  H   1.0    0.11    0.99    1.43    82.77533    54.41353    56.68211
   212  H   1.0    0.11    0.99    1.43    78.64985    56.34856    56.40131
   213  H   1.0    0.11    0.99    1.43    75.29645    54.27390    53.65874
   214  H   1.0    0.10    0.99    1.43    77.54670    56.04846    51.98824
   215  H   1.0    0.11    0.99    1.43    77.79720    52.71746    52.04927
   216  H   1.0    0.11    0.99    1.43    76.05399    52.75769    57.92354
   217  H   1.0    0.11    0.99    1.43    78.14992    50.60401    56.46664
   218  H   1.0    0.09    0.99    1.43    79.18182    52.44327    59.05465
   219  N   5.0   -0.49    3.01    1.93    86.20721    58.01826    54.75674
   220  C   4.0    0.08    3.99    3.61    88.71928    58.43322    55.75292
   221  C   4.0    0.26    3.01    3.02    88.71640    57.59650    58.51748
   222  O   6.0   -0.46    1.00    1.80    86.91646    58.02401    59.92583
   223  C   4.0   -0.08    3.98    3.58    89.52023    61.22343    55.44583
   224  C   4.0   -0.21    3.98    3.59    87.73660    63.05328    56.80666
   225  C   4.0   -0.22    3.98    3.59    92.24466    61.53640    56.34782
   226  H   1.0    0.24    1.00    1.43    84.80003    58.95637    55.63696
   227  H   1.0    0.15    0.99    1.43    90.01090    57.22887    54.67086
   228  H   1.0    0.12    0.99    1.43    89.44773    61.61635    53.41557
   229  H   1.0    0.11    0.99    1.43    88.61316    64.90849    56.91213
   230  H   1.0    0.11    0.99    1.43    85.94908    63.24540    55.80463
   231  H   1.0    0.13    0.99    1.43    87.35281    62.41191    58.72378
   232  H   1.0    0.10    0.99    1.43    92.94643    63.38352    55.78438
   233  H   1.0    0.12    0.99    1.43    92.35364    61.37965    58.39764
   234  H   1.0    0.12    0.99    1.43    93.43516    60.08213    55.50633
   235  N   5.0   -0.50    3.01    1.93    90.76066    56.30520    59.25030
   236  C   4.0    0.07    4.00    3.61    91.13865    55.52657    61.84916
   237  C   4.0    0.26    3.00    3.02    93.30454    57.13610    62.92413
   238  O   6.0   -0.43    1.00    1.80    95.42122    57.17562    62.02986
   239  C   4.0   -0.09    3.98    3.58    91.53907    52.64941    62.08419
   240  C   4.0   -0.21    3.98    3.59    93.79613    51.72799    60.54510
   241  C   4.0   -0.23    3.98    3.59    91.78535    51.91640    64.86521
   242  H   1.0    0.26    1.00    1.43    92.21977    56.04283    58.04575
   243  H   1.0    0.12    0.99    1.43    89.39843    56.02586    62.85120
   244  H   1.0    0.10    0.99    1.43    89.81679    51.76860    61.33600
   245  H   1.0    0.09    0.99    1.43    93.99628    49.69989    60.79668
   246  H   1.0    0.13    0.99    1.43    93.49706    52.11770    58.54856
   247  H   1.0    0.13    0.99    1.43    95.52042    52.67027    61.15917
   248  H   1.0    0.09    0.99    1.43    91.86450    49.87422    65.02642
   249  H   1.0    0.12    0.99    1.43    93.48257    52.71774    65.70721
   250  H   1.0    0.09    0.99    1.43    90.16651    52.57602    65.94437
   251  N   5.0   -0.49    3.02    1.93    92.56682    58.59671    64.87807
   252  C   4.0    0.07    3.98    3.59    94.16834    60.46224    66.13214
   253  C   4.0    0.08    3.00    3.02    93.22566    60.47622    68.87951
   254  O   6.0   -0.43    1.00    1.80    93.70165    58.68351    70.26479
   255  C   4.0   -0.10    3.98    3.58    94.04444    62.95797    64.66484
   256  C   4.0    0.31    2.99    3.02    95.40366    65.16648    66.04529
   257  O   6.0   -0.44    1.00    1.80    97.59207    65.67706    65.37579
   258  O   6.0   -0.38    1.00    1.80    94.15849    66.30554    67.70587
   259  H   1.0    0.23    1.00    1.43    90.75861    58.51187    65.47889
   260  H   1.0    0.16    0.99    1.43    96.10845    59.73276    66.12188
   261  H   1.0    0.12    0.99    1.43    94.93313    62.65817    62.82155
   262  H   1.0    0.12    0.99    1.43    92.06772    63.48770    64.39764
   263  N   5.0   -0.71    3.00    1.93    83.74544    59.85872    67.58115
   264  C   4.0    0.07    3.98    3.59    82.61445    57.37509    67.22252
   265  C   4.0    0.27    3.01    3.02    82.26175    56.13596    69.80580
   266  O   6.0   -0.41    1.00    1.80    80.23946    55.17495    70.41937
   267  C   4.0   -0.14    3.98    3.59    84.21267    55.71272    65.47361
   268  C   4.0   -0.11    3.98    3.58    82.69051    53.57611    64.21603
   269  C   4.0   -0.24    3.98    3.59    84.32764    52.27357    62.22659
   270  C   4.0   -0.22    3.98    3.59    81.71291    51.61795    66.09537
   271  H   1.0    0.26    1.00    1.43    85.12820    60.44630    66.40424
   272  H   1.0    0.11    0.99    1.43    80.70948    57.61854    66.43378
   273  H   1.0    0.13    0.99    1.43    84.97994    56.91405    63.97784
   274  H   1.0    0.11    0.99    1.43    85.78861    54.91581    66.54178
   275  H   1.0    0.11    0.99    1.43    81.05951    54.44039    63.28147
   276  H   1.0    0.09    0.99    1.43    83.21808    50.85968    61.23335
   277  H   1.0    0.12    0.99    1.43    85.03011    53.64616    60.86845
   278  H   1.0    0.09    0.99    1.43    85.91888    51.34795    63.13852
   279  H   1.0    0.10    0.99    1.43    80.73205    50.12299    65.08601
   280  H   1.0    0.10    0.99    1.43    83.26814    50.80706    67.16694
   281  H   1.0    0.15    0.99    1.43    80.38240    52.44804    67.41300
   282  N   5.0   -0.50    3.01    1.93    84.31606    55.98883    71.26697
   283  C   4.0    0.07    3.99    3.60    84.16559    54.93434    73.79252
   284  C   4.0    0.09    3.00    3.02    81.99156    56.05124    75.33109
   285  O   6.0   -0.38    1.00    1.80    80.84077    54.78743    76.89171
   286  C   4.0   -0.13    3.99    3.60    86.63053    55.36944    75.24596
   287  C   4.0   -0.09    3.97    3.58    88.71413    53.40052    74.79370
   288  C   4.0   -0.21    3.98    3.59    87.94971    50.80569    75.80594
   289  C   4.0   -0.21    3.98    3.59    89.52167    53.21647    72.02928
   290  H   1.0    0.25    1.00    1.43    85.76746    57.18180    70.93686
   291  H   1.0    0.14    0.99    1.43    83.76091    52.90878    73.63216
   292  H   1.0    0.12    0.99    1.43    87.32193    57.25975    74.78446
   293  H   1.0    0.13    0.99    1.43    86.18093    55.37912    77.26116
   294  H   1.0    0.16    0.99    1.43    90.34759    54.07233    75.86987
   295  H   1.0    0.13    0.99    1.43    89.60212    49.58785    75.87305
   296  H   1.0    0.12    0.99    1.43    87.17127    50.97555    77.70138
   297  H   1.0    0.10    0.99    1.43    86.54285    49.93266    74.58897
   298  H   1.0    0.12    0.99    1.43    91.01129    51.80999    71.86015
   299  H   1.0    0.11    0.99    1.43    87.94659    52.65122    70.83704
   300  H   1.0    0.13    0.99    1.43    90.26924    55.01758    71.36512
   301  N   5.0   -0.72    3.00    1.93   109.00359    57.51263    52.61014
   302  C   4.0    0.07    3.98    3.59   109.17932    55.14465    54.00350
   303  C   4.0    0.28    3.01    3.02   107.52365    55.19443    56.38801
   304  O   6.0   -0.43    1.00    1.80   106.40984    53.31820    57.11587
   305  C   4.0   -0.19    3.98    3.59   111.91045    54.60214    54.73628
   306  H   1.0    0.26    1.00    1.43   110.61868    58.26092    51.92492
   307  H   1.0    0.12    0.99    1.43   108.46986    53.59817    52.82251
   308  H   1.0    0.13    0.99    1.43   111.99455    52.82241    55.75912
   309  H   1.0    0.11    0.99    1.43   113.08372    54.47749    53.05355
   310  H   1.0    0.12    0.99    1.43   112.63561    56.07093    55.97643
   311  N   5.0   -0.48    3.00    1.93   107.43540    57.42895    57.59313
   312  C   4.0    0.08    3.99    3.60   106.16783    57.76096    59.98574
   313  C   4.0    0.26    3.01    3.02   103.27782    58.02578    59.77466
   314  O   6.0   -0.42    1.00    1.80   102.01045    58.22165    61.69512
   315  C   4.0   -0.14    3.98    3.59   107.18078    60.08214    61.38250
   316  C   4.0   -0.11    3.97    3.58   109.94384    59.86225    62.18895
   317  C   4.0    0.32    2.99    3.02   110.29099    57.68214    64.14758
   318  O   6.0   -0.36    1.00    1.80   109.99260    58.24393    66.41754
   319  O   6.0   -0.37    1.00    1.80   110.83396    55.56113    63.26965
   320  H   1.0    0.25    1.00    1.43   108.47233    58.89661    56.96198
   321  H   1.0    0.16    0.99    1.43   106.51319    56.08360    61.15488
   322  H   1.0    0.11    0.99    1.43   106.93471    61.75323    60.18722
   323  H   1.0    0.14    0.99    1.43   106.02648    60.33563    63.07592
   324  H   1.0    0.12    0.99    1.43   111.17892    59.50441    60.57424
   325  H   1.0    0.12    0.99    1.43   110.51033    61.61406    63.11502
   326  N   5.0   -0.48    3.01    1.93   102.33266    58.05410    57.43305
   327  C   4.0    0.07    3.99    3.60    99.68957    58.48667    56.84669
   328  C   4.0    0.25    3.01    3.02    98.88504    56.82171    54.59888
   329  O   6.0   -0.41    1.00    1.80    98.19271    57.73031    52.57332
   330  C   4.0   -0.14    3.98    3.59    99.29239    61.29357    56.27849
   331  C   4.0   -0.14    3.98    3.59    99.63792    62.89053    58.65200
   332  C   4.0   -0.05    3.99    3.60    98.97015    65.65397    58.19817
   333  N   5.0   -0.47    3.02    1.93    99.12751    67.01244    60.56844
   334  C   4.0    0.38    3.01    3.02    98.80220    69.47758    60.87105
   335  N   5.0   -0.64    3.01    1.93    98.46366    71.02397    58.90765
   336  N   5.0   -0.63    3.02    1.93    98.97768    70.40505    63.20758
   337  H   1.0    0.27    1.00    1.43   103.48161    57.81591    55.91511
   338  H   1.0    0.15    0.99    1.43    98.56924    57.99978    58.53174
   339  H   1.0    0.12    0.99    1.43   100.58668    61.93895    54.80747
   340  H   1.0    0.11    0.99    1.43    97.38783    61.52698    55.54955
   341  H   1.0    0.13    0.99    1.43    98.44963    62.12486    60.16046
   342  H   1.0    0.14    0.99    1.43   101.59423    62.77645    59.29691
   343  H   1.0    0.11    0.99    1.43   100.28879    66.45004    56.82284
   344  H   1.0    0.11    0.99    1.43    97.05996    65.77724    57.41102
   345  H   1.0    0.29    1.00    1.43    99.00589    65.94463    62.17644
   346  H   1.0    0.26    1.00    1.43    98.42129    70.31026    57.14479
   347  H   1.0    0.27    1.00    1.43    98.29932    72.90243    59.18040
   348  H   1.0    0.32    1.00    1.43    98.85753    69.14847    64.65477
   349  H   1.0    0.28    1.00    1.43    98.56158    72.22138    63.57518
   350  N   5.0   -0.32    3.03    1.93    98.95769    54.33646    55.01587
   351  C   4.0    0.06    4.02    3.66    98.16883    52.54417    53.08926
   352  C   4.0    0.27    3.00    3.02    95.28365    52.64874    52.67672
   353  O   6.0   -0.41    1.00    1.80    93.88929    53.95150    53.97175
   354  C   4.0   -0.13    4.01    3.64    99.16602    50.00351    54.05354
   355  C   4.0   -0.14    4.00    3.62    99.20489    50.31297    56.92562
   356  C   4.0   -0.03    4.02    3.65    99.95222    53.07517    57.24760
   357  H   1.0    0.12    0.99    1.43    99.01100    53.11174    51.28460
   358  H   1.0    0.12    0.99    1.43    97.93417    48.47440    53.48405
   359  H   1.0    0.11    0.99    1.43   101.06734    49.72033    53.31965
   360  H   1.0    0.10    0.99    1.43    97.32677    49.99575    57.71153
   361  H   1.0    0.11    0.99    1.43   100.58957    49.10194    57.84327
   362  H   1.0    0.12    0.99    1.43    99.21026    53.91028    58.97314
   363  H   1.0    0.15    0.99    1.43   102.00925    53.26454    57.33837
   364  N   5.0   -0.49    3.01    1.93    94.48378    51.25722    50.69414
   365  C   4.0    0.08    3.99    3.60    91.91344    51.32636    49.78083
   366  C   4.0    0.26    3.00    3.02    90.49435    48.89995    50.49083
   367  O   6.0   -0.45    1.00    1.80    91.52496    46.84446    50.66962
   368  C   4.0   -0.13    3.98    3.59    91.78310    51.88613    46.91601
   369  C   4.0   -0.09    3.97    3.58    93.58637    50.33258    45.24565
   370  C   4.0   -0.22    3.98    3.59    92.47579    49.95399    42.60475
   371  C   4.0   -0.22    3.98    3.59    96.14839    51.64640    44.95135
   372  H   1.0    0.23    1.00    1.43    95.63757    49.96995    49.89275
   373  H   1.0    0.16    0.99    1.43    91.01093    52.89410    50.78619
   374  H   1.0    0.12    0.99    1.43    89.83619    51.58734    46.30842
   375  H   1.0    0.12    0.99    1.43    92.21660    53.88246    46.64081
   376  H   1.0    0.15    0.99    1.43    93.83847    48.46287    46.08516
   377  H   1.0    0.11    0.99    1.43    93.83419    48.97244    41.41572
   378  H   1.0    0.10    0.99    1.43    90.75307    48.83601    42.65494
   379  H   1.0    0.11    0.99    1.43    92.04816    51.76560    41.73623
   380  H   1.0    0.10    0.99    1.43    97.42381    50.43870    43.88149
   381  H   1.0    0.11    0.99    1.43    95.89944    53.41382    43.92405
   382  H   1.0    0.11    0.99    1.43    97.00456    52.07130    46.76794
   383  N   5.0   -0.49    3.01    1.93    88.00667    49.26711    50.83226
   384  C   4.0    0.08    3.99    3.60    86.28377    47.45489    51.95537
   385  C   4.0    0.26    3.01    3.02    83.79369    47.56341    50.48356
   386  O   6.0   -0.47    1.00    1.80    83.14137    49.53669    49.45399
   387  C   4.0   -0.09    3.98    3.58    85.83716    48.12308    54.78415
   388  C   4.0   -0.22    3.98    3.59    84.28238    46.10112    56.11752
   389  C   4.0   -0.20    3.98    3.59    88.33347    48.48903    56.18871
   390  H   1.0    0.28    1.00    1.43    87.33905    51.06396    50.76547
   391  H   1.0    0.12    0.99    1.43    87.11286    45.57290    51.80268
   392  H   1.0    0.12    0.99    1.43    84.81166    49.91688    54.85008
   393  H   1.0    0.09    0.99    1.43    83.72784    46.73262    57.98852
   394  H   1.0    0.14    0.99    1.43    82.56704    45.66111    55.08775
   395  H   1.0    0.13    0.99    1.43    85.37181    44.37539    56.33569
   396  H   1.0    0.09    0.99    1.43    87.94304    48.68816    58.19461
   397  H   1.0    0.12    0.99    1.43    89.57771    46.87271    55.94150
   398  H   1.0    0.14    0.99    1.43    89.32526    50.17080    55.55096
   399  N   5.0   -0.49    3.00    1.93    82.37321    45.47710    50.44220
   400  C   4.0    0.07    3.99    3.60    79.88254    45.46144    49.28932
   401  C   4.0    0.06    3.00    3.02    78.00958    44.02917    50.94446
   402  O   6.0   -0.41    1.00    1.80    78.64161    42.25280    52.27907
   403  C   4.0   -0.12    3.98    3.59    79.85541    44.39045    46.56828
   404  C   4.0   -0.02    3.02    3.02    80.26531    41.58976    46.28690
   405  C   4.0   -0.08    3.04    3.02    82.37045    40.38202    47.28389
   406  C   4.0   -0.10    3.04    3.02    78.62322    40.15733    44.81404
   407  C   4.0   -0.10    3.03    3.02    82.83861    37.85252    46.81717
   408  C   4.0   -0.07    3.03    3.02    79.10450    37.64887    44.27703
   409  C   4.0    0.10    3.03    3.02    81.24165    36.47410    45.25653
   410  O   6.0   -0.44    1.99    1.83    81.74524    34.03524    44.60428
   411  H   1.0    0.30    1.00    1.43    82.90875    43.87562    51.35730
   412  H   1.0    0.12    0.99    1.43    79.29902    47.44019    49.15694
   413  H   1.0    0.10    0.99    1.43    78.05164    44.88877    45.69968
   414  H   1.0    0.12    0.99    1.43    81.30232    45.42811    45.51782
   415  H   1.0    0.15    1.00    1.43    83.70660    41.41956    48.41199
   416  H   1.0    0.12    1.00    1.43    76.95589    41.02077    44.01617
   417  H   1.0    0.13    0.99    1.43    84.51383    36.97717    47.59476
   418  H   1.0    0.14    1.00    1.43    77.85521    36.59194    43.06623
   419  H   1.0    0.26    0.99    1.43    83.25634    33.48251    45.47204
   420  N   5.0   -0.70    3.00    1.93    80.64107    38.56716    55.81872
   421  C   4.0    0.08    3.98    3.59    82.87871    37.21067    55.04804
   422  C   4.0    0.27    3.02    3.02    84.77469    39.13601    54.02903
   423  O   6.0   -0.45    1.00    1.80    84.07718    41.02025    52.89132
   424  C   4.0   -0.01    3.98    3.59    82.18235    35.32150    52.94230
   425  O   6.0   -0.46    1.99    1.82    80.25669    33.66302    53.68405
   426  H   1.0    0.34    1.00    1.43    79.88945    39.69671    54.46062
   427  H   1.0    0.11    0.99    1.43    83.61930    36.20521    56.69809
   428  H   1.0    0.15    0.99    1.43    81.43245    36.36462    51.32256
   429  H   1.0    0.12    0.99    1.43    83.89730    34.30089    52.36410
   430  H   1.0    0.26    0.99    1.43    80.71061    32.85575    55.25702
   431  N   5.0   -0.50    3.01    1.93    87.21971    38.71151    54.48931
   432  C   4.0    0.08    4.00    3.62    89.08345    40.48900    53.56304
   433  C   4.0    0.27    3.01    3.02    89.76195    39.80252    50.82427
   434  O   6.0   -0.42    1.00    1.80    89.89310    37.60158    50.10822
   435  C   4.0   -0.13    3.99    3.60    91.44049    40.53125    55.23773
   436  C   4.0   -0.04    3.02    3.02    91.09926    41.78804    57.78137
   437  C   4.0   -0.09    3.03    3.02    88.90408    41.53320    59.19930
   438  C   4.0   -0.11    3.04    3.02    93.07641    43.19044    58.79922
   439  C   4.0   -0.11    3.03    3.02    88.69988    42.63136    61.56506
   440  C   4.0   -0.12    3.03    3.02    92.89192    44.25185    61.18213
   441  C   4.0   -0.12    3.03    3.02    90.69994    43.97352    62.57966
   442  H   1.0    0.29    1.00    1.43    87.85337    37.04668    55.21919
   443  H   1.0    0.12    0.99    1.43    88.19877    42.35735    53.55949
   444  H   1.0    0.13    0.99    1.43    92.02143    38.56940    55.51638
   445  H   1.0    0.11    0.99    1.43    92.91620    41.51953    54.19105
   446  H   1.0    0.13    1.00    1.43    87.31618    40.49981    58.45714
   447  H   1.0    0.12    1.00    1.43    94.76731    43.49408    57.70892
   448  H   1.0    0.11    1.00    1.43    86.96198    42.43444    62.61013
   449  H   1.0    0.10    1.00    1.43    94.46782    45.29259    61.94579
   450  H   1.0    0.10    1.00    1.43    90.53996    44.80954    64.42975
   451  N   5.0   -0.50    3.01    1.93    90.19053    41.78341    49.30897
   452  C   4.0    0.08    3.99    3.60    90.68513    41.51749    46.62751
   453  C   4.0    0.27    3.01    3.02    93.49664    41.95282    46.06351
   454  O   6.0   -0.46    1.00    1.80    94.31396    43.87961    45.11869
   455  C   4.0   -0.13    3.98    3.59    89.06973    43.35696    45.08676
   456  C   4.0   -0.11    3.98    3.58    88.44403    42.39516    42.42103
   457  C   4.0   -0.21    3.98    3.59    90.82228    41.70605    40.93950
   458  C   4.0   -0.22    3.98    3.59    86.58388    40.18999    42.47270
   459  H   1.0    0.28    1.00    1.43    90.27861    43.55877    50.03026
   460  H   1.0    0.13    0.99    1.43    90.21800    39.55402    46.16590
   461  H   1.0    0.12    0.99    1.43    87.30839    43.70265    46.09991
   462  H   1.0    0.13    0.99    1.43    90.12090    45.12762    44.93425
   463  H   1.0    0.11    0.99    1.43    87.52834    43.96576    41.43319
   464  H   1.0    0.11    0.99    1.43    90.31165    41.10135    39.04502
   465  H   1.0    0.12    0.99    1.43    92.07467    43.32942    40.81982
   466  H   1.0    0.12    0.99    1.43    91.86304    40.16454    41.81621
   467  H   1.0    0.11    0.99    1.43    86.32956    39.43601    40.58241
   468  H   1.0    0.11    0.99    1.43    87.24774    38.66536    43.67936
   469  H   1.0    0.11    0.99    1.43    84.75525    40.80709    43.17153
   470  N   5.0   -0.49    3.01    1.93    95.02522    40.01781    46.73937
   471  C   4.0    0.07    3.99    3.60    97.51500    39.70413    45.59689
   472  C   4.0    0.26    3.01    3.02    97.89183    36.89127    45.03089
   473  O   6.0   -0.38    1.00    1.80    98.12099    36.06464    42.90847
   474  C   4.0   -0.12    3.98    3.59    99.71941    40.67018    47.21847
   475  C   4.0   -0.15    3.98    3.59    99.85442    43.55568    47.45369
   476  C   4.0   -0.05    3.98    3.59   101.22742    44.34005    49.86588
   477  N   5.0   -0.48    3.02    1.93    99.79398    43.46125    52.04270
   478  C   4.0    0.37    3.00    3.02   100.58008    43.43790    54.42321
   479  N   5.0   -0.65    3.02    1.93   102.59740    44.75989    55.12782
   480  N   5.0   -0.65    3.02    1.93    99.17614    42.28917    56.17749
   481  H   1.0    0.26    1.00    1.43    94.21837    38.46520    47.50326
   482  H   1.0    0.14    0.99    1.43    97.49909    40.74206    43.80559
   483  H   1.0    0.14    0.99    1.43    99.60486    39.81664    49.09009
   484  H   1.0    0.14    0.99    1.43   101.46649    39.95969    46.37948
   485  H   1.0    0.10    0.99    1.43   100.88497    44.31975    45.84423
   486  H   1.0    0.15    0.99    1.43    97.95763    44.35698    47.42003
   487  H   1.0    0.12    0.99    1.43   103.11415    43.48714    49.87362
   488  H   1.0    0.09    0.99    1.43   101.39487    46.39966    49.91307
   489  H   1.0    0.24    1.00    1.43    98.14409    42.59386    51.62681
   490  H   1.0    0.25    1.00    1.43   103.73188    45.54107    53.81358
   491  H   1.0    0.26    1.00    1.43   103.35372    44.47056    56.85745
   492  H   1.0    0.25    1.00    1.43    97.86670    41.00255    55.66539
   493  H   1.0    0.25    1.00    1.43    99.85702    42.15234    57.95451
   494  N   5.0   -0.49    3.00    1.93    97.72485    35.39231    47.12713
   495  C   4.0    0.08    3.99    3.61    98.89180    32.90057    47.12549
   496  C   4.0    0.26    3.00    3.02    97.09488    30.70203    47.68652
   497  O   6.0   -0.42    1.00    1.80    97.90172    28.55167    47.81751
   498  C   4.0   -0.10    3.98    3.58   101.11816    32.88883    48.97441
   499  C   4.0    0.32    2.99    3.02   102.92588    35.14319    48.31795
   500  O   6.0   -0.36    1.00    1.80   103.86470    35.20071    46.18037
   501  O   6.0   -0.47    1.00    1.80   103.17214    36.76918    50.01856
   502  H   1.0    0.24    1.00    1.43    97.95371    36.30388    48.79488
   503  H   1.0    0.17    0.99    1.43    99.62844    32.57949    45.20976
   504  H   1.0    0.11    0.99    1.43   100.45798    33.10646    50.91962
   505  H   1.0    0.13    0.99    1.43   102.15979    31.12198    48.80418
   506  N   5.0   -0.49    3.00    1.93    94.62506    31.28568    47.99801
   507  C   4.0    0.07    3.98    3.59    92.60016    29.43178    48.26217
   508  C   4.0    0.27    3.01    3.02    92.49517    28.08870    50.86635
   509  O   6.0   -0.40    1.00    1.80    91.08147    26.30495    51.17183
   510  C   4.0   -0.07    3.99    3.60    92.67221    27.37553    46.21609
   511  C   4.0    0.28    3.00    3.02    91.35759    27.83425    43.72224
   512  O   6.0   -0.36    1.00    1.80    90.87260    26.01517    42.36287
   513  N   5.0   -0.63    3.00    1.93    90.75126    30.17968    43.05724
   514  H   1.0    0.26    1.00    1.43    94.13615    33.12966    47.97979
   515  H   1.0    0.13    0.99    1.43    90.80279    30.45709    48.16512
   516  H   1.0    0.16    0.99    1.43    94.64007    26.90360    45.80558
   517  H   1.0    0.15    0.99    1.43    91.83415    25.66322    47.00737
   518  H   1.0    0.29    1.00    1.43    89.92153    30.48840    41.35450
   519  H   1.0    0.27    1.00    1.43    91.29168    31.68676    44.07306
   520  N   5.0   -0.47    3.00    1.93    93.86799    29.14031    52.73240
   521  C   4.0    0.08    3.99    3.61    94.12579    27.91873    55.17070
   522  C   4.0    0.27    3.01    3.02    93.41257    29.54463    57.45109
   523  O   6.0   -0.42    1.00    1.80    92.89099    28.51810    59.45766
   524  C   4.0   -0.08    3.98    3.59    96.83492    26.91048    55.66647
   525  C   4.0   -0.20    3.98    3.59    97.26627    24.39859    54.31790
   526  C   4.0   -0.21    3.98    3.59    98.84668    28.84027    54.91110
   527  H   1.0    0.25    1.00    1.43    95.26758    30.34181    52.24603
   528  H   1.0    0.16    0.99    1.43    92.82056    26.31361    55.16010
   529  H   1.0    0.13    0.99    1.43    96.93829    26.57629    57.70531
   530  H   1.0    0.11    0.99    1.43    99.17060    23.71818    54.68225
   531  H   1.0    0.12    0.99    1.43    95.93016    22.98132    54.97612
   532  H   1.0    0.14    0.99    1.43    97.04070    24.60859    52.28276
   533  H   1.0    0.11    0.99    1.43   100.66658    28.26358    55.66418
   534  H   1.0    0.12    0.99    1.43    99.03661    28.92433    52.86216
   535  H   1.0    0.11    0.99    1.43    98.40318    30.70657    55.64696
   536  N   5.0   -0.48    3.01    1.93    93.67517    32.06769    57.24359
   537  C   4.0    0.08    4.00    3.62    93.01598    33.64608    59.39809
   538  C   4.0    0.27    3.01    3.02    90.24563    34.42423    59.12339
   539  O   6.0   -0.45    1.00    1.80    89.25869    34.60689    57.03055
   540  C   4.0   -0.10    3.98    3.58    94.85169    35.89418    59.67283
   541  C   4.0   -0.23    3.98    3.59    94.19552    37.44434    62.02285
   542  C   4.0   -0.22    3.98    3.59    97.56103    34.88180    59.76875
   543  H   1.0    0.26    1.00    1.43    93.55793    32.88400    55.52054
   544  H   1.0    0.14    0.99    1.43    93.18484    32.40338    61.04509
   545  H   1.0    0.11    0.99    1.43    94.65974    37.11812    58.02351
   546  H   1.0    0.10    0.99    1.43    95.60587    38.90283    62.32872
   547  H   1.0    0.13    0.99    1.43    92.38250    38.37508    61.78865
   548  H   1.0    0.10    0.99    1.43    94.10561    36.23467    63.67027
   549  H   1.0    0.09    0.99    1.43    98.80344    36.32293    60.53141
   550  H   1.0    0.11    0.99    1.43    97.66845    33.17914    60.91336
   551  H   1.0    0.12    0.99    1.43    98.25223    34.41523    57.89249
   552  N   5.0   -0.49    3.01    1.93    89.02230    34.83194    61.28441
   553  C   4.0    0.06    3.99    3.60    86.35237    35.37881    61.50119
   554  C   4.0    0.26    3.02    3.02    85.92522    36.24686    64.23490
   555  O   6.0   -0.44    1.00    1.80    87.53241    35.89494    65.84539
   556  C   4.0   -0.19    3.98    3.59    84.79475    33.00737    60.89714
   557  H   1.0    0.26    1.00    1.43    89.85913    34.58076    62.99458
   558  H   1.0    0.11    0.99    1.43    85.84292    36.89990    60.19502
   559  H   1.0    0.11    0.99    1.43    82.78029    33.38072    61.02688
   560  H   1.0    0.13    0.99    1.43    85.23931    32.38459    58.98668
   561  H   1.0    0.13    0.99    1.43    85.28509    31.48389    62.18552
   562  N   5.0   -0.50    3.01    1.93    83.70909    37.39117    64.67098
   563  C   4.0    0.10    3.99    3.60    82.94746    38.11198    67.18559
   564  C   4.0    0.08    3.00    3.02    80.09492    37.89398    67.45007
   565  O   6.0   -0.40    1.00    1.80    78.65864    38.31800    65.67139
   566  C   4.0    0.04    3.98    3.58    83.77233    40.84755    67.87346
   567  O   6.0   -0.49    1.99    1.83    83.24398    41.12189    70.47102
   568  C   4.0   -0.20    3.98    3.58    82.44851    42.84285    66.27009
   569  H   1.0    0.25    1.00    1.43    82.41244    37.56070    63.26344
   570  H   1.0    0.14    0.99    1.43    83.90015    36.86616    68.54394
   571  H   1.0    0.11    0.99    1.43    85.82804    40.94041    67.54046
   572  H   1.0    0.25    0.99    1.43    83.57183    42.84444    70.97549
   573  H   1.0    0.09    0.99    1.43    83.25555    44.70026    66.62445
   574  H   1.0    0.11    0.99    1.43    82.69055    42.38039    64.28618
   575  H   1.0    0.14    0.99    1.43    80.44121    42.89270    66.72047
   576  H   1.0    0.29    1.00    1.43   112.50849    46.06534    44.89860
   577  H   1.0    0.14    1.00    1.43    94.41126    56.04948    81.10533
   578  H   1.0    0.29    1.00    1.43    80.66663    54.54480    50.08565
   579  H   1.0    0.15    1.00    1.43    92.22860    61.94430    69.52888
   580  H   1.0    0.30    1.00    1.43    82.54463    61.05496    67.44103
   581  H   1.0    0.15    1.00    1.43    81.47995    57.85220    75.07444
   582  H   1.0    0.30    1.00    1.43   108.00043    57.29987    51.25332
   583  H   1.0    0.12    1.00    1.43    76.18849    44.53343    50.96460
   584  H   1.0    0.32    1.00    1.43    79.43107    37.45877    56.26585
   585  H   1.0    0.14    1.00    1.43    79.33509    37.39318    69.10625

           ------------------------------------------------- 
          |        Self-Consistent Charge Iterations        |
           ------------------------------------------------- 

          ...................................................
          :                      SETUP                      :
          :.................................................:
          :  # basis functions                1428          :
          :  # atomic orbitals                1427          :
          :  # shells                          865          :
          :  # electrons                      1568          :
          :  max. iterations                   250          :
          :  Hamiltonian                  GFN2-xTB          :
          :  restarted?                      false          :
          :  GBSA solvation                   true          :
          :  PC potential                    false          :
          :  electronic temp.          500.0000000     K    :
          :  accuracy                    0.1000000          :
          :  -> integral cutoff          0.3500000E+02      :
          :  -> integral neglect         0.1000000E-08      :
          :  -> SCF convergence          0.1000000E-06 Eh   :
          :  -> wf. convergence          0.1000000E-04 e    :
          :  Broyden damping             0.4000000          :
          ...................................................

 iter      E             dE          RMSdq      gap      omega  full diag
   1   -894.3785642 -0.894379E+03  0.414E+00    1.97       0.0  T
   2   -896.9044534 -0.252589E+01  0.217E+00    1.18       1.0  T
   3   -896.9976894 -0.932360E-01  0.116E+00    1.54       1.0  T
   4   -897.0183515 -0.206621E-01  0.296E-01    0.90       1.0  T
   5   -897.0445343 -0.261828E-01  0.124E-01    1.09       1.0  T
   6   -897.0461825 -0.164817E-02  0.620E-02    1.12       1.0  T
   7   -897.0465286 -0.346134E-03  0.303E-02    1.10       1.0  T
   8   -897.0466858 -0.157148E-03  0.117E-02    1.10       1.0  T
   9   -897.0467001 -0.142897E-04  0.624E-03    1.09       1.0  T
  10   -897.0467051 -0.498799E-05  0.279E-03    1.09       1.5  T
  11   -897.0467060 -0.966950E-06  0.126E-03    1.09       3.3  T
  12   -897.0467063 -0.263039E-06  0.627E-04    1.09       6.6  T
  13   -897.0467063 -0.634423E-07  0.313E-04    1.09      13.2  T
  14   -897.0467064 -0.124991E-07  0.134E-04    1.09      30.8  T
  15   -897.0467064 -0.279852E-08  0.645E-05    1.09      64.1  T
  16   -897.0467064 -0.621071E-09  0.310E-05    1.09     133.5  T

   *** convergence criteria satisfied after 16 iterations ***

         #    Occupation            Energy/Eh            Energy/eV
      -------------------------------------------------------------
         1        2.0000           -0.7475330             -20.3414
       ...           ...                  ...                  ...
       778        2.0000           -0.3734227             -10.1613
       779        2.0000           -0.3732057             -10.1554
       780        2.0000           -0.3709864             -10.0951
       781        2.0000           -0.3641605              -9.9093
       782        2.0000           -0.3612550              -9.8302
       783        2.0000           -0.3528070              -9.6004
       784        2.0000           -0.3503385              -9.5332 (HOMO)
       785        0.0000           -0.3102369              -8.4420 (LUMO)
       786                         -0.2955211              -8.0415
       787                         -0.2939855              -7.9998
       788                         -0.2913579              -7.9283
       789                         -0.2815714              -7.6619
       ...                                ...                  ...
      1427                          0.6741178              18.3437
      -------------------------------------------------------------
                  HL-Gap            0.0401016 Eh            1.0912 eV
             Fermi-level           -0.3301359 Eh           -8.9835 eV

 SCC (total)                   0 d,  0 h,  0 min, 23.206 sec
 SCC setup                      ...        0 min,  0.323 sec (  1.392%)
 Dispersion                     ...        0 min,  0.335 sec (  1.442%)
 integral evaluation            ...        0 min,  1.168 sec (  5.032%)
 zeroth order Hamiltonian       ...        0 min,  0.012 sec (  0.051%)
 iterations                     ...        0 min, 18.973 sec ( 81.759%)
 molecular gradient             ...        0 min,  2.318 sec (  9.990%)
 printout                       ...        0 min,  0.077 sec (  0.333%)

         :::::::::::::::::::::::::::::::::::::::::::::::::::::
         ::                     SUMMARY                     ::
         :::::::::::::::::::::::::::::::::::::::::::::::::::::
         :: total energy             -886.237121421110 Eh   ::
         :: total w/o Gsasa/hb       -886.137195827466 Eh   ::
         :: gradient norm               0.501184328495 Eh/α ::
         :: HOMO-LUMO gap               1.091219411283 eV   ::
         ::.................................................::
         :: SCC energy               -897.069078835395 Eh   ::
         :: -> isotropic ES             2.824844279534 Eh   ::
         :: -> anisotropic ES          -0.148594926876 Eh   ::
         :: -> anisotropic XC           0.296391398074 Eh   ::
         :: -> dispersion              -0.771417120053 Eh   ::
         :: -> Gsolv                   -0.806877212305 Eh   ::
         ::    -> Gborn                -0.706951618661 Eh   ::
         ::    -> Gsasa                -0.024229915097 Eh   ::
         ::    -> Ghb                  -0.077553121673 Eh   ::
         ::    -> Gshift                0.001857443127 Eh   ::
         :: repulsion energy           10.755047272547 Eh   ::
         :: add. restraining            0.000000000000 Eh   ::
         :::::::::::::::::::::::::::::::::::::::::::::::::::::

           -------------------------------------------------
          |                Property Printout                |
           -------------------------------------------------

    * Orbital Energies and Occupations

         #    Occupation            Energy/Eh            Energy/eV
      -------------------------------------------------------------
         1        2.0000           -0.7475330             -20.3414
       ...           ...                  ...                  ...
       772        2.0000           -0.3790951             -10.3157
       773        2.0000           -0.3774465             -10.2708
       774        2.0000           -0.3753902             -10.2149
       775        2.0000           -0.3753787             -10.2146
       776        2.0000           -0.3740715             -10.1790
       777        2.0000           -0.3738376             -10.1726
       778        2.0000           -0.3734227             -10.1613
       779        2.0000           -0.3732057             -10.1554
       780        2.0000           -0.3709864             -10.0951
       781        2.0000           -0.3641605              -9.9093
       782        2.0000           -0.3612550              -9.8302
       783        2.0000           -0.3528070              -9.6004
       784        2.0000           -0.3503385              -9.5332 (HOMO)
       785        0.0000           -0.3102369              -8.4420 (LUMO)
       786                         -0.2955211              -8.0415
       787                         -0.2939855              -7.9998
       788                         -0.2913579              -7.9283
       789                         -0.2815714              -7.6619
       790                         -0.2565800              -6.9819
       791                         -0.2475153              -6.7352
       792                         -0.2443880              -6.6501
       793                         -0.2401022              -6.5335
       794                         -0.2396176              -6.5203
       795                         -0.2396045              -6.5200
       ...                                ...                  ...
      1427                          0.6741178              18.3437
      -------------------------------------------------------------
                  HL-Gap            0.0401016 Eh            1.0912 eV
             Fermi-level           -0.3301359 Eh           -8.9835 eV

   #   Z        covCN         q      C6AA      α(0)
   1   7 N      2.636    -0.391    30.128     8.152
   2   6 C      3.787     0.036    19.984     6.367
   3   6 C      2.754     0.273    22.378     7.746
   4   8 O      0.858    -0.481    23.371     6.482
   5   6 C      3.834    -0.061    21.642     6.619
   6   6 C      3.796    -0.010    20.755     6.487
   7  16 S      1.968    -0.236   151.155    20.693
   8   6 C      3.745    -0.062    21.761     6.654
   9   1 H      0.860     0.160     1.334     1.809
  10   1 H      0.923     0.035     2.512     2.478
  11   1 H      0.924     0.057     2.236     2.339
  12   1 H      0.924     0.043     2.404     2.425
  13   1 H      0.925     0.048     2.344     2.394
  14   1 H      0.925     0.058     2.218     2.329
  15   1 H      0.926     0.064     2.148     2.292
  16   1 H      0.925     0.058     2.221     2.330
  17   1 H      0.925     0.063     2.161     2.299
  18   7 N      2.697    -0.184    24.984     7.424
  19   6 C      3.794     0.028    20.115     6.387
  20   6 C      2.768     0.275    22.342     7.741
  21   8 O      0.859    -0.496    23.691     6.526
  22   6 C      3.809    -0.113    22.643     6.774
  23   6 C      2.743     0.288    22.116     7.700
  24   8 O      0.859    -0.494    23.648     6.520
  25   7 N      2.639    -0.287    27.416     7.776
  26   1 H      0.860     0.208     1.066     1.617
  27   1 H      0.924     0.080     1.980     2.200
  28   1 H      0.924     0.091     1.871     2.139
  29   1 H      0.924     0.081     1.969     2.194
  30   1 H      0.860     0.244     0.905     1.490
  31   1 H      0.860     0.235     0.944     1.522
  32   7 N      2.690    -0.166    24.602     7.367
  33   6 C      3.807     0.032    20.029     6.371
  34   6 C      2.761     0.270    22.437     7.757
  35   8 O      0.859    -0.476    23.252     6.465
  36   6 C      3.811    -0.070    21.837     6.652
  37   6 C      2.967    -0.012    28.315     8.728
  38   6 C      2.925    -0.037    28.928     8.820
  39   6 C      2.923    -0.052    29.299     8.877
  40   6 C      2.915    -0.072    29.795     8.951
  41   6 C      2.919    -0.081    30.025     8.986
  42   6 C      2.845     0.145    24.847     8.169
  43   8 O      1.657    -0.415    21.144     6.207
  44   1 H      0.860     0.221     1.003     1.569
  45   1 H      0.924     0.043     2.414     2.430
  46   1 H      0.924     0.050     2.325     2.384
  47   1 H      0.924     0.058     2.225     2.332
  48   1 H      0.926     0.003     3.001     2.709
  49   1 H      0.926     0.059     2.215     2.327
  50   1 H      0.925     0.034     2.526     2.486
  51   1 H      0.926     0.096     1.818     2.108
  52   1 H      0.802     0.330     0.638     1.255
  53   7 N      2.696    -0.191    25.141     7.447
  54   6 C      3.799     0.021    20.216     6.402
  55   6 C      2.751     0.267    22.498     7.767
  56   8 O      0.858    -0.483    23.409     6.487
  57   6 C      3.800    -0.110    22.606     6.769
  58   6 C      2.682     0.373    20.672     7.440
  59   8 O      0.856    -0.627    26.803     6.941
  60   8 O      0.857    -0.598    26.071     6.846
  61   1 H      0.860     0.210     1.058     1.611
  62   1 H      0.923     0.078     2.004     2.214
  63   1 H      0.924     0.075     2.034     2.230
  64   1 H      0.924     0.051     2.312     2.378
  65   7 N      2.695    -0.174    24.771     7.392
  66   6 C      3.789    -0.001    20.616     6.467
  67   6 C      2.752     0.278    22.292     7.731
  68   8 O      0.858    -0.479    23.319     6.474
  69   6 C      3.805    -0.099    22.376     6.734
  70   6 C      3.801    -0.095    22.315     6.726
  71   6 C      3.801    -0.113    22.659     6.777
  72   6 C      3.730    -0.059    21.740     6.656
  73   7 N      3.482    -0.136    23.935     7.266
  74   1 H      0.860     0.221     1.004     1.569
  75   1 H      0.924     0.088     1.899     2.155
  76   1 H      0.925     0.082     1.960     2.189
  77   1 H      0.924     0.071     2.075     2.252
  78   1 H      0.925     0.086     1.919     2.166
  79   1 H      0.925     0.068     2.104     2.268
  80   1 H      0.925     0.088     1.901     2.156
  81   1 H      0.925     0.100     1.783     2.088
  82   1 H      0.925     0.111     1.688     2.032
  83   1 H      0.924     0.127     1.555     1.950
  84   1 H      0.859     0.301     0.709     1.319
  85   1 H      0.859     0.292     0.739     1.346
  86   1 H      0.859     0.281     0.771     1.376
  87   7 N      2.690    -0.169    24.649     7.374
  88   6 C      3.791     0.003    20.547     6.456
  89   6 C      2.755     0.277    22.317     7.736
  90   8 O      0.858    -0.500    23.783     6.538
  91   6 C      3.801    -0.095    22.307     6.724
  92   6 C      3.800    -0.095    22.304     6.724
  93   6 C      3.801    -0.102    22.447     6.746
  94   6 C      3.730    -0.052    21.604     6.635
  95   7 N      3.482    -0.147    24.176     7.303
  96   1 H      0.860     0.219     1.013     1.577
  97   1 H      0.923     0.097     1.810     2.104
  98   1 H      0.925     0.081     1.971     2.196
  99   1 H      0.924     0.096     1.822     2.111
 100   1 H      0.925     0.087     1.912     2.162
 101   1 H      0.924     0.059     2.206     2.323
 102   1 H      0.925     0.074     2.038     2.233
 103   1 H      0.924     0.087     1.911     2.162
 104   1 H      0.924     0.107     1.723     2.053
 105   1 H      0.925     0.120     1.614     1.987
 106   1 H      0.859     0.299     0.717     1.326
 107   1 H      0.859     0.301     0.712     1.321
 108   1 H      0.859     0.295     0.728     1.336
 109   7 N      2.686    -0.188    25.084     7.439
 110   6 C      3.800     0.014    20.344     6.422
 111   6 C      2.754     0.281    22.249     7.724
 112   8 O      0.858    -0.507    23.943     6.560
 113   6 C      3.804    -0.075    21.932     6.667
 114   6 C      3.800    -0.075    21.932     6.668
 115   6 C      3.801    -0.095    22.316     6.726
 116   6 C      3.730    -0.043    21.449     6.611
 117   7 N      3.479    -0.159    24.435     7.342
 118   1 H      0.860     0.235     0.944     1.522
 119   1 H      0.924     0.085     1.933     2.174
 120   1 H      0.925     0.086     1.915     2.164
 121   1 H      0.924     0.025     2.658     2.549
 122   1 H      0.925     0.045     2.387     2.416
 123   1 H      0.924     0.042     2.422     2.434
 124   1 H      0.925     0.090     1.879     2.144
 125   1 H      0.925     0.095     1.829     2.115
 126   1 H      0.924     0.100     1.788     2.091
 127   1 H      0.925     0.128     1.552     1.948
 128   1 H      0.859     0.291     0.742     1.349
 129   1 H      0.856     0.309     0.686     1.298
 130   1 H      0.859     0.259     0.851     1.445
 131   7 N      2.694    -0.197    25.267     7.466
 132   6 C      3.794     0.035    19.998     6.368
 133   6 C      2.753     0.292    22.049     7.689
 134   8 O      0.858    -0.516    24.152     6.589
 135   6 C      3.807    -0.080    22.016     6.679
 136   6 C      3.848    -0.017    20.839     6.493
 137   6 C      3.755    -0.132    23.086     6.851
 138   6 C      3.754    -0.096    22.391     6.747
 139   1 H      0.860     0.215     1.032     1.591
 140   1 H      0.923     0.023     2.681     2.561
 141   1 H      0.924     0.034     2.524     2.484
 142   1 H      0.924     0.086     1.918     2.166
 143   1 H      0.924     0.055     2.258     2.350
 144   1 H      0.925     0.063     2.167     2.302
 145   1 H      0.925     0.078     2.000     2.211
 146   1 H      0.925     0.033     2.537     2.491
 147   1 H      0.925     0.034     2.535     2.490
 148   1 H      0.925     0.022     2.702     2.571
 149   1 H      0.924     0.004     2.995     2.706
 150   7 N      2.695    -0.194    25.210     7.457
 151   6 C      3.794     0.022    20.206     6.401
 152   6 C      2.753     0.284    22.186     7.713
 153   8 O      0.858    -0.490    23.555     6.507
 154   6 C      3.808    -0.096    22.324     6.726
 155   6 C      3.848    -0.023    20.947     6.510
 156   6 C      3.753    -0.120    22.867     6.819
 157   6 C      3.753    -0.132    23.104     6.854
 158   1 H      0.860     0.239     0.929     1.510
 159   1 H      0.924     0.078     2.002     2.213
 160   1 H      0.924     0.093     1.849     2.126
 161   1 H      0.924     0.064     2.154     2.295
 162   1 H      0.924     0.070     2.085     2.258
 163   1 H      0.925     0.052     2.299     2.371
 164   1 H      0.925     0.035     2.523     2.484
 165   1 H      0.925     0.026     2.646     2.544
 166   1 H      0.925     0.059     2.210     2.325
 167   1 H      0.925     0.031     2.574     2.509
 168   1 H      0.925     0.065     2.138     2.287
 169   7 N      2.690    -0.169    24.659     7.375
 170   6 C      3.794     0.008    20.441     6.438
 171   6 C      2.752     0.275    22.354     7.742
 172   8 O      0.858    -0.473    23.187     6.456
 173   6 C      3.726     0.121    18.705     6.175
 174   8 O      1.655    -0.466    22.181     6.358
 175   6 C      3.754    -0.129    23.041     6.845
 176   1 H      0.860     0.212     1.048     1.604
 177   1 H      0.923     0.072     2.062     2.245
 178   1 H      0.923     0.029     2.599     2.521
 179   1 H      0.804     0.340     0.613     1.229
 180   1 H      0.925     0.075     2.029     2.228
 181   1 H      0.925     0.042     2.423     2.434
 182   1 H      0.925     0.057     2.229     2.335
 183   7 N      2.691    -0.188    25.073     7.437
 184   6 C      3.792     0.031    20.064     6.379
 185   6 C      2.765     0.195    23.844     7.997
 186   8 O      0.856    -0.342    20.564     6.080
 187   6 C      3.808    -0.065    21.746     6.638
 188   6 C      3.079     0.032    27.202     8.551
 189   7 N      2.821    -0.106    23.309     7.171
 190   6 C      3.169     0.001    27.649     8.591
 191   6 C      3.157     0.091    25.695     8.288
 192   7 N      1.909    -0.308    28.821     7.959
 193   1 H      0.860     0.225     0.987     1.556
 194   1 H      0.924     0.083     1.951     2.184
 195   1 H      0.924     0.064     2.149     2.293
 196   1 H      0.924     0.075     2.028     2.227
 197   1 H      0.860     0.196     1.124     1.661
 198   1 H      0.926     0.029     2.606     2.524
 199   1 H      0.926     0.022     2.710     2.574
 200   7 N      2.637    -0.415    30.791     8.241
 201   6 C      3.787     0.036    19.990     6.368
 202   6 C      2.757     0.270    22.443     7.758
 203   8 O      0.858    -0.479    23.325     6.475
 204   6 C      3.812    -0.066    21.762     6.640
 205   6 C      3.850    -0.009    20.710     6.473
 206   6 C      3.757    -0.111    22.680     6.790
 207   6 C      3.759    -0.114    22.731     6.797
 208   1 H      0.860     0.187     1.175     1.698
 209   1 H      0.924     0.029     2.604     2.524
 210   1 H      0.924     0.042     2.419     2.432
 211   1 H      0.924     0.024     2.677     2.559
 212   1 H      0.924     0.025     2.666     2.553
 213   1 H      0.925     0.044     2.402     2.424
 214   1 H      0.925     0.033     2.548     2.496
 215   1 H      0.925     0.040     2.453     2.449
 216   1 H      0.925     0.041     2.441     2.443
 217   1 H      0.925     0.042     2.428     2.437
 218   1 H      0.925     0.041     2.434     2.440
 219   7 N      2.694    -0.178    24.862     7.406
 220   6 C      3.797     0.016    20.303     6.416
 221   6 C      2.758     0.270    22.440     7.757
 222   8 O      0.858    -0.491    23.580     6.510
 223   6 C      3.850    -0.020    20.893     6.501
 224   6 C      3.752    -0.120    22.850     6.817
 225   6 C      3.755    -0.114    22.728     6.798
 226   1 H      0.860     0.200     1.105     1.646
 227   1 H      0.924     0.077     2.012     2.218
 228   1 H      0.924     0.055     2.262     2.352
 229   1 H      0.925     0.056     2.247     2.344
 230   1 H      0.925     0.046     2.370     2.407
 231   1 H      0.925     0.044     2.390     2.418
 232   1 H      0.925     0.058     2.223     2.332
 233   1 H      0.925     0.031     2.572     2.508
 234   1 H      0.925     0.042     2.422     2.434
 235   7 N      2.692    -0.164    24.559     7.360
 236   6 C      3.799     0.014    20.343     6.422
 237   6 C      2.751     0.280    22.268     7.727
 238   8 O      0.858    -0.454    22.797     6.402
 239   6 C      3.849    -0.021    20.906     6.504
 240   6 C      3.754    -0.124    22.946     6.831
 241   6 C      3.755    -0.122    22.889     6.822
 242   1 H      0.860     0.209     1.061     1.613
 243   1 H      0.924     0.069     2.093     2.263
 244   1 H      0.924     0.062     2.181     2.309
 245   1 H      0.925     0.076     2.026     2.226
 246   1 H      0.925     0.048     2.339     2.392
 247   1 H      0.925     0.045     2.379     2.412
 248   1 H      0.925     0.080     1.978     2.200
 249   1 H      0.925     0.035     2.519     2.482
 250   1 H      0.925     0.039     2.462     2.454
 251   7 N      2.699    -0.178    24.850     7.404
 252   6 C      3.785     0.040    19.922     6.358
 253   6 C      2.770     0.199    23.754     7.982
 254   8 O      0.856    -0.350    20.717     6.102
 255   6 C      3.799    -0.104    22.487     6.752
 256   6 C      2.684     0.366    20.792     7.462
 257   8 O      0.856    -0.600    26.129     6.853
 258   8 O      0.856    -0.632    26.928     6.957
 259   1 H      0.860     0.190     1.157     1.685
 260   1 H      0.924     0.080     1.982     2.201
 261   1 H      0.924     0.044     2.398     2.422
 262   1 H      0.924     0.042     2.426     2.436
 263   7 N      2.636    -0.402    30.439     8.194
 264   6 C      3.785     0.036    19.989     6.368
 265   6 C      2.759     0.275    22.357     7.743
 266   8 O      0.859    -0.502    23.839     6.546
 267   6 C      3.806    -0.073    21.893     6.661
 268   6 C      3.849    -0.008    20.694     6.470
 269   6 C      3.757    -0.113    22.724     6.796
 270   6 C      3.756    -0.119    22.834     6.813
 271   1 H      0.860     0.156     1.363     1.829
 272   1 H      0.923     0.029     2.605     2.524
 273   1 H      0.924     0.055     2.253     2.347
 274   1 H      0.924     0.039     2.457     2.451
 275   1 H      0.924     0.022     2.709     2.574
 276   1 H      0.925     0.044     2.396     2.421
 277   1 H      0.925     0.031     2.565     2.505
 278   1 H      0.925     0.053     2.279     2.361
 279   1 H      0.925     0.046     2.374     2.410
 280   1 H      0.925     0.040     2.451     2.448
 281   1 H      0.925     0.040     2.454     2.450
 282   7 N      2.688    -0.168    24.625     7.370
 283   6 C      3.794     0.028    20.104     6.385
 284   6 C      2.767     0.210    23.555     7.948
 285   8 O      0.856    -0.377    21.236     6.178
 286   6 C      3.809    -0.069    21.819     6.649
 287   6 C      3.849    -0.011    20.747     6.479
 288   6 C      3.755    -0.122    22.892     6.822
 289   6 C      3.754    -0.114    22.743     6.800
 290   1 H      0.860     0.210     1.056     1.610
 291   1 H      0.924     0.101     1.778     2.085
 292   1 H      0.924     0.051     2.307     2.375
 293   1 H      0.924     0.054     2.265     2.354
 294   1 H      0.924     0.049     2.332     2.388
 295   1 H      0.925     0.063     2.164     2.301
 296   1 H      0.925     0.036     2.502     2.474
 297   1 H      0.925     0.049     2.337     2.391
 298   1 H      0.925     0.055     2.254     2.348
 299   1 H      0.925     0.046     2.374     2.409
 300   1 H      0.925     0.027     2.629     2.536
 301   7 N      2.634    -0.400    30.366     8.184
 302   6 C      3.784     0.031    20.072     6.382
 303   6 C      2.754     0.269    22.458     7.760
 304   8 O      0.858    -0.486    23.468     6.495
 305   6 C      3.756    -0.112    22.705     6.794
 306   1 H      0.860     0.168     1.283     1.774
 307   1 H      0.924     0.050     2.315     2.379
 308   1 H      0.925     0.044     2.394     2.419
 309   1 H      0.925     0.063     2.166     2.302
 310   1 H      0.925     0.038     2.473     2.459
 311   7 N      2.688    -0.184    24.989     7.424
 312   6 C      3.793     0.034    20.017     6.371
 313   6 C      2.752     0.277    22.321     7.736
 314   8 O      0.858    -0.487    23.500     6.499
 315   6 C      3.807    -0.049    21.452     6.593
 316   6 C      3.797    -0.095    22.316     6.726
 317   6 C      2.684     0.373    20.681     7.442
 318   8 O      0.856    -0.655    27.504     7.031
 319   8 O      0.856    -0.649    27.350     7.012
 320   1 H      0.860     0.212     1.049     1.604
 321   1 H      0.924     0.059     2.217     2.328
 322   1 H      0.924     0.044     2.394     2.419
 323   1 H      0.924     0.041     2.431     2.438
 324   1 H      0.924     0.022     2.708     2.574
 325   1 H      0.924     0.025     2.661     2.551
 326   7 N      2.689    -0.169    24.662     7.376
 327   6 C      3.793     0.018    20.285     6.414
 328   6 C      2.760     0.256    22.694     7.801
 329   8 O      0.859    -0.502    23.837     6.546
 330   6 C      3.808    -0.075    21.929     6.666
 331   6 C      3.806    -0.067    21.772     6.642
 332   6 C      3.740    -0.018    20.976     6.535
 333   7 N      2.705    -0.154    24.335     7.327
 334   6 C      2.737     0.235    23.068     7.864
 335   7 N      2.647    -0.257    26.683     7.672
 336   7 N      2.655    -0.270    26.981     7.715
 337   1 H      0.860     0.194     1.137     1.670
 338   1 H      0.923     0.085     1.933     2.175
 339   1 H      0.924     0.065     2.143     2.289
 340   1 H      0.925     0.070     2.083     2.257
 341   1 H      0.924     0.047     2.352     2.398
 342   1 H      0.924     0.046     2.365     2.405
 343   1 H      0.924     0.086     1.914     2.164
 344   1 H      0.924     0.070     2.083     2.257
 345   1 H      0.859     0.230     0.965     1.539
 346   1 H      0.860     0.249     0.887     1.475
 347   1 H      0.860     0.258     0.855     1.448
 348   1 H      0.860     0.235     0.942     1.521
 349   1 H      0.860     0.248     0.892     1.480
 350   7 N      2.756    -0.071    22.618     7.063
 351   6 C      3.823     0.012    20.354     6.420
 352   6 C      2.749     0.277    22.315     7.735
 353   8 O      0.858    -0.479    23.320     6.475
 354   6 C      3.834    -0.091    22.215     6.706
 355   6 C      3.824    -0.087    22.137     6.695
 356   6 C      3.771    -0.013    20.841     6.505
 357   1 H      0.924     0.068     2.113     2.273
 358   1 H      0.925     0.085     1.924     2.169
 359   1 H      0.925     0.076     2.021     2.223
 360   1 H      0.924     0.085     1.926     2.170
 361   1 H      0.925     0.089     1.888     2.149
 362   1 H      0.925     0.054     2.276     2.359
 363   1 H      0.924     0.062     2.178     2.308
 364   7 N      2.688    -0.168    24.638     7.372
 365   6 C      3.794     0.011    20.406     6.433
 366   6 C      2.749     0.270    22.431     7.755
 367   8 O      0.858    -0.465    23.030     6.434
 368   6 C      3.804    -0.078    21.988     6.676
 369   6 C      3.848    -0.016    20.825     6.491
 370   6 C      3.758    -0.111    22.683     6.790
 371   6 C      3.757    -0.121    22.868     6.818
 372   1 H      0.860     0.211     1.053     1.608
 373   1 H      0.924     0.085     1.931     2.173
 374   1 H      0.924     0.052     2.296     2.369
 375   1 H      0.924     0.054     2.274     2.358
 376   1 H      0.924     0.054     2.270     2.356
 377   1 H      0.925     0.044     2.393     2.419
 378   1 H      0.925     0.032     2.554     2.499
 379   1 H      0.925     0.036     2.499     2.472
 380   1 H      0.925     0.048     2.351     2.398
 381   1 H      0.925     0.039     2.460     2.453
 382   1 H      0.925     0.039     2.465     2.455
 383   7 N      2.693    -0.173    24.753     7.389
 384   6 C      3.790     0.018    20.279     6.413
 385   6 C      2.758     0.266    22.504     7.768
 386   8 O      0.859    -0.487    23.496     6.499
 387   6 C      3.850    -0.016    20.818     6.490
 388   6 C      3.757    -0.121    22.869     6.818
 389   6 C      3.756    -0.117    22.792     6.807
 390   1 H      0.860     0.215     1.032     1.591
 391   1 H      0.924     0.065     2.137     2.286
 392   1 H      0.924     0.034     2.532     2.488
 393   1 H      0.925     0.057     2.240     2.340
 394   1 H      0.925     0.036     2.504     2.474
 395   1 H      0.925     0.058     2.217     2.329
 396   1 H      0.925     0.060     2.194     2.317
 397   1 H      0.925     0.058     2.226     2.333
 398   1 H      0.925     0.034     2.531     2.488
 399   7 N      2.687    -0.178    24.861     7.405
 400   6 C      3.791     0.030    20.085     6.382
[...]
   256  C   3.938        O  258 1.515    O  257 1.482    C  255 0.912
   257  O   1.860        C  256 1.482    O  258 0.216
   258  O   1.809        C  256 1.515    O  257 0.216
   259  H   0.964        N  251 0.930
   260  H   0.993        C  252 0.944
   261  H   0.998        C  255 0.972
   262  H   0.998        C  255 0.975
   263  N   2.985        C  264 1.005    H  580 0.958    H  271 0.955
   264  C   3.980        N  263 1.005    C  267 0.979    H  272 0.963    C  265 0.941
   265  C   3.940        O  266 1.626    N  282 1.294    C  264 0.941
   266  O   1.952        C  265 1.626    N  282 0.187
   267  C   3.990        C  268 0.994    C  264 0.979    H  274 0.973    H  273 0.964
   268  C   3.995        C  270 1.010    C  269 1.008    C  267 0.994    H  275 0.968
   269  C   3.995        C  268 1.008    H  276 0.984    H  277 0.983    H  278 0.982
   270  C   3.995        C  268 1.010    H  280 0.986    H  279 0.985    H  281 0.979
   271  H   0.976        N  263 0.955
   272  H   0.999        C  264 0.963
   273  H   0.997        C  267 0.964
   274  H   0.998        C  267 0.973
   275  H   0.999        C  268 0.968
   276  H   0.998        C  269 0.984
   277  H   0.999        C  269 0.983
   278  H   0.997        C  269 0.982
   279  H   0.998        C  270 0.985
   280  H   0.998        C  270 0.986
   281  H   0.998        C  270 0.979
   282  N   3.457        C  265 1.294    C  283 0.982    H  290 0.917    O  266 0.187
   283  C   3.965        N  282 0.982    C  284 0.977    C  286 0.962    H  291 0.937
   284  C   3.902        O  285 1.882    C  283 0.977    H  581 0.955
   285  O   2.032        C  284 1.882
   286  C   3.983        C  287 0.988    H  292 0.969    H  293 0.969    C  283 0.962
   287  C   3.991        C  289 1.010    C  288 1.009    C  286 0.988    H  294 0.953
   288  C   3.994        C  287 1.009    H  296 0.986    H  297 0.982    H  295 0.981
   289  C   3.995        C  287 1.010    H  300 0.985    H  298 0.984    H  299 0.983
   290  H   0.956        N  282 0.917
   291  H   0.990        C  283 0.937
   292  H   0.997        C  286 0.969
   293  H   0.996        C  286 0.969
   294  H   0.997        C  287 0.953
   295  H   0.996        C  288 0.981
   296  H   0.999        C  288 0.986
   297  H   0.997        C  288 0.982
   298  H   0.996        C  289 0.984
   299  H   0.997        C  289 0.983
   300  H   0.999        C  289 0.985
   301  N   2.990        C  302 1.013    H  582 0.958    H  306 0.954
   302  C   3.985        N  301 1.013    C  305 0.994    H  307 0.957    C  303 0.935
   303  C   3.939        O  304 1.644    N  311 1.277    C  302 0.935
   304  O   1.957        C  303 1.644    N  311 0.191
   305  C   3.992        C  302 0.994    H  310 0.986    H  308 0.985    H  309 0.980
   306  H   0.972        N  301 0.954
   307  H   0.997        C  302 0.957
   308  H   0.998        C  305 0.985
   309  H   0.996        C  305 0.980
   310  H   0.999        C  305 0.986
   311  N   3.461        C  303 1.277    C  312 0.992    H  320 0.919    O  304 0.191
   312  C   3.970        N  311 0.992    C  315 0.981    H  321 0.941    C  313 0.928
   313  C   3.951        O  314 1.644    N  326 1.293    C  312 0.928
   314  O   1.965        C  313 1.644    N  326 0.196
   315  C   3.993        C  316 0.999    C  312 0.981    H  323 0.973    H  322 0.972
   316  C   3.990        C  315 0.999    H  324 0.978    H  325 0.977    C  317 0.914
   317  C   3.932        O  318 1.502    O  319 1.497    C  316 0.914
   318  O   1.790        C  317 1.502    O  319 0.218
   319  O   1.789        C  317 1.497    O  318 0.218
   320  H   0.955        N  311 0.919
   321  H   0.996        C  312 0.941
   322  H   0.998        C  315 0.972
   323  H   0.998        C  315 0.973
   324  H   1.000        C  316 0.978
   325  H   0.999        C  316 0.977
   326  N   3.465        C  313 1.293    C  327 0.968    H  337 0.925    O  314 0.196
   327  C   3.955        C  330 0.986    N  326 0.968    H  338 0.939    C  328 0.935
   328  C   3.958        O  329 1.608    N  350 1.318    C  327 0.935
   329  O   1.935        C  328 1.608    N  350 0.202
   330  C   3.989        C  331 1.007    C  327 0.986    H  339 0.973    H  340 0.964
   331  C   3.992        C  330 1.007    C  332 1.007    H  342 0.974    H  341 0.968
   332  C   3.959        C  331 1.007    N  333 0.986    H  343 0.962    H  344 0.960
   333  N   3.469        C  334 1.329    C  332 0.986    H  345 0.874    N  335 0.102    N  336 0.101
   334  C   3.976        N  333 1.329    N  335 1.308    N  336 1.306
   335  N   3.379        C  334 1.308    H  346 0.916    H  347 0.915    N  333 0.102
   336  N   3.375        C  334 1.306    H  349 0.918    H  348 0.899    N  333 0.101
   337  H   0.962        N  326 0.925
   338  H   0.993        C  327 0.939
   339  H   0.996        C  330 0.973
   340  H   0.995        C  330 0.964
   341  H   0.998        C  331 0.968
   342  H   0.998        C  331 0.974
   343  H   0.992        C  332 0.962
   344  H   0.995        C  332 0.960
   345  H   0.947        N  333 0.874
   346  H   0.938        N  335 0.916
   347  H   0.934        N  335 0.915
   348  H   0.945        N  336 0.899
   349  H   0.938        N  336 0.918
   350  N   3.543        C  328 1.318    C  356 0.973    C  351 0.973    O  329 0.202
   351  C   3.964        C  354 0.981    N  350 0.973    H  357 0.946    C  352 0.929
   352  C   3.946        O  353 1.654    N  364 1.283    C  351 0.929
   353  O   1.978        C  352 1.654    N  364 0.196
   354  C   3.984        C  355 1.004    C  351 0.981    H  359 0.972    H  358 0.971
   355  C   3.983        C  354 1.004    C  356 1.004    H  361 0.971    H  360 0.969
   356  C   3.958        C  355 1.004    N  350 0.973    H  362 0.962    H  363 0.958
   357  H   0.995        C  351 0.946
   358  H   0.992        C  354 0.971
   359  H   0.994        C  354 0.972
   360  H   0.993        C  355 0.969
   361  H   0.992        C  355 0.971
   362  H   0.997        C  356 0.962
   363  H   0.996        C  356 0.958
   364  N   3.466        C  352 1.283    C  365 0.989    H  372 0.918    O  353 0.196
   365  C   3.963        N  364 0.989    C  368 0.965    H  373 0.946    C  366 0.937
   366  C   3.949        O  367 1.617    N  383 1.309    C  365 0.937
   367  O   1.978        C  366 1.617    N  383 0.196
   368  C   3.987        C  369 0.995    H  375 0.974    H  374 0.972    C  365 0.965
   369  C   3.993        C  371 1.009    C  370 1.008    C  368 0.995    H  376 0.963
   370  C   3.995        C  369 1.008    H  379 0.987    H  377 0.985    H  378 0.984
   371  C   3.995        C  369 1.009    H  380 0.986    H  381 0.986    H  382 0.980
   372  H   0.956        N  364 0.918
   373  H   0.993        C  365 0.946
   374  H   0.997        C  368 0.972
   375  H   0.997        C  368 0.974
   376  H   0.997        C  369 0.963
   377  H   0.998        C  370 0.985
   378  H   0.999        C  370 0.984
   379  H   0.999        C  370 0.987
   380  H   0.998        C  371 0.986
   381  H   0.998        C  371 0.986
   382  H   0.998        C  371 0.980
   383  N   3.479        C  366 1.309    C  384 0.986    H  390 0.903    O  367 0.196
   384  C   3.964        N  383 0.986    C  385 0.944    H  391 0.943    C  387 0.943
   385  C   3.949        O  386 1.605    N  399 1.315    C  384 0.944
   386  O   1.974        C  385 1.605    N  399 0.195
   387  C   3.987        C  388 1.010    C  389 1.006    H  392 0.956    C  384 0.943
   388  C   3.991        C  387 1.010    H  393 0.982    H  394 0.980    H  395 0.978
   389  C   3.992        C  387 1.006    H  398 0.986    H  397 0.983    H  396 0.980
   390  H   0.953        N  383 0.903
   391  H   0.995        C  384 0.943
   392  H   0.998        C  387 0.956
   393  H   0.996        C  388 0.982
   394  H   0.999        C  388 0.980
   395  H   0.996        C  388 0.978
   396  H   0.995        C  389 0.980
   397  H   0.996        C  389 0.983
   398  H   0.999        C  389 0.986
   399  N   3.477        C  385 1.315    C  400 0.989    H  411 0.870    O  386 0.195
   400  C   3.971        N  399 0.989    C  401 0.989    H  412 0.944    C  403 0.935
   401  C   3.904        O  402 1.894    C  400 0.989    H  583 0.952
   402  O   2.069        C  401 1.894
   403  C   3.985        C  404 1.014    H  413 0.970    H  414 0.953    C  400 0.935
   404  C   3.988        C  405 1.410    C  406 1.399    C  403 1.014
   405  C   3.991        C  407 1.443    C  404 1.410    H  415 0.958    C  408 0.107
   406  C   3.989        C  408 1.462    C  404 1.399    H  416 0.968    C  407 0.104
   407  C   3.987        C  405 1.443    C  409 1.372    H  417 0.965    C  406 0.104
   408  C   3.989        C  406 1.462    C  409 1.363    H  418 0.968    C  405 0.107
   409  C   3.937        C  407 1.372    C  408 1.363    O  410 1.071
   410  O   2.089        C  409 1.071    H  419 0.861
   411  H   0.939        N  399 0.870
   412  H   0.992        C  400 0.944
   413  H   0.995        C  403 0.970
   414  H   0.993        C  403 0.953
   415  H   0.997        C  405 0.958
   416  H   0.998        C  406 0.968
   417  H   0.999        C  407 0.965
   418  H   0.997        C  408 0.968
   419  H   0.881        O  410 0.861
   420  N   2.991        C  421 1.028    H  584 0.951    H  426 0.929
   421  C   3.989        N  420 1.028    H  427 0.952    C  424 0.951    C  422 0.946
   422  C   3.950        O  423 1.612    N  431 1.311    C  421 0.946
   423  O   1.977        C  422 1.612    N  431 0.195
   424  C   3.954        O  425 1.003    H  428 0.968    H  429 0.968    C  421 0.951
   425  O   1.946        C  424 1.003    H  430 0.874
   426  H   0.967        N  420 0.929
   427  H   0.997        C  421 0.952
   428  H   0.998        C  424 0.968
   429  H   1.000        C  424 0.968
   430  H   0.891        O  425 0.874
   431  N   3.472        C  422 1.311    C  432 0.985    H  442 0.866    O  423 0.195
   432  C   3.964        N  431 0.985    C  435 0.972    H  443 0.940    C  433 0.929
   433  C   3.944        O  434 1.622    N  451 1.307    C  432 0.929
   434  O   1.941        C  433 1.622    N  451 0.198
   435  C   3.984        C  436 1.004    C  432 0.972    H  445 0.968    H  444 0.947
   436  C   3.985        C  437 1.414    C  438 1.410    C  435 1.004    C  441 0.110
   437  C   3.992        C  439 1.441    C  436 1.414    H  446 0.960    C  440 0.111
   438  C   3.986        C  440 1.444    C  436 1.410    H  447 0.962    C  439 0.112
   439  C   3.992        C  437 1.441    C  441 1.440    H  448 0.968    C  438 0.112
   440  C   3.989        C  438 1.444    C  441 1.437    H  449 0.963    C  437 0.111
   441  C   3.990        C  439 1.440    C  440 1.437    H  450 0.968    C  436 0.110
   442  H   0.943        N  431 0.866
   443  H   0.995        C  432 0.940
   444  H   0.994        C  435 0.947
   445  H   0.995        C  435 0.968
   446  H   0.999        C  437 0.960
   447  H   0.996        C  438 0.962
   448  H   0.998        C  439 0.968
   449  H   0.996        C  440 0.963
   450  H   0.997        C  441 0.968
   451  N   3.470        C  433 1.307    C  452 0.978    H  459 0.880    O  434 0.198
   452  C   3.968        C  455 0.987    N  451 0.978    H  460 0.943    C  453 0.927
   453  C   3.945        O  454 1.694    N  470 1.242    C  452 0.927
   454  O   2.021        C  453 1.694    N  470 0.187
   455  C   3.989        C  456 0.993    C  452 0.987    H  461 0.971    H  462 0.966
   456  C   3.995        C  457 1.010    C  458 1.010    C  455 0.993    H  463 0.967
   457  C   3.996        C  456 1.010    H  464 0.985    H  465 0.985    H  466 0.983
   458  C   3.995        C  456 1.010    H  467 0.985    H  469 0.981    H  468 0.980
   459  H   0.949        N  451 0.880
   460  H   0.995        C  452 0.943
   461  H   0.997        C  455 0.971
   462  H   0.995        C  455 0.966
   463  H   0.997        C  456 0.967
   464  H   0.998        C  457 0.985
   465  H   0.998        C  457 0.985
   466  H   1.000        C  457 0.983
   467  H   0.998        C  458 0.985
   468  H   0.999        C  458 0.980
   469  H   0.998        C  458 0.981
   470  N   3.416        C  453 1.242    C  471 0.971    H  481 0.930    O  454 0.187
   471  C   3.964        C  474 0.974    N  470 0.971    H  482 0.956    C  472 0.938
   472  C   3.936        O  473 1.705    N  494 1.221    C  471 0.938
   473  O   2.006        C  472 1.705    N  494 0.178
   474  C   3.986        C  475 1.002    C  471 0.974    H  484 0.971    H  483 0.959
   475  C   3.985        C  476 1.009    C  474 1.002    H  485 0.972    H  486 0.964
   476  C   3.959        C  475 1.009    N  477 0.982    H  487 0.961    H  488 0.959
   477  N   3.474        C  478 1.319    C  476 0.982    H  489 0.911    N  480 0.100    N  479 0.100
   478  C   3.978        N  477 1.319    N  479 1.317    N  480 1.309
   479  N   3.407        C  478 1.317    H  490 0.926    H  491 0.912    N  477 0.100
   480  N   3.380        C  478 1.309    H  492 0.916    H  493 0.907    N  477 0.100
   481  H   0.964        N  470 0.930
   482  H   0.993        C  471 0.956
   483  H   0.995        C  474 0.959
   484  H   0.997        C  474 0.971
   485  H   0.995        C  475 0.972
   486  H   0.992        C  475 0.964
   487  H   0.994        C  476 0.961
   488  H   0.992        C  476 0.959
   489  H   0.948        N  477 0.911
   490  H   0.951        N  479 0.926
   491  H   0.945        N  479 0.912
   492  H   0.940        N  480 0.916
   493  H   0.932        N  480 0.907
   494  N   3.382        C  472 1.221    C  495 0.976    H  502 0.913    O  473 0.178
   495  C   3.964        N  494 0.976    C  498 0.973    C  496 0.942    H  503 0.937
   496  C   3.949        O  497 1.658    N  506 1.260    C  495 0.942
   497  O   1.980        C  496 1.658    N  506 0.191
   498  C   3.978        H  504 0.975    C  495 0.973    H  505 0.967    C  499 0.901
   499  C   3.934        O  500 1.544    O  501 1.461    C  498 0.901
   500  O   1.842        C  499 1.544    O  501 0.215
   501  O   1.850        C  499 1.461    O  500 0.215
   502  H   0.954        N  494 0.913
   503  H   0.995        C  495 0.937
   504  H   0.997        C  498 0.975
   505  H   0.998        C  498 0.967
   506  N   3.443        C  496 1.260    C  507 0.981    H  514 0.925    O  497 0.191
   507  C   3.962        C  510 0.985    N  506 0.981    H  515 0.942    C  508 0.922
   508  C   3.951        O  509 1.663    N  520 1.284    C  507 0.922
   509  O   1.989        C  508 1.663    N  520 0.192
   510  C   3.984        C  507 0.985    C  511 0.977    H  517 0.948    H  516 0.939
   511  C   3.946        O  512 1.627    N  513 1.311    C  510 0.977
   512  O   1.927        C  511 1.627    N  513 0.194
   513  N   3.394        C  511 1.311    H  519 0.929    H  518 0.921    O  512 0.194
   514  H   0.958        N  506 0.925
   515  H   0.992        C  507 0.942
   516  H   0.992        C  510 0.939
   517  H   0.990        C  510 0.948
   518  H   0.943        N  513 0.921
   519  H   0.952        N  513 0.929
   520  N   3.448        C  508 1.284    C  521 0.977    H  527 0.915    O  509 0.192
   521  C   3.951        N  520 0.977    H  528 0.947    C  522 0.945    C  524 0.945
   522  C   3.955        O  523 1.649    N  536 1.283    C  521 0.945
   523  O   1.964        C  522 1.649    N  536 0.191
   524  C   3.987        C  525 1.010    C  526 1.010    H  529 0.962    C  521 0.945
   525  C   3.994        C  524 1.010    H  532 0.987    H  531 0.986    H  530 0.983
   526  C   3.992        C  524 1.010    H  533 0.982    H  534 0.981    H  535 0.978
   527  H   0.960        N  520 0.915
   528  H   0.993        C  521 0.947
   529  H   0.995        C  524 0.962
   530  H   0.997        C  525 0.983
   531  H   0.998        C  525 0.986
   532  H   0.999        C  525 0.987
   533  H   0.996        C  526 0.982
   534  H   0.999        C  526 0.981
   535  H   0.996        C  526 0.978
   536  N   3.450        C  522 1.283    C  537 0.974    H  543 0.926    O  523 0.191
   537  C   3.948        N  536 0.974    C  540 0.956    H  544 0.942    C  538 0.939
   538  C   3.943        O  539 1.592    N  552 1.325    C  537 0.939
   539  O   1.965        C  538 1.592    N  552 0.193
   540  C   3.981        C  541 1.006    C  542 1.004    H  545 0.960    C  537 0.956
   541  C   3.983        C  540 1.006    H  547 0.981    H  546 0.977    H  548 0.974
   542  C   3.987        C  540 1.004    H  551 0.982    H  550 0.981    H  549 0.969
   543  H   0.962        N  536 0.926
   544  H   0.989        C  537 0.942
   545  H   0.997        C  540 0.960
   546  H   0.992        C  541 0.977
   547  H   0.998        C  541 0.981
   548  H   0.994        C  541 0.974
   549  H   0.993        C  542 0.969
   550  H   0.995        C  542 0.981
   551  H   0.998        C  542 0.982
   552  N   3.484        C  538 1.325    C  553 0.991    H  557 0.890    O  539 0.193
   553  C   3.974        N  552 0.991    C  556 0.981    H  558 0.942    C  554 0.940
   554  C   3.955        O  555 1.656    N  562 1.291    C  553 0.940
   555  O   2.000        C  554 1.656    N  562 0.198
   556  C   3.988        H  561 0.984    H  559 0.982    C  553 0.981    H  560 0.980
   557  H   0.942        N  552 0.890
   558  H   0.995        C  553 0.942
   559  H   0.997        C  556 0.982
   560  H   0.996        C  556 0.980
   561  H   0.995        C  556 0.984
   562  N   3.475        C  554 1.291    C  563 0.994    H  569 0.922    O  555 0.198
   563  C   3.965        N  562 0.994    C  564 0.992    H  570 0.940    C  566 0.920
   564  C   3.898        O  565 1.893    C  563 0.992    H  585 0.954
   565  O   2.043        C  564 1.893
   566  C   3.952        C  568 1.006    O  567 0.996    H  571 0.950    C  563 0.920
   567  O   1.931        C  566 0.996    H  572 0.864
   568  C   3.992        C  566 1.006    H  575 0.985    H  573 0.980    H  574 0.978
   569  H   0.958        N  562 0.922
   570  H   0.987        C  563 0.940
   571  H   0.996        C  566 0.950
   572  H   0.881        O  567 0.864
   573  H   0.996        C  568 0.980
   574  H   0.996        C  568 0.978
   575  H   0.998        C  568 0.985
   576  H   0.965        N    1 0.955
   577  H   0.993        C  185 0.953
   578  H   0.968        N  200 0.945
   579  H   0.994        C  253 0.953
   580  H   0.968        N  263 0.958
   581  H   0.996        C  284 0.955
   582  H   0.967        N  301 0.958
   583  H   0.993        C  401 0.952
   584  H   0.967        N  420 0.951
   585  H   0.992        C  564 0.954
 
molecular dipole:
                 x           y           z       tot (Debye)
 q only:      111.477      22.291      87.367
   full:      112.707      24.343      83.619     362.040
molecular quadrupole (traceless):
                xx          xy          yy          xz          yz          zz
 q only:     8886.074    3885.061   -9744.341   14602.244    2714.332     858.266
  q+dip:     9329.267    4244.673   -9460.019   14138.788    2672.843     130.752
   full:     9329.003    4245.535   -9460.149   14139.692    2671.802     131.146


           -------------------------------------------------
          | TOTAL ENERGY             -886.237121421110 Eh   |
          | GRADIENT NORM               0.501184328495 Eh/α |
          | HOMO-LUMO GAP               1.091219411283 eV   |
           -------------------------------------------------

------------------------------------------------------------------------
 * finished run on 2019/05/31 at 06:33:34.483     
------------------------------------------------------------------------
 total:
 * wall-time:     0 d,  0 h,  0 min, 24.591 sec
 *  cpu-time:     0 d,  0 h,  0 min, 48.136 sec
 * ratio c/w:     1.958 speedup
 SCF:
 * wall-time:     0 d,  0 h,  0 min, 23.210 sec
 *  cpu-time:     0 d,  0 h,  0 min, 45.981 sec
 * ratio c/w:     1.981 speedup

