      -----------------------------------------------------------      
     |                   =====================                   |     
     |                           x T B                           |     
     |                   =====================                   |     
     |                         S. Grimme                         |     
     |          Mulliken Center for Theoretical Chemistry        |     
     |                    University of Bonn                     |     
     |                Version 6.1 RC1 (SAW190329)                |     
      -----------------------------------------------------------      

   This program is distributed in the hope that it will be useful,
   but WITHOUT ANY WARRANTY; without even the implied warranty of
   MERCHANTABILITY or FITNESS FOR A PARTICULAR PURPOSE.
   
   FOR NON-COMMERCIAL, ACADEMIA USE ONLY.
   
   Cite this work as:
   S. Grimme, C. Bannwarth, P. Shushkov, J. Comput. Theory Chem., 2017,
   13, 1989-2009. DOI: 10.1021/acs.jctc.7b00118
   C. Bannwarth, S. Ehlert and S. Grimme., J. Comput. Theory Chem., 2019,
   just accepted. DOI: 10.1021/acs.jctc.8b01176
   
   for sTDA-xTB:
   S. Grimme and C. Bannwarth, J. Chem. Phys., 2016, 145, 054103.
   DOI: 10.1063/1.4959605
   
   in the mass-spec context:
   V. Asgeirsson, C. Bauer and S. Grimme, Chem. Sci., 2017, 8, 4879.
   DOI: 10.1039/c7sc00601b
   
   for metadynamics refer to:
   S. Grimme, ChemRxiv, Preprint. DOI: 10.26434/chemrxiv.7660532.v1
   
   with help from (in alphabetical order)
   C. Bannwarth, F. Bohle, G. Brandenburg, E. Caldeweyher, M. Checinski,
   S. Dohm, S. Ehlert, S. Ehrlich, F. März, H. Neugebauer, J. Pisarek,
   P. Pracht, P. Shushkov, and S. Spicher.
   
 * started run on 2019/05/31 at 06:33:53.561     

           -------------------------------------------------
          |                Calculation Setup                |
           -------------------------------------------------

          program call               : /home/lum/qr/xtb-190329/bin/xtb xtb_tmp.xyz --chrg 0 --grad --gfn 2 --etemp 500 --acc 0.1 --gbsa h2o --parallel 2
          hostname                   : cu39
          coordinate file            : xtb_tmp.xyz
          omp threads                :                     2
          number of atoms            :                   108
          number of electrons        :                   306
          charge                     :                     0
          spin                       :                   0.0
          first test random number   :      0.19732955460111


molecular fragmentation (1/2 indicates fragments):
111111111111111111111111111111111112222222222222222222222222222222222222
222222222222222222222222222222221122
# atoms in fragment 1/2:    37    71
 fragment masses (1/2) :      277.30      507.57
CMA distance (Bohr)    :  14.458
constraining FC (au)   :  0.0500

########################################################################
# WARNING! Please study the warnings concerning your input carefully
#  - XTBPATH is not set, using XTBHOME instead
#  - Process number higher than OMP_NUM_THREADS, I hope you know what you are doing.
########################################################################

           ------------------------------------------------- 
          |                 G F N 2 - x T B                 |
          | Geometry, Frequencies, Noncovalent interactions |
          |            JCTC 2018 parametrisation            |
           ------------------------------------------------- 
 
             k(s)              :                1.8500
             k(p)              :                2.2300
             k(d)              :                2.2300
             k(f)              :                2.0000
             kEN (H0ij)        :               -2.0000
             D4 a1             :                0.5200
             D4 a2             :                5.0000
             D4 s6             :                1.0000
             D4 s8             :                2.7000
             D4 s9             :                5.0000
             alphaj            :                2.0000

  Z AO/shell   Hii/eV     exponent
  1     Wed Apr 25 08:07:45 CEST 2018   EN: 2.200 GM2: 0.406  GM3: 0.0800  RAES: 1.40
     1s    -10.707211    1.230000
  6     Wed Apr 25 08:07:45 CEST 2018   EN: 2.550 GM2: 0.538  GM3: 0.1500  RAES: 3.00
     2s    -13.970922    2.096432
     2p    -10.063292    1.800000
  7     Wed Apr 25 08:07:45 CEST 2018   EN: 3.040 GM2: 0.461  GM3:-0.0640  RAES: 1.90
     2s    -16.686243    2.339881
     2p    -12.523956    2.014332
  8     Wed Apr 25 08:07:45 CEST 2018   EN: 3.440 GM2: 0.452  GM3:-0.0517  RAES: 1.80
     2s    -20.229985    2.439742
     2p    -15.503117    2.137023

 Solvent             : h2o
 Using internal parameter file: .param_gbsa2_h2o
 Gsolv ref. state (COSMO-RS): gsolv [1 M gas/solution]
 temperature (mdtemp)       :    298.150000000000     
 dielectric constant        :    80.2000000000000     
 rho                        :    1.00000000000000     
 mass                       :    18.0000000000000     
 surface tension            :    15.5689454083859     
 probe radius               :   0.975313790000000     
 vdW radii scaling          :    1.00000000000000     
 Gshift (Eh)                :   1.857443126794793E-003
 c1                         :    1.55243817000000     
 soset                      :   0.130326360000000     
 HB correction              :  T
 Number of grid points      :          230

            Z     q(EN)     CN     RAES       Cart. coordinates
     1  N   5.0   -0.69    3.00    1.93    99.71155   107.61576    93.90634
     2  C   4.0    0.07    3.98    3.59    97.62724   105.97876    94.61429
     3  C   4.0    0.27    3.00    3.02    98.01311   103.35776    93.44189
     4  O   6.0   -0.39    1.00    1.80    99.39683   102.99440    91.62925
     5  C   4.0   -0.14    3.98    3.58    95.08414   107.14309    93.81899
     6  C   4.0   -0.10    3.97    3.58    95.04552   107.86419    91.03125
     7  C   4.0    0.31    2.99    3.02    96.00144   110.61924    90.49693
     8  O   6.0   -0.40    1.00    1.80    95.85094   112.19769    92.23426
     9  O   6.0   -0.36    1.00    1.80    96.75816   111.01119    88.29547
    10  H   1.0    0.31    1.00    1.43   100.46107   107.29703    92.18108
    11  H   1.0    0.12    0.99    1.43    97.66267   105.81124    96.68238
    12  H   1.0    0.12    0.99    1.43    93.56495   105.82078    94.26808
    13  H   1.0    0.13    0.99    1.43    94.82117   108.87349    94.92304
    14  H   1.0    0.15    0.99    1.43    96.19081   106.59289    89.87956
    15  H   1.0    0.12    0.99    1.43    93.11783   107.80882    90.29607
    16  N   5.0   -0.47    3.01    1.93    96.66892   101.53243    94.57256
    17  C   4.0    0.07    3.98    3.59    96.98262    98.84520    94.15750
    18  C   4.0    0.07    3.00    3.02    94.44322    97.62725    93.47445
    19  O   6.0   -0.37    1.00    1.80    92.44955    98.74536    93.82467
    20  C   4.0   -0.13    3.99    3.60    98.03277    97.63555    96.60241
    21  C   4.0   -0.01    3.03    3.02    96.21050    97.92706    98.76459
    22  C   4.0   -0.08    3.03    3.02    96.20350   100.12633   100.20333
    23  C   4.0   -0.08    3.03    3.02    94.48532    96.03552    99.33860
    24  C   4.0   -0.08    3.03    3.02    94.48332   100.44594   102.14789
    25  C   4.0   -0.09    3.03    3.02    92.77279    96.35337   101.28870
    26  C   4.0   -0.08    3.03    3.02    92.75733    98.55905   102.69503
    27  H   1.0    0.25    1.00    1.43    95.46914   101.98861    95.98761
    28  H   1.0    0.14    0.99    1.43    98.31934    98.62175    92.59596
    29  H   1.0    0.10    0.99    1.43    98.39402    95.63647    96.26088
    30  H   1.0    0.12    0.99    1.43    99.79788    98.58925    97.07961
    31  H   1.0    0.12    0.99    1.43    97.59345   101.57551    99.82644
    32  H   1.0    0.12    0.99    1.43    94.49320    94.30507    98.25357
    33  H   1.0    0.14    0.99    1.43    94.48494   102.18324   103.22100
    34  H   1.0    0.12    1.00    1.43    91.44091    94.87001   101.71691
    35  H   1.0    0.13    1.00    1.43    91.43500    98.79990   104.23055
    36  N   5.0   -0.69    3.00    1.93    84.89904    99.92141    96.84861
    37  C   4.0    0.06    3.98    3.59    84.30397   101.49880    99.00487
    38  C   4.0    0.28    3.02    3.02    86.40395   103.49510    99.14367
    39  O   6.0   -0.39    1.00    1.80    88.57567   102.97405    98.59920
    40  C   4.0   -0.21    3.98    3.59    84.29233    99.97159   101.46208
    41  H   1.0    0.31    1.00    1.43    86.77213    99.69065    96.52618
    42  H   1.0    0.12    0.99    1.43    82.45325   102.35169    98.64640
    43  H   1.0    0.11    0.99    1.43    83.70138   101.16080   103.02528
    44  H   1.0    0.10    0.99    1.43    83.01353    98.37759   101.27719
    45  H   1.0    0.13    0.99    1.43    86.18803    99.27307   101.84464
    46  N   5.0   -0.50    3.01    1.93    85.64234   105.79909    99.89687
    47  C   4.0    0.08    4.00    3.61    87.38989   107.90842    99.98552
    48  C   4.0    0.28    3.01    3.02    88.58943   107.99260   102.61814
    49  O   6.0   -0.41    1.00    1.80    90.84580   107.71838   102.97068
    50  C   4.0   -0.14    3.99    3.60    86.08676   110.38698    99.24987
    51  C   4.0   -0.03    3.03    3.02    87.98999   112.49460    99.10257
    52  C   4.0   -0.09    3.03    3.02    89.82969   112.48578    97.22313
    53  C   4.0   -0.10    3.03    3.02    87.99007   114.44271   100.85277
    54  C   4.0   -0.05    3.02    3.02    91.61779   114.37586    97.07086
    55  C   4.0   -0.09    3.03    3.02    89.75575   116.36418   100.71560
    56  C   4.0    0.11    3.03    3.02    91.57045   116.34706    98.81764
    57  O   6.0   -0.44    1.99    1.83    93.31993   118.21904    98.61177
    58  H   1.0    0.22    1.00    1.43    83.78065   106.13782   100.12699
    59  H   1.0    0.15    0.99    1.43    88.92764   107.48475    98.66056
    60  H   1.0    0.12    0.99    1.43    85.21384   110.12090    97.40035
    61  H   1.0    0.10    0.99    1.43    84.60131   110.85809   100.60279
    62  H   1.0    0.12    0.99    1.43    89.87918   110.98428    95.83672
    63  H   1.0    0.11    1.00    1.43    86.58393   114.49089   102.32969
    64  H   1.0    0.16    0.99    1.43    93.04025   114.32810    95.60314
    65  H   1.0    0.12    0.99    1.43    89.71722   117.89342   102.06990
    66  H   1.0    0.26    0.99    1.43    93.02487   119.48690    99.89827
    67  N   5.0   -0.49    3.01    1.93    86.91205   108.23437   104.52258
    68  C   4.0    0.07    3.99    3.61    87.75951   108.43758   107.12517
    69  C   4.0    0.26    3.01    3.02    85.68741   107.43488   108.88958
    70  O   6.0   -0.41    1.00    1.80    84.85205   108.65235   110.64764
    71  C   4.0   -0.14    3.98    3.59    88.53057   111.14720   107.81240
    72  C   4.0   -0.15    3.98    3.59    90.47646   111.14855   109.94240
    73  C   4.0   -0.04    3.98    3.59    91.20759   113.83964   110.69006
    74  N   5.0   -0.47    3.02    1.93    93.50843   113.80668   112.17162
    75  C   4.0    0.37    3.00    3.02    94.15490   115.34408   114.04617
    76  N   5.0   -0.64    3.01    1.93    92.62763   117.16990   114.86010
    77  N   5.0   -0.64    3.02    1.93    96.41174   115.02916   115.10439
    78  H   1.0    0.24    1.00    1.43    85.11858   108.75919   104.14547
    79  H   1.0    0.14    0.99    1.43    89.42208   107.20885   107.29044
    80  H   1.0    0.12    0.99    1.43    89.34779   112.03055   106.13665
    81  H   1.0    0.13    0.99    1.43    86.85297   112.20176   108.37847
    82  H   1.0    0.14    0.99    1.43    89.70366   110.15298   111.57335
    83  H   1.0    0.12    0.99    1.43    92.15463   110.13993   109.28843
    84  H   1.0    0.11    0.99    1.43    91.49946   114.96860   108.97855
    85  H   1.0    0.12    0.99    1.43    89.66540   114.66282   111.78025
    86  H   1.0    0.23    1.00    1.43    94.83525   112.53336   111.63310
    87  H   1.0    0.26    1.00    1.43    90.89587   117.40695   114.11623
    88  H   1.0    0.27    1.00    1.43    93.10813   118.22636   116.36571
    89  H   1.0    0.26    1.00    1.43    97.46667   113.52308   114.57132
    90  H   1.0    0.27    1.00    1.43    97.03274   116.18522   116.47906
    91  N   5.0   -0.47    3.01    1.93    84.80270   105.14151   108.21111
    92  C   4.0    0.07    3.99    3.60    83.06616   103.73495   109.78560
    93  C   4.0    0.06    3.00    3.02    84.33173   101.23279   110.54069
    94  O   6.0   -0.40    1.00    1.80    86.33543   100.57888   109.61947
    95  C   4.0   -0.10    3.98    3.59    80.57612   103.21293   108.34975
    96  C   4.0    0.26    3.00    3.02    78.41536   102.74200   110.19664
    97  O   6.0   -0.37    1.00    1.80    77.59343   104.39974   111.56621
    98  N   5.0   -0.65    3.00    1.93    77.43343   100.38966   110.13256
    99  H   1.0    0.27    1.00    1.43    85.85685   104.08098   107.01781
   100  H   1.0    0.16    0.99    1.43    82.67539   104.89986   111.45390
   101  H   1.0    0.13    0.99    1.43    80.10075   104.92105   107.29678
   102  H   1.0    0.11    0.99    1.43    80.83379   101.63074   107.05779
   103  H   1.0    0.29    1.00    1.43    76.12006    99.95598   111.44690
   104  H   1.0    0.26    1.00    1.43    78.43200    98.94208   109.40257
   105  H   1.0    0.33    1.00    1.43    99.18837   109.23404    93.90813
   106  H   1.0    0.12    1.00    1.43    94.39796    95.89110    92.72960
   107  H   1.0    0.30    1.00    1.43    84.24325    98.36965    97.08216
   108  H   1.0    0.13    1.00    1.43    83.50873   100.10401   111.81333

           ------------------------------------------------- 
          |        Self-Consistent Charge Iterations        |
           ------------------------------------------------- 

          ...................................................
          :                      SETUP                      :
          :.................................................:
          :  # basis functions                 276          :
          :  # atomic orbitals                 276          :
          :  # shells                          164          :
          :  # electrons                       306          :
          :  max. iterations                   250          :
          :  Hamiltonian                  GFN2-xTB          :
          :  restarted?                      false          :
          :  GBSA solvation                   true          :
          :  PC potential                    false          :
          :  electronic temp.          500.0000000     K    :
          :  accuracy                    0.1000000          :
          :  -> integral cutoff          0.3500000E+02      :
          :  -> integral neglect         0.1000000E-08      :
          :  -> SCF convergence          0.1000000E-06 Eh   :
          :  -> wf. convergence          0.1000000E-04 e    :
          :  Broyden damping             0.4000000          :
          ...................................................

 iter      E             dE          RMSdq      gap      omega  full diag
   1   -175.3480887 -0.175348E+03  0.441E+00    2.60       0.0  T
   2   -175.7622295 -0.414141E+00  0.228E+00    1.72       1.0  T
   3   -175.7799412 -0.177118E-01  0.122E+00    2.10       1.0  T
   4   -175.7900382 -0.100969E-01  0.306E-01    1.18       1.0  T
   5   -175.7950831 -0.504497E-02  0.127E-01    1.31       1.0  T
   6   -175.7952870 -0.203826E-03  0.596E-02    1.40       1.0  T
   7   -175.7953734 -0.864392E-04  0.282E-02    1.43       1.0  T
   8   -175.7953902 -0.167795E-04  0.105E-02    1.45       1.0  T
   9   -175.7953923 -0.214401E-05  0.530E-03    1.46       1.8  T
  10   -175.7953929 -0.557102E-06  0.257E-03    1.46       3.7  T
  11   -175.7953930 -0.140174E-06  0.913E-04    1.46      10.5  T
  12   -175.7953931 -0.283219E-07  0.416E-04    1.46      23.1  T
  13   -175.7953931 -0.344141E-08  0.184E-04    1.46      52.3  T
  14   -175.7953931 -0.487489E-09  0.684E-05    1.46     140.7  T
  15   -175.7953931 -0.143672E-09  0.295E-05    1.46     326.5  T

   *** convergence criteria satisfied after 15 iterations ***

         #    Occupation            Energy/Eh            Energy/eV
      -------------------------------------------------------------
         1        2.0000           -0.7492880             -20.3892
       ...           ...                  ...                  ...
       147        2.0000           -0.3985678             -10.8456
       148        2.0000           -0.3925387             -10.6815
       149        2.0000           -0.3801744             -10.3451
       150        2.0000           -0.3756615             -10.2223
       151        2.0000           -0.3690337             -10.0419
       152        2.0000           -0.3670738              -9.9886
       153        2.0000           -0.3554575              -9.6725 (HOMO)
       154                         -0.3019427              -8.2163 (LUMO)
       155                         -0.2930579              -7.9745
       156                         -0.2385586              -6.4915
       157                         -0.2332623              -6.3474
       158                         -0.2281351              -6.2079
       ...                                ...                  ...
       276                          0.6616473              18.0043
      -------------------------------------------------------------
                  HL-Gap            0.0535148 Eh            1.4562 eV
             Fermi-level           -0.3287023 Eh           -8.9444 eV

 SCC (total)                   0 d,  0 h,  0 min,  0.645 sec
 SCC setup                      ...        0 min,  0.011 sec (  1.749%)
 Dispersion                     ...        0 min,  0.004 sec (  0.570%)
 integral evaluation            ...        0 min,  0.032 sec (  4.988%)
 zeroth order Hamiltonian       ...        0 min,  0.002 sec (  0.237%)
 iterations                     ...        0 min,  0.369 sec ( 57.143%)
 molecular gradient             ...        0 min,  0.224 sec ( 34.723%)
 printout                       ...        0 min,  0.004 sec (  0.576%)

         :::::::::::::::::::::::::::::::::::::::::::::::::::::
         ::                     SUMMARY                     ::
         :::::::::::::::::::::::::::::::::::::::::::::::::::::
         :: total energy             -173.548485381066 Eh   ::
         :: total w/o Gsasa/hb       -173.515080904410 Eh   ::
         :: gradient norm               0.318406810258 Eh/α ::
         :: HOMO-LUMO gap               1.456211635379 eV   ::
         ::.................................................::
         :: SCC energy               -175.801933720561 Eh   ::
         :: -> isotropic ES             0.654973661535 Eh   ::
         :: -> anisotropic ES          -0.014009860562 Eh   ::
         :: -> anisotropic XC           0.062705284966 Eh   ::
         :: -> dispersion              -0.114713349429 Eh   ::
         :: -> Gsolv                   -0.240598587033 Eh   ::
         ::    -> Gborn                -0.207194110377 Eh   ::
         ::    -> Gsasa                -0.008398104690 Eh   ::
         ::    -> Ghb                  -0.026863815093 Eh   ::
         ::    -> Gshift                0.001857443127 Eh   ::
         :: repulsion energy            2.250096414007 Eh   ::
         :: add. restraining            0.000000000000 Eh   ::
         :::::::::::::::::::::::::::::::::::::::::::::::::::::

           -------------------------------------------------
          |                Property Printout                |
           -------------------------------------------------

    * Orbital Energies and Occupations

         #    Occupation            Energy/Eh            Energy/eV
      -------------------------------------------------------------
         1        2.0000           -0.7492880             -20.3892
       ...           ...                  ...                  ...
       141        2.0000           -0.4113641             -11.1938
       142        2.0000           -0.4065597             -11.0631
       143        2.0000           -0.4060963             -11.0504
       144        2.0000           -0.4044047             -11.0044
       145        2.0000           -0.4030033             -10.9663
       146        2.0000           -0.3991862             -10.8624
       147        2.0000           -0.3985678             -10.8456
       148        2.0000           -0.3925387             -10.6815
       149        2.0000           -0.3801744             -10.3451
       150        2.0000           -0.3756615             -10.2223
       151        2.0000           -0.3690337             -10.0419
       152        2.0000           -0.3670738              -9.9886
       153        2.0000           -0.3554575              -9.6725 (HOMO)
       154                         -0.3019427              -8.2163 (LUMO)
       155                         -0.2930579              -7.9745
       156                         -0.2385586              -6.4915
       157                         -0.2332623              -6.3474
       158                         -0.2281351              -6.2079
       159                         -0.2275279              -6.1913
       160                         -0.2249676              -6.1217
       161                         -0.2246529              -6.1131
       162                         -0.2218432              -6.0367
       163                         -0.2207144              -6.0059
       164                         -0.2194372              -5.9712
       ...                                ...                  ...
       276                          0.6616473              18.0043
      -------------------------------------------------------------
                  HL-Gap            0.0535148 Eh            1.4562 eV
             Fermi-level           -0.3287023 Eh           -8.9444 eV

   #   Z        covCN         q      C6AA      α(0)
   1   7 N      2.635    -0.380    29.821     8.110
   2   6 C      3.787     0.037    19.974     6.366
   3   6 C      2.751     0.276    22.330     7.738
   4   8 O      0.858    -0.496    23.702     6.527
   5   6 C      3.802    -0.051    21.495     6.601
   6   6 C      3.797    -0.080    22.032     6.684
   7   6 C      2.682     0.373    20.679     7.442
   8   8 O      0.856    -0.635    27.000     6.967
   9   8 O      0.856    -0.665    27.780     7.067
  10   1 H      0.860     0.148     1.414     1.863
  11   1 H      0.923     0.043     2.406     2.426
  12   1 H      0.924     0.022     2.705     2.572
  13   1 H      0.924     0.045     2.389     2.417
  14   1 H      0.924     0.008     2.925     2.675
  15   1 H      0.924     0.008     2.923     2.674
  16   7 N      2.692    -0.169    24.649     7.374
  17   6 C      3.788     0.028    20.122     6.389
  18   6 C      2.765     0.200    23.739     7.979
  19   8 O      0.856    -0.364    20.973     6.140
  20   6 C      3.811    -0.079    22.006     6.677
  21   6 C      2.970     0.009    27.823     8.652
  22   6 C      2.925    -0.041    29.016     8.834
  23   6 C      2.924    -0.041    29.018     8.834
  24   6 C      2.919    -0.027    28.685     8.783
  25   6 C      2.921    -0.031    28.782     8.798
  26   6 C      2.919    -0.031    28.766     8.795
  27   1 H      0.860     0.199     1.111     1.651
  28   1 H      0.924     0.097     1.808     2.103
  29   1 H      0.925     0.079     1.987     2.204
  30   1 H      0.924     0.074     2.037     2.232
  31   1 H      0.926     0.029     2.595     2.519
  32   1 H      0.926     0.037     2.483     2.464
  33   1 H      0.926     0.039     2.465     2.455
  34   1 H      0.926     0.043     2.413     2.429
  35   1 H      0.926     0.040     2.446     2.446
  36   7 N      2.640    -0.396    30.271     8.171
  37   6 C      3.785     0.027    20.130     6.391
  38   6 C      2.762     0.276    22.336     7.740
  39   8 O      0.858    -0.486    23.469     6.495
  40   6 C      3.756    -0.120    22.855     6.816
  41   1 H      0.860     0.151     1.395     1.850
  42   1 H      0.924     0.050     2.321     2.382
  43   1 H      0.925     0.049     2.334     2.389
  44   1 H      0.925     0.063     2.165     2.301
  45   1 H      0.925     0.042     2.416     2.431
  46   7 N      2.691    -0.198    25.298     7.470
  47   6 C      3.800     0.021    20.219     6.402
  48   6 C      2.756     0.279    22.280     7.730
  49   8 O      0.858    -0.468    23.091     6.443
  50   6 C      3.810    -0.082    22.063     6.686
  51   6 C      2.970    -0.002    28.080     8.692
  52   6 C      2.926    -0.034    28.845     8.808
  53   6 C      2.925    -0.048    29.189     8.860
  54   6 C      2.916    -0.052    29.289     8.875
  55   6 C      2.917    -0.079    29.963     8.976
  56   6 C      2.848     0.146    24.815     8.164
  57   8 O      1.659    -0.450    21.848     6.310
  58   1 H      0.860     0.217     1.026     1.586
  59   1 H      0.924     0.066     2.133     2.284
  60   1 H      0.924     0.065     2.141     2.288
  61   1 H      0.924     0.070     2.086     2.259
  62   1 H      0.925     0.012     2.852     2.641
  63   1 H      0.926     0.065     2.140     2.287
  64   1 H      0.925     0.025     2.652     2.547
  65   1 H      0.926     0.066     2.133     2.284
  66   1 H      0.805     0.361     0.563     1.179
  67   7 N      2.690    -0.182    24.939     7.417
  68   6 C      3.798     0.009    20.435     6.437
  69   6 C      2.754     0.271    22.414     7.753
  70   8 O      0.858    -0.443    22.564     6.369
  71   6 C      3.805    -0.075    21.929     6.667
  72   6 C      3.805    -0.080    22.019     6.680
  73   6 C      3.738    -0.024    21.076     6.551
  74   7 N      2.704    -0.138    23.992     7.275
  75   6 C      2.735     0.233    23.114     7.871
  76   7 N      2.649    -0.248    26.463     7.640
  77   7 N      2.656    -0.260    26.739     7.680
  78   1 H      0.860     0.206     1.076     1.625
  79   1 H      0.924     0.085     1.926     2.170
  80   1 H      0.924     0.057     2.230     2.335
  81   1 H      0.924     0.075     2.029     2.227
  82   1 H      0.924     0.071     2.074     2.252
  83   1 H      0.924     0.059     2.210     2.325
  84   1 H      0.924     0.083     1.950     2.184
  85   1 H      0.924     0.091     1.870     2.138
  86   1 H      0.860     0.226     0.982     1.552
  87   1 H      0.860     0.245     0.902     1.488
  88   1 H      0.860     0.255     0.863     1.455
  89   1 H      0.860     0.246     0.898     1.485
  90   1 H      0.860     0.258     0.854     1.448
  91   7 N      2.692    -0.173    24.742     7.388
  92   6 C      3.790     0.025    20.165     6.395
  93   6 C      2.766     0.196    23.816     7.992
  94   8 O      0.856    -0.352    20.747     6.107
  95   6 C      3.806    -0.110    22.601     6.768
  96   6 C      2.743     0.291    22.070     7.692
  97   8 O      0.858    -0.481    23.376     6.482
  98   7 N      2.637    -0.291    27.514     7.790
  99   1 H      0.860     0.204     1.088     1.634
 100   1 H      0.924     0.115     1.656     2.013
 101   1 H      0.924     0.106     1.727     2.055
 102   1 H      0.925     0.075     2.027     2.226
 103   1 H      0.860     0.233     0.950     1.527
 104   1 H      0.860     0.229     0.968     1.541
 105   1 H      0.862     0.169     1.279     1.771
 106   1 H      0.930     0.089     1.885     2.147
 107   1 H      0.862     0.188     1.170     1.694
 108   1 H      0.930     0.086     1.921     2.167

 Mol. C6AA /au·bohr⁶  :     118840.474511
 Mol. C8AA /au·bohr⁸  :    2702778.620591
 Mol. α(0) /au        :        524.035550


Wiberg/Mayer (AO) data.
largest (>0.10) Wiberg bond orders for each atom
          total WBO             WBO to atom ...
     1  N   2.993        C    2 1.020    H   10 0.956    H  105 0.953
     2  C   3.986        N    1 1.020    C    5 0.969    H   11 0.952    C    3 0.947
     3  C   3.945        O    4 1.641    N   16 1.289    C    2 0.947
     4  O   1.957        C    3 1.641    N   16 0.193
     5  C   3.996        C    6 1.013    H   12 0.976    C    2 0.969    H   13 0.968
     6  C   3.988        C    5 1.013    H   14 0.976    H   15 0.966    C    7 0.910
     7  C   3.931        O    8 1.503    O    9 1.493    C    6 0.910
     8  O   1.806        C    7 1.503    O    9 0.213
     9  O   1.779        C    7 1.493    O    8 0.213
    10  H   0.978        N    1 0.956
    11  H   0.998        C    2 0.952
    12  H   1.000        C    5 0.976
    13  H   0.998        C    5 0.968
    14  H   1.000        C    6 0.976
    15  H   1.000        C    6 0.966
    16  N   3.465        C    3 1.289    C   17 0.987    H   27 0.920    O    4 0.193
    17  C   3.964        N   16 0.987    C   18 0.983    H   28 0.938    C   20 0.934
    18  C   3.902        O   19 1.902    C   17 0.983    H  106 0.950
    19  O   2.047        C   18 1.902
    20  C   3.982        C   21 1.011    H   29 0.967    H   30 0.965    C   17 0.934
    21  C   3.988        C   23 1.414    C   22 1.410    C   20 1.011    C   26 0.109
    22  C   3.992        C   24 1.443    C   21 1.410    H   31 0.967    C   25 0.110
    23  C   3.991        C   25 1.445    C   21 1.414    H   32 0.968    C   24 0.112
    24  C   3.992        C   22 1.443    C   26 1.439    H   33 0.970    C   23 0.112
    25  C   3.992        C   23 1.445    C   26 1.438    H   34 0.970    C   22 0.110
    26  C   3.992        C   24 1.439    C   25 1.438    H   35 0.971    C   21 0.109
    27  H   0.960        N   16 0.920
    28  H   0.990        C   17 0.938
    29  H   0.993        C   20 0.967
    30  H   0.994        C   20 0.965
    31  H   0.999        C   22 0.967
    32  H   0.999        C   23 0.968
    33  H   0.998        C   24 0.970
    34  H   0.998        C   25 0.970
    35  H   0.998        C   26 0.971
    36  N   2.988        C   37 1.018    H   41 0.955    H  107 0.950
    37  C   3.984        N   36 1.018    C   40 0.982    H   42 0.958    C   38 0.939
    38  C   3.937        O   39 1.665    N   46 1.267    C   37 0.939
    39  O   1.982        C   38 1.665    N   46 0.191
    40  C   3.993        H   45 0.987    H   43 0.984    C   37 0.982    H   44 0.981
    41  H   0.977        N   36 0.955
    42  H   0.997        C   37 0.958
    43  H   0.998        C   40 0.984
    44  H   0.996        C   40 0.981
    45  H   0.998        C   40 0.987
    46  N   3.436        C   38 1.267    C   47 0.975    H   58 0.921    O   39 0.191
    47  C   3.961        N   46 0.975    C   50 0.972    H   59 0.955    C   48 0.929
    48  C   3.949        O   49 1.675    N   67 1.270    C   47 0.929
    49  O   1.988        C   48 1.675    N   67 0.198
    50  C   3.989        C   51 1.006    C   47 0.972    H   61 0.967    H   60 0.963
    51  C   3.985        C   53 1.419    C   52 1.395    C   50 1.006
    52  C   3.991        C   54 1.469    C   51 1.395    H   62 0.969    C   55 0.105
    53  C   3.987        C   55 1.441    C   51 1.419    H   63 0.965    C   54 0.107
    54  C   3.991        C   52 1.469    C   56 1.358    H   64 0.969    C   53 0.107
    55  C   3.982        C   53 1.441    C   56 1.376    H   65 0.963    C   52 0.105
    56  C   3.936        C   55 1.376    C   54 1.358    O   57 1.073
    57  O   2.081        C   56 1.073    H   66 0.849
    58  H   0.953        N   46 0.921
    59  H   0.995        C   47 0.955
    60  H   0.995        C   50 0.963
    61  H   0.995        C   50 0.967
    62  H   1.000        C   52 0.969
    63  H   0.996        C   53 0.965
    64  H   0.999        C   54 0.969
    65  H   0.995        C   55 0.963
    66  H   0.870        O   57 0.849
    67  N   3.443        C   48 1.270    C   68 0.973    H   78 0.924    O   49 0.198
    68  C   3.957        C   71 0.981    N   67 0.973    H   79 0.940    C   69 0.939
    69  C   3.950        O   70 1.684    N   91 1.261    C   68 0.939
    70  O   2.003        C   69 1.684    N   91 0.195
    71  C   3.987        C   72 1.006    C   68 0.981    H   80 0.973    H   81 0.971
    72  C   3.990        C   71 1.006    C   73 1.003    H   82 0.974    H   83 0.971
    73  C   3.956        C   72 1.003    N   74 0.988    H   85 0.960    H   84 0.958
    74  N   3.473        C   75 1.315    C   73 0.988    H   86 0.913    N   77 0.102    N   76 0.101
    75  C   3.977        N   76 1.319    N   74 1.315    N   77 1.311
    76  N   3.395        C   75 1.319    H   88 0.916    H   87 0.914    N   74 0.101    N   77 0.100
    77  N   3.385        C   75 1.311    H   89 0.918    H   90 0.914    N   74 0.102    N   76 0.100
    78  H   0.957        N   67 0.924
    79  H   0.993        C   68 0.940
    80  H   0.996        C   71 0.973
    81  H   0.994        C   71 0.971
    82  H   0.995        C   72 0.974
    83  H   0.996        C   72 0.971
    84  H   0.993        C   73 0.958
    85  H   0.992        C   73 0.960
    86  H   0.949        N   74 0.913
    87  H   0.940        N   76 0.914
    88  H   0.935        N   76 0.916
    89  H   0.939        N   77 0.918
    90  H   0.933        N   77 0.914
    91  N   3.444        C   69 1.261    C   92 0.995    H   99 0.922    O   70 0.195
    92  C   3.970        N   91 0.995    C   93 0.980    C   95 0.945    H  100 0.928
    93  C   3.903        O   94 1.908    C   92 0.980    H  108 0.951
    94  O   2.061        C   93 1.908
    95  C   3.985        H  102 0.972    C   96 0.962    H  101 0.952    C   92 0.945
    96  C   3.948        O   97 1.668    N   98 1.292    C   95 0.962
    97  O   1.973        C   96 1.668    N   98 0.201
    98  N   3.379        C   96 1.292    H  104 0.927    H  103 0.925    O   97 0.201
    99  H   0.959        N   91 0.922
   100  H   0.987        C   92 0.928
   101  H   0.989        C   95 0.952
   102  H   0.994        C   95 0.972
   103  H   0.945        N   98 0.925
   104  H   0.947        N   98 0.927
   105  H   0.971        N    1 0.953
   106  H   0.991        C   18 0.950
   107  H   0.964        N   36 0.950
   108  H   0.992        C   93 0.951
 
molecular dipole:
                 x           y           z       tot (Debye)
 q only:       -6.425       2.055      25.778
   full:       -6.605       1.500      25.253      66.455
molecular quadrupole (traceless):
                xx          xy          yy          xz          yz          zz
 q only:    -4044.453    -723.425   -1490.036    2714.663    4664.241    5534.488
  q+dip:    -3974.417    -821.846   -1533.578    2613.824    4493.207    5507.996
   full:    -3974.326    -822.986   -1534.818    2619.146    4489.917    5509.144


           -------------------------------------------------
          | TOTAL ENERGY             -173.548485381066 Eh   |
          | GRADIENT NORM               0.318406810258 Eh/α |
          | HOMO-LUMO GAP               1.456211635379 eV   |
           -------------------------------------------------

------------------------------------------------------------------------
 * finished run on 2019/05/31 at 06:33:54.402     
------------------------------------------------------------------------
 total:
 * wall-time:     0 d,  0 h,  0 min,  0.840 sec
 *  cpu-time:     0 d,  0 h,  0 min,  1.570 sec
 * ratio c/w:     1.870 speedup
 SCF:
 * wall-time:     0 d,  0 h,  0 min,  0.646 sec
 *  cpu-time:     0 d,  0 h,  0 min,  1.291 sec
 * ratio c/w:     1.999 speedup

