      -----------------------------------------------------------      
     |                   =====================                   |     
     |                           x T B                           |     
     |                   =====================                   |     
     |                         S. Grimme                         |     
     |          Mulliken Center for Theoretical Chemistry        |     
     |                    University of Bonn                     |     
     |                Version 6.1 RC1 (SAW190329)                |     
      -----------------------------------------------------------      

   This program is distributed in the hope that it will be useful,
   but WITHOUT ANY WARRANTY; without even the implied warranty of
   MERCHANTABILITY or FITNESS FOR A PARTICULAR PURPOSE.
   
   FOR NON-COMMERCIAL, ACADEMIA USE ONLY.
   
   Cite this work as:
   S. Grimme, C. Bannwarth, P. Shushkov, J. Comput. Theory Chem., 2017,
   13, 1989-2009. DOI: 10.1021/acs.jctc.7b00118
   C. Bannwarth, S. Ehlert and S. Grimme., J. Comput. Theory Chem., 2019,
   just accepted. DOI: 10.1021/acs.jctc.8b01176
   
   for sTDA-xTB:
   S. Grimme and C. Bannwarth, J. Chem. Phys., 2016, 145, 054103.
   DOI: 10.1063/1.4959605
   
   in the mass-spec context:
   V. Asgeirsson, C. Bauer and S. Grimme, Chem. Sci., 2017, 8, 4879.
   DOI: 10.1039/c7sc00601b
   
   for metadynamics refer to:
   S. Grimme, ChemRxiv, Preprint. DOI: 10.26434/chemrxiv.7660532.v1
   
   with help from (in alphabetical order)
   C. Bannwarth, F. Bohle, G. Brandenburg, E. Caldeweyher, M. Checinski,
   S. Dohm, S. Ehlert, S. Ehrlich, F. März, H. Neugebauer, J. Pisarek,
   P. Pracht, P. Shushkov, and S. Spicher.
   
 * started run on 2019/05/31 at 05:34:50.575     

           -------------------------------------------------
          |                Calculation Setup                |
           -------------------------------------------------

          program call               : /home/lum/install/xtb/xtb-190329/bin/xtb xtb_tmp.xyz --chrg 1 --grad --gfn 2 --etemp 500 --acc 0.1 --gbsa h2o --parallel 2
          hostname                   : cpu02
          coordinate file            : xtb_tmp.xyz
          omp threads                :                     2
          number of atoms            :                   301
          number of electrons        :                   812
          charge                     :                     1
          spin                       :                   0.0
          first test random number   :      0.19193873336296


molecular fragmentation (1/2 indicates fragments):
111111111111111111111111111111111111111111111111111111111111111111111111
111111111111111111111111111111111111111111111111111111111111111111111111
111111111111111111111111111111111111111111111111111111111111111111111111
111111111111111111111111111111111111111111111112222222222222222222222222
2222222212222
# atoms in fragment 1/2:   264    37
 fragment masses (1/2) :     1828.07      214.31
CMA distance (Bohr)    :  18.805
constraining FC (au)   :  0.0500

########################################################################
# WARNING! Please study the warnings concerning your input carefully
#  - XTBPATH is not set, using XTBHOME instead
#  - Process number higher than OMP_NUM_THREADS, I hope you know what you are doing.
########################################################################

           ------------------------------------------------- 
          |                 G F N 2 - x T B                 |
          | Geometry, Frequencies, Noncovalent interactions |
          |            JCTC 2018 parametrisation            |
           ------------------------------------------------- 
 
             k(s)              :                1.8500
             k(p)              :                2.2300
             k(d)              :                2.2300
             k(f)              :                2.0000
             kEN (H0ij)        :               -2.0000
             D4 a1             :                0.5200
             D4 a2             :                5.0000
             D4 s6             :                1.0000
             D4 s8             :                2.7000
             D4 s9             :                5.0000
             alphaj            :                2.0000

  Z AO/shell   Hii/eV     exponent
  1     Wed Apr 25 08:07:45 CEST 2018   EN: 2.200 GM2: 0.406  GM3: 0.0800  RAES: 1.40
     1s    -10.707211    1.230000
  6     Wed Apr 25 08:07:45 CEST 2018   EN: 2.550 GM2: 0.538  GM3: 0.1500  RAES: 3.00
     2s    -13.970922    2.096432
     2p    -10.063292    1.800000
  7     Wed Apr 25 08:07:45 CEST 2018   EN: 3.040 GM2: 0.461  GM3:-0.0640  RAES: 1.90
     2s    -16.686243    2.339881
     2p    -12.523956    2.014332
  8     Wed Apr 25 08:07:45 CEST 2018   EN: 3.440 GM2: 0.452  GM3:-0.0517  RAES: 1.80
     2s    -20.229985    2.439742
     2p    -15.503117    2.137023

 Solvent             : h2o
 Using internal parameter file: .param_gbsa2_h2o
 Gsolv ref. state (COSMO-RS): gsolv [1 M gas/solution]
 temperature (mdtemp)       :    298.150000000000     
 dielectric constant        :    80.2000000000000     
 rho                        :    1.00000000000000     
 mass                       :    18.0000000000000     
 surface tension            :    15.5689454083859     
 probe radius               :   0.975313790000000     
 vdW radii scaling          :    1.00000000000000     
 Gshift (Eh)                :   1.857443126794793E-003
 c1                         :    1.55243817000000     
 soset                      :   0.130326360000000     
 HB correction              :  T
 Number of grid points      :          230

            Z     q(EN)     CN     RAES       Cart. coordinates
     1  N   5.0   -0.71    3.99    2.82   183.67825   104.25922   385.45266
     2  C   4.0    0.04    3.98    3.58   181.88288   103.89006   383.31695
     3  C   4.0    0.26    3.01    3.02   183.46804   104.32860   380.90560
     4  O   6.0   -0.44    1.00    1.80   185.57909   105.25277   381.12307
     5  C   4.0   -0.21    3.98    3.59   179.72896   105.79853   383.46560
     6  H   1.0    0.25    1.00    1.43   182.96721   105.45080   386.81342
     7  H   1.0    0.25    1.00    1.43   184.22053   102.58549   386.28696
     8  H   1.0    0.29    0.99    1.43   185.27599   105.09107   384.58851
     9  H   1.0    0.12    0.99    1.43   181.12386   101.97267   383.30263
    10  H   1.0    0.11    0.99    1.43   178.43234   105.51026   381.90128
    11  H   1.0    0.11    0.99    1.43   178.66973   105.53836   385.20631
    12  H   1.0    0.11    0.99    1.43   180.44661   107.72334   383.38482
    13  N   5.0   -0.50    3.00    1.93   182.30787   103.73736   378.75824
    14  C   4.0    0.08    3.99    3.61   183.63333   103.72344   376.36685
    15  C   4.0    0.27    3.01    3.02   182.31570   105.35892   374.38527
    16  O   6.0   -0.46    1.00    1.80   182.56493   104.95041   372.12023
    17  C   4.0   -0.13    3.98    3.58   184.06893   101.01622   375.39602
    18  C   4.0   -0.11    3.98    3.59   181.75888    99.65768   374.28310
    19  C   4.0    0.28    2.99    3.02   179.71387    98.79466   376.09922
    20  O   6.0   -0.44    1.00    1.80   179.14049    99.90776   378.05705
    21  N   5.0   -0.65    3.01    1.93   178.48114    96.71573   375.38168
    22  H   1.0    0.29    1.00    1.43   180.76493   102.53155   378.78934
    23  H   1.0    0.14    0.99    1.43   185.49548   104.58709   376.69854
    24  H   1.0    0.12    0.99    1.43   185.47451   101.14012   373.89304
    25  H   1.0    0.13    0.99    1.43   184.87210    99.90019   376.93131
    26  H   1.0    0.13    0.99    1.43   180.84874   100.90259   372.90888
    27  H   1.0    0.10    0.99    1.43   182.44807    98.00879   373.25987
    28  H   1.0    0.26    1.00    1.43   178.87843    95.79174   373.76889
    29  H   1.0    0.29    1.00    1.43   177.03338    96.08637   376.45019
    30  N   5.0   -0.49    3.01    1.93   180.98403   107.31502   375.27830
    31  C   4.0    0.07    4.00    3.61   179.59733   109.02372   373.62739
    32  C   4.0    0.29    3.01    3.02   181.30155   109.77165   371.41823
    33  O   6.0   -0.47    1.00    1.80   180.54669   109.80176   369.22424
    34  C   4.0   -0.10    3.98    3.58   178.66614   111.38413   375.06427
    35  C   4.0   -0.23    3.98    3.59   177.31873   113.16795   373.23414
    36  C   4.0   -0.22    3.98    3.59   176.87637   110.66464   377.21418
    37  H   1.0    0.24    1.00    1.43   180.74286   107.50392   377.16288
    38  H   1.0    0.12    0.99    1.43   177.96070   108.03952   372.81516
    39  H   1.0    0.11    0.99    1.43   180.30521   112.37138   375.85015
    40  H   1.0    0.10    0.99    1.43   176.72378   114.86809   374.22098
    41  H   1.0    0.11    0.99    1.43   178.54687   113.72349   371.68301
    42  H   1.0    0.10    0.99    1.43   175.64895   112.27042   372.44109
    43  H   1.0    0.11    0.99    1.43   176.07898   112.37499   378.02428
    44  H   1.0    0.11    0.99    1.43   175.32831   109.51089   376.51384
    45  H   1.0    0.10    0.99    1.43   177.83634   109.65332   378.71988
    46  N   5.0   -0.48    3.01    1.93   183.65825   110.37285   372.08161
    47  C   4.0    0.07    3.99    3.61   185.63981   110.99313   370.29903
    48  C   4.0    0.30    3.01    3.02   185.16580   109.66189   367.78212
    49  O   6.0   -0.48    1.00    1.80   185.26931   110.80783   365.76589
    50  C   4.0   -0.08    3.98    3.59   188.31119   110.16416   371.18571
    51  C   4.0   -0.16    3.98    3.58   188.75970   110.59030   374.01574
    52  C   4.0   -0.22    3.98    3.59   190.24283   111.60801   369.59348
    53  C   4.0   -0.22    3.98    3.59   191.40117   109.75006   374.81384
    54  H   1.0    0.23    1.00    1.43   184.10579   110.51897   373.93159
    55  H   1.0    0.11    0.99    1.43   185.64971   113.03985   369.95586
    56  H   1.0    0.15    0.99    1.43   188.53623   108.14400   370.80092
    57  H   1.0    0.11    0.99    1.43   188.49524   112.58303   374.47809
    58  H   1.0    0.12    0.99    1.43   187.41939   109.46235   375.10706
    59  H   1.0    0.11    0.99    1.43   192.10113   110.76120   369.77088
    60  H   1.0    0.12    0.99    1.43   189.71990   111.56298   367.60703
    61  H   1.0    0.10    0.99    1.43   190.34756   113.57235   370.19038
    62  H   1.0    0.11    0.99    1.43   191.54841   109.74563   376.86203
    63  H   1.0    0.12    0.99    1.43   191.77447   107.85016   374.12427
    64  H   1.0    0.11    0.99    1.43   192.84589   111.00418   374.07407
    65  N   5.0   -0.46    3.01    1.93   184.85432   107.16893   367.95932
    66  C   4.0    0.08    3.99    3.61   184.94998   105.46216   365.83879
    67  C   4.0    0.28    3.01    3.02   182.65372   105.64311   364.09050
    68  O   6.0   -0.47    1.00    1.80   182.86894   105.20830   361.82620
    69  C   4.0   -0.10    3.99    3.60   185.20328   102.74482   366.79815
    70  C   4.0    0.27    3.00    3.02   187.67649   102.36811   368.24301
    71  O   6.0   -0.41    1.00    1.80   189.03418   104.11107   368.89196
    72  N   5.0   -0.66    3.00    1.93   188.17366    99.95313   368.82847
    73  H   1.0    0.31    1.00    1.43   184.55968   106.36195   369.67558
    74  H   1.0    0.13    0.99    1.43   186.61148   105.93578   364.69160
    75  H   1.0    0.13    0.99    1.43   183.63306   102.33278   368.07195
    76  H   1.0    0.11    0.99    1.43   185.12755   101.45651   365.19233
    77  H   1.0    0.28    1.00    1.43   189.82402    99.54496   369.69007
    78  H   1.0    0.26    1.00    1.43   187.13726    98.52001   368.13289
    79  N   5.0   -0.49    3.00    1.93   180.43749   106.15870   365.19711
    80  C   4.0    0.10    4.00    3.62   178.20280   106.49166   363.64752
    81  C   4.0    0.30    3.02    3.02   178.36913   108.98306   362.18963
    82  O   6.0   -0.43    1.00    1.80   177.85904   109.14635   359.94264
    83  C   4.0    0.03    3.97    3.58   175.74613   106.18078   365.19149
    84  O   6.0   -0.48    1.99    1.82   173.84832   105.55968   363.42089
    85  C   4.0   -0.21    3.98    3.58   175.03591   108.50166   366.74792
    86  H   1.0    0.29    1.00    1.43   180.41703   106.86007   366.98394
    87  H   1.0    0.15    0.99    1.43   178.19561   104.99584   362.21015
    88  H   1.0    0.12    0.99    1.43   176.05547   104.55292   366.45766
    89  H   1.0    0.26    0.99    1.43   172.22664   105.56042   364.25924
    90  H   1.0    0.10    0.99    1.43   173.40763   108.06738   367.92471
    91  H   1.0    0.13    0.99    1.43   176.59036   109.08006   367.95473
    92  H   1.0    0.13    0.99    1.43   174.54076   110.05646   365.49898
    93  N   5.0   -0.49    3.01    1.93   179.22468   110.97307   363.51416
    94  C   4.0    0.09    4.01    3.64   179.69467   113.29744   362.14981
    95  C   4.0    0.31    3.02    3.02   181.71238   112.83037   360.12691
    96  O   6.0   -0.45    1.00    1.80   181.53365   113.72561   357.99884
    97  C   4.0   -0.11    3.99    3.60   180.51510   115.46339   363.87202
    98  C   4.0    0.26    3.00    3.02   180.34785   117.88674   362.31026
    99  O   6.0   -0.43    1.00    1.80   178.32288   118.79007   361.68884
   100  N   5.0   -0.66    3.00    1.93   182.56470   118.92837   361.66723
   101  H   1.0    0.28    1.00    1.43   179.71393   110.84385   365.35825
   102  H   1.0    0.15    0.99    1.43   177.95730   113.84252   361.15047
   103  H   1.0    0.10    0.99    1.43   179.18563   115.61016   365.44013
   104  H   1.0    0.12    0.99    1.43   182.41564   115.13594   364.59120
   105  H   1.0    0.27    1.00    1.43   182.55385   120.44535   360.51443
   106  H   1.0    0.25    1.00    1.43   184.23585   118.12034   362.07171
   107  N   5.0   -0.48    3.01    1.93   183.65173   111.40388   360.87556
   108  C   4.0    0.10    4.00    3.61   185.66906   110.79637   359.14009
   109  C   4.0    0.31    3.01    3.02   184.58540   109.58688   356.75201
   110  O   6.0   -0.44    1.00    1.80   185.24098   110.33137   354.66620
   111  C   4.0   -0.02    3.98    3.58   187.64240   109.07294   360.36323
   112  O   6.0   -0.49    1.99    1.83   189.78661   109.07458   358.79702
   113  H   1.0    0.30    1.00    1.43   183.93402   110.97503   362.73604
   114  H   1.0    0.13    0.99    1.43   186.64105   112.52511   358.51870
   115  H   1.0    0.13    0.99    1.43   188.08729   109.83620   362.24115
   116  H   1.0    0.13    0.99    1.43   186.85540   107.16236   360.55334
   117  H   1.0    0.26    0.99    1.43   191.12874   108.13477   359.59892
   118  N   5.0   -0.47    3.01    1.93   182.89747   107.74717   357.07863
   119  C   4.0    0.07    3.99    3.61   181.72558   106.50944   354.91771
   120  C   4.0    0.29    3.01    3.02   180.87820   108.52393   353.03008
   121  O   6.0   -0.45    1.00    1.80   181.50969   108.47896   350.80182
   122  C   4.0   -0.14    3.98    3.59   179.58198   104.82541   355.89077
   123  C   4.0   -0.10    3.97    3.58   178.05432   103.38717   353.88364
   124  C   4.0   -0.21    3.98    3.59   176.13028   105.07208   352.54583
   125  C   4.0   -0.22    3.98    3.59   179.75068   102.07485   351.95265
   126  H   1.0    0.30    1.00    1.43   182.55874   106.99392   358.81063
   127  H   1.0    0.11    0.99    1.43   183.14981   105.36109   353.93832
   128  H   1.0    0.12    0.99    1.43   180.46346   103.45035   357.15368
   129  H   1.0    0.15    0.99    1.43   178.29689   105.98628   357.01142
   130  H   1.0    0.11    0.99    1.43   176.99417   101.93358   354.90883
   131  H   1.0    0.11    0.99    1.43   174.88170   103.92513   351.38504
   132  H   1.0    0.12    0.99    1.43   174.99004   106.10092   353.91078
   133  H   1.0    0.13    0.99    1.43   177.06699   106.42272   351.31551
   134  H   1.0    0.11    0.99    1.43   178.62803   100.84800   350.74711
   135  H   1.0    0.12    0.99    1.43   180.67804   103.46077   350.75118
   136  H   1.0    0.10    0.99    1.43   181.18063   100.93349   352.88700
   137  N   5.0   -0.49    3.01    1.93   179.39796   110.34646   353.97530
   138  C   4.0    0.10    4.00    3.61   178.57011   112.40906   352.37962
   139  C   4.0    0.32    3.02    3.02   180.84369   113.69015   351.12311
   140  O   6.0   -0.46    1.00    1.80   180.95569   114.06467   348.83252
   141  C   4.0   -0.02    3.98    3.58   177.05527   114.32916   353.92473
   142  O   6.0   -0.48    1.99    1.82   176.40700   116.34589   352.31618
   143  H   1.0    0.28    1.00    1.43   178.92481   110.35111   355.82563
   144  H   1.0    0.13    0.99    1.43   177.38002   111.68438   350.83977
   145  H   1.0    0.11    0.99    1.43   175.36515   113.37749   354.66190
   146  H   1.0    0.15    0.99    1.43   178.21226   114.98414   355.51693
   147  H   1.0    0.26    0.99    1.43   175.28644   117.48644   353.19470
   148  N   5.0   -0.47    3.01    1.93   182.68872   114.37478   352.68217
   149  C   4.0    0.08    4.00    3.62   184.89852   115.64135   351.70190
   150  C   4.0    0.29    3.01    3.02   186.36489   114.05241   349.78165
   151  O   6.0   -0.46    1.00    1.80   187.77504   115.10883   348.25724
   152  C   4.0   -0.13    3.99    3.60   186.68002   116.48513   353.80933
   153  C   4.0   -0.10    3.98    3.58   185.54136   118.45868   355.60658
   154  C   4.0   -0.22    3.98    3.59   187.59570   119.33251   357.43987
   155  C   4.0   -0.22    3.98    3.59   184.48053   120.71491   354.15047
   156  H   1.0    0.30    1.00    1.43   182.55706   114.06159   354.56900
   157  H   1.0    0.12    0.99    1.43   184.25574   117.30038   350.63603
   158  H   1.0    0.13    0.99    1.43   187.26442   114.81074   354.86072
   159  H   1.0    0.12    0.99    1.43   188.34809   117.28730   352.89764
   160  H   1.0    0.14    0.99    1.43   184.00324   117.58338   356.67720
   161  H   1.0    0.10    0.99    1.43   186.85775   120.75797   358.71914
   162  H   1.0    0.11    0.99    1.43   188.32732   117.75509   358.53339
   163  H   1.0    0.11    0.99    1.43   189.15305   120.16586   356.39310
   164  H   1.0    0.10    0.99    1.43   184.16828   122.31787   355.39559
   165  H   1.0    0.10    0.99    1.43   185.81140   121.31226   352.70257
   166  H   1.0    0.11    0.99    1.43   182.69025   120.24062   353.26102
   167  N   5.0   -0.47    3.01    1.93   186.06418   111.56594   349.82668
   168  C   4.0    0.08    4.00    3.62   187.30045   109.97106   347.99428
   169  C   4.0    0.28    3.02    3.02   186.08358   110.31685   345.40466
   170  O   6.0   -0.47    1.00    1.80   187.36074   110.21446   343.46743
   171  C   4.0   -0.14    3.99    3.60   187.27402   107.20491   348.81808
   172  C   4.0   -0.09    3.98    3.58   188.90041   106.68549   351.16447
   173  C   4.0   -0.22    3.98    3.59   188.64609   103.90024   351.87740
   174  C   4.0   -0.22    3.98    3.59   191.67399   107.34239   350.71118
   175  H   1.0    0.32    1.00    1.43   185.02544   110.73140   351.19896
   176  H   1.0    0.13    0.99    1.43   189.25641   110.62069   347.76442
   177  H   1.0    0.14    0.99    1.43   185.31660   106.68154   349.20187
   178  H   1.0    0.11    0.99    1.43   187.96067   106.05909   347.24647
   179  H   1.0    0.16    0.99    1.43   188.20007   107.84554   352.72446
   180  H   1.0    0.11    0.99    1.43   189.66465   103.51138   353.61655
   181  H   1.0    0.10    0.99    1.43   186.67211   103.39737   352.14778
   182  H   1.0    0.11    0.99    1.43   189.41318   102.71320   350.38599
   183  H   1.0    0.11    0.99    1.43   192.81964   106.67567   352.27816
   184  H   1.0    0.11    0.99    1.43   192.34774   106.45891   348.98150
   185  H   1.0    0.11    0.99    1.43   191.92344   109.37611   350.57103
   186  N   5.0   -0.48    3.01    1.93   183.60085   110.77377   345.36408
   187  C   4.0    0.11    4.00    3.62   182.44891   111.51558   342.99959
   188  C   4.0    0.29    3.02    3.02   183.48104   114.10757   342.21900
   189  O   6.0   -0.46    1.00    1.80   184.12997   114.52399   340.03037
   190  C   4.0    0.04    3.97    3.58   179.54330   111.30356   343.01307
   191  O   6.0   -0.48    1.99    1.83   178.90452   110.32203   340.61329
   192  C   4.0   -0.20    3.98    3.58   178.18379   113.78180   343.56090
   193  H   1.0    0.30    1.00    1.43   182.60560   110.96377   346.98906
   194  H   1.0    0.16    0.99    1.43   183.09254   110.18887   341.53633
   195  H   1.0    0.13    0.99    1.43   179.05351   109.90681   344.48201
   196  H   1.0    0.26    0.99    1.43   177.10383   110.47192   340.35733
   197  H   1.0    0.11    0.99    1.43   176.15132   113.48427   343.50116
   198  H   1.0    0.14    0.99    1.43   178.68758   114.45463   345.43050
   199  H   1.0    0.13    0.99    1.43   178.68769   115.19789   342.15903
   200  N   5.0   -0.48    3.00    1.93   183.78749   115.80354   344.06610
   201  C   4.0    0.09    4.00    3.62   185.03775   118.16617   343.47958
   202  C   4.0    0.29    3.01    3.02   187.64588   117.68556   342.30776
   203  O   6.0   -0.41    1.00    1.80   188.51663   119.18145   340.76727
   204  C   4.0   -0.14    3.99    3.60   185.33256   119.85807   345.80019
   205  C   4.0   -0.12    3.98    3.59   182.80348   120.99042   346.66805
   206  C   4.0    0.28    3.00    3.02   182.07527   123.09833   344.85892
   207  O   6.0   -0.40    1.00    1.80   181.15633   122.70995   342.78026
   208  N   5.0   -0.65    3.00    1.93   182.58274   125.44014   345.70760
   209  H   1.0    0.28    1.00    1.43   183.14335   115.44471   345.83236
   210  H   1.0    0.15    0.99    1.43   183.93372   119.17882   342.03853
   211  H   1.0    0.14    0.99    1.43   186.20596   118.74886   347.29938
   212  H   1.0    0.13    0.99    1.43   186.62704   121.38178   345.29221
   213  H   1.0    0.13    0.99    1.43   181.33918   119.54043   346.64241
   214  H   1.0    0.10    0.99    1.43   182.98633   121.73294   348.57907
   215  H   1.0    0.26    1.00    1.43   183.43995   125.73578   347.37591
   216  H   1.0    0.29    1.00    1.43   182.32624   126.93925   344.56035
   217  N   5.0   -0.46    3.00    1.93   188.89243   115.64422   343.13058
   218  C   4.0    0.10    4.00    3.62   191.47411   115.21184   342.32683
   219  C   4.0    0.29    3.01    3.02   191.60363   113.96918   339.71422
   220  O   6.0   -0.36    1.00    1.80   193.52910   114.02206   338.45277
   221  C   4.0   -0.09    3.99    3.60   193.00630   113.71538   344.25605
   222  C   4.0    0.29    3.00    3.02   194.07039   115.42604   346.31756
   223  O   6.0   -0.37    1.00    1.80   194.28733   117.70899   346.06564
   224  N   5.0   -0.64    3.00    1.93   194.83156   114.19996   348.39459
   225  H   1.0    0.31    1.00    1.43   188.28708   114.88221   344.78906
   226  H   1.0    0.17    0.99    1.43   192.37850   117.06883   342.09789
   227  H   1.0    0.12    0.99    1.43   191.85015   112.21875   345.06452
   228  H   1.0    0.13    0.99    1.43   194.61767   112.86061   343.28626
   229  H   1.0    0.29    1.00    1.43   195.62859   115.18150   349.81871
   230  H   1.0    0.25    1.00    1.43   194.75327   112.30536   348.52616
   231  N   5.0   -0.46    3.01    1.93   189.48075   112.80435   338.97439
   232  C   4.0    0.09    3.99    3.61   189.09028   111.97964   336.39370
   233  C   4.0    0.28    3.02    3.02   188.75189   114.33207   334.73342
   234  O   6.0   -0.35    1.00    1.80   189.97551   114.61160   332.78126
   235  C   4.0   -0.10    3.98    3.59   186.83794   110.17837   336.16686
   236  C   4.0    0.29    3.00    3.02   187.62236   107.46076   336.74389
   237  O   6.0   -0.36    1.00    1.80   187.80912   105.87734   335.07401
   238  N   5.0   -0.64    3.00    1.93   188.15487   106.96174   339.16346
   239  H   1.0    0.30    1.00    1.43   187.96345   112.77877   340.13761
   240  H   1.0    0.17    0.99    1.43   190.81165   111.03727   335.72465
   241  H   1.0    0.13    0.99    1.43   185.32046   110.79608   337.41637
   242  H   1.0    0.13    0.99    1.43   186.14546   110.20360   334.22568
   243  H   1.0    0.30    1.00    1.43   188.69396   105.19073   339.60896
   244  H   1.0    0.32    1.00    1.43   187.93798   108.23996   340.56982
   245  N   5.0   -0.48    3.01    1.93   187.22451   116.12417   335.62077
   246  C   4.0    0.08    4.00    3.61   187.14235   118.54050   334.32493
   247  C   4.0    0.12    3.00    3.02   189.81139   119.64046   334.19940
   248  O   6.0   -0.35    1.00    1.80   190.61748   120.61578   332.25530
   249  C   4.0   -0.13    3.98    3.59   185.31592   120.38953   335.58471
   250  C   4.0   -0.10    3.98    3.58   182.63798   120.35471   334.46837
   251  C   4.0   -0.21    3.98    3.59   182.60136   121.45891   331.80035
   252  C   4.0   -0.20    3.98    3.59   181.48187   117.71077   334.49250
   253  H   1.0    0.29    1.00    1.43   186.09785   115.83952   337.14399
   254  H   1.0    0.14    0.99    1.43   186.58735   118.22801   332.35175
   255  H   1.0    0.14    0.99    1.43   185.24134   119.96620   337.59945
   256  H   1.0    0.13    0.99    1.43   186.07401   122.29649   335.39188
   257  H   1.0    0.12    0.99    1.43   181.49035   121.57608   335.68190
   258  H   1.0    0.12    0.99    1.43   180.66867   121.64481   331.13166
   259  H   1.0    0.12    0.99    1.43   183.47719   123.31833   331.76587
   260  H   1.0    0.12    0.99    1.43   183.61301   120.25139   330.48117
   261  H   1.0    0.11    0.99    1.43   179.51767   117.80276   333.89859
   262  H   1.0    0.12    0.99    1.43   182.47362   116.45438   333.20459
   263  H   1.0    0.13    0.99    1.43   181.55111   116.90132   336.37887
   264  N   5.0   -0.53    3.02    1.93   175.56196   129.54899   358.97178
   265  C   4.0    0.06    4.01    3.64   175.43092   127.36981   360.65154
   266  C   4.0    0.08    3.00    3.02   177.44513   127.47695   362.70403
   267  O   6.0   -0.46    1.00    1.80   176.94886   126.83702   364.87760
   268  C   4.0   -0.13    4.01    3.63   175.72838   125.05054   358.93536
   269  C   4.0   -0.14    4.01    3.64   176.90711   126.13299   356.53545
   270  C   4.0   -0.04    4.02    3.65   175.70211   128.74453   356.35633
   271  H   1.0    0.12    0.99    1.43   173.60982   127.36266   361.63746
   272  H   1.0    0.13    0.99    1.43   176.86874   123.58714   359.82281
   273  H   1.0    0.11    0.99    1.43   173.87201   124.25923   358.52869
   274  H   1.0    0.11    0.99    1.43   178.94552   126.33724   356.73757
   275  H   1.0    0.10    0.99    1.43   176.50964   124.99081   354.87755
   276  H   1.0    0.12    0.99    1.43   176.82337   130.03792   355.23045
   277  H   1.0    0.10    0.99    1.43   173.79001   128.61094   355.57568
   278  N   5.0   -0.70    3.00    1.93   174.58036   126.34311   369.97964
   279  C   4.0    0.07    3.98    3.58   175.19196   124.29750   371.68659
   280  C   4.0    0.08    3.00    3.02   175.17315   125.13099   374.45302
   281  O   6.0   -0.40    1.00    1.80   174.41607   123.72725   376.12673
   282  C   4.0   -0.13    3.99    3.60   177.81880   123.23568   371.11393
   283  C   4.0   -0.09    3.98    3.58   178.06358   121.97708   368.51572
   284  C   4.0   -0.22    3.99    3.60   180.84272   121.34162   368.06896
   285  C   4.0   -0.22    3.98    3.59   176.42203   119.62024   368.26418
   286  H   1.0    0.31    1.00    1.43   175.59708   126.50624   368.36689
   287  H   1.0    0.12    0.99    1.43   173.75581   122.80620   371.53229
   288  H   1.0    0.12    0.99    1.43   179.16799   124.79562   371.22294
   289  H   1.0    0.11    0.99    1.43   178.28816   121.86967   372.58767
   290  H   1.0    0.15    0.99    1.43   177.48258   123.32507   367.06462
   291  H   1.0    0.13    0.99    1.43   181.08810   120.55565   366.19048
   292  H   1.0    0.11    0.99    1.43   181.98315   123.04258   368.23984
   293  H   1.0    0.10    0.99    1.43   181.50123   119.97348   369.45367
   294  H   1.0    0.12    0.99    1.43   176.52596   118.91178   366.33872
   295  H   1.0    0.10    0.99    1.43   177.04502   118.15572   369.56565
   296  H   1.0    0.11    0.99    1.43   174.45247   120.04078   368.66235
   297  H   1.0    0.17    1.00    1.43   190.93366   119.57273   335.71828
   298  H   1.0    0.27    1.00    1.43   174.09116   130.40091   359.03127
   299  H   1.0    0.14    1.00    1.43   179.18923   128.07239   362.28613
   300  H   1.0    0.31    1.00    1.43   172.96554   126.19182   369.46776
   301  H   1.0    0.15    1.00    1.43   175.78799   126.85450   374.92477

           ------------------------------------------------- 
          |        Self-Consistent Charge Iterations        |
           ------------------------------------------------- 

          ...................................................
          :                      SETUP                      :
          :.................................................:
          :  # basis functions                 730          :
          :  # atomic orbitals                 730          :
          :  # shells                          444          :
          :  # electrons                       812          :
          :  max. iterations                   250          :
          :  Hamiltonian                  GFN2-xTB          :
          :  restarted?                      false          :
          :  GBSA solvation                   true          :
          :  PC potential                    false          :
          :  electronic temp.          500.0000000     K    :
          :  accuracy                    0.1000000          :
          :  -> integral cutoff          0.3500000E+02      :
          :  -> integral neglect         0.1000000E-08      :
          :  -> SCF convergence          0.1000000E-06 Eh   :
          :  -> wf. convergence          0.1000000E-04 e    :
          :  Broyden damping             0.4000000          :
          ...................................................

 iter      E             dE          RMSdq      gap      omega  full diag
   1   -466.3922999 -0.466392E+03  0.419E+00    1.73       0.0  T
   2   -467.7260631 -0.133376E+01  0.217E+00    1.69       1.0  T
   3   -467.7625119 -0.364488E-01  0.115E+00    2.22       1.0  T
   4   -467.7685397 -0.602781E-02  0.218E-01    1.83       1.0  T
   5   -467.7763763 -0.783660E-02  0.930E-02    1.99       1.0  T
   6   -467.7766846 -0.308325E-03  0.420E-02    1.95       1.0  T
   7   -467.7767082 -0.236050E-04  0.119E-02    1.96       1.0  T
   8   -467.7767173 -0.909973E-05  0.519E-03    1.96       1.1  T
   9   -467.7767184 -0.107876E-05  0.214E-03    1.96       2.7  T
  10   -467.7767185 -0.141476E-06  0.835E-04    1.96       6.9  T
  11   -467.7767186 -0.368165E-07  0.295E-04    1.96      19.5  T
  12   -467.7767186 -0.504167E-08  0.110E-04    1.96      52.2  T
  13   -467.7767186 -0.462819E-09  0.554E-05    1.96     104.0  T
  14   -467.7767186 -0.131251E-09  0.224E-05    1.96     257.8  T

   *** convergence criteria satisfied after 14 iterations ***

         #    Occupation            Energy/Eh            Energy/eV
      -------------------------------------------------------------
         1        2.0000           -0.7456525             -20.2902
       ...           ...                  ...                  ...
       400        2.0000           -0.4025789             -10.9547
       401        2.0000           -0.3974752             -10.8159
       402        2.0000           -0.3967388             -10.7958
       403        2.0000           -0.3955160             -10.7625
       404        2.0000           -0.3886083             -10.5746
       405        2.0000           -0.3619696              -9.8497
       406        2.0000           -0.3597435              -9.7891 (HOMO)
       407                         -0.2877881              -7.8311 (LUMO)
       408                         -0.2803601              -7.6290
       409                         -0.2790484              -7.5933
       410                         -0.2585530              -7.0356
       411                         -0.2540735              -6.9137
       ...                                ...                  ...
       730                          0.6252681              17.0144
      -------------------------------------------------------------
                  HL-Gap            0.0719553 Eh            1.9580 eV
             Fermi-level           -0.3236032 Eh           -8.8057 eV

 SCC (total)                   0 d,  0 h,  0 min,  3.925 sec
 SCC setup                      ...        0 min,  0.041 sec (  1.034%)
 Dispersion                     ...        0 min,  0.024 sec (  0.621%)
 integral evaluation            ...        0 min,  0.119 sec (  3.028%)
 zeroth order Hamiltonian       ...        0 min,  0.003 sec (  0.067%)
 iterations                     ...        0 min,  3.103 sec ( 79.040%)
 molecular gradient             ...        0 min,  0.602 sec ( 15.349%)
 printout                       ...        0 min,  0.034 sec (  0.859%)

         :::::::::::::::::::::::::::::::::::::::::::::::::::::
         ::                     SUMMARY                     ::
         :::::::::::::::::::::::::::::::::::::::::::::::::::::
         :: total energy             -462.381244165390 Eh   ::
         :: total w/o Gsasa/hb       -462.314088963870 Eh   ::
         :: gradient norm               0.336018869943 Eh/α ::
         :: HOMO-LUMO gap               1.958004289112 eV   ::
         ::.................................................::
         :: SCC energy               -467.790374006364 Eh   ::
         :: -> isotropic ES             1.382424662704 Eh   ::
         :: -> anisotropic ES          -0.037273195206 Eh   ::
         :: -> anisotropic XC           0.129796786143 Eh   ::
         :: -> dispersion              -0.388925758938 Eh   ::
         :: -> Gsolv                   -0.322206920369 Eh   ::
         ::    -> Gborn                -0.255051718849 Eh   ::
         ::    -> Gsasa                -0.015512888323 Eh   ::
         ::    -> Ghb                  -0.053499756324 Eh   ::
         ::    -> Gshift                0.001857443127 Eh   ::
         :: repulsion energy            5.378327054730 Eh   ::
         :: add. restraining            0.000000000000 Eh   ::
         :::::::::::::::::::::::::::::::::::::::::::::::::::::

           -------------------------------------------------
          |                Property Printout                |
           -------------------------------------------------

    * Orbital Energies and Occupations

         #    Occupation            Energy/Eh            Energy/eV
      -------------------------------------------------------------
         1        2.0000           -0.7456525             -20.2902
       ...           ...                  ...                  ...
       394        2.0000           -0.4093074             -11.1378
       395        2.0000           -0.4083823             -11.1126
       396        2.0000           -0.4072534             -11.0819
       397        2.0000           -0.4069222             -11.0729
       398        2.0000           -0.4057340             -11.0406
       399        2.0000           -0.4043059             -11.0017
       400        2.0000           -0.4025789             -10.9547
       401        2.0000           -0.3974752             -10.8159
       402        2.0000           -0.3967388             -10.7958
       403        2.0000           -0.3955160             -10.7625
       404        2.0000           -0.3886083             -10.5746
       405        2.0000           -0.3619696              -9.8497
       406        2.0000           -0.3597435              -9.7891 (HOMO)
       407                         -0.2877881              -7.8311 (LUMO)
       408                         -0.2803601              -7.6290
       409                         -0.2790484              -7.5933
       410                         -0.2585530              -7.0356
       411                         -0.2540735              -6.9137
       412                         -0.2503888              -6.8134
       413                         -0.2493770              -6.7859
       414                         -0.2486416              -6.7659
       415                         -0.2455537              -6.6819
       416                         -0.2437725              -6.6334
       417                         -0.2416525              -6.5757
       ...                                ...                  ...
       730                          0.6252681              17.0144
      -------------------------------------------------------------
                  HL-Gap            0.0719553 Eh            1.9580 eV
             Fermi-level           -0.3236032 Eh           -8.8057 eV

   #   Z        covCN         q      C6AA      α(0)
   1   7 N      3.486    -0.166    24.582     7.364
   2   6 C      3.782    -0.019    20.937     6.518
   3   6 C      2.759     0.265    22.532     7.773
   4   8 O      0.858    -0.468    23.085     6.442
   5   6 C      3.754    -0.153    23.518     6.915
   6   1 H      0.859     0.301     0.710     1.320
   7   1 H      0.859     0.298     0.719     1.329
   8   1 H      0.856     0.306     0.696     1.307
   9   1 H      0.924     0.128     1.553     1.949
  10   1 H      0.925     0.089     1.893     2.151
  11   1 H      0.925     0.096     1.819     2.109
  12   1 H      0.925     0.083     1.944     2.180
  13   7 N      2.686    -0.196    25.247     7.463
  14   6 C      3.796     0.009    20.432     6.436
  15   6 C      2.753     0.265    22.524     7.772
  16   8 O      0.859    -0.482    23.387     6.484
  17   6 C      3.801    -0.071    21.849     6.655
  18   6 C      3.805    -0.110    22.591     6.766
  19   6 C      2.742     0.285    22.175     7.710
  20   8 O      0.860    -0.479    23.331     6.476
  21   7 N      2.641    -0.278    27.177     7.743
  22   1 H      0.859     0.256     0.860     1.452
  23   1 H      0.923     0.099     1.799     2.097
  24   1 H      0.924     0.075     2.035     2.231
  25   1 H      0.924     0.073     2.049     2.239
  26   1 H      0.924     0.087     1.906     2.159
  27   1 H      0.925     0.078     2.000     2.212
  28   1 H      0.860     0.230     0.967     1.540
  29   1 H      0.860     0.236     0.941     1.520
  30   7 N      2.690    -0.175    24.793     7.395
  31   6 C      3.799     0.007    20.461     6.441
  32   6 C      2.754     0.279    22.270     7.728
  33   8 O      0.858    -0.496    23.704     6.528
  34   6 C      3.851    -0.025    20.985     6.516
  35   6 C      3.757    -0.118    22.819     6.811
  36   6 C      3.756    -0.131    23.068     6.848
  37   1 H      0.860     0.222     1.000     1.567
  38   1 H      0.923     0.086     1.916     2.165
  39   1 H      0.924     0.056     2.241     2.341
  40   1 H      0.925     0.055     2.255     2.348
  41   1 H      0.925     0.034     2.533     2.489
  42   1 H      0.925     0.053     2.278     2.360
  43   1 H      0.925     0.064     2.156     2.296
  44   1 H      0.925     0.059     2.213     2.327
  45   1 H      0.925     0.058     2.225     2.333
  46   7 N      2.690    -0.174    24.760     7.390
  47   6 C      3.797     0.009    20.421     6.435
  48   6 C      2.758     0.285    22.176     7.712
  49   8 O      0.858    -0.503    23.853     6.548
  50   6 C      3.855    -0.033    21.124     6.537
  51   6 C      3.802    -0.065    21.748     6.640
  52   6 C      3.757    -0.118    22.805     6.809
  53   6 C      3.752    -0.116    22.780     6.806
  54   1 H      0.860     0.217     1.024     1.586
  55   1 H      0.923     0.077     2.008     2.216
  56   1 H      0.924     0.066     2.134     2.284
  57   1 H      0.924     0.049     2.328     2.386
  58   1 H      0.924     0.041     2.436     2.441
  59   1 H      0.925     0.057     2.235     2.338
  60   1 H      0.925     0.034     2.532     2.489
  61   1 H      0.925     0.051     2.309     2.376
  62   1 H      0.925     0.051     2.304     2.374
  63   1 H      0.925     0.045     2.378     2.412
  64   1 H      0.925     0.043     2.415     2.430
  65   7 N      2.691    -0.173    24.750     7.389
  66   6 C      3.795     0.027    20.119     6.387
  67   6 C      2.761     0.266    22.512     7.770
  68   8 O      0.858    -0.488    23.527     6.503
  69   6 C      3.812    -0.117    22.721     6.785
  70   6 C      2.743     0.289    22.094     7.696
  71   8 O      0.859    -0.481    23.373     6.482
  72   7 N      2.639    -0.286    27.372     7.770
  73   1 H      0.860     0.236     0.938     1.517
  74   1 H      0.924     0.075     2.028     2.227
  75   1 H      0.924     0.105     1.744     2.065
  76   1 H      0.925     0.088     1.898     2.155
  77   1 H      0.860     0.238     0.933     1.513
  78   1 H      0.860     0.232     0.957     1.532
  79   7 N      2.688    -0.183    24.963     7.420
  80   6 C      3.800     0.010    20.416     6.433
  81   6 C      2.764     0.276    22.325     7.738
  82   8 O      0.859    -0.484    23.436     6.491
  83   6 C      3.723     0.113    18.833     6.197
  84   8 O      1.656    -0.494    22.754     6.439
  85   6 C      3.751    -0.150    23.464     6.908
  86   1 H      0.860     0.230     0.965     1.539
  87   1 H      0.924     0.097     1.812     2.105
  88   1 H      0.923     0.047     2.356     2.401
  89   1 H      0.805     0.348     0.593     1.210
  90   1 H      0.925     0.069     2.098     2.265
  91   1 H      0.925     0.077     2.014     2.219
  92   1 H      0.925     0.052     2.299     2.371
  93   7 N      2.690    -0.186    25.029     7.430
  94   6 C      3.812     0.029    20.071     6.377
  95   6 C      2.762     0.275    22.355     7.743
  96   8 O      0.858    -0.491    23.588     6.512
  97   6 C      3.809    -0.112    22.631     6.772
  98   6 C      2.748     0.291    22.062     7.691
  99   8 O      0.859    -0.481    23.358     6.480
 100   7 N      2.638    -0.272    27.041     7.723
 101   1 H      0.860     0.228     0.972     1.544
 102   1 H      0.923     0.082     1.959     2.189
 103   1 H      0.924     0.101     1.779     2.086
 104   1 H      0.925     0.078     2.000     2.212
 105   1 H      0.860     0.224     0.992     1.560
 106   1 H      0.860     0.223     0.997     1.564
 107   7 N      2.690    -0.200    25.353     7.478
 108   6 C      3.800     0.025    20.163     6.393
 109   6 C      2.759     0.280    22.253     7.725
 110   8 O      0.859    -0.481    23.359     6.480
 111   6 C      3.677     0.073    19.570     6.337
 112   8 O      1.656    -0.482    22.503     6.404
 113   1 H      0.860     0.239     0.926     1.507
 114   1 H      0.923     0.078     1.998     2.211
 115   1 H      0.923     0.054     2.275     2.359
 116   1 H      0.923     0.043     2.415     2.430
 117   1 H      0.805     0.357     0.572     1.188
 118   7 N      2.692    -0.188    25.076     7.437
 119   6 C      3.797     0.026    20.135     6.389
 120   6 C      2.759     0.290    22.085     7.696
 121   8 O      0.859    -0.496    23.701     6.527
 122   6 C      3.806    -0.085    22.116     6.695
 123   6 C      3.848    -0.015    20.807     6.488
 124   6 C      3.755    -0.117    22.796     6.808
 125   6 C      3.755    -0.118    22.822     6.812
 126   1 H      0.860     0.227     0.977     1.549
 127   1 H      0.923     0.071     2.079     2.255
 128   1 H      0.924     0.065     2.139     2.287
 129   1 H      0.924     0.068     2.103     2.268
 130   1 H      0.924     0.051     2.312     2.378
 131   1 H      0.925     0.048     2.351     2.398
 132   1 H      0.925     0.041     2.436     2.441
 133   1 H      0.925     0.028     2.614     2.528
 134   1 H      0.925     0.047     2.363     2.404
 135   1 H      0.925     0.037     2.494     2.470
 136   1 H      0.925     0.045     2.387     2.416
 137   7 N      2.691    -0.181    24.915     7.413
 138   6 C      3.799     0.025    20.159     6.393
 139   6 C      2.762     0.282    22.220     7.720
 140   8 O      0.859    -0.505    23.897     6.554
 141   6 C      3.678     0.071    19.600     6.342
 142   8 O      1.656    -0.487    22.606     6.418
 143   1 H      0.860     0.212     1.048     1.603
 144   1 H      0.923     0.075     2.037     2.232
 145   1 H      0.923     0.046     2.370     2.408
 146   1 H      0.924     0.054     2.272     2.357
 147   1 H      0.805     0.358     0.570     1.186
 148   7 N      2.689    -0.173    24.735     7.386
 149   6 C      3.802     0.025    20.158     6.392
 150   6 C      2.761     0.268    22.468     7.762
 151   8 O      0.859    -0.514    24.095     6.581
 152   6 C      3.811    -0.075    21.916     6.664
 153   6 C      3.849    -0.018    20.865     6.497
 154   6 C      3.758    -0.125    22.955     6.831
 155   6 C      3.755    -0.123    22.921     6.826
 156   1 H      0.860     0.234     0.949     1.526
 157   1 H      0.924     0.075     2.034     2.230
 158   1 H      0.924     0.057     2.232     2.337
 159   1 H      0.924     0.062     2.176     2.307
 160   1 H      0.924     0.042     2.425     2.435
 161   1 H      0.925     0.055     2.263     2.353
 162   1 H      0.925     0.042     2.424     2.434
 163   1 H      0.925     0.051     2.306     2.374
 164   1 H      0.925     0.056     2.249     2.345
 165   1 H      0.925     0.042     2.423     2.434
 166   1 H      0.925     0.037     2.492     2.469
 167   7 N      2.690    -0.176    24.811     7.398
 168   6 C      3.801     0.024    20.164     6.393
 169   6 C      2.766     0.266    22.506     7.769
 170   8 O      0.859    -0.497    23.708     6.528
 171   6 C      3.810    -0.078    21.987     6.675
 172   6 C      3.849    -0.015    20.816     6.490
 173   6 C      3.758    -0.117    22.797     6.807
 174   6 C      3.755    -0.123    22.905     6.824
 175   1 H      0.860     0.239     0.927     1.508
 176   1 H      0.924     0.074     2.047     2.237
 177   1 H      0.924     0.063     2.167     2.302
 178   1 H      0.924     0.059     2.209     2.324
 179   1 H      0.924     0.049     2.329     2.386
 180   1 H      0.925     0.052     2.295     2.369
 181   1 H      0.925     0.034     2.526     2.485
 182   1 H      0.925     0.047     2.353     2.399
 183   1 H      0.925     0.058     2.220     2.330
 184   1 H      0.925     0.044     2.396     2.421
 185   1 H      0.925     0.031     2.569     2.507
 186   7 N      2.689    -0.180    24.906     7.412
 187   6 C      3.803     0.016    20.303     6.415
 188   6 C      2.763     0.274    22.372     7.746
 189   8 O      0.859    -0.495    23.664     6.522
 190   6 C      3.723     0.117    18.777     6.188
 191   8 O      1.656    -0.491    22.693     6.431
 192   6 C      3.751    -0.144    23.330     6.888
 193   1 H      0.860     0.222     1.001     1.567
 194   1 H      0.923     0.092     1.860     2.133
 195   1 H      0.923     0.040     2.450     2.448
 196   1 H      0.805     0.348     0.593     1.209
 197   1 H      0.925     0.067     2.123     2.279
 198   1 H      0.925     0.076     2.021     2.223
 199   1 H      0.925     0.047     2.353     2.399
 200   7 N      2.688    -0.179    24.870     7.407
 201   6 C      3.803     0.029    20.089     6.381
 202   6 C      2.761     0.277    22.311     7.735
 203   8 O      0.858    -0.499    23.763     6.536
 204   6 C      3.809    -0.070    21.834     6.651
 205   6 C      3.806    -0.103    22.460     6.747
 206   6 C      2.746     0.291    22.070     7.692
 207   8 O      0.859    -0.501    23.804     6.541
 208   7 N      2.639    -0.292    27.533     7.793
 209   1 H      0.860     0.221     1.004     1.570
 210   1 H      0.923     0.078     1.995     2.209
 211   1 H      0.925     0.080     1.982     2.201
 212   1 H      0.924     0.058     2.219     2.330
 213   1 H      0.924     0.072     2.061     2.245
 214   1 H      0.925     0.076     2.021     2.223
 215   1 H      0.860     0.233     0.951     1.528
 216   1 H      0.860     0.230     0.966     1.539
 217   7 N      2.686    -0.198    25.306     7.471
 218   6 C      3.802     0.033    20.026     6.371
 219   6 C      2.754     0.276    22.336     7.739
 220   8 O      0.859    -0.496    23.693     6.526
 221   6 C      3.809    -0.105    22.501     6.752
 222   6 C      2.743     0.295    21.994     7.679
 223   8 O      0.859    -0.494    23.662     6.522
 224   7 N      2.639    -0.283    27.304     7.761
 225   1 H      0.860     0.226     0.984     1.554
 226   1 H      0.923     0.084     1.936     2.176
 227   1 H      0.925     0.082     1.961     2.190
 228   1 H      0.924     0.090     1.879     2.144
 229   1 H      0.860     0.245     0.903     1.489
 230   1 H      0.860     0.224     0.991     1.559
 231   7 N      2.691    -0.183    24.966     7.421
 232   6 C      3.796     0.030    20.077     6.380
 233   6 C      2.765     0.274    22.376     7.747
 234   8 O      0.859    -0.504    23.877     6.551
 235   6 C      3.807    -0.108    22.559     6.761
 236   6 C      2.743     0.292    22.047     7.688
 237   8 O      0.859    -0.501    23.805     6.542
 238   7 N      2.637    -0.290    27.485     7.786
 239   1 H      0.860     0.217     1.024     1.585
 240   1 H      0.924     0.076     2.021     2.223
 241   1 H      0.924     0.084     1.936     2.176
 242   1 H      0.924     0.077     2.010     2.217
 243   1 H      0.860     0.234     0.947     1.524
 244   1 H      0.860     0.236     0.941     1.520
 245   7 N      2.690    -0.174    24.775     7.393
 246   6 C      3.800     0.036    19.968     6.362
 247   6 C      2.766     0.216    23.443     7.930
 248   8 O      0.856    -0.371    21.118     6.161
 249   6 C      3.807    -0.068    21.803     6.647
 250   6 C      3.849    -0.013    20.768     6.482
 251   6 C      3.755    -0.119    22.830     6.813
 252   6 C      3.755    -0.118    22.818     6.811
 253   1 H      0.860     0.228     0.974     1.546
 254   1 H      0.924     0.088     1.902     2.157
 255   1 H      0.925     0.063     2.165     2.301
 256   1 H      0.924     0.056     2.249     2.345
 257   1 H      0.924     0.052     2.299     2.371
 258   1 H      0.925     0.054     2.272     2.357
 259   1 H      0.925     0.041     2.434     2.440
 260   1 H      0.925     0.038     2.479     2.462
 261   1 H      0.925     0.054     2.276     2.359
 262   1 H      0.925     0.037     2.491     2.468
 263   1 H      0.925     0.041     2.432     2.439
 264   7 N      2.703    -0.302    27.776     7.827
 265   6 C      3.815     0.034    19.984     6.362
 266   6 C      2.764     0.200    23.743     7.980
 267   8 O      0.856    -0.378    21.251     6.181
 268   6 C      3.829    -0.059    21.619     6.616
 269   6 C      3.832    -0.069    21.791     6.642
 270   6 C      3.771     0.011    20.423     6.440
 271   1 H      0.924     0.041     2.437     2.441
 272   1 H      0.925     0.052     2.292     2.367
 273   1 H      0.925     0.053     2.287     2.365
 274   1 H      0.925     0.053     2.282     2.363
 275   1 H      0.925     0.050     2.315     2.379
 276   1 H      0.925     0.047     2.354     2.399
 277   1 H      0.924     0.014     2.822     2.627
 278   7 N      2.635    -0.403    30.443     8.195
 279   6 C      3.782     0.045    19.843     6.346
 280   6 C      2.768     0.200    23.749     7.981
 281   8 O      0.856    -0.389    21.460     6.211
 282   6 C      3.814    -0.067    21.775     6.642
 283   6 C      3.850    -0.011    20.746     6.479
 284   6 C      3.758    -0.119    22.840     6.814
 285   6 C      3.755    -0.115    22.757     6.802
 286   1 H      0.860     0.184     1.191     1.709
 287   1 H      0.923     0.039     2.456     2.451
 288   1 H      0.924     0.050     2.315     2.379
 289   1 H      0.924     0.047     2.363     2.404
 290   1 H      0.924     0.046     2.374     2.410
 291   1 H      0.925     0.037     2.483     2.464
 292   1 H      0.925     0.042     2.421     2.433
 293   1 H      0.925     0.047     2.358     2.401
 294   1 H      0.925     0.042     2.421     2.433
 295   1 H      0.925     0.043     2.405     2.425
 296   1 H      0.925     0.035     2.516     2.480
 297   1 H      0.930     0.058     2.227     2.333
 298   1 H      0.863     0.180     1.212     1.724
 299   1 H      0.930     0.078     1.998     2.210
 300   1 H      0.862     0.171     1.263     1.761
 301   1 H      0.930     0.067     2.115     2.274

 Mol. C6AA /au·bohr⁶  :     799222.189568
 Mol. C8AA /au·bohr⁸  :   17569338.863911
 Mol. α(0) /au        :       1327.973381


Wiberg/Mayer (AO) data.
largest (>0.10) Wiberg bond orders for each atom
          total WBO             WBO to atom ...
     1  N   3.647        C    2 0.959    H    7 0.899    H    6 0.893    H    8 0.841
     2  C   3.931        C    5 0.998    N    1 0.959    H    9 0.947    C    3 0.934
     3  C   3.955        O    4 1.621    N   13 1.329    C    2 0.934
     4  O   2.011        C    3 1.621    N   13 0.196
     5  C   3.971        C    2 0.998    H   12 0.980    H   11 0.973    H   10 0.973
     6  H   0.909        N    1 0.893
     7  H   0.911        N    1 0.899
     8  H   0.906        N    1 0.841
     9  H   0.984        C    2 0.947
    10  H   0.992        C    5 0.973
    11  H   0.990        C    5 0.973
    12  H   0.993        C    5 0.980
    13  N   3.461        C    3 1.329    C   14 0.989    H   22 0.825    O    4 0.196
    14  C   3.971        N   13 0.989    C   17 0.979    C   15 0.946    H   23 0.929
    15  C   3.946        O   16 1.603    N   30 1.308    C   14 0.946
    16  O   1.978        C   15 1.603    N   30 0.191
    17  C   3.988        C   18 1.004    C   14 0.979    H   25 0.972    H   24 0.969
    18  C   3.992        C   17 1.004    C   19 0.979    H   27 0.965    H   26 0.941
    19  C   3.941        O   20 1.591    N   21 1.338    C   18 0.979
    20  O   2.000        C   19 1.591    N   21 0.189
    21  N   3.419        C   19 1.338    H   28 0.928    H   29 0.923    O   20 0.189
    22  H   0.934        N   13 0.825
    23  H   0.990        C   14 0.929
    24  H   0.994        C   17 0.969
    25  H   0.994        C   17 0.972
    26  H   0.992        C   18 0.941
    27  H   0.994        C   18 0.965
    28  H   0.947        N   21 0.928
    29  H   0.944        N   21 0.923
    30  N   3.472        C   15 1.308    C   31 0.977    H   37 0.907    O   16 0.191
    31  C   3.961        N   30 0.977    C   34 0.962    H   38 0.946    C   32 0.943
    32  C   3.943        O   33 1.583    N   46 1.318    C   31 0.943
    33  O   1.969        C   32 1.583    N   46 0.187
    34  C   3.986        C   35 1.008    C   36 1.007    H   39 0.965    C   31 0.962
    35  C   3.992        C   34 1.008    H   42 0.984    H   41 0.983    H   40 0.983
    36  C   3.989        C   34 1.007    H   44 0.984    H   43 0.980    H   45 0.978
    37  H   0.951        N   30 0.907
    38  H   0.992        C   31 0.946
    39  H   0.997        C   34 0.965
    40  H   0.997        C   35 0.983
    41  H   0.999        C   35 0.983
    42  H   0.997        C   35 0.984
    43  H   0.995        C   36 0.980
    44  H   0.997        C   36 0.984
    45  H   0.997        C   36 0.978
    46  N   3.479        C   32 1.318    C   47 0.979    H   54 0.906    O   33 0.187
    47  C   3.961        N   46 0.979    C   50 0.952    H   55 0.950    C   48 0.947
    48  C   3.944        O   49 1.581    N   65 1.319    C   47 0.947
    49  O   1.961        C   48 1.581    N   65 0.185
    50  C   3.982        C   52 1.008    C   51 0.994    H   56 0.959    C   47 0.952
    51  C   3.996        C   53 1.016    C   50 0.994    H   57 0.976    H   58 0.967
    52  C   3.992        C   50 1.008    H   61 0.985    H   60 0.984    H   59 0.983
    53  C   3.993        C   51 1.016    H   64 0.986    H   63 0.986    H   62 0.985
    54  H   0.953        N   46 0.906
    55  H   0.994        C   47 0.950
    56  H   0.996        C   50 0.959
    57  H   0.997        C   51 0.976
    58  H   0.998        C   51 0.967
    59  H   0.996        C   52 0.983
    60  H   0.999        C   52 0.984
    61  H   0.997        C   52 0.985
    62  H   0.997        C   53 0.985
    63  H   0.998        C   53 0.986
    64  H   0.998        C   53 0.986
    65  N   3.479        C   48 1.319    C   66 0.990    H   73 0.874    O   49 0.185
    66  C   3.972        N   65 0.990    C   69 0.979    H   74 0.945    C   67 0.936
    67  C   3.945        O   68 1.611    N   79 1.306    C   66 0.936
    68  O   1.967        C   67 1.611    N   79 0.191
    69  C   3.985        C   66 0.979    C   70 0.959    H   76 0.959    H   75 0.948
    70  C   3.951        O   71 1.655    N   72 1.307    C   69 0.959
    71  O   1.969        C   70 1.655    N   72 0.201
    72  N   3.391        C   70 1.307    H   78 0.928    H   77 0.922    O   71 0.201
    73  H   0.944        N   65 0.874
    74  H   0.994        C   66 0.945
    75  H   0.989        C   69 0.948
    76  H   0.992        C   69 0.959
    77  H   0.943        N   72 0.922
    78  H   0.946        N   72 0.928
    79  N   3.463        C   67 1.306    C   80 0.983    H   86 0.887    O   68 0.191
    80  C   3.961        N   79 0.983    C   83 0.957    H   87 0.948    C   81 0.936
    81  C   3.945        O   82 1.639    N   93 1.289    C   80 0.936
    82  O   1.973        C   81 1.639    N   93 0.196
    83  C   3.952        C   85 1.004    O   84 0.992    C   80 0.957    H   88 0.955
    84  O   1.924        C   83 0.992    H   89 0.862
    85  C   3.987        C   83 1.004    H   92 0.984    H   90 0.980    H   91 0.969
    86  H   0.947        N   79 0.887
    87  H   0.990        C   80 0.948
    88  H   0.997        C   83 0.955
    89  H   0.878        O   84 0.862
    90  H   0.995        C   85 0.980
    91  H   0.994        C   85 0.969
    92  H   0.997        C   85 0.984
    93  N   3.457        C   81 1.289    C   94 0.982    H  101 0.903    O   82 0.196
    94  C   3.968        N   93 0.982    C   97 0.972    H  102 0.950    C   95 0.933
    95  C   3.946        O   96 1.603    N  107 1.322    C   94 0.933
    96  O   1.972        C   95 1.603    N  107 0.196
    97  C   3.984        C   94 0.972    H  104 0.970    C   98 0.956    H  103 0.952
    98  C   3.948        O   99 1.658    N  100 1.304    C   97 0.956
    99  O   1.967        C   98 1.658    N  100 0.204
   100  N   3.404        C   98 1.304    H  106 0.929    H  105 0.926    O   99 0.204
   101  H   0.948        N   93 0.903
   102  H   0.993        C   94 0.950
   103  H   0.989        C   97 0.952
   104  H   0.994        C   97 0.970
   105  H   0.949        N  100 0.926
   106  H   0.950        N  100 0.929
   107  N   3.464        C   95 1.322    C  108 0.984    H  113 0.858    O   96 0.196
   108  C   3.967        N  107 0.984    C  111 0.977    H  114 0.945    C  109 0.936
   109  C   3.949        O  110 1.605    N  118 1.324    C  108 0.936
   110  O   1.983        C  109 1.605    N  118 0.198
   111  C   3.959        O  112 1.008    C  108 0.977    H  116 0.962    H  115 0.961
   112  O   1.922        C  111 1.008    H  117 0.859
   113  H   0.942        N  107 0.858
   114  H   0.993        C  108 0.945
   115  H   0.997        C  111 0.961
   116  H   0.998        C  111 0.962
   117  H   0.872        O  112 0.859
   118  N   3.472        C  109 1.324    C  119 0.970    H  126 0.882    O  110 0.198
   119  C   3.961        C  122 0.979    N  118 0.970    H  127 0.947    C  120 0.942
   120  C   3.942        O  121 1.613    N  137 1.295    C  119 0.942
   121  O   1.951        C  120 1.613    N  137 0.188
   122  C   3.984        C  123 0.993    C  119 0.979    H  128 0.970    H  129 0.964
   123  C   3.993        C  124 1.010    C  125 1.010    C  122 0.993    H  130 0.966
   124  C   3.996        C  123 1.010    H  132 0.986    H  131 0.985    H  133 0.983
   125  C   3.995        C  123 1.010    H  136 0.986    H  134 0.986    H  135 0.985
   126  H   0.948        N  118 0.882
   127  H   0.995        C  119 0.947
   128  H   0.995        C  122 0.970
   129  H   0.995        C  122 0.964
   130  H   0.997        C  123 0.966
   131  H   0.998        C  124 0.985
   132  H   0.998        C  124 0.986
   133  H   0.999        C  124 0.983
   134  H   0.998        C  125 0.986
   135  H   0.999        C  125 0.985
   136  H   0.998        C  125 0.986
   137  N   3.463        C  120 1.295    C  138 0.983    H  143 0.915    O  121 0.188
   138  C   3.966        N  137 0.983    C  141 0.978    H  144 0.953    C  139 0.935
   139  C   3.950        O  140 1.583    N  148 1.342    C  138 0.935
   140  O   1.945        C  139 1.583    N  148 0.194
   141  C   3.956        O  142 1.006    C  138 0.978    H  145 0.967    H  146 0.960
   142  O   1.919        C  141 1.006    H  147 0.859
   143  H   0.955        N  137 0.915
   144  H   0.994        C  138 0.953
   145  H   0.998        C  141 0.967
   146  H   0.997        C  141 0.960
   147  H   0.871        O  142 0.859
   148  N   3.496        C  139 1.342    C  149 0.983    H  156 0.881    O  140 0.194
   149  C   3.963        N  148 0.983    C  152 0.977    C  150 0.941    H  157 0.934
   150  C   3.947        O  151 1.567    N  167 1.344    C  149 0.941
   151  O   1.941        C  150 1.567    N  167 0.190
   152  C   3.983        C  153 0.991    C  149 0.977    H  159 0.970    H  158 0.968
   153  C   3.993        C  155 1.009    C  154 1.007    C  152 0.991    H  160 0.964
   154  C   3.992        C  153 1.007    H  162 0.986    H  163 0.985    H  161 0.982
   155  C   3.994        C  153 1.009    H  165 0.985    H  166 0.984    H  164 0.983
   156  H   0.945        N  148 0.881
   157  H   0.994        C  149 0.934
   158  H   0.997        C  152 0.968
   159  H   0.995        C  152 0.970
   160  H   0.998        C  153 0.964
   161  H   0.996        C  154 0.982
   162  H   0.998        C  154 0.986
   163  H   0.997        C  154 0.985
   164  H   0.997        C  155 0.983
   165  H   0.998        C  155 0.985
   166  H   0.999        C  155 0.984
   167  N   3.496        C  150 1.344    C  168 0.983    H  175 0.871    O  151 0.190
   168  C   3.964        N  167 0.983    C  171 0.975    C  169 0.942    H  176 0.936
   169  C   3.943        O  170 1.592    N  186 1.314    C  168 0.942
   170  O   1.951        C  169 1.592    N  186 0.190
   171  C   3.982        C  172 0.991    C  168 0.975    H  178 0.971    H  177 0.967
   172  C   3.992        C  174 1.010    C  173 1.007    C  171 0.991    H  179 0.962
   173  C   3.994        C  172 1.007    H  182 0.986    H  180 0.985    H  181 0.983
   174  C   3.995        C  172 1.010    H  184 0.986    H  183 0.983    H  185 0.981
   175  H   0.943        N  167 0.871
   176  H   0.994        C  168 0.936
   177  H   0.996        C  171 0.967
   178  H   0.996        C  171 0.971
   179  H   0.998        C  172 0.962
   180  H   0.997        C  173 0.985
   181  H   0.999        C  173 0.983
   182  H   0.998        C  173 0.986
   183  H   0.996        C  174 0.983
   184  H   0.998        C  174 0.986
   185  H   0.999        C  174 0.981
   186  N   3.476        C  169 1.314    C  187 0.984    H  193 0.898    O  170 0.190
   187  C   3.961        N  186 0.984    C  190 0.960    H  194 0.944    C  188 0.935
   188  C   3.947        O  189 1.599    N  200 1.320    C  187 0.935
   189  O   1.961        C  188 1.599    N  200 0.195
   190  C   3.955        C  192 1.005    O  191 0.992    C  187 0.960    H  195 0.954
   191  O   1.925        C  190 0.992    H  196 0.861
   192  C   3.988        C  190 1.005    H  199 0.984    H  197 0.980    H  198 0.971
   193  H   0.951        N  186 0.898
   194  H   0.991        C  187 0.944
   195  H   0.998        C  190 0.954
   196  H   0.878        O  191 0.861
   197  H   0.995        C  192 0.980
   198  H   0.994        C  192 0.971
   199  H   0.998        C  192 0.984
   200  N   3.480        C  188 1.320    C  201 0.979    H  209 0.899    O  189 0.195
   201  C   3.962        C  204 0.982    N  200 0.979    H  210 0.942    C  202 0.935
   202  C   3.946        O  203 1.634    N  217 1.293    C  201 0.935
   203  O   1.947        C  202 1.634    N  217 0.188
   204  C   3.985        C  205 0.986    C  201 0.982    H  212 0.972    H  211 0.954
   205  C   3.992        C  204 0.986    H  214 0.968    C  206 0.967    H  213 0.965
   206  C   3.943        O  207 1.649    N  208 1.301    C  205 0.967
   207  O   1.954        C  206 1.649    N  208 0.201
   208  N   3.389        C  206 1.301    H  215 0.926    H  216 0.926    O  207 0.201
   209  H   0.951        N  200 0.899
   210  H   0.993        C  201 0.942
   211  H   0.994        C  204 0.954
   212  H   0.996        C  204 0.972
   213  H   0.995        C  205 0.965
   214  H   0.994        C  205 0.968
   215  H   0.946        N  208 0.926
   216  H   0.947        N  208 0.926
   217  N   3.446        C  202 1.293    C  218 0.985    H  225 0.875    O  203 0.188
   218  C   3.967        C  221 0.985    N  217 0.985    H  226 0.935    C  219 0.934
   219  C   3.946        O  220 1.641    N  231 1.291    C  218 0.934
   220  O   1.953        C  219 1.641    N  231 0.194
   221  C   3.989        C  218 0.985    C  222 0.962    H  227 0.955    H  228 0.947
   222  C   3.949        O  223 1.652    N  224 1.308    C  221 0.962
   223  O   1.960        C  222 1.652    N  224 0.199
   224  N   3.390        C  222 1.308    H  230 0.928    H  229 0.919    O  223 0.199
   225  H   0.949        N  217 0.875
   226  H   0.992        C  218 0.935
   227  H   0.993        C  221 0.955
   228  H   0.991        C  221 0.947
   229  H   0.939        N  224 0.919
   230  H   0.950        N  224 0.928
   231  N   3.461        C  219 1.291    C  232 0.982    H  239 0.896    O  220 0.194
   232  C   3.967        N  231 0.982    C  235 0.974    H  240 0.954    C  233 0.926
   233  C   3.949        O  234 1.620    N  245 1.322    C  232 0.926
   234  O   1.949        C  233 1.620    N  245 0.202
   235  C   3.986        C  232 0.974    H  242 0.970    C  236 0.959    H  241 0.955
   236  C   3.950        O  237 1.640    N  238 1.325    C  235 0.959
   237  O   1.942        C  236 1.640    N  238 0.206
   238  N   3.404        C  236 1.325    H  243 0.924    H  244 0.896    O  237 0.206
   239  H   0.953        N  231 0.896
   240  H   0.994        C  232 0.954
   241  H   0.993        C  235 0.955
   242  H   0.993        C  235 0.970
   243  H   0.945        N  238 0.924
   244  H   0.944        N  238 0.896
   245  N   3.479        C  233 1.322    C  246 0.975    H  253 0.893    O  234 0.202
   246  C   3.961        C  247 0.975    N  245 0.975    C  249 0.966    H  254 0.940
   247  C   3.901        O  248 1.889    C  246 0.975    H  297 0.956
   248  O   2.033        C  247 1.889
   249  C   3.982        C  250 0.990    H  256 0.969    C  246 0.966    H  255 0.964
   250  C   3.993        C  252 1.010    C  251 1.010    C  249 0.990    H  257 0.964
   251  C   3.995        C  250 1.010    H  259 0.986    H  258 0.985    H  260 0.982
   252  C   3.995        C  250 1.010    H  262 0.985    H  261 0.985    H  263 0.984
   253  H   0.948        N  245 0.893
   254  H   0.992        C  246 0.940
   255  H   0.996        C  249 0.964
   256  H   0.996        C  249 0.969
   257  H   0.997        C  250 0.964
   258  H   0.997        C  251 0.985
   259  H   0.998        C  251 0.986
   260  H   0.999        C  251 0.982
   261  H   0.997        C  252 0.985
   262  H   0.999        C  252 0.985
   263  H   0.998        C  252 0.984
   264  N   3.042        C  270 1.000    C  265 0.996    H  298 0.950
   265  C   3.987        N  264 0.996    C  266 0.988    H  271 0.962    C  268 0.955
   266  C   3.891        O  267 1.867    C  265 0.988    H  299 0.953
   267  O   2.037        C  266 1.867
   268  C   3.992        C  269 1.006    H  273 0.976    H  272 0.975    C  265 0.955
   269  C   3.995        C  270 1.007    C  268 1.006    H  274 0.978    H  275 0.976
   270  C   3.986        C  269 1.007    N  264 1.000    H  277 0.976    H  276 0.973
   271  H   0.998        C  265 0.962
   272  H   0.997        C  268 0.975
   273  H   0.997        C  268 0.976
   274  H   0.997        C  269 0.978
   275  H   0.996        C  269 0.976
   276  H   0.998        C  270 0.973
   277  H   1.000        C  270 0.976
   278  N   2.992        C  279 1.019    H  300 0.959    H  286 0.928
   279  C   3.986        N  278 1.019    C  280 0.978    C  282 0.958    H  287 0.949
   280  C   3.891        O  281 1.879    C  279 0.978    H  301 0.954
   281  O   2.021        C  280 1.879
   282  C   3.990        C  283 0.989    H  289 0.974    H  288 0.973    C  279 0.958
   283  C   3.993        C  285 1.010    C  284 1.005    C  282 0.989    H  290 0.954
   284  C   3.994        C  283 1.005    H  292 0.986    H  293 0.986    H  291 0.981
   285  C   3.996        C  283 1.010    H  295 0.985    H  294 0.981    H  296 0.981
   286  H   0.966        N  278 0.928
   287  H   0.998        C  279 0.949
   288  H   0.997        C  282 0.973
   289  H   0.997        C  282 0.974
   290  H   0.998        C  283 0.954
   291  H   0.997        C  284 0.981
   292  H   0.998        C  284 0.986
   293  H   0.997        C  284 0.986
   294  H   0.998        C  285 0.981
   295  H   0.998        C  285 0.985
   296  H   0.999        C  285 0.981
   297  H   0.997        C  247 0.956
   298  H   0.967        N  264 0.950
   299  H   0.994        C  266 0.953
   300  H   0.971        N  278 0.959
   301  H   0.995        C  280 0.954
 
molecular dipole:
                 x           y           z       tot (Debye)
 q only:      176.421      96.510     410.803
   full:      175.381      95.335     414.034    1168.320
molecular quadrupole (traceless):
                xx          xy          yy          xz          yz          zz
 q only:   -56703.666   25360.897  -89410.937  109486.533   60306.337  146114.603
  q+dip:   -58076.707   24859.736  -90611.499  109837.365   60203.162  148688.206
   full:   -58074.446   24855.926  -90610.556  109838.088   60204.158  148685.002


           -------------------------------------------------
          | TOTAL ENERGY             -462.381244165390 Eh   |
          | GRADIENT NORM               0.336018869943 Eh/α |
          | HOMO-LUMO GAP               1.958004289112 eV   |
           -------------------------------------------------

------------------------------------------------------------------------
 * finished run on 2019/05/31 at 05:34:54.956     
------------------------------------------------------------------------
 total:
 * wall-time:     0 d,  0 h,  0 min,  4.381 sec
 *  cpu-time:     0 d,  0 h,  0 min,  7.791 sec
 * ratio c/w:     1.778 speedup
 SCF:
 * wall-time:     0 d,  0 h,  0 min,  3.927 sec
 *  cpu-time:     0 d,  0 h,  0 min,  7.113 sec
 * ratio c/w:     1.811 speedup

