      -----------------------------------------------------------      
     |                   =====================                   |     
     |                           x T B                           |     
     |                   =====================                   |     
     |                         S. Grimme                         |     
     |          Mulliken Center for Theoretical Chemistry        |     
     |                    University of Bonn                     |     
     |                 Version 6.0.1 (SAW181210)                 |     
      -----------------------------------------------------------      

   This program is distributed in the hope that it will be useful,
   but WITHOUT ANY WARRANTY; without even the implied warranty of
   MERCHANTABILITY or FITNESS FOR A PARTICULAR PURPOSE.
   
   FOR NON-COMMERCIAL, ACADEMIA USE ONLY.
   
   Cite this work as:
   S. Grimme, C. Bannwarth, P. Shushkov, J. Comput. Theory Chem., 2017,
   13, 1989-2009.
   C. Bannwarth, S. Ehlert and S. Grimme., ChemRxiv, 2018, preprint.
   http://doi.org/10.26434/chemrxiv.7246238.v1
   
   for sTDA-xTB:
   S. Grimme and C. Bannwarth, J. Chem. Phys., 2016, 145, 054103.
   
   in the mass-spec context:
   V. Asgeirsson, C. Bauer and S. Grimme, Chem. Sci., 2017, 8, 4879.
   
   if GBSA is used:
   P. Shushkov, F. März and S. Grimme, unpublished.
   
   for ANC optimizer:
   S. Grimme, unpublished.
   Rational Function algorithm used in ANCopt:
   F. Eckert, P. Pulay, H.-J. Werner, J. Comput. Chem., 1997, 18, 1473.
   
   with help from (in alphabetical order)
   C. Bannwarth, F. Bohle, G. Brandenburg, E. Caldeweyher, M. Checinski,
   S. Dohm, S. Ehlert, S. Ehrlich, F. März, H. Neugebauer, J. Pisarek,
   P. Pracht, P. Shushkov, and S. Spicher.
   
 * started run on 2019/02/13 at 00:18:30.557     
========================================================================
 # omp threads = 16
========================================================================
number of atoms            : 427
number of electrons        : 1124
charge                     : 1
spin                       : .0
first test random number   : .5171

########################################################################
# WARNING! Please study the warnings concerning your input carefully
#  - Process number higher than OMP_NUM_THREADS, I hope you know what you are doing.
########################################################################

           ------------------------------------------------- 
          |                 G F N 2 - x T B                 |
          | Geometry, Frequencies, Noncovalent interactions |
          |            JCTC 2018 parametrisation            |
           ------------------------------------------------- 
 
      method parameters     
 k(s)        :  1.8500
 k(p)        :  2.2300
 k(d)        :  2.2300
 k(f)        :  2.0000
 kEN (H0ij)  : -2.0000
 D4 a1       :  0.5200
 D4 a2       :  5.0000
 D4 s6       :  1.0000
 D4 s8       :  2.7000
 D4 s9       :  5.0000
 alphaj      :  2.0000

 Solvent             : h2o
 Using internal parameter file: .param_gbsa2_h2o
 Gsolv ref. state (COSMO-RS): gsolv [1 M gas/solution]
 temperature (mdtemp)       :    298.150000000000     
 dielectric constant        :    80.2000000000000     
 rho                        :    1.00000000000000     
 mass                       :    18.0000000000000     
 surface tension            :    15.5689454083859     
 probe radius               :   0.975313790000000     
 vdW radii scaling          :    1.00000000000000     
 Gshift (Eh)                :   1.857443126794793E-003
 c1                         :    1.55243817000000     
 soset                      :   0.130326360000000     
 HB correction              :  T

            Z     q(EN)     CN     RAES       Cart. coordinates
     1  N   5.0   -0.21    3.21    1.96   363.41518   119.97142   207.44535
     2  C   4.0    0.03    4.15    3.89   361.50147   118.94464   205.77865
     3  C   4.0    0.08    3.20    3.04   361.94340   116.12011   205.34487
     4  O   6.0   -0.33    1.18    1.80   360.21520   114.59101   205.51932
     5  C   4.0   -0.08    4.11    3.82   361.54971   120.38335   203.28842
     6  H   1.0    0.09    1.03    1.43   364.61079   121.25587   206.70004
     7  H   1.0    0.04    1.05    1.44   359.65303   119.12844   206.69965
     8  H   1.0    0.04    1.00    1.43   360.11627   119.64329   202.02225
     9  H   1.0    0.04    1.00    1.43   361.18917   122.37829   203.63454
    10  H   1.0    0.05    1.00    1.43   363.39556   120.18505   202.41110
    11  N   5.0   -0.19    3.23    1.96   360.11499   112.26116   210.84846
    12  C   4.0    0.03    4.24    4.08   357.38173   112.02197   210.90909
    13  C   4.0    0.15    3.42    3.08   356.51300   109.94762   209.07719
    14  O   6.0   -0.31    1.26    1.80   355.04511   108.27447   209.73088
    15  C   4.0   -0.07    4.12    3.84   356.18751   114.54597   210.21549
    16  H   1.0    0.09    1.03    1.43   360.84561   114.01807   210.61020
    17  H   1.0    0.05    1.05    1.44   356.78765   111.42259   212.80630
    18  H   1.0    0.04    1.00    1.43   354.14221   114.38083   210.21404
    19  H   1.0    0.04    1.00    1.43   356.74888   115.97374   211.58173
    20  H   1.0    0.05    1.01    1.43   356.82742   115.11358   208.34837
    21  N   5.0   -0.15    3.49    2.07   357.40924   110.16471   206.73791
    22  C   4.0    0.04    4.33    4.25   356.72141   108.39391   204.76784
    23  C   4.0    0.09    3.25    3.04   357.38666   105.69025   205.54187
    24  O   6.0   -0.28    1.12    1.80   355.92172   103.92630   205.18994
    25  C   4.0   -0.04    4.36    4.31   358.08370   109.05724   202.30970
    26  C   4.0   -0.02    4.18    3.95   357.14176   111.49208   201.04607
    27  C   4.0   -0.07    4.11    3.82   358.80515   112.02784   198.74973
    28  C   4.0   -0.08    4.10    3.81   354.37864   111.29781   200.24100
    29  H   1.0    0.11    1.11    1.45   358.59968   111.60055   206.28229
    30  H   1.0    0.05    1.05    1.44   354.66463   108.42983   204.50723
    31  H   1.0    0.05    1.03    1.43   360.09321   109.23097   202.74343
    32  H   1.0    0.05    1.03    1.43   357.86359   107.48316   200.99551
    33  H   1.0    0.05    1.06    1.44   357.33653   113.05043   202.38712
    34  H   1.0    0.04    1.00    1.43   358.12157   113.68013   197.74400
    35  H   1.0    0.05    1.00    1.43   360.74448   112.36820   199.33321
    36  H   1.0    0.05    1.00    1.43   358.77025   110.41921   197.47227
    37  H   1.0    0.04    1.00    1.43   353.83414   112.95928   199.16364
    38  H   1.0    0.05    1.00    1.43   354.09071   109.63703   199.06685
    39  H   1.0    0.04    1.00    1.43   353.13197   111.16548   201.86575
    40  N   5.0   -0.19    3.20    1.96   353.00696   103.06822   210.04643
    41  C   4.0    0.04    4.15    3.90   350.68317   102.52612   208.72221
    42  C   4.0    0.10    3.19    3.03   350.80413   100.17317   207.02623
    43  O   6.0   -0.27    1.12    1.80   348.87488    99.37566   206.02134
    44  C   4.0   -0.06    4.12    3.85   349.94826   104.79594   207.10785
    45  H   1.0    0.12    1.05    1.44   353.96390   104.64126   209.51714
    46  H   1.0    0.05    1.05    1.44   349.20433   102.11645   210.12236
    47  H   1.0    0.06    1.00    1.43   348.19828   104.38731   206.11758
    48  H   1.0    0.05    1.00    1.43   349.71409   106.45557   208.29236
    49  H   1.0    0.06    1.00    1.43   351.43998   105.14125   205.73786
    50  N   5.0   -0.19    3.23    1.96   351.00912   137.09480   191.58914
    51  C   4.0    0.03    4.34    4.27   352.73099   134.98543   191.45559
    52  C   4.0    0.15    3.42    3.08   351.36993   132.50714   192.03000
    53  O   6.0   -0.30    1.26    1.80   349.56806   132.35033   193.48295
    54  C   4.0   -0.04    4.37    4.32   354.87350   135.27788   193.37973
    55  C   4.0   -0.02    4.18    3.96   356.40825   137.71782   193.07478
    56  C   4.0   -0.07    4.11    3.81   358.36139   137.86256   195.19583
    57  C   4.0   -0.07    4.10    3.81   357.71615   137.85020   190.50816
    58  H   1.0    0.10    1.03    1.43   350.63995   137.76114   193.33695
    59  H   1.0    0.04    1.06    1.44   353.47166   134.88542   189.53171
    60  H   1.0    0.06    1.03    1.43   354.04791   135.22570   195.27475
    61  H   1.0    0.04    1.03    1.43   356.14144   133.66065   193.18941
    62  H   1.0    0.04    1.05    1.44   355.12918   139.33251   193.25452
    63  H   1.0    0.05    1.00    1.43   359.38726   139.64190   195.13330
    64  H   1.0    0.05    1.00    1.43   357.45750   137.69236   197.03544
    65  H   1.0    0.05    1.00    1.43   359.71872   136.32955   195.01278
    66  H   1.0    0.05    1.00    1.43   358.89734   139.52688   190.41465
    67  H   1.0    0.05    1.00    1.43   358.90927   136.20032   190.23555
    68  H   1.0    0.04    1.00    1.43   356.34417   137.92728   188.98461
    69  N   5.0   -0.14    3.49    2.07   352.37854   130.52581   190.84337
    70  C   4.0    0.04    4.37    4.32   351.69031   127.95622   191.38839
    71  C   4.0    0.15    3.45    3.10   354.09583   126.37940   191.41633
    72  O   6.0   -0.29    1.24    1.80   355.91698   126.89961   190.08046
    73  C   4.0   -0.06    4.10    3.80   349.87569   126.85124   189.42018
    74  H   1.0    0.09    1.07    1.44   353.77893   130.77526   189.56000
    75  H   1.0    0.07    1.07    1.44   350.77543   127.90903   193.23975
    76  H   1.0    0.06    1.00    1.43   349.44964   124.90280   189.91013
    77  H   1.0    0.05    1.00    1.43   348.13067   127.93332   189.41766
    78  H   1.0    0.06    1.00    1.43   350.70342   126.91675   187.54166
    79  N   5.0   -0.14    3.50    2.08   354.02699   124.44013   193.02291
    80  C   4.0    0.04    4.43    4.43   355.82224   122.38472   192.82918
    81  C   4.0    0.08    3.25    3.04   354.70133   120.52947   190.91175
    82  O   6.0   -0.31    1.17    1.80   352.52044   119.74362   191.10893
    83  C   4.0   -0.02    4.25    4.11   356.36568   121.16917   195.39782
    84  C   4.0   -0.08    4.13    3.87   358.03616   118.85327   195.00546
    85  C   4.0   -0.08    4.12    3.84   357.69963   123.07972   197.09557
    86  H   1.0    0.11    1.10    1.44   352.37330   124.10416   193.94201
    87  H   1.0    0.05    1.06    1.44   357.57391   123.15871   192.05856
    88  H   1.0    0.04    1.05    1.44   354.56913   120.59982   196.25359
    89  H   1.0    0.04    1.00    1.43   358.61836   118.08405   196.81845
    90  H   1.0    0.05    1.00    1.43   357.04914   117.38661   193.95636
    91  H   1.0    0.04    1.00    1.43   359.70391   119.39814   193.93365
    92  H   1.0    0.04    1.00    1.43   357.91448   122.32299   198.98981
    93  H   1.0    0.04    1.00    1.43   359.56087   123.49223   196.33207
    94  H   1.0    0.05    1.00    1.43   356.63097   124.82766   197.19452
    95  N   5.0   -0.20    3.23    1.96   347.29076   120.31362   192.66476
    96  C   4.0    0.03    4.33    4.25   346.48673   120.98746   195.19343
    97  C   4.0    0.16    3.47    3.10   346.96975   123.80487   195.62505
    98  O   6.0   -0.32    1.33    1.80   349.06806   124.70405   195.21607
    99  C   4.0   -0.03    4.34    4.28   348.02442   119.54286   197.19751
   100  C   4.0   -0.02    3.56    3.14   347.52174   116.75577   197.13479
   101  C   4.0   -0.05    3.47    3.10   348.79640   115.18981   195.45136
   102  C   4.0   -0.05    3.47    3.10   345.75648   115.69791   198.76337
   103  C   4.0   -0.04    3.43    3.09   348.33273   112.62046   195.40827
   104  C   4.0   -0.05    3.43    3.09   345.29632   113.12611   198.75274
   105  C   4.0    0.06    3.45    3.10   346.59695   111.57374   197.08177
   106  O   6.0   -0.25    2.14    1.85   346.16829   109.02838   196.97390
   107  H   1.0    0.12    1.05    1.44   349.15820   120.56167   192.26850
   108  H   1.0    0.05    1.06    1.44   344.47578   120.57940   195.38466
   109  H   1.0    0.05    1.03    1.43   350.02318   119.92390   196.85260
   110  H   1.0    0.05    1.04    1.43   347.49910   120.31702   199.03165
   111  H   1.0    0.06    1.03    1.43   350.17186   115.98217   194.16849
   112  H   1.0    0.06    1.03    1.43   344.72924   116.89781   200.05719
   113  H   1.0    0.06    1.03    1.43   349.32413   111.40204   194.10895
   114  H   1.0    0.05    1.03    1.43   343.93047   112.33965   200.05133
   115  H   1.0    0.12    1.04    1.43   345.20389   108.51267   198.43897
   116  N   5.0   -0.14    3.46    2.05   345.00026   125.19929   196.37902
   117  C   4.0    0.04    4.42    4.41   345.41433   127.83489   197.00495
   118  C   4.0    0.17    3.47    3.10   347.57889   128.05699   198.92240
   119  O   6.0   -0.30    1.27    1.80   347.72764   126.64103   200.75375
   120  C   4.0    0.04    4.14    3.89   342.98167   128.97749   198.08219
   121  O   6.0   -0.24    2.08    1.84   342.20097   127.57711   200.19151
   122  H   1.0    0.11    1.09    1.44   343.53528   124.32907   197.25665
   123  H   1.0    0.05    1.05    1.44   345.95082   128.86895   195.29145
   124  H   1.0    0.05    1.01    1.43   343.34577   130.96033   198.58241
   125  H   1.0    0.04    1.01    1.43   341.51974   128.93469   196.60319
   126  H   1.0    0.15    1.09    1.44   340.68672   128.38356   200.94772
   127  N   5.0   -0.13    3.46    2.06   349.25994   129.87260   198.42917
   128  C   4.0    0.05    4.37    4.33   351.41265   130.27079   200.05936
   129  C   4.0    0.15    3.42    3.08   351.77820   133.08859   200.51438
   130  O   6.0   -0.29    1.24    1.80   351.32521   134.68381   198.90405
   131  C   4.0   -0.06    4.10    3.81   353.79760   129.13277   198.89484
   132  H   1.0    0.12    1.09    1.44   349.15431   130.98415   196.86388
   133  H   1.0    0.07    1.07    1.44   351.01663   129.34597   201.86455
   134  H   1.0    0.06    1.00    1.43   355.36116   129.31746   200.21025
   135  H   1.0    0.05    1.00    1.43   353.46646   127.13939   198.52805
   136  H   1.0    0.05    1.00    1.43   354.24943   130.09054   197.13184
   137  N   5.0   -0.13    3.49    2.07   352.61775   133.62428   202.83600
   138  C   4.0    0.04    4.36    4.30   353.03049   136.18413   203.66960
   139  C   4.0    0.08    3.21    3.04   355.79412   136.53239   204.40587
   140  O   6.0   -0.28    1.15    1.80   357.00403   134.88249   205.48843
   141  C   4.0    0.06    4.21    4.02   351.24592   136.79617   205.93167
   142  O   6.0   -0.23    2.13    1.84   348.72737   136.27606   205.27311
   143  C   4.0   -0.06    4.08    3.76   351.39350   139.58595   206.64109
   144  H   1.0    0.12    1.09    1.44   353.15571   132.20972   204.00846
   145  H   1.0    0.06    1.06    1.44   352.53087   137.40489   202.07466
   146  H   1.0    0.06    1.03    1.43   351.84493   135.60368   207.52888
   147  H   1.0    0.16    1.06    1.44   348.41247   134.45419   205.31550
   148  H   1.0    0.06    1.00    1.43   350.10368   139.93735   208.19743
   149  H   1.0    0.05    1.00    1.43   353.29186   140.12051   207.20453
   150  H   1.0    0.06    1.00    1.43   350.79173   140.72234   205.04019
   151  N   5.0   -0.19    3.27    1.97   359.03041   129.80495   207.17182
   152  C   4.0    0.03    4.27    4.13   357.45163   127.99493   208.45351
   153  C   4.0    0.16    3.40    3.08   355.18986   127.36463   206.75658
   154  O   6.0   -0.30    1.28    1.80   354.41088   128.86942   205.18775
   155  C   4.0    0.04    4.12    3.85   356.61790   129.12876   211.03933
   156  O   6.0   -0.23    2.05    1.83   356.22151   131.74580   210.94881
   157  H   1.0    0.13    1.05    1.44   358.20329   131.49301   206.79399
   158  H   1.0    0.03    1.05    1.44   358.57707   126.29273   208.78795
   159  H   1.0    0.06    1.01    1.43   354.82447   128.28069   211.62300
   160  H   1.0    0.04    1.01    1.43   358.08076   128.67009   212.43472
   161  H   1.0    0.13    1.02    1.43   357.85119   132.59944   210.83288
   162  N   5.0   -0.15    3.47    2.06   354.24197   125.01829   207.01497
   163  C   4.0    0.04    4.53    4.58   351.88051   124.35854   205.78459
   164  C   4.0    0.16    3.46    3.10   349.71455   125.09477   207.55122
   165  O   6.0   -0.29    1.24    1.80   349.91986   124.94177   209.85568
   166  C   4.0   -0.02    4.33    4.25   351.82244   121.54096   205.08200
   167  C   4.0   -0.05    4.19    3.99   353.91123   120.99695   203.14683
   168  C   4.0   -0.07    4.15    3.89   349.22235   120.87422   204.03400
   169  C   4.0   -0.08    4.01    3.63   354.36345   118.18252   202.72798
   170  H   1.0    0.08    1.07    1.44   354.62835   124.04014   208.60849
   171  H   1.0    0.06    1.07    1.44   351.74546   125.49832   204.06584
   172  H   1.0    0.04    1.05    1.44   352.17214   120.44310   206.80315
   173  H   1.0    0.04    1.03    1.43   353.38673   121.90044   201.36800
   174  H   1.0    0.04    1.03    1.43   355.65361   121.88022   203.80686
   175  H   1.0    0.04    1.00    1.43   349.23558   118.96815   203.27534
   176  H   1.0    0.06    1.01    1.43   347.78254   120.99717   205.49455
   177  H   1.0    0.06    1.00    1.43   348.71890   122.19039   202.53622
   178  H   1.0    0.04    1.00    1.43   355.93749   117.90506   201.43996
   179  H   1.0    0.04    1.00    1.43   354.80474   117.25130   204.50519
   180  H   1.0    0.04    1.00    1.43   352.71204   117.28083   201.90921
   181  N   5.0   -0.12    3.51    2.08   347.64460   125.95743   206.39604
   182  C   4.0    0.05    4.43    4.44   345.45980   126.74571   207.83010
   183  C   4.0    0.16    3.40    3.08   344.12920   124.38907   208.91612
   184  O   6.0   -0.31    1.26    1.80   344.31308   122.33101   207.88978
   185  C   4.0   -0.02    4.32    4.24   343.69147   128.26931   206.14401
   186  C   4.0    0.17    3.23    3.04   344.83991   130.76132   205.28858
   187  O   6.0   -0.29    1.27    1.80   347.06074   131.32398   205.62882
   188  N   5.0   -0.17    3.19    1.95   343.18852   132.28659   204.14326
   189  H   1.0    0.11    1.09    1.44   347.57707   126.10816   204.48831
   190  H   1.0    0.06    1.05    1.44   346.12377   127.90831   209.41744
   191  H   1.0    0.06    1.04    1.43   343.27532   127.19622   204.43030
   192  H   1.0    0.05    1.03    1.43   341.91929   128.65793   207.11579
   193  H   1.0    0.11    1.03    1.43   343.78260   133.97099   203.48148
   194  H   1.0    0.11    1.05    1.44   341.40263   131.70679   203.76901
   195  N   5.0   -0.14    3.48    2.06   342.88551   124.77464   211.09025
   196  C   4.0    0.05    4.45    4.47   341.41467   122.83484   212.34071
   197  C   4.0    0.17    3.42    3.09   338.70551   123.77916   212.74729
   198  O   6.0   -0.29    1.25    1.80   338.11707   125.95676   212.25490
   199  C   4.0    0.06    4.23    4.06   342.58141   122.00366   214.90866
   200  O   6.0   -0.24    2.11    1.84   341.72002   123.46192   216.98224
   201  C   4.0   -0.06    4.09    3.78   345.45832   121.94356   214.75791
   202  H   1.0    0.09    1.07    1.44   342.49421   126.56991   211.61664
   203  H   1.0    0.08    1.07    1.44   341.36105   121.18983   211.08963
   204  H   1.0    0.06    1.05    1.44   341.85815   120.10442   215.26856
   205  H   1.0    0.13    1.03    1.43   342.35048   125.16576   216.79705
   206  H   1.0    0.05    1.00    1.43   346.24357   121.11857   216.46253
   207  H   1.0    0.05    1.00    1.43   346.03176   120.80813   213.14873
   208  H   1.0    0.06    1.00    1.43   346.23528   123.82741   214.49019
   209  N   5.0   -0.13    3.46    2.05   337.20079   122.07129   213.88900
   210  C   4.0    0.05    4.37    4.33   334.56034   122.49937   214.43704
   211  C   4.0    0.10    3.23    3.04   333.87720   122.09505   217.22276
   212  O   6.0   -0.26    1.14    1.80   331.67574   121.81677   217.87226
   213  C   4.0    0.06    4.28    4.16   332.84654   120.73380   212.90490
   214  O   6.0   -0.24    2.14    1.85   333.57721   118.23673   213.53247
   215  C   4.0   -0.06    4.07    3.75   333.02526   121.27063   210.09012
   216  H   1.0    0.10    1.07    1.44   337.69843   120.22954   213.73858
   217  H   1.0    0.06    1.06    1.44   334.07283   124.46404   213.97351
   218  H   1.0    0.07    1.04    1.44   330.90310   121.09499   213.55636
   219  H   1.0    0.12    1.02    1.43   332.41377   117.07712   212.73720
   220  H   1.0    0.04    1.00    1.43   331.69086   120.11428   209.04356
   221  H   1.0    0.05    1.00    1.43   332.58065   123.25161   209.78313
   222  H   1.0    0.08    1.01    1.43   334.92554   120.90729   209.39934
   223  N   5.0   -0.19    3.25    1.97   340.23031   113.16709   215.45706
   224  C   4.0    0.03    4.25    4.09   340.55537   112.37883   212.85583
   225  C   4.0    0.15    3.39    3.08   341.13340   114.74263   211.27660
   226  O   6.0   -0.31    1.25    1.80   340.94246   116.86002   212.18508
   227  C   4.0   -0.07    4.10    3.81   338.18723   110.98897   211.94920
   228  H   1.0    0.11    1.04    1.43   339.48279   114.91316   215.67590
   229  H   1.0    0.04    1.05    1.44   342.18620   111.10454   212.78632
   230  H   1.0    0.04    1.00    1.43   338.27873   110.56014   209.94732
   231  H   1.0    0.05    1.00    1.43   337.99477   109.21802   212.96863
   232  H   1.0    0.05    1.00    1.43   336.52735   112.14935   212.28414
   233  N   5.0   -0.14    3.49    2.07   341.96532   114.23891   208.94522
   234  C   4.0    0.04    4.41    4.40   342.98798   116.08788   207.22038
   235  C   4.0    0.16    3.41    3.08   341.01185   116.81658   205.23533
   236  O   6.0   -0.30    1.24    1.80   339.31767   115.38327   204.60236
   237  C   4.0   -0.05    4.36    4.30   345.32499   114.98162   205.90651
   238  C   4.0   -0.02    4.19    3.97   347.30169   113.89725   207.73421
   239  C   4.0   -0.08    4.10    3.80   349.53208   112.85906   206.22031
   240  C   4.0   -0.07    4.11    3.81   348.19464   115.86962   209.63919
   241  H   1.0    0.08    1.07    1.44   341.88884   112.44316   208.31137
   242  H   1.0    0.06    1.06    1.44   343.46704   117.77416   208.31180
   243  H   1.0    0.04    1.03    1.43   344.69664   113.47626   204.64345
   244  H   1.0    0.04    1.03    1.43   346.18172   116.46911   204.77285
   245  H   1.0    0.04    1.06    1.44   346.45051   112.33684   208.79292
   246  H   1.0    0.04    1.00    1.43   350.86777   111.91599   207.46659
   247  H   1.0    0.04    1.00    1.43   348.88281   111.49673   204.82778
   248  H   1.0    0.03    1.00    1.43   350.50738   114.38608   205.25483
   249  H   1.0    0.04    1.00    1.43   349.70414   115.09967   210.80238
   250  H   1.0    0.04    1.00    1.43   348.89018   117.55065   208.68440
   251  H   1.0    0.05    1.00    1.43   346.66894   116.43175   210.89747
   252  N   5.0   -0.13    3.47    2.06   341.41630   119.08016   204.15706
   253  C   4.0    0.05    4.43    4.43   339.50638   120.26174   202.57645
   254  C   4.0    0.16    3.42    3.09   340.23944   119.97870   199.77670
   255  O   6.0   -0.31    1.27    1.80   341.72419   121.41022   198.73180
   256  C   4.0   -0.02    4.33    4.26   339.24539   123.06141   203.19705
   257  C   4.0    0.16    3.23    3.04   338.51599   123.54864   205.92711
   258  O   6.0   -0.29    1.26    1.80   338.37181   121.87646   207.51516
   259  N   5.0   -0.19    3.20    1.96   338.01220   125.97325   206.45023
   260  H   1.0    0.10    1.09    1.44   342.66958   120.25649   204.99588
   261  H   1.0    0.07    1.06    1.44   337.72380   119.26028   202.91990
   262  H   1.0    0.07    1.03    1.43   341.03167   124.01268   202.78836
   263  H   1.0    0.05    1.03    1.43   337.82628   123.90987   201.96891
   264  H   1.0    0.12    1.04    1.43   337.59407   126.45573   208.24994
   265  H   1.0    0.11    1.07    1.44   338.11176   127.34632   205.11146
   266  N   5.0   -0.13    3.49    2.07   339.22462   117.96441   198.64224
   267  C   4.0    0.03    4.41    4.40   339.46324   117.56209   195.93928
   268  C   4.0    0.15    3.43    3.09   337.82354   119.50441   194.56590
   269  O   6.0   -0.31    1.34    1.80   336.12837   120.64880   195.65972
   270  C   4.0   -0.05    4.27    4.14   338.66394   114.83380   195.37269
   271  C   4.0   -0.05    4.17    3.93   339.20437   113.99268   192.66253
   272  C   4.0   -0.05    4.17    3.93   338.61373   111.18969   192.22554
   273  C   4.0   -0.03    4.12    3.84   340.30113   109.35428   193.66821
   274  N   5.0   -0.11    4.01    2.90   342.92637   109.48339   192.70955
   275  H   1.0    0.11    1.10    1.44   337.69415   117.15910   199.46819
   276  H   1.0    0.04    1.05    1.44   341.43660   117.85194   195.38947
   277  H   1.0    0.04    1.03    1.43   339.70745   113.66401   196.70907
   278  H   1.0    0.05    1.03    1.43   336.65464   114.64106   195.78455
   279  H   1.0    0.06    1.03    1.43   338.02341   115.06688   191.36067
   280  H   1.0    0.04    1.02    1.43   341.16515   114.43549   192.19761
   281  H   1.0    0.04    1.03    1.43   336.65946   110.84382   192.76974
   282  H   1.0    0.05    1.03    1.43   338.78423   110.78141   190.21211
   283  H   1.0    0.04    1.02    1.43   340.28714   109.79109   195.68144
   284  H   1.0    0.05    1.02    1.43   339.61694   107.43515   193.38084
   285  H   1.0    0.06    0.98    1.43   343.03598   108.79063   190.77246
   286  H   1.0    0.06    1.03    1.43   343.52092   111.32563   192.71879
   287  H   1.0    0.08    1.04    1.43   344.15267   108.45874   193.82667
   288  N   5.0   -0.14    3.46    2.06   338.31607   119.85675   192.11656
   289  C   4.0    0.04    4.32    4.24   336.69986   121.42049   190.54990
   290  C   4.0    0.08    3.21    3.04   335.02023   119.71494   188.90730
   291  O   6.0   -0.29    1.13    1.80   335.74032   117.67085   188.11690
   292  C   4.0   -0.04    4.33    4.26   338.23816   123.18883   188.85485
   293  C   4.0   -0.02    4.17    3.95   339.71019   125.20581   190.32854
   294  C   4.0   -0.07    4.10    3.81   341.48997   126.61565   188.54488
   295  C   4.0   -0.07    4.10    3.81   337.94166   127.08730   191.62048
   296  H   1.0    0.08    1.06    1.44   339.88472   119.08247   191.33600
   297  H   1.0    0.07    1.07    1.44   335.47172   122.50659   191.80757
   298  H   1.0    0.05    1.03    1.43   339.56420   122.04125   187.76758
   299  H   1.0    0.04    1.03    1.43   336.95539   124.10454   187.52241
   300  H   1.0    0.05    1.05    1.44   340.83513   124.26821   191.79532
   301  H   1.0    0.04    1.00    1.43   342.52169   128.05827   189.58412
   302  H   1.0    0.04    1.00    1.43   342.84662   125.32969   187.69766
   303  H   1.0    0.04    1.00    1.43   340.41257   127.52262   187.04842
   304  H   1.0    0.04    1.00    1.43   339.02232   128.54013   192.59643
   305  H   1.0    0.05    1.00    1.43   336.71757   128.01882   190.25438
   306  H   1.0    0.05    1.00    1.43   336.74379   126.17693   193.02177
   307  N   5.0   -0.21    3.27    1.97   330.17531   127.47677   184.67416
   308  C   4.0    0.03    4.32    4.23   331.89479   128.88606   186.25264
   309  C   4.0    0.15    3.42    3.08   330.94544   129.17920   188.97790
   310  O   6.0   -0.30    1.24    1.80   331.90779   130.70879   190.42150
   311  C   4.0   -0.04    4.27    4.14   332.47598   131.50384   185.14036
   312  C   4.0   -0.04    4.22    4.05   330.04918   132.88569   184.41006
   313  C   4.0   -0.05    4.16    3.93   330.48211   135.70887   183.99977
   314  C   4.0   -0.03    4.12    3.83   328.16974   137.00708   182.87362
   315  N   5.0   -0.12    4.01    2.89   325.94361   136.81752   184.58122
   316  H   1.0    0.08    1.03    1.43   328.40018   128.14940   184.51707
   317  H   1.0    0.04    1.05    1.44   333.64528   127.77592   186.35063
   318  H   1.0    0.06    1.04    1.43   333.47133   132.56483   186.60040
   319  H   1.0    0.04    1.02    1.43   333.70402   131.31372   183.49820
   320  H   1.0    0.04    1.03    1.43   329.29448   132.06874   182.67074
   321  H   1.0    0.05    1.03    1.43   328.67056   132.59882   185.91696
   322  H   1.0    0.05    1.03    1.43   330.99344   136.58820   185.79213
   323  H   1.0    0.04    1.03    1.43   332.05601   135.96846   182.69538
   324  H   1.0    0.05    1.02    1.43   328.58149   139.00216   182.56079
   325  H   1.0    0.04    1.02    1.43   327.67803   136.14359   181.06596
   326  H   1.0    0.06    1.02    1.43   324.43654   137.77339   183.82810
   327  H   1.0    0.06    0.99    1.43   325.35213   134.91088   184.87503
   328  H   1.0    0.06    1.02    1.43   326.37434   137.55785   186.32045
   329  N   5.0   -0.13    3.51    2.09   329.00713   127.68429   189.62236
   330  C   4.0    0.03    4.46    4.48   328.19483   127.50685   192.23059
   331  C   4.0    0.15    3.47    3.10   330.14906   125.93921   193.66475
   332  O   6.0   -0.31    1.26    1.80   331.08790   124.06550   192.68125
   333  C   4.0    0.05    4.23    4.06   325.59245   126.17761   192.32061
   334  O   6.0   -0.25    2.11    1.84   323.73112   127.57936   191.05060
   335  C   4.0   -0.06    4.09    3.79   324.66948   125.81742   195.02819
   336  H   1.0    0.08    1.08    1.44   328.59130   126.16809   188.52069
   337  H   1.0    0.06    1.05    1.44   328.05959   129.41516   193.01569
   338  H   1.0    0.05    1.04    1.43   325.84971   124.31858   191.41542
   339  H   1.0    0.12    1.01    1.43   324.12410   127.75800   189.24773
   340  H   1.0    0.05    1.00    1.43   322.83451   124.90034   194.98351
   341  H   1.0    0.06    1.01    1.43   325.97387   124.68418   196.13298
   342  H   1.0    0.05    1.00    1.43   324.44320   127.65114   195.92502
   343  N   5.0   -0.14    3.46    2.05   330.79155   126.72383   195.98364
   344  C   4.0    0.04    4.43    4.43   332.29544   125.09092   197.59738
   345  C   4.0    0.15    3.44    3.09   330.57970   122.90881   198.43563
   346  O   6.0   -0.33    1.30    1.80   328.54074   123.34371   199.47245
   347  C   4.0   -0.04    4.27    4.14   333.30569   126.53529   199.88180
   348  C   4.0   -0.03    4.17    3.94   335.48690   128.30327   199.21447
   349  C   4.0    0.25    3.11    3.03   336.12372   129.98742   201.52822
   350  O   6.0   -0.28    1.17    1.80   334.47477   131.44954   202.29408
   351  O   6.0   -0.33    1.33    1.80   338.29261   129.72080   202.50410
   352  H   1.0    0.08    1.06    1.44   329.88425   128.17456   196.82096
   353  H   1.0    0.06    1.06    1.44   333.85731   124.32681   196.47998
   354  H   1.0    0.06    1.03    1.43   331.78542   127.64507   200.73153
   355  H   1.0    0.05    1.03    1.43   333.94281   125.17307   201.29947
   356  H   1.0    0.05    1.02    1.43   337.15142   127.22486   198.65225
   357  H   1.0    0.06    1.03    1.43   334.92916   129.55155   197.66945
   358  N   5.0   -0.13    3.51    2.09   331.37742   120.60582   197.85023
   359  C   4.0    0.03    4.50    4.53   330.01774   118.35652   198.59191
   360  C   4.0    0.14    3.45    3.10   331.74280   116.81517   200.31254
   361  O   6.0   -0.31    1.29    1.80   334.04547   116.99514   200.23380
   362  C   4.0   -0.02    4.24    4.09   329.11627   116.78966   196.29243
   363  C   4.0   -0.07    4.11    3.83   327.50064   118.43538   194.55702
   364  C   4.0   -0.06    4.12    3.84   331.33493   115.65733   194.83976
   365  H   1.0    0.12    1.12    1.45   333.13956   120.36717   197.11127
   366  H   1.0    0.05    1.07    1.44   328.36664   118.99648   199.66884
   367  H   1.0    0.04    1.05    1.44   327.95505   115.25219   197.05038
   368  H   1.0    0.05    1.00    1.43   326.70440   117.29831   193.04615
   369  H   1.0    0.04    1.00    1.43   325.96324   119.31354   195.60168
   370  H   1.0    0.06    1.00    1.43   328.63791   119.93813   193.72969
   371  H   1.0    0.05    1.00    1.43   330.64327   114.62119   193.20940
   372  H   1.0    0.06    1.00    1.43   332.59045   117.14459   194.17929
   373  H   1.0    0.05    1.00    1.43   332.38618   114.37618   196.05060
   374  N   5.0   -0.14    3.46    2.05   330.56104   115.20858   201.86925
   375  C   4.0    0.04    4.41    4.40   332.00470   113.82831   203.73768
   376  C   4.0    0.08    3.24    3.04   330.97093   111.16511   204.05943
   377  O   6.0   -0.28    1.13    1.80   328.71045   110.71154   204.17948
   378  C   4.0   -0.02    4.26    4.11   332.03232   115.24066   206.30184
   379  C   4.0   -0.06    4.12    3.83   329.42638   115.26726   207.54027
   380  C   4.0   -0.07    4.11    3.81   334.03556   114.10275   208.03150
   381  H   1.0    0.08    1.06    1.44   328.64881   115.21386   202.01501
   382  H   1.0    0.06    1.07    1.44   333.95234   113.76952   203.03678
   383  H   1.0    0.05    1.06    1.44   332.59017   117.18791   205.86033
   384  H   1.0    0.05    1.00    1.43   329.44905   116.42093   209.24219
   385  H   1.0    0.06    1.00    1.43   328.02973   116.05403   206.25299
   386  H   1.0    0.06    1.00    1.43   328.85185   113.36402   208.05779
   387  H   1.0    0.05    1.00    1.43   334.24630   115.26405   209.71114
   388  H   1.0    0.05    1.00    1.43   333.52849   112.19073   208.58981
   389  H   1.0    0.06    1.01    1.43   335.85032   114.08329   207.06645
   390  N   5.0   -0.19    3.22    1.96   321.43140   118.24774   202.29640
   391  C   4.0    0.03    4.24    4.07   322.31837   120.82283   201.88969
   392  C   4.0    0.15    3.45    3.10   323.59357   121.71897   204.32845
   393  O   6.0   -0.26    1.29    1.80   322.54291   121.45285   206.38078
   394  C   4.0   -0.06    4.11    3.82   320.10331   122.55341   201.26917
   395  H   1.0    0.10    1.03    1.43   319.60691   118.02638   202.81160
   396  H   1.0    0.04    1.05    1.44   323.71254   120.79207   200.36416
   397  H   1.0    0.05    1.00    1.43   320.81372   124.41695   200.79047
   398  H   1.0    0.05    1.00    1.43   319.05871   121.79978   199.67188
   399  H   1.0    0.06    1.00    1.43   318.86673   122.70669   202.90323
   400  N   5.0   -0.15    3.43    2.04   325.81625   122.88275   204.07459
   401  C   4.0    0.04    4.26    4.11   327.22428   123.63693   206.30144
   402  C   4.0    0.11    3.30    3.05   325.47760   124.87402   208.23487
   403  O   6.0   -0.25    1.11    1.80   325.47713   124.23446   210.46211
   404  C   4.0   -0.07    4.10    3.81   329.33410   125.47258   205.62313
   405  H   1.0    0.11    1.10    1.44   326.71740   123.00354   202.37552
   406  H   1.0    0.05    1.05    1.44   328.03717   121.96622   207.23047
   407  H   1.0    0.05    1.00    1.43   330.21141   126.20895   207.33235
   408  H   1.0    0.05    1.00    1.43   330.77778   124.51459   204.52238
   409  H   1.0    0.06    1.00    1.43   328.62248   127.05679   204.52905
   410  H   1.0    0.09    1.07    1.44   362.66577   120.75159   208.75770
   411  H   1.0    0.06    1.05    1.44   363.67089   115.48999   204.90924
   412  H   1.0    0.10    1.07    1.44   360.76672   111.69947   212.31554
   413  H   1.0    0.06    1.05    1.44   359.05141   105.32340   206.35740
   414  H   1.0    0.10    1.07    1.44   352.68256   103.26780   211.70399
   415  H   1.0    0.07    1.04    1.43   352.45380    99.29568   206.74397
   416  H   1.0    0.09    1.07    1.44   351.64556   138.40377   190.70931
   417  H   1.0    0.06    1.04    1.43   355.74642   119.92795   189.45675
   418  H   1.0    0.10    1.08    1.44   346.96925   118.66684   192.38672
   419  H   1.0    0.05    1.05    1.44   356.68151   138.15223   204.00622
   420  H   1.0    0.10    1.08    1.44   360.39781   130.14146   208.12552
   421  H   1.0    0.07    1.04    1.44   335.23805   122.05642   218.53335
   422  H   1.0    0.10    1.08    1.44   339.18803   112.08382   216.25252
   423  H   1.0    0.06    1.05    1.44   333.27168   120.26782   188.45126
   424  H   1.0    0.09    1.08    1.44   330.78314   127.41454   183.08695
   425  H   1.0    0.06    1.05    1.44   332.15739   109.69935   204.18155
   426  H   1.0    0.09    1.07    1.44   321.61013   117.35243   200.86146
   427  H   1.0    0.07    1.05    1.44   324.29283   126.24453   207.69720

  Z AO/shell   Hii/eV     exponent
  1     Wed Apr 25 08:07:45 CEST 2018   EN: 2.200 GM2: 0.406  GM3: 0.0800  RAES: 1.40
     1s    -10.707211    1.230000
  6     Wed Apr 25 08:07:45 CEST 2018   EN: 2.550 GM2: 0.538  GM3: 0.1500  RAES: 3.00
     2s    -13.970922    2.096432
     2p    -10.063292    1.800000
  7     Wed Apr 25 08:07:45 CEST 2018   EN: 3.040 GM2: 0.461  GM3:-0.0640  RAES: 1.90
     2s    -16.686243    2.339881
     2p    -12.523956    2.014332
  8     Wed Apr 25 08:07:45 CEST 2018   EN: 3.440 GM2: 0.452  GM3:-0.0517  RAES: 1.80
     2s    -20.229985    2.439742
     2p    -15.503117    2.137023
 no old-style atom pair restraining (fixing) potential

molecular fragmentation (1/2 indicates fragments):
111111111122222222222222222222222222222222222222222222222222222222222222
222222222222222222222222222222222222222222222222222222222222222222222222
222222222222222222222222222222222222222222222222222222222222222222222222
222222222222222222222222222222222222222222222222222222222222222222222222
222222222222222222222222222222222222222222222222222222222222222222222222
2222222222222222222222222222222222222222222222222112222222222222222
# atoms in fragment 1/2:    12   415
 fragment masses (1/2) :       73.09     2733.30
CMA distance (Bohr)    :  20.004
constraining FC (au)   :  0.0500
           ------------------------------------------------- 
          |        Self-Consistent Charge Iterations        |
           ------------------------------------------------- 

 Ncao       : 1015
 Nao        : 1015
 Nshell     : 623
 Nel        : 1124
 T(el)      :   500.0
 intcut     :    35.0
 scfconv/Eh :  0.100E-06
   qconv/e  :  0.100E-04
 intneglect :  0.100E-08
 broydamp   :      0.400
 iter      E             dE          RMSdq      gap      omega  full diag
   1   -643.5892350 -0.643589E+03  0.453E+00    3.02       0.0  T
   2   -645.1129215 -0.152369E+01  0.211E+00    1.82       1.0  T
   3   -645.2101341 -0.972126E-01  0.121E+00    1.82       1.0  T
   4   -645.3076473 -0.975132E-01  0.248E-01    1.23       1.0  T
   5   -645.3129057 -0.525840E-02  0.115E-01    1.40       1.0  T
   6   -645.3139886 -0.108291E-02  0.486E-02    1.36       1.0  T
   7   -645.3142094 -0.220720E-03  0.229E-02    1.34       1.0  T
   8   -645.3142466 -0.372342E-04  0.108E-02    1.33       1.0  T
   9   -645.3142599 -0.132914E-04  0.509E-03    1.32       1.0  T
  10   -645.3142624 -0.249877E-05  0.230E-03    1.32       2.1  T
  11   -645.3142629 -0.506123E-06  0.104E-03    1.32       4.7  T
  12   -645.3142630 -0.904375E-07  0.424E-04    1.32      11.4  T
  13   -645.3142630 -0.242761E-07  0.217E-04    1.32      22.3  T
  14   -645.3142630 -0.383443E-08  0.988E-05    1.32      49.0  T
  15   -645.3142630 -0.117905E-08  0.378E-05    1.32     127.9  T
speedup 12.34
cpu  time for SCC   40.87 s
wall time for SCC    3.31 s

   *** convergence criteria satisfied after 15 iterations ***

          eigenvalues
 #    :         550        551        552        553        554        555        556        557
 occ. :        2.000      2.000      2.000      2.000      2.000      2.000      2.000      2.000
 eps  :       -10.677    -10.642    -10.565    -10.403    -10.270    -10.093    -10.088    -10.013
 #    :         558        559        560        561        562        563        564        565
 occ. :        2.000      2.000      2.000      2.000      2.000      0.000      0.000      0.000
 eps  :        -9.893     -9.878     -9.846     -9.765     -9.500     -8.184     -8.127     -8.003
 #    :         566        567        568        569        570        571        572        573
 occ. :        0.000      0.000      0.000      0.000      0.000      0.000      0.000      0.000
 eps  :        -7.984     -7.839     -7.821     -7.695     -7.557     -7.352     -6.557     -6.531


   #   Z            q   n(s)   n(p)   n(d)      C6AA      α(0)
   1   7 N     -0.395  1.312  4.082  0.000    30.220     8.164
   2   6 C      0.042  1.052  2.906  0.000    19.881     6.352
   3   6 C      0.196  1.096  2.708  0.000    23.823     7.993
   4   8 O     -0.353  1.738  4.615  0.000    20.769     6.110
   5   6 C     -0.123  1.044  3.080  0.000    22.916     6.825
   6   1 H      0.170  0.830  0.000  0.000     1.270     1.765
   7   1 H      0.049  0.951  0.000  0.000     2.328     2.386
   8   1 H      0.058  0.942  0.000  0.000     2.226     2.333
   9   1 H      0.059  0.941  0.000  0.000     2.210     2.325
  10   1 H      0.063  0.937  0.000  0.000     2.162     2.299
  11   7 N     -0.394  1.314  4.080  0.000    30.198     8.161
  12   6 C      0.037  1.055  2.907  0.000    19.962     6.364
  13   6 C      0.266  1.049  2.685  0.000    22.506     7.769
  14   8 O     -0.515  1.751  4.764  0.000    24.111     6.583
  15   6 C     -0.122  1.043  3.079  0.000    22.885     6.820
  16   1 H      0.160  0.840  0.000  0.000     1.334     1.809
  17   1 H      0.020  0.980  0.000  0.000     2.730     2.584
  18   1 H      0.043  0.957  0.000  0.000     2.403     2.424
  19   1 H      0.047  0.953  0.000  0.000     2.357     2.401
  20   1 H      0.070  0.930  0.000  0.000     2.088     2.260
  21   7 N     -0.174  1.248  3.926  0.000    24.762     7.391
  22   6 C      0.029  1.058  2.913  0.000    20.094     6.383
  23   6 C      0.204  1.084  2.712  0.000    23.673     7.968
  24   8 O     -0.366  1.757  4.609  0.000    21.023     6.147
  25   6 C     -0.076  1.061  3.015  0.000    21.946     6.668
  26   6 C     -0.016  1.058  2.959  0.000    20.831     6.492
  27   6 C     -0.121  1.043  3.078  0.000    22.860     6.816
  28   6 C     -0.124  1.041  3.083  0.000    22.933     6.828
  29   1 H      0.246  0.754  0.000  0.000     0.898     1.485
  30   1 H      0.084  0.916  0.000  0.000     1.939     2.178
  31   1 H      0.060  0.940  0.000  0.000     2.201     2.320
  32   1 H      0.061  0.939  0.000  0.000     2.185     2.312
  33   1 H      0.051  0.949  0.000  0.000     2.313     2.378
  34   1 H      0.051  0.949  0.000  0.000     2.305     2.374
  35   1 H      0.037  0.963  0.000  0.000     2.494     2.470
  36   1 H      0.047  0.953  0.000  0.000     2.354     2.399
  37   1 H      0.053  0.947  0.000  0.000     2.287     2.365
  38   1 H      0.051  0.949  0.000  0.000     2.306     2.375
  39   1 H      0.040  0.960  0.000  0.000     2.452     2.449
  40   7 N     -0.402  1.313  4.089  0.000    30.422     8.192
  41   6 C      0.049  1.051  2.900  0.000    19.781     6.336
  42   6 C      0.202  1.095  2.703  0.000    23.698     7.972
  43   8 O     -0.387  1.753  4.634  0.000    21.418     6.205
  44   6 C     -0.114  1.042  3.072  0.000    22.732     6.797
  45   1 H      0.173  0.827  0.000  0.000     1.257     1.757
  46   1 H      0.049  0.951  0.000  0.000     2.333     2.388
  47   1 H      0.058  0.942  0.000  0.000     2.218     2.329
  48   1 H      0.056  0.944  0.000  0.000     2.245     2.343
  49   1 H      0.060  0.940  0.000  0.000     2.200     2.320
  50   7 N     -0.385  1.313  4.072  0.000    29.957     8.129
  51   6 C      0.033  1.057  2.910  0.000    20.027     6.373
  52   6 C      0.271  1.046  2.682  0.000    22.419     7.754
  53   8 O     -0.494  1.745  4.749  0.000    23.656     6.521
  54   6 C     -0.067  1.058  3.009  0.000    21.777     6.642
  55   6 C     -0.008  1.056  2.952  0.000    20.679     6.468
  56   6 C     -0.113  1.042  3.071  0.000    22.706     6.794
  57   6 C     -0.116  1.040  3.076  0.000    22.768     6.803
  58   1 H      0.157  0.843  0.000  0.000     1.358     1.825
  59   1 H      0.040  0.960  0.000  0.000     2.450     2.448
  60   1 H      0.039  0.961  0.000  0.000     2.467     2.456
  61   1 H      0.025  0.975  0.000  0.000     2.657     2.549
  62   1 H      0.030  0.970  0.000  0.000     2.592     2.518
  63   1 H      0.044  0.956  0.000  0.000     2.392     2.419
  64   1 H      0.028  0.972  0.000  0.000     2.617     2.530
  65   1 H      0.041  0.959  0.000  0.000     2.442     2.444
  66   1 H      0.046  0.954  0.000  0.000     2.373     2.409
  67   1 H      0.042  0.958  0.000  0.000     2.423     2.434
  68   1 H      0.037  0.963  0.000  0.000     2.484     2.465
  69   7 N     -0.177  1.242  3.935  0.000    24.837     7.402
  70   6 C      0.018  1.055  2.926  0.000    20.268     6.410
  71   6 C      0.269  1.042  2.689  0.000    22.454     7.760
  72   8 O     -0.497  1.748  4.750  0.000    23.724     6.530
  73   6 C     -0.122  1.041  3.081  0.000    22.896     6.822
  74   1 H      0.205  0.795  0.000  0.000     1.079     1.627
  75   1 H      0.081  0.919  0.000  0.000     1.968     2.194
  76   1 H      0.069  0.931  0.000  0.000     2.093     2.263
  77   1 H      0.062  0.938  0.000  0.000     2.179     2.308
  78   1 H      0.061  0.939  0.000  0.000     2.187     2.313
  79   7 N     -0.177  1.257  3.919  0.000    24.824     7.400
  80   6 C      0.023  1.061  2.916  0.000    20.185     6.396
  81   6 C      0.197  1.093  2.711  0.000    23.806     7.991
  82   8 O     -0.351  1.744  4.607  0.000    20.725     6.104
  83   6 C     -0.012  1.060  2.952  0.000    20.749     6.479
  84   6 C     -0.124  1.042  3.082  0.000    22.921     6.826
  85   6 C     -0.126  1.041  3.085  0.000    22.975     6.834
  86   1 H      0.227  0.773  0.000  0.000     0.977     1.549
  87   1 H      0.083  0.917  0.000  0.000     1.944     2.181
  88   1 H      0.052  0.948  0.000  0.000     2.293     2.368
  89   1 H      0.064  0.936  0.000  0.000     2.149     2.293
  90   1 H      0.048  0.952  0.000  0.000     2.340     2.392
  91   1 H      0.053  0.947  0.000  0.000     2.281     2.362
  92   1 H      0.061  0.939  0.000  0.000     2.185     2.311
  93   1 H      0.055  0.945  0.000  0.000     2.263     2.352
  94   1 H      0.039  0.961  0.000  0.000     2.458     2.452
  95   7 N     -0.396  1.320  4.076  0.000    30.260     8.170
  96   6 C      0.034  1.058  2.907  0.000    20.013     6.372
  97   6 C      0.276  1.049  2.674  0.000    22.327     7.738
  98   8 O     -0.494  1.736  4.757  0.000    23.648     6.520
  99   6 C     -0.066  1.051  3.015  0.000    21.746     6.637
 100   6 C      0.000  1.080  2.920  0.000    28.023     8.683
 101   6 C     -0.042  1.083  2.959  0.000    29.051     8.839
 102   6 C     -0.039  1.082  2.958  0.000    28.976     8.828
 103   6 C     -0.069  1.078  2.992  0.000    29.726     8.941
 104   6 C     -0.077  1.078  2.999  0.000    29.915     8.969
 105   6 C      0.129  1.044  2.826  0.000    25.161     8.221
 106   8 O     -0.422  1.705  4.717  0.000    21.272     6.226
 107   1 H      0.173  0.827  0.000  0.000     1.253     1.753
 108   1 H      0.047  0.953  0.000  0.000     2.363     2.404
 109   1 H      0.042  0.958  0.000  0.000     2.416     2.431
 110   1 H      0.028  0.972  0.000  0.000     2.620     2.531
 111   1 H      0.053  0.947  0.000  0.000     2.278     2.360
 112   1 H      0.019  0.981  0.000  0.000     2.743     2.590
 113   1 H      0.078  0.922  0.000  0.000     2.002     2.213
 114   1 H      0.048  0.952  0.000  0.000     2.340     2.392
 115   1 H      0.353  0.647  0.000  0.000     0.580     1.196
 116   7 N     -0.179  1.259  3.920  0.000    24.867     7.406
 117   6 C      0.028  1.058  2.914  0.000    20.099     6.383
 118   6 C      0.285  1.041  2.674  0.000    22.174     7.711
 119   8 O     -0.496  1.733  4.763  0.000    23.701     6.527
 120   6 C      0.092  1.033  2.876  0.000    19.270     6.289
 121   8 O     -0.492  1.717  4.775  0.000    22.723     6.435
 122   1 H      0.232  0.768  0.000  0.000     0.955     1.531
 123   1 H      0.060  0.940  0.000  0.000     2.203     2.321
 124   1 H      0.014  0.986  0.000  0.000     2.827     2.629
 125   1 H      0.033  0.967  0.000  0.000     2.550     2.497
 126   1 H      0.325  0.675  0.000  0.000     0.650     1.267
 127   7 N     -0.181  1.250  3.931  0.000    24.911     7.413
 128   6 C      0.031  1.053  2.916  0.000    20.056     6.376
 129   6 C      0.273  1.041  2.686  0.000    22.394     7.750
 130   8 O     -0.486  1.743  4.743  0.000    23.466     6.495
 131   6 C     -0.116  1.039  3.076  0.000    22.771     6.804
 132   1 H      0.223  0.777  0.000  0.000     0.994     1.562
 133   1 H      0.070  0.930  0.000  0.000     2.089     2.260
 134   1 H      0.072  0.928  0.000  0.000     2.068     2.249
 135   1 H      0.066  0.934  0.000  0.000     2.127     2.281
 136   1 H      0.047  0.953  0.000  0.000     2.359     2.402
 137   7 N     -0.172  1.241  3.931  0.000    24.712     7.383
 138   6 C      0.012  1.065  2.923  0.000    20.388     6.430
 139   6 C      0.192  1.088  2.720  0.000    23.905     8.007
 140   8 O     -0.353  1.746  4.607  0.000    20.760     6.109
 141   6 C      0.128  1.045  2.827  0.000    18.603     6.159
 142   8 O     -0.473  1.713  4.760  0.000    22.312     6.376
 143   6 C     -0.135  1.044  3.091  0.000    23.150     6.861
 144   1 H      0.223  0.777  0.000  0.000     0.995     1.563
 145   1 H      0.093  0.907  0.000  0.000     1.850     2.127
 146   1 H      0.025  0.975  0.000  0.000     2.658     2.550
 147   1 H      0.321  0.679  0.000  0.000     0.662     1.279
 148   1 H      0.073  0.927  0.000  0.000     2.054     2.241
 149   1 H      0.057  0.943  0.000  0.000     2.237     2.339
 150   1 H      0.072  0.928  0.000  0.000     2.064     2.247
 151   7 N     -0.390  1.315  4.075  0.000    30.090     8.147
 152   6 C      0.017  1.065  2.918  0.000    20.312     6.420
 153   6 C      0.274  1.047  2.679  0.000    22.370     7.745
 154   8 O     -0.474  1.739  4.735  0.000    23.210     6.459
 155   6 C      0.074  1.039  2.886  0.000    19.557     6.337
 156   8 O     -0.477  1.730  4.747  0.000    22.412     6.391
 157   1 H      0.181  0.819  0.000  0.000     1.210     1.723
 158   1 H      0.050  0.950  0.000  0.000     2.325     2.384
 159   1 H      0.033  0.967  0.000  0.000     2.550     2.497
 160   1 H      0.034  0.966  0.000  0.000     2.537     2.491
 161   1 H      0.334  0.666  0.000  0.000     0.626     1.243
 162   7 N     -0.181  1.259  3.923  0.000    24.931     7.416
 163   6 C      0.019  1.064  2.917  0.000    20.255     6.407
 164   6 C      0.275  1.043  2.682  0.000    22.343     7.741
 165   8 O     -0.509  1.747  4.761  0.000    23.981     6.566
 166   6 C     -0.019  1.064  2.955  0.000    20.884     6.500
 167   6 C     -0.067  1.051  3.016  0.000    21.778     6.644
 168   6 C     -0.117  1.038  3.079  0.000    22.802     6.808
 169   6 C     -0.111  1.037  3.074  0.000    22.686     6.792
 170   1 H      0.204  0.796  0.000  0.000     1.087     1.633
 171   1 H      0.071  0.929  0.000  0.000     2.077     2.254
 172   1 H      0.044  0.956  0.000  0.000     2.393     2.419
 173   1 H      0.042  0.958  0.000  0.000     2.420     2.433
 174   1 H      0.043  0.957  0.000  0.000     2.407     2.426
 175   1 H      0.065  0.935  0.000  0.000     2.137     2.286
 176   1 H      0.036  0.964  0.000  0.000     2.501     2.473
 177   1 H      0.041  0.959  0.000  0.000     2.441     2.443
 178   1 H      0.052  0.948  0.000  0.000     2.291     2.367
 179   1 H      0.046  0.954  0.000  0.000     2.376     2.411
 180   1 H      0.050  0.950  0.000  0.000     2.325     2.384
 181   7 N     -0.168  1.242  3.926  0.000    24.630     7.371
 182   6 C      0.038  1.052  2.909  0.000    19.933     6.357
 183   6 C      0.275  1.046  2.678  0.000    22.342     7.740
 184   8 O     -0.466  1.728  4.738  0.000    23.044     6.436
 185   6 C     -0.107  1.059  3.048  0.000    22.528     6.756
 186   6 C      0.294  1.034  2.671  0.000    22.006     7.681
 187   8 O     -0.493  1.743  4.751  0.000    23.636     6.518
 188   7 N     -0.280  1.265  4.015  0.000    27.223     7.749
 189   1 H      0.224  0.776  0.000  0.000     0.993     1.561
 190   1 H      0.062  0.938  0.000  0.000     2.181     2.309
 191   1 H      0.096  0.904  0.000  0.000     1.821     2.110
 192   1 H      0.073  0.927  0.000  0.000     2.053     2.241
 193   1 H      0.228  0.772  0.000  0.000     0.976     1.547
 194   1 H      0.234  0.766  0.000  0.000     0.948     1.525
 195   7 N     -0.169  1.243  3.926  0.000    24.667     7.376
 196   6 C      0.004  1.067  2.928  0.000    20.516     6.450
 197   6 C      0.286  1.042  2.672  0.000    22.149     7.707
 198   8 O     -0.489  1.740  4.749  0.000    23.542     6.505
 199   6 C      0.105  1.051  2.844  0.000    18.949     6.216
 200   8 O     -0.480  1.727  4.753  0.000    22.472     6.399
 201   6 C     -0.127  1.040  3.087  0.000    22.999     6.839
 202   1 H      0.200  0.800  0.000  0.000     1.106     1.648
 203   1 H      0.104  0.896  0.000  0.000     1.752     2.070
 204   1 H      0.072  0.928  0.000  0.000     2.068     2.249
 205   1 H      0.327  0.673  0.000  0.000     0.646     1.262
 206   1 H      0.071  0.929  0.000  0.000     2.075     2.253
 207   1 H      0.051  0.949  0.000  0.000     2.302     2.372
 208   1 H      0.050  0.950  0.000  0.000     2.314     2.379
 209   7 N     -0.161  1.243  3.918  0.000    24.481     7.348
 210   6 C      0.022  1.057  2.921  0.000    20.208     6.402
 211   6 C      0.204  1.086  2.710  0.000    23.673     7.968
 212   8 O     -0.354  1.751  4.602  0.000    20.780     6.112
 213   6 C      0.119  1.044  2.837  0.000    18.723     6.176
 214   8 O     -0.475  1.721  4.754  0.000    22.367     6.384
 215   6 C     -0.133  1.041  3.091  0.000    23.111     6.855
 216   1 H      0.221  0.779  0.000  0.000     1.007     1.572
 217   1 H      0.099  0.901  0.000  0.000     1.796     2.096
 218   1 H      0.046  0.954  0.000  0.000     2.370     2.408
 219   1 H      0.329  0.671  0.000  0.000     0.641     1.257
 220   1 H      0.057  0.943  0.000  0.000     2.240     2.341
 221   1 H      0.040  0.960  0.000  0.000     2.455     2.450
 222   1 H      0.072  0.928  0.000  0.000     2.060     2.245
 223   7 N     -0.395  1.320  4.075  0.000    30.225     8.165
 224   6 C      0.028  1.059  2.913  0.000    20.114     6.388
 225   6 C      0.272  1.044  2.684  0.000    22.397     7.750
 226   8 O     -0.501  1.752  4.749  0.000    23.802     6.541
 227   6 C     -0.130  1.046  3.085  0.000    23.056     6.847
 228   1 H      0.151  0.849  0.000  0.000     1.397     1.852
 229   1 H      0.051  0.949  0.000  0.000     2.303     2.373
 230   1 H      0.053  0.947  0.000  0.000     2.283     2.363
 231   1 H      0.059  0.941  0.000  0.000     2.211     2.325
 232   1 H      0.048  0.952  0.000  0.000     2.346     2.395
 233   7 N     -0.170  1.237  3.933  0.000    24.683     7.379
 234   6 C      0.019  1.059  2.922  0.000    20.255     6.409
 235   6 C      0.274  1.045  2.681  0.000    22.368     7.745
 236   8 O     -0.464  1.729  4.735  0.000    23.001     6.430
 237   6 C     -0.081  1.062  3.019  0.000    22.028     6.681
 238   6 C     -0.012  1.057  2.955  0.000    20.754     6.480
 239   6 C     -0.117  1.041  3.076  0.000    22.799     6.808
 240   6 C     -0.108  1.036  3.071  0.000    22.614     6.781
 241   1 H      0.212  0.788  0.000  0.000     1.047     1.603
 242   1 H      0.069  0.931  0.000  0.000     2.096     2.264
 243   1 H      0.064  0.936  0.000  0.000     2.148     2.292
 244   1 H      0.061  0.939  0.000  0.000     2.187     2.313
 245   1 H      0.036  0.964  0.000  0.000     2.505     2.475
 246   1 H      0.038  0.962  0.000  0.000     2.476     2.461
 247   1 H      0.053  0.947  0.000  0.000     2.279     2.361
 248   1 H      0.053  0.947  0.000  0.000     2.285     2.364
 249   1 H      0.038  0.962  0.000  0.000     2.481     2.463
 250   1 H      0.039  0.961  0.000  0.000     2.464     2.455
 251   1 H      0.021  0.979  0.000  0.000     2.716     2.577
 252   7 N     -0.179  1.252  3.927  0.000    24.879     7.408
 253   6 C      0.034  1.055  2.911  0.000    20.009     6.369
 254   6 C      0.273  1.043  2.684  0.000    22.389     7.748
 255   8 O     -0.480  1.737  4.743  0.000    23.347     6.478
 256   6 C     -0.094  1.054  3.039  0.000    22.280     6.718
 257   6 C      0.287  1.038  2.675  0.000    22.131     7.703
 258   8 O     -0.495  1.744  4.751  0.000    23.675     6.524
 259   7 N     -0.302  1.274  4.029  0.000    27.790     7.829
 260   1 H      0.203  0.797  0.000  0.000     1.089     1.635
 261   1 H      0.070  0.930  0.000  0.000     2.085     2.258
 262   1 H      0.085  0.915  0.000  0.000     1.932     2.173
 263   1 H      0.060  0.940  0.000  0.000     2.195     2.317
 264   1 H      0.210  0.790  0.000  0.000     1.058     1.611
 265   1 H      0.222  0.778  0.000  0.000     1.003     1.569
 266   7 N     -0.166  1.253  3.912  0.000    24.581     7.363
 267   6 C      0.013  1.063  2.924  0.000    20.364     6.426
 268   6 C      0.271  1.044  2.684  0.000    22.416     7.753
 269   8 O     -0.498  1.745  4.753  0.000    23.737     6.532
 270   6 C     -0.092  1.059  3.033  0.000    22.247     6.714
 271   6 C     -0.089  1.052  3.037  0.000    22.197     6.708
 272   6 C     -0.098  1.053  3.045  0.000    22.377     6.735
 273   6 C     -0.054  1.057  2.997  0.000    21.642     6.641
 274   7 N     -0.140  1.233  3.907  0.000    24.027     7.280
 275   1 H      0.235  0.765  0.000  0.000     0.946     1.523
 276   1 H      0.077  0.923  0.000  0.000     2.012     2.218
 277   1 H      0.085  0.915  0.000  0.000     1.927     2.171
 278   1 H      0.066  0.934  0.000  0.000     2.128     2.281
 279   1 H      0.071  0.929  0.000  0.000     2.073     2.251
 280   1 H      0.060  0.940  0.000  0.000     2.200     2.319
 281   1 H      0.087  0.913  0.000  0.000     1.909     2.161
 282   1 H      0.092  0.908  0.000  0.000     1.859     2.132
 283   1 H      0.112  0.888  0.000  0.000     1.682     2.028
 284   1 H      0.124  0.876  0.000  0.000     1.579     1.965
 285   1 H      0.302  0.698  0.000  0.000     0.707     1.318
 286   1 H      0.270  0.730  0.000  0.000     0.811     1.411
 287   1 H      0.295  0.705  0.000  0.000     0.727     1.336
 288   7 N     -0.156  1.237  3.919  0.000    24.383     7.334
 289   6 C      0.020  1.059  2.921  0.000    20.239     6.406
 290   6 C      0.197  1.088  2.715  0.000    23.805     7.990
 291   8 O     -0.342  1.742  4.600  0.000    20.548     6.077
 292   6 C     -0.076  1.061  3.015  0.000    21.953     6.670
 293   6 C     -0.011  1.057  2.954  0.000    20.733     6.477
 294   6 C     -0.121  1.043  3.078  0.000    22.867     6.818
 295   6 C     -0.102  1.036  3.066  0.000    22.500     6.763
 296   1 H      0.223  0.777  0.000  0.000     0.995     1.562
 297   1 H      0.095  0.905  0.000  0.000     1.829     2.115
 298   1 H      0.076  0.924  0.000  0.000     2.019     2.222
 299   1 H      0.062  0.938  0.000  0.000     2.174     2.306
 300   1 H      0.036  0.964  0.000  0.000     2.502     2.474
 301   1 H      0.034  0.966  0.000  0.000     2.526     2.485
 302   1 H      0.055  0.945  0.000  0.000     2.261     2.352
 303   1 H      0.052  0.948  0.000  0.000     2.300     2.372
 304   1 H      0.024  0.976  0.000  0.000     2.668     2.554
 305   1 H      0.041  0.959  0.000  0.000     2.437     2.441
 306   1 H      0.023  0.977  0.000  0.000     2.688     2.564
 307   7 N     -0.399  1.319  4.081  0.000    30.350     8.182
 308   6 C      0.027  1.058  2.915  0.000    20.140     6.392
 309   6 C      0.272  1.045  2.683  0.000    22.404     7.751
 310   8 O     -0.499  1.759  4.740  0.000    23.766     6.536
 311   6 C     -0.077  1.053  3.024  0.000    21.965     6.672
 312   6 C     -0.077  1.051  3.026  0.000    21.976     6.674
 313   6 C     -0.089  1.051  3.038  0.000    22.202     6.708
 314   6 C     -0.049  1.059  2.990  0.000    21.552     6.627
 315   7 N     -0.144  1.232  3.913  0.000    24.108     7.293
 316   1 H      0.167  0.833  0.000  0.000     1.290     1.779
 317   1 H      0.049  0.951  0.000  0.000     2.338     2.391
 318   1 H      0.050  0.950  0.000  0.000     2.324     2.384
 319   1 H      0.047  0.953  0.000  0.000     2.362     2.403
 320   1 H      0.063  0.937  0.000  0.000     2.163     2.300
 321   1 H      0.043  0.957  0.000  0.000     2.406     2.425
 322   1 H      0.068  0.932  0.000  0.000     2.111     2.272
 323   1 H      0.080  0.920  0.000  0.000     1.974     2.197
 324   1 H      0.118  0.882  0.000  0.000     1.627     1.994
 325   1 H      0.120  0.880  0.000  0.000     1.610     1.984
 326   1 H      0.302  0.698  0.000  0.000     0.706     1.317
 327   1 H      0.292  0.708  0.000  0.000     0.739     1.347
 328   1 H      0.292  0.708  0.000  0.000     0.738     1.346
 329   7 N     -0.179  1.249  3.930  0.000    24.869     7.406
 330   6 C      0.005  1.067  2.927  0.000    20.492     6.446
 331   6 C      0.269  1.045  2.686  0.000    22.465     7.762
 332   8 O     -0.476  1.735  4.741  0.000    23.262     6.466
 333   6 C      0.118  1.046  2.836  0.000    18.753     6.183
 334   8 O     -0.468  1.723  4.745  0.000    22.221     6.364
 335   6 C     -0.127  1.039  3.088  0.000    22.993     6.838
 336   1 H      0.222  0.778  0.000  0.000     1.001     1.567
 337   1 H      0.072  0.928  0.000  0.000     2.066     2.248
 338   1 H      0.032  0.968  0.000  0.000     2.553     2.499
 339   1 H      0.345  0.655  0.000  0.000     0.601     1.218
 340   1 H      0.071  0.929  0.000  0.000     2.076     2.253
 341   1 H      0.045  0.955  0.000  0.000     2.379     2.412
 342   1 H      0.055  0.945  0.000  0.000     2.254     2.348
 343   7 N     -0.175  1.251  3.923  0.000    24.782     7.394
 344   6 C      0.025  1.062  2.914  0.000    20.159     6.392
 345   6 C      0.265  1.047  2.688  0.000    22.530     7.773
 346   8 O     -0.505  1.735  4.770  0.000    23.900     6.554
 347   6 C     -0.046  1.048  2.999  0.000    21.398     6.585
 348   6 C     -0.098  1.065  3.033  0.000    22.365     6.733
 349   6 C      0.368  1.026  2.606  0.000    20.754     7.455
 350   8 O     -0.595  1.770  4.825  0.000    25.995     6.836
 351   8 O     -0.628  1.763  4.865  0.000    26.807     6.942
 352   1 H      0.201  0.799  0.000  0.000     1.103     1.645
 353   1 H      0.080  0.920  0.000  0.000     1.978     2.200
 354   1 H      0.052  0.948  0.000  0.000     2.298     2.370
 355   1 H      0.022  0.978  0.000  0.000     2.705     2.572
 356   1 H      0.032  0.968  0.000  0.000     2.553     2.499
 357   1 H      0.043  0.957  0.000  0.000     2.414     2.430
 358   7 N     -0.164  1.249  3.914  0.000    24.538     7.357
 359   6 C      0.015  1.063  2.922  0.000    20.329     6.420
 360   6 C      0.266  1.044  2.690  0.000    22.519     7.771
 361   8 O     -0.468  1.732  4.736  0.000    23.080     6.441
 362   6 C     -0.020  1.064  2.955  0.000    20.896     6.502
 363   6 C     -0.118  1.039  3.079  0.000    22.807     6.809
 364   6 C     -0.121  1.038  3.082  0.000    22.874     6.820
 365   1 H      0.245  0.755  0.000  0.000     0.902     1.488
 366   1 H      0.059  0.941  0.000  0.000     2.210     2.325
 367   1 H      0.051  0.949  0.000  0.000     2.302     2.373
 368   1 H      0.064  0.936  0.000  0.000     2.147     2.292
 369   1 H      0.034  0.966  0.000  0.000     2.527     2.486
 370   1 H      0.049  0.951  0.000  0.000     2.334     2.389
 371   1 H      0.070  0.930  0.000  0.000     2.090     2.261
 372   1 H      0.048  0.952  0.000  0.000     2.347     2.396
 373   1 H      0.048  0.952  0.000  0.000     2.349     2.397
 374   7 N     -0.162  1.239  3.924  0.000    24.510     7.353
 375   6 C      0.014  1.063  2.923  0.000    20.340     6.421
 376   6 C      0.201  1.082  2.717  0.000    23.715     7.975
 377   8 O     -0.354  1.756  4.598  0.000    20.788     6.113
 378   6 C     -0.011  1.063  2.947  0.000    20.730     6.476
 379   6 C     -0.112  1.036  3.076  0.000    22.708     6.795
 380   6 C     -0.127  1.041  3.086  0.000    22.999     6.838
 381   1 H      0.203  0.797  0.000  0.000     1.089     1.635
 382   1 H      0.108  0.892  0.000  0.000     1.717     2.049
 383   1 H      0.039  0.961  0.000  0.000     2.456     2.451
 384   1 H      0.035  0.965  0.000  0.000     2.518     2.482
 385   1 H      0.042  0.958  0.000  0.000     2.420     2.433
 386   1 H      0.054  0.946  0.000  0.000     2.267     2.355
 387   1 H      0.048  0.952  0.000  0.000     2.348     2.396
 388   1 H      0.051  0.949  0.000  0.000     2.309     2.376
 389   1 H      0.066  0.934  0.000  0.000     2.129     2.282
 390   7 N     -0.395  1.320  4.075  0.000    30.237     8.167
 391   6 C      0.037  1.057  2.906  0.000    19.969     6.365
 392   6 C      0.272  1.048  2.680  0.000    22.403     7.751
 393   8 O     -0.490  1.760  4.729  0.000    23.559     6.508
 394   6 C     -0.121  1.042  3.078  0.000    22.868     6.818
 395   1 H      0.165  0.835  0.000  0.000     1.304     1.789
 396   1 H      0.040  0.960  0.000  0.000     2.446     2.446
 397   1 H      0.047  0.953  0.000  0.000     2.352     2.398
 398   1 H      0.065  0.935  0.000  0.000     2.141     2.288
 399   1 H      0.048  0.952  0.000  0.000     2.341     2.392
 400   7 N     -0.192  1.259  3.934  0.000    25.168     7.451
 401   6 C      0.039  1.053  2.909  0.000    19.928     6.357
 402   6 C      0.213  1.079  2.707  0.000    23.488     7.937
 403   8 O     -0.385  1.758  4.627  0.000    21.379     6.199
 404   6 C     -0.117  1.039  3.078  0.000    22.799     6.808
 405   1 H      0.236  0.764  0.000  0.000     0.941     1.520
 406   1 H      0.067  0.933  0.000  0.000     2.120     2.277
 407   1 H      0.054  0.946  0.000  0.000     2.268     2.355
 408   1 H      0.061  0.939  0.000  0.000     2.185     2.312
 409   1 H      0.069  0.931  0.000  0.000     2.094     2.263
 410   1 H      0.176  0.824  0.000  0.000     1.236     1.741
 411   1 H      0.080  0.920  0.000  0.000     1.979     2.199
 412   1 H      0.175  0.825  0.000  0.000     1.243     1.746
 413   1 H      0.064  0.936  0.000  0.000     2.147     2.291
 414   1 H      0.172  0.828  0.000  0.000     1.257     1.756
 415   1 H      0.069  0.931  0.000  0.000     2.093     2.262
 416   1 H      0.184  0.816  0.000  0.000     1.192     1.710
 417   1 H      0.083  0.917  0.000  0.000     1.948     2.183
 418   1 H      0.193  0.807  0.000  0.000     1.143     1.675
 419   1 H      0.088  0.912  0.000  0.000     1.900     2.155
 420   1 H      0.185  0.815  0.000  0.000     1.183     1.704
 421   1 H      0.089  0.911  0.000  0.000     1.888     2.148
 422   1 H      0.185  0.815  0.000  0.000     1.185     1.705
 423   1 H      0.081  0.919  0.000  0.000     1.971     2.195
 424   1 H      0.193  0.807  0.000  0.000     1.140     1.673
 425   1 H      0.091  0.909  0.000  0.000     1.873     2.140
 426   1 H      0.189  0.811  0.000  0.000     1.164     1.690
 427   1 H      0.069  0.931  0.000  0.000     2.099     2.265

 Mol. C6AA /au·bohr⁶  :    1569601.166210
 Mol. C8AA /au·bohr⁸  :   34312873.282503
 Mol. α(0) /au        :       1866.704192

 
molecular dipole:
                 x           y           z       tot (Debye)
 q only:      335.882     117.783     166.147
   full:      335.723     120.967     167.390    1001.877
molecular quadrupole (traceless):
                xx          xy          yy          xz          yz          zz
 q only:    92687.023   59011.106  -55803.659   83943.765   28955.265  -36883.364
  q+dip:    91971.323   60634.026  -55251.999   84561.611   30136.359  -36719.323
   full:    91970.003   60633.803  -55253.096   84564.848   30135.649  -36716.907
speedup 12.61
cpu  time for grad   45.31 s
wall time for grad    3.59 s

SCC energy    :    -645.3321790
rep           :       7.7399056
ES            :       1.8515407
AES           :      -0.0765894
AXC           :       0.2126157
disp          :      -0.5351126
XB            :       0.0000000
fix           :       0.0000000
Gborn         :       0.0000000
Gsasa         :       0.0000000
Ghb           :       0.0000000
Gshift        :       0.0000000
Gsolv         :      -0.4208670     -264.10
Etot ala COSMO:    -645.3321790
grad norm     :       0.6701968
total E       :    -637.5360369
atomizationE  :     115.9340206    72749.70
(atE without considering molecular charge,
 total energy contains solvation terms)
H-L gap (eV)  :          1.3154

------------------------------------------------------------------------
 * finished run on 2019/02/13 at 00:18:34.502     
------------------------------------------------------------------------
 total:
 * wall-time:     0 d,  0 h,  0 min,  3.944 sec
 *  cpu-time:     0 d,  0 h,  0 min, 50.712 sec
 * ratio c/w:    12.858 speedup
 SCF:
 * wall-time:     0 d,  0 h,  0 min,  3.776 sec
 *  cpu-time:     0 d,  0 h,  0 min, 48.221 sec
 * ratio c/w:    12.770 speedup

