      -----------------------------------------------------------      
     |                   =====================                   |     
     |                           x T B                           |     
     |                   =====================                   |     
     |                         S. Grimme                         |     
     |          Mulliken Center for Theoretical Chemistry        |     
     |                    University of Bonn                     |     
     |                 Version 6.0.1 (SAW181210)                 |     
      -----------------------------------------------------------      

   This program is distributed in the hope that it will be useful,
   but WITHOUT ANY WARRANTY; without even the implied warranty of
   MERCHANTABILITY or FITNESS FOR A PARTICULAR PURPOSE.
   
   FOR NON-COMMERCIAL, ACADEMIA USE ONLY.
   
   Cite this work as:
   S. Grimme, C. Bannwarth, P. Shushkov, J. Comput. Theory Chem., 2017,
   13, 1989-2009.
   C. Bannwarth, S. Ehlert and S. Grimme., ChemRxiv, 2018, preprint.
   http://doi.org/10.26434/chemrxiv.7246238.v1
   
   for sTDA-xTB:
   S. Grimme and C. Bannwarth, J. Chem. Phys., 2016, 145, 054103.
   
   in the mass-spec context:
   V. Asgeirsson, C. Bauer and S. Grimme, Chem. Sci., 2017, 8, 4879.
   
   if GBSA is used:
   P. Shushkov, F. März and S. Grimme, unpublished.
   
   for ANC optimizer:
   S. Grimme, unpublished.
   Rational Function algorithm used in ANCopt:
   F. Eckert, P. Pulay, H.-J. Werner, J. Comput. Chem., 1997, 18, 1473.
   
   with help from (in alphabetical order)
   C. Bannwarth, F. Bohle, G. Brandenburg, E. Caldeweyher, M. Checinski,
   S. Dohm, S. Ehlert, S. Ehrlich, F. März, H. Neugebauer, J. Pisarek,
   P. Pracht, P. Shushkov, and S. Spicher.
   
 * started run on 2019/03/14 at 15:08:21.030     
========================================================================
 # omp threads = 1
========================================================================
number of atoms            : 611
number of electrons        : 1618
charge                     : -1
spin                       : .0
first test random number   : .5465
           ------------------------------------------------- 
          |                 G F N 2 - x T B                 |
          | Geometry, Frequencies, Noncovalent interactions |
          |            JCTC 2018 parametrisation            |
           ------------------------------------------------- 
 
      method parameters     
 k(s)        :  1.8500
 k(p)        :  2.2300
 k(d)        :  2.2300
 k(f)        :  2.0000
 kEN (H0ij)  : -2.0000
 D4 a1       :  0.5200
 D4 a2       :  5.0000
 D4 s6       :  1.0000
 D4 s8       :  2.7000
 D4 s9       :  5.0000
 alphaj      :  2.0000

 Solvent             : h2o
 Using internal parameter file: .param_gbsa2_h2o
 Gsolv ref. state (COSMO-RS): gsolv [1 M gas/solution]
 temperature (mdtemp)       :    298.150000000000     
 dielectric constant        :    80.2000000000000     
 rho                        :    1.00000000000000     
 mass                       :    18.0000000000000     
 surface tension            :    15.5689454083859     
 probe radius               :   0.975313790000000     
 vdW radii scaling          :    1.00000000000000     
 Gshift (Eh)                :   1.857443126794793E-003
 c1                         :    1.55243817000000     
 soset                      :   0.130326360000000     
 HB correction              :  T

            Z     q(EN)     CN     RAES       Cart. coordinates
     1  N   5.0   -0.22    3.24    1.96   113.94524   103.72631    56.89863
     2  C   4.0    0.03    4.27    4.15   115.06120   105.33891    55.01445
     3  C   4.0    0.14    3.47    3.10   115.88542   103.72298    52.77300
     4  O   6.0   -0.34    1.43    1.80   115.66188   104.60962    50.64343
     5  C   4.0    0.03    4.14    3.87   117.25256   106.94566    56.03448
     6  O   6.0   -0.26    2.04    1.83   116.48057   108.72595    57.82777
     7  H   1.0    0.08    1.02    1.43   114.76551   103.63722    58.62704
     8  H   1.0    0.05    1.05    1.44   113.59812   106.62718    54.28539
     9  H   1.0    0.03    1.01    1.43   118.70749   105.67881    56.78948
    10  H   1.0    0.05    1.02    1.43   118.03892   108.02262    54.45684
    11  H   1.0    0.11    1.02    1.43   115.99882   107.82987    59.35520
    12  N   5.0   -0.15    3.45    2.05   116.68452   101.35161    53.12114
    13  C   4.0    0.03    4.53    4.58   117.13351    99.87720    50.84384
    14  C   4.0    0.15    3.55    3.14   114.64029    99.31395    49.51739
    15  O   6.0   -0.34    1.39    1.80   114.59621    99.05411    47.21441
    16  C   4.0   -0.03    4.31    4.21   118.60776    97.36290    51.10440
    17  C   4.0   -0.05    4.20    4.01   120.51914    97.26069    48.91704
    18  C   4.0   -0.08    4.19    3.98   116.92443    95.01376    51.03370
    19  C   4.0   -0.08    4.03    3.68   121.75059    94.68265    48.55221
    20  H   1.0    0.07    1.05    1.44   117.47099   100.83043    54.79510
    21  H   1.0    0.05    1.08    1.44   118.21500   101.08246    49.54171
    22  H   1.0    0.03    1.05    1.44   119.61526    97.40277    52.90900
    23  H   1.0    0.04    1.03    1.43   119.52078    97.74295    47.17796
    24  H   1.0    0.03    1.02    1.43   121.96592    98.69524    49.24066
    25  H   1.0    0.03    1.00    1.43   118.03773    93.36766    51.53714
    26  H   1.0    0.04    1.01    1.43   115.38712    95.17615    52.36873
    27  H   1.0    0.05    1.00    1.43   116.14226    94.74093    49.15112
    28  H   1.0    0.04    1.00    1.43   123.27848    94.82798    47.18904
    29  H   1.0    0.03    1.00    1.43   122.51198    93.97201    50.32117
    30  H   1.0    0.04    1.00    1.43   120.38009    93.34113    47.81868
    31  N   5.0   -0.15    3.52    2.09   112.58572    99.00604    50.92957
    32  C   4.0    0.03    4.45    4.46   110.20238    98.33442    49.77822
    33  C   4.0    0.15    3.46    3.10   109.14602   100.57098    48.30025
    34  O   6.0   -0.33    1.33    1.80   108.00719   100.22538    46.31598
    35  C   4.0   -0.05    4.37    4.32   108.14818    97.57219    51.66365
    36  C   4.0   -0.03    4.19    3.98   108.93778    95.54727    53.56841
    37  C   4.0   -0.08    4.10    3.81   106.88285    95.23711    55.56753
    38  C   4.0   -0.08    4.11    3.82   109.50323    93.02166    52.31648
    39  H   1.0    0.07    1.07    1.44   112.74181    99.07563    52.83100
    40  H   1.0    0.05    1.06    1.44   110.51937    96.81349    48.40381
    41  H   1.0    0.04    1.03    1.43   107.57404    99.27881    52.67298
    42  H   1.0    0.04    1.03    1.43   106.54185    96.89496    50.55775
    43  H   1.0    0.03    1.06    1.44   110.66934    96.17104    54.48436
    44  H   1.0    0.03    1.00    1.43   107.61221    94.24958    57.21370
    45  H   1.0    0.04    1.00    1.43   106.18569    97.07685    56.16296
    46  H   1.0    0.04    1.00    1.43   105.31761    94.15477    54.79762
    47  H   1.0    0.03    1.00    1.43   110.16437    91.69642    53.73810
    48  H   1.0    0.04    1.00    1.43   107.82229    92.24523    51.42750
    49  H   1.0    0.04    1.00    1.43   110.96569    93.24639    50.89522
    50  N   5.0   -0.14    3.51    2.08   109.45410   102.81842    49.38460
    51  C   4.0    0.03    4.32    4.24   108.61037   105.17041    48.27124
    52  C   4.0    0.15    3.46    3.10   110.49661   105.93235    46.20075
    53  O   6.0   -0.31    1.42    1.80   109.74709   106.30405    44.04629
    54  C   4.0   -0.08    4.09    3.79   108.19109   107.15472    50.31001
    55  H   1.0    0.08    1.07    1.44   110.20667   102.92126    51.14667
    56  H   1.0    0.05    1.06    1.44   106.82670   104.83610    47.26244
    57  H   1.0    0.04    1.02    1.43   107.43455   108.85690    49.45783
    58  H   1.0    0.04    1.00    1.43   106.83610   106.46517    51.69090
    59  H   1.0    0.04    1.00    1.43   109.94190   107.60368    51.27943
    60  N   5.0   -0.14    3.50    2.08   112.92678   106.05538    46.84024
    61  C   4.0    0.04    4.50    4.53   114.83784   106.52710    44.91828
    62  C   4.0    0.16    3.58    3.15   114.48428   104.59606    42.82154
    63  O   6.0   -0.33    1.40    1.80   114.36607   105.35383    40.63157
    64  C   4.0   -0.02    4.28    4.17   117.57065   106.69405    45.94058
    65  C   4.0   -0.05    4.16    3.92   119.12495   109.01943    45.06976
    66  C   4.0   -0.07    4.18    3.95   119.11997   104.34840    45.29485
    67  C   4.0   -0.08    4.03    3.67   117.68136   111.22840    43.93409
    68  H   1.0    0.12    1.15    1.45   113.53756   105.68108    48.61534
    69  H   1.0    0.05    1.09    1.44   114.34116   108.30917    44.00219
    70  H   1.0    0.06    1.09    1.44   117.42920   106.77708    47.99007
    71  H   1.0    0.04    1.03    1.43   120.17365   109.71435    46.70463
    72  H   1.0    0.04    1.04    1.43   120.51434   108.40226    43.67332
    73  H   1.0    0.04    1.00    1.43   120.99882   104.53552    46.10127
    74  H   1.0    0.05    1.00    1.43   118.24648   102.66067    46.06381
    75  H   1.0    0.04    1.00    1.43   119.30629   104.15874    43.25377
    76  H   1.0    0.04    1.00    1.43   118.99871   112.74455    43.49921
    77  H   1.0    0.04    1.00    1.43   116.77201   110.67242    42.17511
    78  H   1.0    0.04    1.00    1.43   116.28852   111.97639    45.24310
    79  N   5.0   -0.14    3.52    2.09   114.18660   102.16091    43.38813
    80  C   4.0    0.04    4.45    4.46   113.67355   100.45402    41.32033
    81  C   4.0    0.15    3.49    3.11   111.04081   101.02011    40.26559
    82  O   6.0   -0.34    1.51    1.80   110.71937   100.81251    37.97053
    83  C   4.0   -0.04    4.29    4.18   114.03701    97.63948    41.86581
    84  C   4.0   -0.02    4.15    3.91   116.78127    96.67118    42.22321
    85  C   4.0   -0.08    4.12    3.83   117.27431    94.34833    40.58241
    86  C   4.0   -0.08    4.13    3.85   118.87877    98.57463    41.70823
    87  H   1.0    0.12    1.14    1.45   114.49856   101.36122    45.10899
    88  H   1.0    0.05    1.07    1.44   114.96386   100.90867    39.75475
    89  H   1.0    0.06    1.03    1.43   112.96139    97.15212    43.54456
    90  H   1.0    0.04    1.04    1.43   113.21621    96.67379    40.23593
    91  H   1.0    0.05    1.06    1.44   116.97206    96.10990    44.20077
    92  H   1.0    0.04    1.00    1.43   119.26992    93.87315    40.67494
    93  H   1.0    0.04    1.01    1.43   116.20564    92.73746    41.24525
    94  H   1.0    0.04    1.00    1.43   116.76868    94.71048    38.62006
    95  H   1.0    0.03    1.00    1.43   120.67814    97.70558    42.19362
    96  H   1.0    0.04    1.00    1.43   118.94220    99.11062    39.72594
    97  H   1.0    0.04    1.01    1.43   118.65137   100.25127    42.85041
    98  N   5.0   -0.13    3.54    2.11   109.12715   101.83580    41.67649
    99  C   4.0    0.04    4.52    4.56   106.73935   102.44126    40.42904
   100  C   4.0    0.15    3.48    3.11   106.98960   104.72291    38.68730
   101  O   6.0   -0.34    1.32    1.80   105.41742   105.10747    37.01011
   102  C   4.0   -0.01    4.27    4.15   104.62759   102.85219    42.40590
   103  C   4.0   -0.07    4.15    3.91   102.73940   104.93812    41.78333
   104  C   4.0   -0.07    4.12    3.85   103.20579   100.38880    42.82468
   105  H   1.0    0.12    1.13    1.45   109.04566   101.59232    43.57591
   106  H   1.0    0.05    1.06    1.44   106.23449   100.83063    39.21066
   107  H   1.0    0.06    1.07    1.44   105.57493   103.41101    44.14252
   108  H   1.0    0.03    1.00    1.43   101.39424   105.03873    43.33231
   109  H   1.0    0.05    1.02    1.43   103.69366   106.74047    41.62792
   110  H   1.0    0.06    1.00    1.43   101.73434   104.55103    40.04004
   111  H   1.0    0.04    1.00    1.43   101.90674   100.60593    44.39572
   112  H   1.0    0.04    1.00    1.43   102.13962    99.92092    41.13472
   113  H   1.0    0.05    1.00    1.43   104.51279    98.87045    43.25424
   114  N   5.0   -0.13    3.61    2.17   108.97271   106.20656    39.05837
   115  C   4.0    0.04    4.43    4.43   109.51621   108.37114    37.51294
   116  C   4.0    0.14    3.41    3.08   111.64564   107.89009    35.57919
   117  O   6.0   -0.32    1.21    1.80   111.97256   109.35389    33.81747
   118  C   4.0   -0.03    4.33    4.25   110.30562   110.64507    39.13545
   119  C   4.0   -0.00    3.58    3.16   108.83723   110.91290    41.55686
   120  C   4.0   -0.03    3.57    3.15   110.14403   111.41115    43.77682
   121  C   4.0   -0.04    3.50    3.11   106.24609   110.56069    41.71772
   122  C   4.0   -0.05    3.40    3.08   108.90713   111.90395    46.02388
   123  C   4.0   -0.05    3.42    3.09   105.01816   110.82654    44.02027
   124  C   4.0   -0.05    3.39    3.08   106.30707   111.68332    46.12530
   125  H   1.0    0.13    1.14    1.45   109.99857   106.01778    40.67049
   126  H   1.0    0.05    1.06    1.44   107.80883   108.81376    36.42512
   127  H   1.0    0.05    1.04    1.43   112.30585   110.44769    39.61072
   128  H   1.0    0.04    1.03    1.43   110.10444   112.31645    37.93704
   129  H   1.0    0.04    1.04    1.43   112.18018   111.39439    43.73037
   130  H   1.0    0.05    1.03    1.43   105.18757   110.07627    40.04094
   131  H   1.0    0.04    1.03    1.43   109.98255   112.37895    47.69373
   132  H   1.0    0.04    1.03    1.43   103.05003   110.33188    44.20266
   133  H   1.0    0.04    1.03    1.43   105.29658   112.15233    47.83359
   134  N   5.0   -0.14    3.58    2.14   112.93622   105.73680    35.94833
   135  C   4.0    0.03    4.40    4.38   115.02293   104.84778    34.40631
   136  C   4.0    0.14    3.39    3.07   114.18250   102.60265    32.73910
   137  O   6.0   -0.31    1.24    1.80   115.35456   102.01219    30.82663
   138  C   4.0   -0.03    4.31    4.22   117.31823   104.27366    36.08470
   139  C   4.0   -0.01    3.53    3.13   119.80340   103.80039    34.78321
   140  C   4.0   -0.05    3.47    3.10   121.78766   102.72539    36.13940
   141  C   4.0   -0.02    3.51    3.12   120.24474   104.54736    32.31600
   142  C   4.0   -0.04    3.43    3.09   124.12373   102.35968    35.03719
   143  C   4.0   -0.03    3.44    3.09   122.57392   104.21850    31.19205
   144  C   4.0    0.07    3.46    3.10   124.51826   103.09668    32.54391
   145  O   6.0   -0.24    2.11    1.84   126.85087   102.73906    31.51471
   146  H   1.0    0.12    1.16    1.45   112.90615   105.02504    37.73871
   147  H   1.0    0.05    1.07    1.44   115.53803   106.34263    33.07672
   148  H   1.0    0.05    1.04    1.43   117.54293   105.91516    37.32718
   149  H   1.0    0.05    1.03    1.43   116.87454   102.64646    37.26960
   150  H   1.0    0.04    1.03    1.43   121.52420   102.22382    38.10251
   151  H   1.0    0.06    1.04    1.43   118.75919   105.43212    31.24967
   152  H   1.0    0.05    1.03    1.43   125.67994   101.54850    36.07727
   153  H   1.0    0.06    1.03    1.43   122.87673   104.83995    29.26410
   154  H   1.0    0.12    1.04    1.43   126.87233   103.41919    29.82175
   155  N   5.0   -0.15    3.60    2.16   111.98024   101.59187    33.43699
   156  C   4.0    0.03    4.36    4.31   110.55397    99.62826    32.16159
   157  C   4.0    0.14    3.49    3.11   109.14174   100.71215    29.88721
   158  O   6.0   -0.31    1.32    1.80   108.91141    99.41717    27.97206
   159  C   4.0   -0.04    4.40    4.38   108.84629    98.25477    34.08123
   160  C   4.0   -0.03    4.17    3.94   107.70246    95.70048    33.33505
   161  C   4.0   -0.08    4.15    3.90   109.82779    93.84289    32.81498
   162  C   4.0   -0.08    4.13    3.85   106.15310    94.75627    35.58059
   163  H   1.0    0.12    1.21    1.47   111.44593   101.94219    35.25588
   164  H   1.0    0.05    1.06    1.44   111.86867    98.24109    31.35944
   165  H   1.0    0.06    1.07    1.44   110.06727    97.86108    35.68903
   166  H   1.0    0.05    1.03    1.43   107.38677    99.54216    34.75343
   167  H   1.0    0.04    1.06    1.44   106.54622    95.83558    31.64527
   168  H   1.0    0.03    1.00    1.43   109.14325    91.91980    32.59160
   169  H   1.0    0.04    1.00    1.43   110.83737    94.38054    31.11402
   170  H   1.0    0.03    1.01    1.43   111.13878    93.88450    34.38872
   171  H   1.0    0.03    1.00    1.43   105.14488    93.02973    35.12778
   172  H   1.0    0.04    1.01    1.43   107.46623    94.38359    37.11228
   173  H   1.0    0.04    1.00    1.43   104.78644    96.15256    36.20575
   174  N   5.0   -0.11    3.67    2.23   108.15534   103.05689    29.96713
   175  C   4.0    0.03    4.57    4.63   107.09663   104.12907    27.66885
   176  C   4.0    0.14    3.52    3.12   109.03329   104.63365    25.56808
   177  O   6.0   -0.29    1.27    1.80   108.52350   103.96771    23.40288
   178  C   4.0   -0.05    4.29    4.17   105.72401   106.56341    28.44955
   179  C   4.0   -0.04    4.22    4.03   106.40830   107.03591    31.22579
   180  C   4.0   -0.01    4.40    4.38   107.97679   104.76637    32.10727
   181  H   1.0    0.06    1.06    1.44   105.80462   102.74400    26.82272
   182  H   1.0    0.04    1.03    1.43   106.34705   108.10587    27.24053
   183  H   1.0    0.04    1.02    1.43   103.69101   106.37072    28.20908
   184  H   1.0    0.05    1.03    1.43   107.56533   108.72681    31.40046
   185  H   1.0    0.04    1.02    1.43   104.72230   107.29828    32.36924
   186  H   1.0    0.06    1.08    1.44   109.83161   105.43175    32.65294
   187  H   1.0    0.06    1.04    1.43   107.18849   103.81069    33.74935
   188  N   5.0   -0.11    3.67    2.23   111.16181   105.91759    26.07657
   189  C   4.0    0.04    4.60    4.67   112.93994   106.32383    24.02628
   190  C   4.0    0.17    3.46    3.10   113.79266   103.78908    22.93355
   191  O   6.0   -0.27    1.22    1.80   114.13020   103.49764    20.66705
   192  C   4.0   -0.04    4.30    4.20   115.17168   107.79110    25.14133
   193  C   4.0   -0.04    4.23    4.06   114.91020   107.51185    28.00467
   194  C   4.0   -0.00    4.37    4.33   112.20455   106.62507    28.50799
   195  H   1.0    0.06    1.05    1.44   112.05762   107.36466    22.47305
   196  H   1.0    0.05    1.03    1.43   116.94690   106.99242    24.46077
   197  H   1.0    0.05    1.02    1.43   115.12236   109.76979    24.57631
   198  H   1.0    0.05    1.03    1.43   116.25174   106.08718    28.64422
   199  H   1.0    0.05    1.02    1.43   115.28869   109.28591    28.97453
   200  H   1.0    0.06    1.07    1.44   112.24038   104.99869    29.76121
   201  H   1.0    0.05    1.02    1.43   111.07775   108.10957    29.38923
   202  N   5.0   -0.13    3.53    2.10   114.13409   101.95443    24.64405
   203  C   4.0    0.05    4.42    4.41   115.27276    99.56202    23.98599
   204  C   4.0    0.15    3.38    3.07   113.37592    97.69505    22.83968
   205  O   6.0   -0.29    1.22    1.80   114.09451    96.00262    21.43158
   206  C   4.0   -0.03    4.28    4.16   116.65707    98.53457    26.28811
   207  C   4.0    0.25    3.14    3.03   119.53248    99.26691    26.25107
   208  O   6.0   -0.29    1.18    1.80   120.53346    99.68922    28.32654
   209  O   6.0   -0.30    1.18    1.80   120.62305    99.34230    24.15560
   210  H   1.0    0.09    1.08    1.44   114.12834   102.34799    26.51253
   211  H   1.0    0.08    1.07    1.44   116.69457    99.86897    22.48867
   212  H   1.0    0.07    1.05    1.44   115.89744    99.28899    28.04278
   213  H   1.0    0.05    1.06    1.44   116.50222    96.48925    26.35224
   214  N   5.0   -0.13    3.47    2.06   110.92962    98.07354    23.40207
   215  C   4.0    0.04    4.32    4.23   108.95200    96.32453    22.62153
   216  C   4.0    0.16    3.44    3.09   106.34354    97.57911    22.74672
   217  O   6.0   -0.31    1.38    1.80   104.75626    96.88911    24.27216
   218  C   4.0   -0.05    4.14    3.88   108.89077    93.98061    24.31147
   219  H   1.0    0.12    1.11    1.45   110.47210    99.23165    24.85697
   220  H   1.0    0.06    1.05    1.44   109.36970    95.77260    20.66703
   221  H   1.0    0.05    1.00    1.43   107.35226    92.75715    23.71935
   222  H   1.0    0.05    1.00    1.43   110.66487    92.96294    24.14533
   223  H   1.0    0.06    1.00    1.43   108.58880    94.56639    26.25746
   224  N   5.0   -0.14    3.35    2.00   105.78543    99.32220    20.98724
   225  C   4.0    0.02    4.26    4.11   103.49114   100.81359    21.20386
   226  C   4.0    0.16    3.39    3.08   101.13558    99.26882    21.81296
   227  O   6.0   -0.32    1.29    1.80    99.57907   100.03503    23.34616
   228  H   1.0    0.09    1.06    1.44   107.17740   100.02666    19.89480
   229  H   1.0    0.06    1.02    1.43   103.67550   102.24432    22.69266
   230  H   1.0    0.04    1.03    1.43   103.15343   101.77914    19.41220
   231  N   5.0   -0.14    3.48    2.07   100.81765    97.12246    20.49872
   232  C   4.0    0.03    4.40    4.38    98.53226    95.60437    20.61868
   233  C   4.0    0.15    3.54    3.14    97.85742    94.79196    23.29604
   234  O   6.0   -0.30    1.27    1.80    95.67877    94.27603    23.89582
   235  C   4.0   -0.04    4.30    4.19    98.82527    93.20702    19.02774
   236  C   4.0   -0.02    4.19    3.98    96.34827    91.77820    18.74319
   237  C   4.0    0.25    3.09    3.02    96.63834    89.29594    17.17516
   238  O   6.0   -0.28    1.18    1.80    98.79212    88.73941    16.40132
   239  O   6.0   -0.28    1.16    1.80    94.65561    88.06244    16.83698
   240  H   1.0    0.08    1.07    1.44   102.13592    96.58236    19.23319
   241  H   1.0    0.05    1.05    1.44    96.91887    96.70746    19.91272
   242  H   1.0    0.05    1.03    1.43    99.50296    93.69600    17.14232
   243  H   1.0    0.06    1.03    1.43   100.21657    91.94953    19.89146
   244  H   1.0    0.07    1.03    1.43    95.56537    91.23808    20.57416
   245  H   1.0    0.05    1.02    1.43    94.93567    92.94513    17.79279
   246  N   5.0   -0.14    3.55    2.11    99.78015    94.63705    24.92110
   247  C   4.0    0.04    4.45    4.46    99.28475    94.17707    27.55750
   248  C   4.0    0.15    3.58    3.16    97.39856    96.02925    28.66235
   249  O   6.0   -0.33    1.46    1.80    96.67407    95.70507    30.85496
   250  C   4.0   -0.05    4.29    4.19   101.75334    94.43434    29.04775
   251  C   4.0   -0.03    4.26    4.13   102.61002    97.19430    29.20602
   252  C   4.0   -0.05    4.19    3.97   101.74643    98.51624    31.62630
   253  C   4.0   -0.04    4.15    3.90   102.95442   101.11963    31.77530
   254  N   5.0   -0.12    4.05    3.00   102.01780   102.65925    33.93603
   255  H   1.0    0.11    1.11    1.45   101.53502    95.27592    24.46981
   256  H   1.0    0.05    1.05    1.44    98.44508    92.29034    27.79500
   257  H   1.0    0.04    1.03    1.43   101.47167    93.66831    30.93738
   258  H   1.0    0.04    1.03    1.43   103.18002    93.31908    28.06825
   259  H   1.0    0.06    1.04    1.43   104.66110    97.25374    29.09625
   260  H   1.0    0.07    1.04    1.43   101.95151    98.19853    27.53957
   261  H   1.0    0.05    1.05    1.44    99.70115    98.66134    31.66176
   262  H   1.0    0.04    1.03    1.43   102.37277    97.37460    33.21912
   263  H   1.0    0.04    1.06    1.44   104.96960   100.80197    31.96396
   264  H   1.0    0.04    1.03    1.43   102.63188   102.14477    30.02177
   265  H   1.0    0.08    1.05    1.44   103.18549   104.19252    34.31903
   266  H   1.0    0.06    1.03    1.43   100.22452   103.35056    33.61401
   267  H   1.0    0.07    1.04    1.43   101.94249   101.64207    35.61134
   268  N   5.0   -0.13    3.52    2.09    96.67291    98.03502    27.36193
   269  C   4.0    0.04    4.38    4.34    95.16578    99.96715    28.56721
   270  C   4.0    0.10    3.30    3.05    93.23909    98.89519    30.44575
   271  O   6.0   -0.30    1.13    1.80    92.88244    99.95420    32.46778
   272  C   4.0   -0.04    4.31    4.23    93.87900   101.61635    26.55688
   273  C   4.0   -0.03    4.05    3.70    93.19397   104.22888    27.55143
   274  S   6.0   -0.03    2.55    3.10    95.77926   106.48584    27.45042
   275  C   4.0   -0.07    3.92    3.49    97.86711   105.20459    29.92347
   276  H   1.0    0.11    1.12    1.45    97.40109    98.52867    25.65217
   277  H   1.0    0.05    1.09    1.44    96.44561   101.13511    29.68536
   278  H   1.0    0.06    1.04    1.43    95.12572   101.81261    24.91854
   279  H   1.0    0.05    1.03    1.43    92.15421   100.66149    25.96441
   280  H   1.0    0.05    1.08    1.44    91.73716   105.10635    26.38418
   281  H   1.0    0.06    1.07    1.44    92.50062   104.09030    29.48407
   282  H   1.0    0.05    1.06    1.44    99.10015   106.77251    30.37763
   283  H   1.0    0.04    1.03    1.43    96.68837   104.65231    31.51723
   284  H   1.0    0.04    1.04    1.43    98.95613   103.66647    29.11678
   285  N   5.0   -0.19    3.30    1.98    92.95335    92.85581    32.99807
   286  C   4.0    0.03    4.31    4.21    94.62685    91.59227    34.76571
   287  C   4.0    0.15    3.45    3.09    95.33716    93.46275    36.84214
   288  O   6.0   -0.31    1.26    1.80    95.18793    92.91847    39.09317
   289  C   4.0   -0.05    4.38    4.35    96.80145    90.56107    33.14290
   290  C   4.0   -0.03    4.16    3.92    99.01592    89.28591    34.47762
   291  C   4.0   -0.08    4.10    3.80   100.79841    88.16364    32.48730
   292  C   4.0   -0.08    4.13    3.86   100.40305    91.16924    36.17408
   293  H   1.0    0.10    1.04    1.43    93.41165    92.80740    31.14934
   294  H   1.0    0.04    1.05    1.44    93.64336    90.04245    35.72663
   295  H   1.0    0.04    1.04    1.43    95.92793    89.17472    31.89226
   296  H   1.0    0.06    1.06    1.44    97.53417    92.13533    32.04278
   297  H   1.0    0.04    1.06    1.44    98.26811    87.72987    35.60168
   298  H   1.0    0.04    1.00    1.43   102.20342    86.92783    33.34079
   299  H   1.0    0.04    1.00    1.43    99.73600    87.03269    31.14134
   300  H   1.0    0.03    1.00    1.43   101.80015    89.64394    31.48173
   301  H   1.0    0.03    1.00    1.43   102.33478    90.57025    36.51440
   302  H   1.0    0.04    1.00    1.43   100.43864    93.01472    35.28027
   303  H   1.0    0.05    1.01    1.43    99.48372    91.31909    38.00111
   304  N   5.0   -0.15    3.49    2.07    96.06957    95.74442    36.06686
   305  C   4.0    0.04    4.30    4.20    96.81570    97.68759    37.82925
   306  C   4.0    0.09    3.27    3.05    94.78351    98.12446    39.81462
   307  O   6.0   -0.33    1.21    1.80    95.34612    98.56250    42.01928
   308  C   4.0    0.03    4.18    3.96    97.23174   100.18740    36.40571
   309  O   6.0   -0.28    2.09    1.84    98.79261   101.84364    37.76522
   310  H   1.0    0.11    1.12    1.45    96.11943    96.16903    34.19851
   311  H   1.0    0.05    1.05    1.44    98.54233    97.11215    38.83928
   312  H   1.0    0.04    1.03    1.43    98.17787    99.76505    34.62933
   313  H   1.0    0.06    1.02    1.43    95.40796   101.04598    35.94387
   314  H   1.0    0.12    1.03    1.43    98.05714   102.14152    39.40923
   315  N   5.0   -0.19    3.23    1.96    95.24179    93.72998    44.88196
   316  C   4.0    0.03    4.24    4.07    97.15444    94.62032    46.62687
   317  C   4.0    0.15    3.47    3.10    95.99301    96.61885    48.35810
   318  O   6.0   -0.29    1.29    1.80    96.12561    96.38942    50.66737
   319  C   4.0   -0.07    4.11    3.83    99.42278    95.70469    45.23999
   320  H   1.0    0.12    1.04    1.43    95.50795    93.94421    42.99884
   321  H   1.0    0.05    1.05    1.44    97.71138    93.05553    47.87435
   322  H   1.0    0.04    1.00    1.43   100.80510    96.36145    46.60910
   323  H   1.0    0.04    1.00    1.43   100.30115    94.28078    44.05249
   324  H   1.0    0.06    1.01    1.43    98.80218    97.28324    44.08942
   325  N   5.0   -0.15    3.49    2.07    94.90755    98.61170    47.29032
   326  C   4.0    0.04    4.37    4.32    93.73229   100.51515    48.86502
   327  C   4.0    0.10    3.30    3.05    92.20651    99.27166    50.97367
   328  O   6.0   -0.28    1.12    1.80    92.40049   100.01034    53.17105
   329  C   4.0   -0.05    4.36    4.31    92.05838   102.24584    47.27384
   330  C   4.0   -0.02    4.20    4.01    93.50241   103.60642    45.16146
   331  C   4.0   -0.07    4.12    3.85    91.71210   105.41677    43.81846
   332  C   4.0   -0.07    4.15    3.89    95.67250   105.14047    46.25368
   333  H   1.0    0.11    1.11    1.45    94.67698    98.73626    45.39481
   334  H   1.0    0.06    1.06    1.44    95.20150   101.60890    49.84204
   335  H   1.0    0.04    1.03    1.43    90.54888   101.10111    46.46526
   336  H   1.0    0.05    1.03    1.43    91.22450   103.66233    48.51932
   337  H   1.0    0.06    1.06    1.44    94.23651   102.22230    43.81896
   338  H   1.0    0.05    1.00    1.43    92.72733   106.48818    42.38955
   339  H   1.0    0.04    1.00    1.43    90.15020   104.43752    42.92512
   340  H   1.0    0.05    1.01    1.43    90.96064   106.70873    45.22800
   341  H   1.0    0.04    1.00    1.43    96.56698   106.26983    44.79162
   342  H   1.0    0.05    1.01    1.43    94.89077   106.41469    47.65621
   343  H   1.0    0.04    1.00    1.43    97.08123   103.93749    47.13844
   344  N   5.0   -0.21    3.25    1.97    98.52404   119.05979    51.83416
   345  C   4.0    0.02    4.35    4.29    99.82440   118.53601    49.49459
   346  C   4.0    0.15    3.47    3.10    98.52720   116.28505    48.27849
   347  O   6.0   -0.34    1.43    1.80    97.82521   116.39600    46.07871
   348  C   4.0   -0.05    4.35    4.29   102.63853   118.00958    49.81119
   349  C   4.0   -0.03    4.19    3.99   104.09387   120.28599    50.84841
   350  C   4.0   -0.08    4.10    3.81   106.88530   119.64511    51.16420
   351  C   4.0   -0.08    4.12    3.84   103.78543   122.59026    49.15512
   352  H   1.0    0.07    1.02    1.43    99.46930   118.80344    53.48340
   353  H   1.0    0.04    1.06    1.44    99.52394   120.13856    48.21152
   354  H   1.0    0.04    1.03    1.43   102.85876   116.41482    51.09721
   355  H   1.0    0.04    1.03    1.43   103.38812   117.47488    47.96046
   356  H   1.0    0.03    1.06    1.44   103.31946   120.72231    52.70387
   357  H   1.0    0.04    1.00    1.43   107.88650   121.25218    51.96218
   358  H   1.0    0.04    1.00    1.43   107.11771   118.04355    52.42867
   359  H   1.0    0.04    1.00    1.43   107.73177   119.19281    49.34813
   360  H   1.0    0.04    1.00    1.43   105.01813   124.09326    49.81605
   361  H   1.0    0.04    1.00    1.43   104.29368   122.10081    47.22671
   362  H   1.0    0.04    1.00    1.43   101.84241   123.25505    49.19952
   363  N   5.0   -0.15    3.47    2.06    98.19795   114.23267    49.67671
   364  C   4.0    0.03    4.29    4.19    97.12377   111.96539    48.58346
   365  C   4.0    0.10    3.26    3.04    94.53231   112.56594    47.43403
   366  O   6.0   -0.31    1.13    1.80    93.82927   111.51842    45.49481
   367  C   4.0    0.02    4.14    3.87    97.06976   109.84184    50.58192
   368  O   6.0   -0.25    2.05    1.83    94.76000   109.64480    51.85842
   369  H   1.0    0.07    1.06    1.44    98.91466   114.10973    51.45226
   370  H   1.0    0.04    1.05    1.44    98.29211   111.31768    46.99274
   371  H   1.0    0.04    1.02    1.43    97.37956   108.01266    49.69755
   372  H   1.0    0.03    1.02    1.43    98.63017   110.18754    51.89695
   373  H   1.0    0.12    1.02    1.43    94.42219   111.26075    52.66843
   374  N   5.0   -0.20    3.28    1.97    95.96942   116.53400    41.56607
   375  C   4.0    0.03    4.32    4.23    96.96111   114.95177    39.57036
   376  C   4.0    0.09    3.27    3.05    94.70407   113.47025    38.60563
   377  O   6.0   -0.33    1.31    1.80    94.26486   113.38157    36.33691
   378  C   4.0   -0.02    4.23    4.05    99.24172   113.26380    40.22253
   379  C   4.0   -0.08    4.13    3.87   101.15896   114.83637    41.68972
   380  C   4.0   -0.07    4.11    3.82    98.47772   110.81776    41.54225
   381  H   1.0    0.13    1.12    1.45    96.37370   116.11151    43.38753
   382  H   1.0    0.04    1.06    1.44    97.53647   116.20783    38.01654
   383  H   1.0    0.04    1.06    1.44   100.06186   112.73944    38.39242
   384  H   1.0    0.04    1.03    1.43   102.92769   113.86247    42.01594
   385  H   1.0    0.03    1.00    1.43   101.56820   116.53353    40.61072
   386  H   1.0    0.06    1.03    1.43   100.40155   115.34904    43.51974
   387  H   1.0    0.03    1.00    1.43   100.13961   109.72283    42.03184
   388  H   1.0    0.06    1.01    1.43    97.39389   111.17907    43.24079
   389  H   1.0    0.04    1.00    1.43    97.32654   109.67045    40.28770
   390  N   5.0   -0.21    3.27    1.97    93.55092   114.47722    31.55045
   391  C   4.0    0.04    4.29    4.17    93.00466   112.05998    30.41899
   392  C   4.0    0.08    3.23    3.04    90.18720   111.71523    29.88988
   393  O   6.0   -0.30    1.13    1.80    89.32676   109.70413    29.14017
   394  C   4.0   -0.02    4.41    4.40    93.68756   109.98492    32.30744
   395  C   4.0    0.06    3.83    3.37    96.42074   110.03167    32.97290
   396  N   5.0   -0.18    2.57    1.90    98.20318   111.27164    31.58586
   397  C   4.0   -0.01    3.61    3.18    97.57073   108.83270    34.95863
   398  C   4.0    0.05    3.63    3.19   100.36829   110.83009    32.68495
   399  N   5.0   -0.13    3.44    2.04   100.09461   109.34299    34.75234
   400  H   1.0    0.13    1.14    1.45    93.88662   114.32495    33.44107
   401  H   1.0    0.05    1.05    1.44    94.09712   111.81456    28.68195
   402  H   1.0    0.06    1.04    1.43    92.54440   110.27477    33.99721
   403  H   1.0    0.05    1.06    1.44    93.13804   108.18127    31.47557
   404  H   1.0    0.05    1.02    1.43    96.81363   107.69279    36.43935
   405  H   1.0    0.04    1.02    1.43   102.14722   111.51883    32.01204
   406  H   1.0    0.07    1.04    1.43   101.43192   108.72789    35.96748
   407  N   5.0   -0.22    3.20    1.96   107.48510   119.22574    25.37270
   408  C   4.0    0.03    4.23    4.07   108.60226   117.32974    27.01047
   409  C   4.0    0.15    3.42    3.08   111.33774   117.95579    27.73122
   410  O   6.0   -0.33    1.35    1.80   112.06096   117.50752    29.88957
   411  C   4.0   -0.07    4.11    3.81   108.54843   114.70949    25.81860
   412  H   1.0    0.08    1.03    1.43   107.47399   118.80595    23.51506
   413  H   1.0    0.04    1.05    1.44   107.55183   117.32158    28.80096
   414  H   1.0    0.05    1.00    1.43   109.28769   113.35758    27.17804
   415  H   1.0    0.04    1.00    1.43   106.63831   114.15072    25.31573
   416  H   1.0    0.05    1.00    1.43   109.77589   114.68047    24.17236
   417  N   5.0   -0.14    3.48    2.07   112.81029   119.02765    25.99735
   418  C   4.0    0.04    4.33    4.26   115.42522   119.66594    26.52802
   419  C   4.0    0.08    3.23    3.04   115.48318   121.91161    28.33762
   420  O   6.0   -0.29    1.11    1.80   117.09243   122.16102    29.98949
   421  C   4.0   -0.03    4.25    4.11   116.75255   120.28642    24.04774
   422  C   4.0    0.25    3.10    3.02   116.73544   117.94618    22.19539
   423  O   6.0   -0.29    1.18    1.80   116.79619   115.81372    23.17287
   424  O   6.0   -0.29    1.16    1.80   116.63941   118.46715    19.90350
   425  H   1.0    0.08    1.07    1.44   112.33255   118.99090    24.14736
   426  H   1.0    0.07    1.05    1.44   116.38491   118.06284    27.43522
   427  H   1.0    0.05    1.02    1.43   115.82361   121.86744    23.10809
   428  H   1.0    0.05    1.02    1.43   118.72943   120.76882    24.38460
   429  N   5.0   -0.20    3.27    1.97   110.72216   123.26564    32.28566
   430  C   4.0    0.03    4.32    4.24   109.57187   122.25984    34.54607
   431  C   4.0    0.15    3.47    3.10   111.42325   120.52086    35.87884
   432  O   6.0   -0.34    1.37    1.80   111.31085   120.17068    38.15936
   433  C   4.0   -0.05    4.37    4.33   107.18247   120.78269    33.85164
   434  C   4.0   -0.02    4.19    3.98   105.95307   119.27023    35.99760
   435  C   4.0   -0.08    4.10    3.80   104.55282   120.95988    37.86192
   436  C   4.0   -0.08    4.12    3.83   104.14677   117.35558    34.81704
   437  H   1.0    0.09    1.03    1.43   110.21174   122.42941    30.63638
   438  H   1.0    0.04    1.05    1.44   109.07175   123.78269    35.85770
   439  H   1.0    0.03    1.03    1.43   105.82262   122.12982    33.08845
   440  H   1.0    0.05    1.04    1.43   107.70663   119.46526    32.35914
   441  H   1.0    0.05    1.06    1.44   107.40413   118.23615    37.04386
   442  H   1.0    0.03    1.00    1.43   103.32742   119.81853    39.05253
   443  H   1.0    0.04    1.00    1.43   105.88053   121.95286    39.06369
   444  H   1.0    0.04    1.00    1.43   103.39403   122.33760    36.87950
   445  H   1.0    0.04    1.00    1.43   102.98780   116.45314    36.25311
   446  H   1.0    0.04    1.00    1.43   102.88992   118.28213    33.49295
   447  H   1.0    0.04    1.00    1.43   105.20861   115.92792    33.79434
   448  N   5.0   -0.13    3.54    2.10   113.16040   119.44510    34.40030
   449  C   4.0    0.04    4.35    4.29   115.11586   117.83300    35.44834
   450  C   4.0    0.09    3.25    3.04   117.07758   119.58742    36.60479
   451  O   6.0   -0.33    1.23    1.80   117.84374   119.25877    38.76681
   452  C   4.0   -0.03    4.32    4.24   116.21037   116.10400    33.42408
   453  C   4.0   -0.01    3.53    3.13   117.90732   114.00201    34.32893
   454  C   4.0   -0.04    3.48    3.11   118.99964   112.46329    32.49410
   455  C   4.0   -0.03    3.47    3.10   118.41317   113.48634    36.84927
   456  C   4.0   -0.04    3.38    3.07   120.58555   110.50068    33.15496
   457  C   4.0   -0.04    3.38    3.07   119.96724   111.48246    37.51415
   458  C   4.0   -0.04    3.37    3.07   121.06323   109.98673    35.67647
   459  H   1.0    0.12    1.14    1.45   112.83044   119.24295    32.52036
   460  H   1.0    0.06    1.06    1.44   114.33027   116.68586    36.98602
   461  H   1.0    0.07    1.04    1.43   114.60818   115.23825    32.45003
   462  H   1.0    0.06    1.03    1.43   117.23614   117.24973    32.04119
   463  H   1.0    0.05    1.03    1.43   118.59363   112.80902    30.52000
   464  H   1.0    0.06    1.04    1.43   117.61887   114.65411    38.31816
   465  H   1.0    0.05    1.03    1.43   121.45245   109.37004    31.69871
   466  H   1.0    0.04    1.03    1.43   120.33972   111.09073    39.47990
   467  H   1.0    0.05    1.03    1.43   122.27098   108.42300    36.18612
   468  N   5.0   -0.20    3.25    1.97   113.22848   122.75300    41.97242
   469  C   4.0    0.03    4.41    4.40   113.05635   121.00793    44.06161
   470  C   4.0    0.15    3.57    3.15   115.63318   120.70975    45.28496
   471  O   6.0   -0.29    1.27    1.80   115.84430   120.81108    47.58974
   472  C   4.0   -0.02    4.30    4.20   112.16683   118.34305    43.33132
   473  C   4.0   -0.07    4.23    4.06   113.05314   116.48249    45.34360
   474  C   4.0   -0.07    4.11    3.82   109.30337   118.17374    43.08448
   475  H   1.0    0.12    1.11    1.44   112.71852   122.10793    40.23937
   476  H   1.0    0.04    1.05    1.44   111.79946   121.80881    45.51226
   477  H   1.0    0.06    1.06    1.44   113.03352   117.85193    41.52323
   478  H   1.0    0.04    1.05    1.44   112.44875   114.61562    44.82879
   479  H   1.0    0.05    1.02    1.43   115.09494   116.45616    45.52037
   480  H   1.0    0.05    1.00    1.43   112.21811   116.95147    47.16079
   481  H   1.0    0.04    1.00    1.43   108.78617   116.33669    42.32489
   482  H   1.0    0.03    1.00    1.43   108.42866   118.38474    44.92997
   483  H   1.0    0.05    1.00    1.43   108.59304   119.62140    41.82628
   484  N   5.0   -0.15    3.51    2.08   117.56292   120.12266    43.78577
   485  C   4.0    0.04    4.35    4.30   120.00140   119.51191    44.86831
   486  C   4.0    0.10    3.35    3.06   120.91372   121.78189    46.37776
   487  O   6.0   -0.28    1.13    1.80   121.69450   121.53241    48.55029
   488  C   4.0   -0.04    4.31    4.22   121.91381   118.74988    42.81874
   489  C   4.0   -0.01    3.59    3.16   124.57285   119.60887    43.36236
   490  C   4.0   -0.04    3.47    3.10   125.93434   120.88585    41.51534
   491  C   4.0   -0.03    3.51    3.12   125.71525   119.16276    45.68657
   492  C   4.0   -0.04    3.37    3.07   128.34093   121.78587    41.99709
   493  C   4.0   -0.04    3.37    3.07   128.10744   120.09474    46.18775
   494  C   4.0   -0.04    3.37    3.07   129.41660   121.42312    44.35292
   495  H   1.0    0.12    1.13    1.45   117.38197   119.93801    41.88757
   496  H   1.0    0.05    1.05    1.44   119.75571   117.97776    46.25073
   497  H   1.0    0.04    1.03    1.43   121.86617   116.69737    42.60706
   498  H   1.0    0.06    1.05    1.44   121.30585   119.57038    41.03260
   499  H   1.0    0.05    1.03    1.43   125.11178   121.15600    39.66983
   500  H   1.0    0.06    1.03    1.43   124.72396   118.10253    47.12256
   501  H   1.0    0.05    1.03    1.43   129.36665   122.78349    40.54152
   502  H   1.0    0.05    1.03    1.43   128.95464   119.79567    48.02135
   503  H   1.0    0.05    1.03    1.43   131.27607   122.15252    44.76124
   504  N   5.0   -0.22    3.10    1.94   117.72738    84.17910    47.34583
   505  C   4.0    0.00    4.04    3.70   117.75436    86.60584    46.08592
   506  C   4.0    0.07    3.10    3.02   119.39318    86.63339    43.69524
   507  O   6.0   -0.33    1.17    1.80   118.74237    87.80655    41.80187
   508  H   1.0    0.07    1.02    1.43   118.38996    84.07985    49.14301
   509  H   1.0    0.04    1.02    1.43   115.83651    87.14870    45.52535
   510  H   1.0    0.03    1.03    1.43   118.50320    88.00854    47.39607
   511  N   5.0   -0.20    3.26    1.97   116.47819    83.07975    38.85163
   512  C   4.0    0.03    4.32    4.24   114.72141    84.79945    37.68089
   513  C   4.0    0.15    3.51    3.12   116.27257    86.27072    35.69451
   514  O   6.0   -0.32    1.33    1.80   115.61192    86.22059    33.47060
   515  C   4.0   -0.05    4.33    4.25   113.26703    86.30152    39.68522
   516  C   4.0   -0.02    4.22    4.04   113.19093    89.12631    39.13555
   517  C   4.0   -0.08    4.18    3.95   112.01374    89.61343    36.54763
   518  C   4.0   -0.08    4.11    3.81   111.72208    90.56213    41.15811
   519  H   1.0    0.08    1.02    1.43   116.70255    83.08162    40.75661
   520  H   1.0    0.04    1.06    1.44   113.39956    83.67521    36.53481
   521  H   1.0    0.03    1.03    1.43   111.34780    85.56571    39.79507
   522  H   1.0    0.05    1.04    1.43   114.17984    85.98741    41.50309
   523  H   1.0    0.05    1.06    1.44   115.14489    89.78245    39.15324
   524  H   1.0    0.04    1.01    1.43   112.99239    91.14041    35.59509
   525  H   1.0    0.05    1.03    1.43   112.16191    87.97784    35.33152
   526  H   1.0    0.03    1.00    1.43   110.02673    90.09019    36.72228
   527  H   1.0    0.03    1.00    1.43   111.57831    92.54163    40.62810
   528  H   1.0    0.03    1.00    1.43   109.82399    89.80173    41.32730
   529  H   1.0    0.04    1.00    1.43   112.65634    90.44122    42.98371
   530  N   5.0   -0.15    3.45    2.05   118.39853    87.40211    36.44925
   531  C   4.0    0.04    4.33    4.25   119.98044    88.73066    34.63095
   532  C   4.0    0.11    3.32    3.06   120.35536    87.07334    32.27554
   533  O   6.0   -0.30    1.18    1.80   120.02718    87.85364    30.12191
   534  C   4.0   -0.04    4.28    4.16   122.54451    89.42726    35.80064
   535  C   4.0    0.15    3.24    3.04   124.19592    90.72058    33.81976
   536  O   6.0   -0.29    1.21    1.80   125.24576    89.56955    32.12536
   537  N   5.0   -0.19    3.18    1.95   124.49883    93.22793    34.13261
   538  H   1.0    0.11    1.10    1.44   118.79628    87.62356    38.32210
   539  H   1.0    0.05    1.06    1.44   119.00752    90.43764    33.98258
   540  H   1.0    0.04    1.03    1.43   122.22040    90.66411    37.41656
   541  H   1.0    0.05    1.03    1.43   123.49709    87.70094    36.41579
   542  H   1.0    0.10    1.03    1.43   125.33300    94.20231    32.71883
   543  H   1.0    0.08    1.03    1.43   123.36137    94.22087    35.28238
   544  N   5.0   -0.20    3.26    1.97   114.61739    85.23477    28.26810
   545  C   4.0    0.03    4.31    4.22   114.05781    87.32118    26.60375
   546  C   4.0    0.15    3.51    3.12   115.94532    87.28700    24.39128
   547  O   6.0   -0.29    1.23    1.80   115.22771    87.61997    22.21043
   548  C   4.0   -0.03    4.29    4.18   113.84072    89.81640    28.08525
   549  C   4.0   -0.00    3.59    3.16   116.13898    91.46378    27.92700
   550  C   4.0   -0.03    3.59    3.16   117.17251    92.09463    25.59809
   551  C   4.0   -0.03    3.50    3.11   117.23238    92.44561    30.09350
   552  C   4.0   -0.03    3.45    3.10   119.42833    93.40343    25.46327
   553  C   4.0   -0.02    3.39    3.07   119.46894    93.78979    29.96599
   554  C   4.0   -0.02    3.45    3.09   120.62880    94.17252    27.66158
   555  H   1.0    0.12    1.06    1.44   115.19127    85.57147    30.06481
   556  H   1.0    0.05    1.06    1.44   112.23186    86.93185    25.68919
   557  H   1.0    0.04    1.03    1.43   112.21731    90.86885    27.36676
   558  H   1.0    0.05    1.04    1.43   113.46982    89.33744    30.05905
   559  H   1.0    0.08    1.05    1.44   116.18645    91.61175    23.87827
   560  H   1.0    0.05    1.03    1.43   116.28404    92.13445    31.87421
   561  H   1.0    0.06    1.03    1.43   120.13253    93.94211    23.62197
   562  H   1.0    0.06    1.03    1.43   120.29551    94.59081    31.64609
   563  H   1.0    0.07    1.04    1.43   122.37370    95.21175    27.56586
   564  N   5.0   -0.14    3.48    2.06   118.36028    86.81839    24.99954
   565  C   4.0    0.04    4.33    4.26   120.27247    86.84793    23.05014
   566  C   4.0    0.09    3.22    3.04   119.94819    84.68491    21.12921
   567  O   6.0   -0.28    1.12    1.80   120.72237    84.98380    18.95445
   568  C   4.0   -0.05    4.25    4.10   122.95001    86.70614    24.14772
   569  C   4.0   -0.04    4.16    3.92   123.81099    89.18350    25.39697
   570  C   4.0   -0.01    4.19    3.98   126.44110    89.99874    24.47790
   571  N   5.0   -0.14    3.38    2.01   127.32392    92.30973    25.67451
   572  C   4.0    0.09    3.35    3.07   126.59962    94.65226    25.11327
   573  N   5.0   -0.18    3.25    1.97   125.25271    95.17848    23.04921
   574  N   5.0   -0.18    3.25    1.97   127.45547    96.56887    26.50152
   575  H   1.0    0.11    1.10    1.44   118.93590    86.91931    26.83024
   576  H   1.0    0.06    1.05    1.44   120.05673    88.58532    21.92274
   577  H   1.0    0.05    1.03    1.43   122.98258    85.12523    25.46593
   578  H   1.0    0.05    1.04    1.43   124.19710    86.25718    22.56848
   579  H   1.0    0.05    1.07    1.44   122.45081    90.64534    24.91681
   580  H   1.0    0.07    1.02    1.43   123.77442    89.02234    27.45153
   581  H   1.0    0.04    1.03    1.43   127.81072    88.53105    24.92886
   582  H   1.0    0.04    1.02    1.43   126.40069    90.23730    22.42829
   583  H   1.0    0.08    1.07    1.44   128.15621    92.06631    27.37871
   584  H   1.0    0.08    1.04    1.43   124.40032    93.75214    22.12406
   585  H   1.0    0.10    1.03    1.43   124.37109    96.87534    22.95560
   586  H   1.0    0.09    1.03    1.43   128.60220    96.29291    27.99127
   587  H   1.0    0.10    1.03    1.43   126.81569    98.32945    26.15167
   588  H   1.0    0.09    1.07    1.44   112.34863   104.22786    57.20167
   589  H   1.0    0.06    1.05    1.44    92.27286    97.32859    30.01771
   590  H   1.0    0.09    1.07    1.44    91.40306    92.16238    33.08928
   591  H   1.0    0.06    1.05    1.44    92.95840    98.05647    39.32941
   592  H   1.0    0.09    1.07    1.44    95.02390    92.05544    45.08445
   593  H   1.0    0.06    1.04    1.44    91.03555    97.84268    50.57625
   594  H   1.0    0.09    1.07    1.44    98.03848   120.68953    51.86126
   595  H   1.0    0.06    1.05    1.44    93.39703   113.82478    48.26921
   596  H   1.0    0.09    1.07    1.44    96.54050   118.12360    41.36707
   597  H   1.0    0.06    1.05    1.44    93.57628   112.56690    39.82346
   598  H   1.0    0.10    1.07    1.44    94.93076   115.14854    30.81702
   599  H   1.0    0.06    1.05    1.44    88.99285   113.15545    30.15513
   600  H   1.0    0.09    1.07    1.44   105.86188   119.47346    25.81580
   601  H   1.0    0.05    1.05    1.44   114.16999   123.26424    28.20727
   602  H   1.0    0.09    1.07    1.44   110.31620   124.90942    32.12523
   603  H   1.0    0.06    1.05    1.44   117.76133   121.03391    35.59920
   604  H   1.0    0.09    1.07    1.44   112.22387   124.09316    42.26787
   605  H   1.0    0.06    1.05    1.44   120.88298   123.50553    45.60368
   606  H   1.0    0.09    1.07    1.44   116.12916    83.60476    47.43751
   607  H   1.0    0.05    1.04    1.44   121.02654    85.68373    43.65836
   608  H   1.0    0.09    1.08    1.44   116.02864    81.47874    38.49490
   609  H   1.0    0.06    1.05    1.44   120.89092    85.27092    32.46395
   610  H   1.0    0.09    1.07    1.44   113.22990    84.26891    28.45399
   611  H   1.0    0.06    1.04    1.43   119.12004    83.06995    21.65566

  Z AO/shell   Hii/eV     exponent
  1     Wed Apr 25 08:07:45 CEST 2018   EN: 2.200 GM2: 0.406  GM3: 0.0800  RAES: 1.40
     1s    -10.707211    1.230000
  6     Wed Apr 25 08:07:45 CEST 2018   EN: 2.550 GM2: 0.538  GM3: 0.1500  RAES: 3.00
     2s    -13.970922    2.096432
     2p    -10.063292    1.800000
  7     Wed Apr 25 08:07:45 CEST 2018   EN: 3.040 GM2: 0.461  GM3:-0.0640  RAES: 1.90
     2s    -16.686243    2.339881
     2p    -12.523956    2.014332
  8     Wed Apr 25 08:07:45 CEST 2018   EN: 3.440 GM2: 0.452  GM3:-0.0517  RAES: 1.80
     2s    -20.229985    2.439742
     2p    -15.503117    2.137023
 16     Tue Apr 24 11:44:34 CEST 2018   EN: 2.580 GM2: 0.340  GM3:-0.0502  RAES: 3.10
     3s    -20.029654    1.981333
     3p    -11.377694    2.025643
     3d     -0.420282    1.702555
 no old-style atom pair restraining (fixing) potential

molecular fragmentation (1/2 indicates fragments):
111111111111111111111111111111111111111111111111111111111111111111111111
111111111111111111111111111111111111111111111111111111111111111111111111
111111111111111111111111111111111111111111111111111111111111111111111111
111111111111111111111111111111111111111111111111111111111111111111112222
222222222222222222222222222222222222222222222222222222222222222222222222
222222222222222222222222222222222222222222222222222222222222222222222222
222222222222222222222222222222222222222222222222222222222222222222222222
222222222222222222222222222222222222222222222222222222222222222222222222
22222222222112222222222222222222222
# atoms in fragment 1/2:   286   325
 fragment masses (1/2) :     1960.38     2123.65
CMA distance (Bohr)    :   4.181
constraining FC (au)   :  0.0500
           ------------------------------------------------- 
          |        Self-Consistent Charge Iterations        |
           ------------------------------------------------- 

 Ncao       : 1481
 Nao        : 1480
 Nshell     : 900
 Nel        : 1618
 T(el)      :   500.0
 intcut     :    35.0
 scfconv/Eh :  0.100E-06
   qconv/e  :  0.100E-04
 intneglect :  0.100E-08
 broydamp   :      0.400
 iter      E             dE          RMSdq      gap      omega  full diag
   1   -919.2078430 -0.919208E+03  0.447E+00    3.05       0.0  T
   2   -921.2577365 -0.204989E+01  0.212E+00    1.62       1.0  T
   3   -921.3817885 -0.124052E+00  0.122E+00    1.67       1.0  T
   4   -921.5359753 -0.154187E+00  0.240E-01    0.97       1.0  T
   5   -921.5447720 -0.879671E-02  0.123E-01    1.15       1.0  T
   6   -921.5465439 -0.177187E-02  0.588E-02    1.11       1.0  T
   7   -921.5471259 -0.582032E-03  0.284E-02    1.08       1.0  T
   8   -921.5472289 -0.102929E-03  0.154E-02    1.06       1.0  T
   9   -921.5472669 -0.380682E-04  0.830E-03    1.05       1.0  T
  10   -921.5472767 -0.981209E-05  0.409E-03    1.04       1.0  T
  11   -921.5472792 -0.250402E-05  0.197E-03    1.04       2.1  T
  12   -921.5472798 -0.533667E-06  0.966E-04    1.04       4.2  T
  13   -921.5472799 -0.153273E-06  0.432E-04    1.04       9.4  T
  14   -921.5472800 -0.181310E-07  0.213E-04    1.04      19.0  T
  15   -921.5472800 -0.719990E-08  0.963E-05    1.04      42.0  T
  16   -921.5472800 -0.141176E-08  0.508E-05    1.04      79.6  T
speedup  1.00
cpu  time for SCC   18.14 s
wall time for SCC   18.14 s

   *** convergence criteria satisfied after 16 iterations ***

          eigenvalues
 #    :         797        798        799        800        801        802        803        804
 occ. :        2.000      2.000      2.000      2.000      2.000      2.000      2.000      2.000
 eps  :       -10.031    -10.000     -9.962     -9.878     -9.768     -9.704     -9.648     -9.588
 #    :         805        806        807        808        809        810        811        812
 occ. :        2.000      2.000      2.000      2.000      2.000      0.000      0.000      0.000
 eps  :        -9.463     -9.456     -9.425     -9.275     -9.075     -8.034     -7.946     -7.851
 #    :         813        814        815        816        817        818        819        820
 occ. :        0.000      0.000      0.000      0.000      0.000      0.000      0.000      0.000
 eps  :        -7.830     -7.757     -7.650     -7.595     -7.577     -7.569     -7.315     -7.229


   #   Z            q   n(s)   n(p)   n(d)      C6AA      α(0)
   1   7 N     -0.391  1.306  4.084  0.000    30.111     8.150
   2   6 C      0.017  1.061  2.922  0.000    20.314     6.420
   3   6 C      0.254  1.054  2.692  0.000    22.729     7.808
   4   8 O     -0.484  1.737  4.747  0.000    23.436     6.491
   5   6 C      0.076  1.034  2.890  0.000    19.529     6.331
   6   8 O     -0.478  1.732  4.745  0.000    22.416     6.391
   7   1 H      0.166  0.834  0.000  0.000     1.296     1.783
   8   1 H      0.056  0.944  0.000  0.000     2.243     2.342
   9   1 H      0.033  0.967  0.000  0.000     2.542     2.493
  10   1 H      0.051  0.949  0.000  0.000     2.309     2.376
  11   1 H      0.338  0.662  0.000  0.000     0.617     1.234
  12   7 N     -0.171  1.251  3.920  0.000    24.698     7.381
  13   6 C      0.005  1.068  2.927  0.000    20.494     6.444
  14   6 C      0.274  1.042  2.684  0.000    22.366     7.745
  15   8 O     -0.474  1.736  4.738  0.000    23.218     6.460
  16   6 C     -0.026  1.069  2.957  0.000    21.009     6.519
  17   6 C     -0.067  1.054  3.014  0.000    21.788     6.645
  18   6 C     -0.124  1.039  3.085  0.000    22.926     6.827
  19   6 C     -0.115  1.037  3.078  0.000    22.757     6.803
  20   1 H      0.226  0.774  0.000  0.000     0.983     1.553
  21   1 H      0.087  0.913  0.000  0.000     1.908     2.160
  22   1 H      0.058  0.942  0.000  0.000     2.226     2.333
  23   1 H      0.051  0.949  0.000  0.000     2.309     2.376
  24   1 H      0.038  0.962  0.000  0.000     2.477     2.461
  25   1 H      0.063  0.937  0.000  0.000     2.160     2.298
  26   1 H      0.048  0.952  0.000  0.000     2.339     2.392
  27   1 H      0.047  0.953  0.000  0.000     2.352     2.398
  28   1 H      0.042  0.958  0.000  0.000     2.417     2.431
  29   1 H      0.043  0.957  0.000  0.000     2.405     2.425
  30   1 H      0.046  0.954  0.000  0.000     2.365     2.405
  31   7 N     -0.170  1.237  3.933  0.000    24.686     7.379
  32   6 C      0.014  1.061  2.925  0.000    20.340     6.421
  33   6 C      0.266  1.041  2.693  0.000    22.514     7.770
  34   8 O     -0.461  1.737  4.724  0.000    22.928     6.420
  35   6 C     -0.081  1.060  3.021  0.000    22.031     6.681
  36   6 C     -0.014  1.056  2.959  0.000    20.793     6.486
  37   6 C     -0.120  1.042  3.079  0.000    22.860     6.817
  38   6 C     -0.122  1.040  3.082  0.000    22.899     6.823
  39   1 H      0.214  0.786  0.000  0.000     1.038     1.596
  40   1 H      0.091  0.909  0.000  0.000     1.871     2.139
  41   1 H      0.054  0.946  0.000  0.000     2.269     2.355
  42   1 H      0.069  0.931  0.000  0.000     2.091     2.261
  43   1 H      0.042  0.958  0.000  0.000     2.416     2.431
  44   1 H      0.046  0.954  0.000  0.000     2.373     2.409
  45   1 H      0.043  0.957  0.000  0.000     2.414     2.430
  46   1 H      0.042  0.958  0.000  0.000     2.426     2.436
  47   1 H      0.048  0.952  0.000  0.000     2.345     2.395
  48   1 H      0.042  0.958  0.000  0.000     2.420     2.433
  49   1 H      0.046  0.954  0.000  0.000     2.371     2.408
  50   7 N     -0.174  1.240  3.934  0.000    24.763     7.391
  51   6 C      0.012  1.065  2.923  0.000    20.382     6.429
  52   6 C      0.261  1.043  2.696  0.000    22.593     7.784
  53   8 O     -0.481  1.741  4.741  0.000    23.378     6.483
  54   6 C     -0.143  1.042  3.101  0.000    23.308     6.884
  55   1 H      0.204  0.796  0.000  0.000     1.085     1.632
  56   1 H      0.091  0.909  0.000  0.000     1.872     2.140
  57   1 H      0.081  0.919  0.000  0.000     1.969     2.194
  58   1 H      0.082  0.918  0.000  0.000     1.958     2.188
  59   1 H      0.056  0.944  0.000  0.000     2.249     2.345
  60   7 N     -0.198  1.258  3.940  0.000    25.300     7.470
  61   6 C      0.015  1.064  2.921  0.000    20.333     6.420
  62   6 C      0.281  1.043  2.676  0.000    22.249     7.725
  63   8 O     -0.511  1.743  4.768  0.000    24.020     6.571
  64   6 C     -0.036  1.068  2.968  0.000    21.184     6.547
  65   6 C     -0.068  1.054  3.014  0.000    21.810     6.649
  66   6 C     -0.117  1.044  3.073  0.000    22.793     6.807
  67   6 C     -0.105  1.035  3.071  0.000    22.577     6.776
  68   1 H      0.242  0.758  0.000  0.000     0.913     1.497
  69   1 H      0.081  0.919  0.000  0.000     1.972     2.196
  70   1 H      0.081  0.919  0.000  0.000     1.967     2.193
  71   1 H      0.046  0.954  0.000  0.000     2.375     2.410
  72   1 H      0.043  0.957  0.000  0.000     2.405     2.425
  73   1 H      0.056  0.944  0.000  0.000     2.249     2.345
  74   1 H      0.051  0.949  0.000  0.000     2.305     2.374
  75   1 H      0.034  0.966  0.000  0.000     2.524     2.484
  76   1 H      0.036  0.964  0.000  0.000     2.504     2.475
  77   1 H      0.033  0.967  0.000  0.000     2.538     2.492
  78   1 H      0.041  0.959  0.000  0.000     2.436     2.441
  79   7 N     -0.198  1.258  3.940  0.000    25.296     7.470
  80   6 C      0.029  1.058  2.914  0.000    20.090     6.381
  81   6 C      0.259  1.051  2.689  0.000    22.630     7.791
  82   8 O     -0.510  1.735  4.775  0.000    24.002     6.569
  83   6 C     -0.077  1.058  3.019  0.000    21.963     6.672
  84   6 C     -0.015  1.059  2.956  0.000    20.810     6.489
  85   6 C     -0.124  1.044  3.079  0.000    22.926     6.826
  86   6 C     -0.120  1.038  3.081  0.000    22.842     6.814
  87   1 H      0.242  0.758  0.000  0.000     0.917     1.500
  88   1 H      0.064  0.936  0.000  0.000     2.158     2.297
  89   1 H      0.069  0.931  0.000  0.000     2.097     2.265
  90   1 H      0.052  0.948  0.000  0.000     2.297     2.370
  91   1 H      0.054  0.946  0.000  0.000     2.275     2.359
  92   1 H      0.045  0.955  0.000  0.000     2.383     2.414
  93   1 H      0.060  0.940  0.000  0.000     2.197     2.318
  94   1 H      0.026  0.974  0.000  0.000     2.645     2.543
  95   1 H      0.049  0.951  0.000  0.000     2.327     2.386
  96   1 H      0.024  0.976  0.000  0.000     2.667     2.554
  97   1 H      0.042  0.958  0.000  0.000     2.423     2.434
  98   7 N     -0.178  1.262  3.916  0.000    24.850     7.404
  99   6 C      0.005  1.073  2.922  0.000    20.491     6.444
 100   6 C      0.267  1.047  2.687  0.000    22.501     7.768
 101   8 O     -0.501  1.717  4.783  0.000    23.796     6.540
 102   6 C     -0.027  1.063  2.964  0.000    21.013     6.520
 103   6 C     -0.144  1.043  3.101  0.000    23.331     6.887
 104   6 C     -0.138  1.047  3.091  0.000    23.203     6.867
 105   1 H      0.235  0.765  0.000  0.000     0.943     1.521
 106   1 H      0.090  0.910  0.000  0.000     1.875     2.141
 107   1 H      0.063  0.937  0.000  0.000     2.163     2.300
 108   1 H      0.063  0.937  0.000  0.000     2.163     2.300
 109   1 H      0.048  0.952  0.000  0.000     2.345     2.395
 110   1 H      0.073  0.927  0.000  0.000     2.052     2.240
 111   1 H      0.060  0.940  0.000  0.000     2.203     2.321
 112   1 H      0.059  0.941  0.000  0.000     2.208     2.324
 113   1 H      0.057  0.943  0.000  0.000     2.230     2.335
 114   7 N     -0.175  1.244  3.931  0.000    24.782     7.394
 115   6 C      0.014  1.062  2.924  0.000    20.343     6.422
 116   6 C      0.268  1.048  2.683  0.000    22.468     7.762
 117   8 O     -0.500  1.755  4.745  0.000    23.782     6.538
 118   6 C     -0.063  1.050  3.013  0.000    21.700     6.630
 119   6 C      0.018  1.079  2.902  0.000    27.593     8.616
 120   6 C     -0.032  1.081  2.951  0.000    28.789     8.799
 121   6 C     -0.039  1.078  2.961  0.000    28.961     8.825
 122   6 C     -0.035  1.079  2.956  0.000    28.875     8.812
 123   6 C     -0.038  1.082  2.955  0.000    28.933     8.821
 124   6 C     -0.040  1.078  2.962  0.000    28.993     8.830
 125   1 H      0.238  0.762  0.000  0.000     0.933     1.513
 126   1 H      0.088  0.912  0.000  0.000     1.899     2.155
 127   1 H      0.041  0.959  0.000  0.000     2.436     2.441
 128   1 H      0.058  0.942  0.000  0.000     2.219     2.329
 129   1 H      0.028  0.972  0.000  0.000     2.621     2.532
 130   1 H      0.046  0.954  0.000  0.000     2.371     2.408
 131   1 H      0.041  0.959  0.000  0.000     2.430     2.438
 132   1 H      0.067  0.933  0.000  0.000     2.120     2.277
 133   1 H      0.049  0.951  0.000  0.000     2.332     2.388
 134   7 N     -0.217  1.266  3.951  0.000    25.734     7.534
 135   6 C      0.026  1.059  2.915  0.000    20.145     6.392
 136   6 C      0.271  1.046  2.683  0.000    22.420     7.753
 137   8 O     -0.521  1.765  4.756  0.000    24.254     6.603
 138   6 C     -0.066  1.054  3.012  0.000    21.750     6.639
 139   6 C      0.002  1.076  2.922  0.000    27.988     8.678
 140   6 C     -0.049  1.081  2.968  0.000    29.214     8.864
 141   6 C     -0.024  1.077  2.947  0.000    28.601     8.770
 142   6 C     -0.066  1.074  2.992  0.000    29.642     8.928
 143   6 C     -0.055  1.075  2.981  0.000    29.369     8.887
 144   6 C      0.142  1.045  2.813  0.000    24.902     8.179
 145   8 O     -0.421  1.704  4.717  0.000    21.261     6.225
 146   1 H      0.250  0.750  0.000  0.000     0.884     1.473
 147   1 H      0.056  0.944  0.000  0.000     2.243     2.342
 148   1 H      0.072  0.928  0.000  0.000     2.064     2.247
 149   1 H      0.057  0.943  0.000  0.000     2.233     2.337
 150   1 H      0.057  0.943  0.000  0.000     2.238     2.339
 151   1 H      0.014  0.986  0.000  0.000     2.828     2.630
 152   1 H      0.072  0.928  0.000  0.000     2.061     2.245
 153   1 H      0.007  0.993  0.000  0.000     2.941     2.682
 154   1 H      0.331  0.669  0.000  0.000     0.635     1.251
 155   7 N     -0.220  1.265  3.956  0.000    25.807     7.545
 156   6 C      0.029  1.059  2.912  0.000    20.098     6.386
 157   6 C      0.253  1.053  2.695  0.000    22.754     7.812
 158   8 O     -0.504  1.755  4.749  0.000    23.862     6.549
 159   6 C     -0.095  1.067  3.028  0.000    22.303     6.722
 160   6 C     -0.025  1.056  2.969  0.000    20.988     6.516
 161   6 C     -0.116  1.040  3.076  0.000    22.775     6.803
 162   6 C     -0.133  1.047  3.086  0.000    23.103     6.852
 163   1 H      0.264  0.736  0.000  0.000     0.832     1.429
 164   1 H      0.061  0.939  0.000  0.000     2.193     2.316
 165   1 H      0.098  0.902  0.000  0.000     1.802     2.099
 166   1 H      0.065  0.935  0.000  0.000     2.146     2.291
 167   1 H      0.048  0.952  0.000  0.000     2.350     2.397
 168   1 H      0.047  0.953  0.000  0.000     2.354     2.399
 169   1 H      0.012  0.988  0.000  0.000     2.852     2.641
 170   1 H      0.050  0.950  0.000  0.000     2.321     2.383
 171   1 H      0.057  0.943  0.000  0.000     2.231     2.336
 172   1 H      0.058  0.942  0.000  0.000     2.227     2.334
 173   1 H      0.056  0.944  0.000  0.000     2.252     2.347
 174   7 N     -0.103  1.237  3.865  0.000    23.250     7.161
 175   6 C      0.015  1.068  2.916  0.000    20.308     6.414
 176   6 C      0.258  1.048  2.694  0.000    22.654     7.795
 177   8 O     -0.509  1.759  4.749  0.000    23.975     6.565
 178   6 C     -0.085  1.057  3.028  0.000    22.111     6.693
 179   6 C     -0.087  1.056  3.031  0.000    22.155     6.700
 180   6 C     -0.041  1.057  2.984  0.000    21.365     6.591
 181   1 H      0.081  0.919  0.000  0.000     1.966     2.193
 182   1 H      0.060  0.940  0.000  0.000     2.204     2.321
 183   1 H      0.094  0.906  0.000  0.000     1.841     2.122
 184   1 H      0.070  0.930  0.000  0.000     2.088     2.260
 185   1 H      0.094  0.906  0.000  0.000     1.838     2.120
 186   1 H      0.060  0.940  0.000  0.000     2.195     2.317
 187   1 H      0.099  0.901  0.000  0.000     1.790     2.092
 188   7 N     -0.098  1.237  3.861  0.000    23.158     7.147
 189   6 C      0.027  1.063  2.910  0.000    20.099     6.379
 190   6 C      0.287  1.039  2.675  0.000    22.143     7.706
 191   8 O     -0.510  1.755  4.755  0.000    24.008     6.569
 192   6 C     -0.059  1.049  3.010  0.000    21.630     6.619
 193   6 C     -0.057  1.046  3.011  0.000    21.586     6.612
 194   6 C     -0.003  1.048  2.955  0.000    20.683     6.484
 195   1 H      0.063  0.937  0.000  0.000     2.164     2.301
 196   1 H      0.034  0.966  0.000  0.000     2.534     2.489
 197   1 H      0.060  0.940  0.000  0.000     2.199     2.319
 198   1 H      0.048  0.952  0.000  0.000     2.341     2.393
 199   1 H      0.064  0.936  0.000  0.000     2.155     2.296
 200   1 H      0.056  0.944  0.000  0.000     2.246     2.344
 201   1 H      0.087  0.913  0.000  0.000     1.906     2.159
 202   7 N     -0.196  1.257  3.938  0.000    25.249     7.463
 203   6 C      0.045  1.055  2.901  0.000    19.829     6.341
 204   6 C      0.276  1.048  2.676  0.000    22.332     7.738
 205   8 O     -0.506  1.751  4.755  0.000    23.913     6.556
 206   6 C     -0.106  1.068  3.038  0.000    22.523     6.757
 207   6 C      0.371  1.025  2.604  0.000    20.714     7.448
 208   8 O     -0.597  1.756  4.841  0.000    26.034     6.841
 209   8 O     -0.651  1.768  4.883  0.000    27.405     7.019
 210   1 H      0.205  0.795  0.000  0.000     1.079     1.627
 211   1 H      0.054  0.946  0.000  0.000     2.276     2.359
 212   1 H      0.052  0.948  0.000  0.000     2.294     2.369
 213   1 H      0.030  0.970  0.000  0.000     2.582     2.513
 214   7 N     -0.193  1.258  3.935  0.000    25.186     7.454
 215   6 C      0.034  1.056  2.910  0.000    20.020     6.372
 216   6 C      0.268  1.049  2.683  0.000    22.473     7.763
 217   8 O     -0.438  1.718  4.720  0.000    22.456     6.353
 218   6 C     -0.110  1.036  3.074  0.000    22.657     6.787
 219   1 H      0.215  0.785  0.000  0.000     1.032     1.592
 220   1 H      0.055  0.945  0.000  0.000     2.256     2.349
 221   1 H      0.062  0.938  0.000  0.000     2.177     2.307
 222   1 H      0.042  0.958  0.000  0.000     2.423     2.434
 223   1 H      0.078  0.922  0.000  0.000     1.998     2.210
 224   7 N     -0.171  1.248  3.923  0.000    24.691     7.380
 225   6 C     -0.030  1.051  2.979  0.000    21.178     6.564
 226   6 C      0.282  1.039  2.679  0.000    22.224     7.719
 227   8 O     -0.462  1.722  4.740  0.000    22.966     6.425
 228   1 H      0.205  0.795  0.000  0.000     1.082     1.629
 229   1 H      0.101  0.899  0.000  0.000     1.778     2.085
 230   1 H      0.099  0.901  0.000  0.000     1.794     2.094
 231   7 N     -0.181  1.243  3.938  0.000    24.924     7.415
 232   6 C      0.019  1.063  2.917  0.000    20.254     6.409
 233   6 C      0.279  1.037  2.684  0.000    22.281     7.730
 234   8 O     -0.501  1.750  4.751  0.000    23.803     6.541
 235   6 C     -0.050  1.050  3.000  0.000    21.461     6.594
 236   6 C     -0.091  1.064  3.027  0.000    22.239     6.715
 237   6 C      0.370  1.025  2.605  0.000    20.727     7.450
 238   8 O     -0.645  1.772  4.873  0.000    27.256     7.000
 239   8 O     -0.656  1.775  4.881  0.000    27.542     7.036
 240   1 H      0.201  0.799  0.000  0.000     1.098     1.642
 241   1 H      0.069  0.931  0.000  0.000     2.094     2.263
 242   1 H      0.046  0.954  0.000  0.000     2.373     2.409
 243   1 H      0.040  0.960  0.000  0.000     2.455     2.450
 244   1 H      0.030  0.970  0.000  0.000     2.583     2.513
 245   1 H      0.023  0.977  0.000  0.000     2.687     2.564
 246   7 N     -0.191  1.252  3.939  0.000    25.150     7.448
 247   6 C      0.026  1.056  2.918  0.000    20.128     6.387
 248   6 C      0.273  1.042  2.685  0.000    22.390     7.749
 249   8 O     -0.467  1.726  4.741  0.000    23.061     6.439
 250   6 C     -0.081  1.058  3.023  0.000    22.034     6.681
 251   6 C     -0.082  1.051  3.031  0.000    22.059     6.686
 252   6 C     -0.104  1.057  3.047  0.000    22.482     6.751
 253   6 C     -0.061  1.057  3.004  0.000    21.770     6.659
 254   7 N     -0.145  1.228  3.917  0.000    24.123     7.295
 255   1 H      0.228  0.772  0.000  0.000     0.974     1.546
 256   1 H      0.073  0.927  0.000  0.000     2.049     2.239
 257   1 H      0.092  0.908  0.000  0.000     1.864     2.135
 258   1 H      0.066  0.934  0.000  0.000     2.131     2.283
 259   1 H      0.069  0.931  0.000  0.000     2.097     2.265
 260   1 H      0.055  0.945  0.000  0.000     2.263     2.352
 261   1 H      0.071  0.929  0.000  0.000     2.070     2.250
 262   1 H      0.096  0.904  0.000  0.000     1.823     2.111
 263   1 H      0.101  0.899  0.000  0.000     1.779     2.086
 264   1 H      0.103  0.897  0.000  0.000     1.754     2.071
 265   1 H      0.293  0.707  0.000  0.000     0.736     1.344
 266   1 H      0.273  0.727  0.000  0.000     0.799     1.401
 267   1 H      0.302  0.698  0.000  0.000     0.707     1.317
 268   7 N     -0.166  1.249  3.917  0.000    24.593     7.365
 269   6 C      0.016  1.061  2.923  0.000    20.307     6.416
 270   6 C      0.208  1.081  2.711  0.000    23.585     7.953
 271   8 O     -0.361  1.737  4.624  0.000    20.909     6.131
 272   6 C     -0.070  1.055  3.015  0.000    21.825     6.648
 273   6 C     -0.013  1.061  2.952  0.000    20.816     6.497
 274  16 S     -0.207  1.930  4.224  0.052   149.855    20.603
 275   6 C     -0.099  1.063  3.036  0.000    22.468     6.763
 276   1 H      0.220  0.780  0.000  0.000     1.012     1.576
 277   1 H      0.097  0.903  0.000  0.000     1.811     2.104
 278   1 H      0.076  0.924  0.000  0.000     2.019     2.222
 279   1 H      0.050  0.950  0.000  0.000     2.318     2.381
 280   1 H      0.054  0.946  0.000  0.000     2.270     2.356
 281   1 H      0.061  0.939  0.000  0.000     2.192     2.315
 282   1 H      0.085  0.915  0.000  0.000     1.925     2.170
 283   1 H      0.078  0.922  0.000  0.000     1.995     2.209
 284   1 H      0.072  0.928  0.000  0.000     2.068     2.249
 285   7 N     -0.384  1.306  4.078  0.000    29.935     8.126
 286   6 C      0.035  1.058  2.907  0.000    19.995     6.369
 287   6 C      0.276  1.048  2.676  0.000    22.331     7.739
 288   8 O     -0.504  1.746  4.758  0.000    23.867     6.550
 289   6 C     -0.082  1.065  3.017  0.000    22.049     6.683
 290   6 C     -0.014  1.056  2.958  0.000    20.790     6.486
 291   6 C     -0.118  1.043  3.075  0.000    22.815     6.810
 292   6 C     -0.126  1.043  3.083  0.000    22.971     6.834
 293   1 H      0.152  0.848  0.000  0.000     1.387     1.845
 294   1 H      0.023  0.977  0.000  0.000     2.685     2.562
 295   1 H      0.023  0.977  0.000  0.000     2.689     2.564
 296   1 H      0.074  0.926  0.000  0.000     2.046     2.237
 297   1 H      0.025  0.975  0.000  0.000     2.656     2.548
 298   1 H      0.042  0.958  0.000  0.000     2.418     2.432
 299   1 H      0.022  0.978  0.000  0.000     2.698     2.568
 300   1 H      0.046  0.954  0.000  0.000     2.375     2.410
 301   1 H      0.055  0.945  0.000  0.000     2.264     2.353
 302   1 H      0.051  0.949  0.000  0.000     2.308     2.376
 303   1 H      0.043  0.957  0.000  0.000     2.408     2.426
 304   7 N     -0.173  1.242  3.931  0.000    24.746     7.388
 305   6 C      0.008  1.062  2.930  0.000    20.457     6.441
 306   6 C      0.203  1.085  2.712  0.000    23.693     7.972
 307   8 O     -0.345  1.732  4.613  0.000    20.607     6.086
 308   6 C      0.034  1.046  2.920  0.000    20.204     6.437
 309   8 O     -0.440  1.687  4.753  0.000    21.636     6.279
 310   1 H      0.238  0.762  0.000  0.000     0.930     1.510
 311   1 H      0.106  0.894  0.000  0.000     1.729     2.056
 312   1 H      0.079  0.921  0.000  0.000     1.987     2.204
 313   1 H      0.075  0.925  0.000  0.000     2.031     2.229
 314   1 H      0.340  0.660  0.000  0.000     0.612     1.229
 315   7 N     -0.402  1.311  4.091  0.000    30.434     8.193
 316   6 C      0.041  1.054  2.905  0.000    19.897     6.354
 317   6 C      0.270  1.049  2.680  0.000    22.432     7.757
 318   8 O     -0.525  1.761  4.764  0.000    24.350     6.616
 319   6 C     -0.136  1.046  3.090  0.000    23.165     6.862
 320   1 H      0.173  0.827  0.000  0.000     1.252     1.753
 321   1 H      0.024  0.976  0.000  0.000     2.676     2.558
 322   1 H      0.050  0.950  0.000  0.000     2.321     2.383
 323   1 H      0.057  0.943  0.000  0.000     2.236     2.339
 324   1 H      0.081  0.919  0.000  0.000     1.966     2.192
 325   7 N     -0.174  1.248  3.927  0.000    24.774     7.392
 326   6 C      0.028  1.059  2.913  0.000    20.105     6.384
 327   6 C      0.213  1.081  2.706  0.000    23.484     7.936
 328   8 O     -0.396  1.759  4.636  0.000    21.592     6.230
 329   6 C     -0.076  1.059  3.017  0.000    21.941     6.667
 330   6 C     -0.019  1.058  2.961  0.000    20.874     6.498
 331   6 C     -0.120  1.042  3.078  0.000    22.848     6.814
 332   6 C     -0.133  1.043  3.090  0.000    23.096     6.851
 333   1 H      0.248  0.752  0.000  0.000     0.892     1.480
 334   1 H      0.085  0.915  0.000  0.000     1.926     2.170
 335   1 H      0.051  0.949  0.000  0.000     2.311     2.377
 336   1 H      0.060  0.940  0.000  0.000     2.205     2.322
 337   1 H      0.054  0.946  0.000  0.000     2.267     2.355
 338   1 H      0.056  0.944  0.000  0.000     2.252     2.347
 339   1 H      0.035  0.965  0.000  0.000     2.519     2.482
 340   1 H      0.044  0.956  0.000  0.000     2.401     2.423
 341   1 H      0.062  0.938  0.000  0.000     2.181     2.309
 342   1 H      0.053  0.947  0.000  0.000     2.286     2.364
 343   1 H      0.044  0.956  0.000  0.000     2.394     2.420
 344   7 N     -0.393  1.312  4.081  0.000    30.181     8.159
 345   6 C      0.031  1.055  2.914  0.000    20.059     6.379
 346   6 C      0.268  1.047  2.684  0.000    22.471     7.763
 347   8 O     -0.479  1.739  4.740  0.000    23.325     6.475
 348   6 C     -0.075  1.059  3.016  0.000    21.926     6.665
 349   6 C     -0.009  1.054  2.955  0.000    20.700     6.471
 350   6 C     -0.111  1.040  3.071  0.000    22.670     6.789
 351   6 C     -0.111  1.038  3.073  0.000    22.683     6.790
 352   1 H      0.166  0.834  0.000  0.000     1.299     1.785
 353   1 H      0.046  0.954  0.000  0.000     2.375     2.410
 354   1 H      0.048  0.952  0.000  0.000     2.340     2.392
 355   1 H      0.045  0.955  0.000  0.000     2.385     2.415
 356   1 H      0.034  0.966  0.000  0.000     2.524     2.484
 357   1 H      0.034  0.966  0.000  0.000     2.534     2.489
 358   1 H      0.044  0.956  0.000  0.000     2.393     2.419
 359   1 H      0.034  0.966  0.000  0.000     2.535     2.490
 360   1 H      0.036  0.964  0.000  0.000     2.505     2.475
 361   1 H      0.038  0.962  0.000  0.000     2.477     2.461
 362   1 H      0.034  0.966  0.000  0.000     2.524     2.484
 363   7 N     -0.166  1.241  3.924  0.000    24.584     7.364
 364   6 C      0.008  1.065  2.926  0.000    20.444     6.439
 365   6 C      0.211  1.078  2.711  0.000    23.530     7.944
 366   8 O     -0.340  1.751  4.589  0.000    20.526     6.074
 367   6 C      0.061  1.041  2.898  0.000    19.765     6.369
 368   8 O     -0.476  1.730  4.746  0.000    22.384     6.387
 369   1 H      0.217  0.783  0.000  0.000     1.024     1.585
 370   1 H      0.099  0.901  0.000  0.000     1.791     2.093
 371   1 H      0.093  0.907  0.000  0.000     1.849     2.127
 372   1 H      0.060  0.940  0.000  0.000     2.198     2.318
 373   1 H      0.338  0.662  0.000  0.000     0.617     1.234
 374   7 N     -0.418  1.319  4.098  0.000    30.869     8.252
 375   6 C      0.043  1.057  2.900  0.000    19.860     6.347
 376   6 C      0.200  1.093  2.707  0.000    23.742     7.980
 377   8 O     -0.377  1.746  4.631  0.000    21.233     6.178
 378   6 C     -0.018  1.063  2.955  0.000    20.862     6.497
 379   6 C     -0.122  1.035  3.086  0.000    22.888     6.821
 380   6 C     -0.132  1.041  3.091  0.000    23.094     6.853
 381   1 H      0.209  0.791  0.000  0.000     1.059     1.612
 382   1 H      0.030  0.970  0.000  0.000     2.585     2.514
 383   1 H      0.027  0.973  0.000  0.000     2.626     2.534
 384   1 H      0.051  0.949  0.000  0.000     2.312     2.378
 385   1 H      0.019  0.981  0.000  0.000     2.747     2.592
 386   1 H      0.061  0.939  0.000  0.000     2.187     2.312
 387   1 H      0.060  0.940  0.000  0.000     2.194     2.317
 388   1 H      0.061  0.939  0.000  0.000     2.186     2.312
 389   1 H      0.040  0.960  0.000  0.000     2.450     2.448
 390   7 N     -0.430  1.329  4.101  0.000    31.229     8.300
 391   6 C      0.046  1.050  2.904  0.000    19.813     6.340
 392   6 C      0.198  1.095  2.708  0.000    23.787     7.988
 393   8 O     -0.403  1.756  4.647  0.000    21.734     6.250
 394   6 C     -0.066  1.051  3.016  0.000    21.756     6.638
 395   6 C      0.071  1.066  2.863  0.000    25.966     8.315
 396   7 N     -0.291  1.490  3.801  0.000    28.377     7.898
 397   6 C     -0.047  1.068  2.980  0.000    29.137     8.853
 398   6 C      0.073  1.062  2.865  0.000    26.136     8.365
 399   7 N     -0.101  1.240  3.860  0.000    23.213     7.156
 400   1 H      0.211  0.789  0.000  0.000     1.054     1.608
 401   1 H      0.067  0.933  0.000  0.000     2.124     2.279
 402   1 H      0.056  0.944  0.000  0.000     2.251     2.346
 403   1 H      0.056  0.944  0.000  0.000     2.242     2.342
 404   1 H      0.060  0.940  0.000  0.000     2.203     2.321
 405   1 H      0.041  0.959  0.000  0.000     2.431     2.438
 406   1 H      0.202  0.798  0.000  0.000     1.094     1.638
 407   7 N     -0.401  1.321  4.080  0.000    30.397     8.188
 408   6 C      0.034  1.056  2.909  0.000    20.013     6.372
 409   6 C      0.265  1.051  2.684  0.000    22.522     7.771
 410   8 O     -0.483  1.732  4.751  0.000    23.409     6.487
 411   6 C     -0.117  1.040  3.077  0.000    22.799     6.808
 412   1 H      0.158  0.842  0.000  0.000     1.347     1.818
 413   1 H      0.060  0.940  0.000  0.000     2.202     2.320
 414   1 H      0.046  0.954  0.000  0.000     2.372     2.408
 415   1 H      0.070  0.930  0.000  0.000     2.083     2.257
 416   1 H      0.029  0.971  0.000  0.000     2.604     2.524
 417   7 N     -0.162  1.243  3.919  0.000    24.503     7.352
 418   6 C      0.044  1.054  2.902  0.000    19.843     6.343
 419   6 C      0.196  1.087  2.717  0.000    23.822     7.993
 420   8 O     -0.366  1.750  4.616  0.000    21.006     6.145
 421   6 C     -0.100  1.078  3.022  0.000    22.407     6.740
 422   6 C      0.376  1.019  2.605  0.000    20.629     7.433
 423   8 O     -0.623  1.770  4.853  0.000    26.698     6.928
 424   8 O     -0.632  1.775  4.857  0.000    26.919     6.956
 425   1 H      0.195  0.805  0.000  0.000     1.131     1.666
 426   1 H      0.076  0.924  0.000  0.000     2.025     2.225
 427   1 H      0.045  0.955  0.000  0.000     2.385     2.415
 428   1 H      0.045  0.955  0.000  0.000     2.389     2.417
 429   7 N     -0.395  1.321  4.074  0.000    30.230     8.166
 430   6 C      0.032  1.055  2.913  0.000    20.050     6.377
 431   6 C      0.267  1.046  2.687  0.000    22.486     7.765
 432   8 O     -0.480  1.735  4.745  0.000    23.339     6.477
 433   6 C     -0.070  1.061  3.008  0.000    21.824     6.649
 434   6 C     -0.011  1.054  2.957  0.000    20.746     6.479
 435   6 C     -0.109  1.039  3.070  0.000    22.633     6.783
 436   6 C     -0.115  1.042  3.073  0.000    22.751     6.800
 437   1 H      0.143  0.857  0.000  0.000     1.451     1.887
 438   1 H      0.047  0.953  0.000  0.000     2.359     2.402
 439   1 H      0.042  0.958  0.000  0.000     2.419     2.432
 440   1 H      0.033  0.967  0.000  0.000     2.551     2.498
 441   1 H      0.036  0.964  0.000  0.000     2.510     2.477
 442   1 H      0.045  0.955  0.000  0.000     2.382     2.414
 443   1 H      0.032  0.968  0.000  0.000     2.562     2.503
 444   1 H      0.037  0.963  0.000  0.000     2.489     2.467
 445   1 H      0.051  0.949  0.000  0.000     2.305     2.374
 446   1 H      0.039  0.961  0.000  0.000     2.457     2.451
 447   1 H      0.033  0.967  0.000  0.000     2.549     2.497
 448   7 N     -0.189  1.260  3.929  0.000    25.095     7.440
 449   6 C      0.038  1.053  2.909  0.000    19.946     6.360
 450   6 C      0.205  1.091  2.704  0.000    23.649     7.964
 451   8 O     -0.350  1.730  4.619  0.000    20.704     6.101
 452   6 C     -0.073  1.052  3.020  0.000    21.880     6.658
 453   6 C      0.013  1.082  2.905  0.000    27.718     8.636
 454   6 C     -0.038  1.077  2.961  0.000    28.951     8.824
 455   6 C     -0.046  1.078  2.968  0.000    29.139     8.852
 456   6 C     -0.032  1.079  2.953  0.000    28.803     8.801
 457   6 C     -0.036  1.080  2.956  0.000    28.897     8.815
 458   6 C     -0.037  1.079  2.958  0.000    28.923     8.819
 459   1 H      0.234  0.766  0.000  0.000     0.947     1.525
 460   1 H      0.083  0.917  0.000  0.000     1.950     2.184
 461   1 H      0.086  0.914  0.000  0.000     1.918     2.166
 462   1 H      0.053  0.947  0.000  0.000     2.277     2.360
 463   1 H      0.010  0.990  0.000  0.000     2.892     2.660
 464   1 H      0.050  0.950  0.000  0.000     2.317     2.380
 465   1 H      0.022  0.978  0.000  0.000     2.701     2.570
 466   1 H      0.057  0.943  0.000  0.000     2.229     2.335
 467   1 H      0.041  0.959  0.000  0.000     2.437     2.441
 468   7 N     -0.427  1.327  4.101  0.000    31.143     8.288
 469   6 C      0.040  1.058  2.902  0.000    19.906     6.354
 470   6 C      0.279  1.048  2.673  0.000    22.272     7.729
 471   8 O     -0.523  1.752  4.772  0.000    24.306     6.610
 472   6 C     -0.015  1.062  2.953  0.000    20.803     6.487
 473   6 C     -0.124  1.039  3.085  0.000    22.929     6.826
 474   6 C     -0.105  1.038  3.067  0.000    22.556     6.771
 475   1 H      0.185  0.815  0.000  0.000     1.185     1.705
 476   1 H      0.023  0.977  0.000  0.000     2.696     2.568
 477   1 H      0.040  0.960  0.000  0.000     2.453     2.450
 478   1 H      0.065  0.935  0.000  0.000     2.145     2.290
 479   1 H      0.024  0.976  0.000  0.000     2.666     2.553
 480   1 H      0.036  0.964  0.000  0.000     2.500     2.473
 481   1 H      0.041  0.959  0.000  0.000     2.435     2.440
 482   1 H      0.034  0.966  0.000  0.000     2.525     2.485
 483   1 H      0.047  0.953  0.000  0.000     2.364     2.404
 484   7 N     -0.192  1.252  3.940  0.000    25.171     7.451
 485   6 C      0.040  1.056  2.904  0.000    19.914     6.354
 486   6 C      0.216  1.082  2.702  0.000    23.441     7.929
 487   8 O     -0.373  1.754  4.619  0.000    21.145     6.165
 488   6 C     -0.083  1.057  3.027  0.000    22.081     6.689
 489   6 C      0.007  1.082  2.911  0.000    27.850     8.656
 490   6 C     -0.043  1.082  2.961  0.000    29.060     8.840
 491   6 C     -0.039  1.082  2.957  0.000    28.972     8.827
 492   6 C     -0.034  1.080  2.954  0.000    28.847     8.808
 493   6 C     -0.033  1.081  2.953  0.000    28.831     8.805
 494   6 C     -0.036  1.080  2.957  0.000    28.907     8.817
 495   1 H      0.238  0.762  0.000  0.000     0.931     1.511
 496   1 H      0.073  0.927  0.000  0.000     2.054     2.241
 497   1 H      0.073  0.927  0.000  0.000     2.052     2.240
 498   1 H      0.081  0.919  0.000  0.000     1.964     2.191
 499   1 H      0.035  0.965  0.000  0.000     2.511     2.478
 500   1 H      0.040  0.960  0.000  0.000     2.445     2.445
 501   1 H      0.037  0.963  0.000  0.000     2.493     2.469
 502   1 H      0.039  0.961  0.000  0.000     2.462     2.454
 503   1 H      0.038  0.962  0.000  0.000     2.475     2.460
 504   7 N     -0.390  1.310  4.081  0.000    30.111     8.150
 505   6 C     -0.006  1.044  2.962  0.000    20.781     6.507
 506   6 C      0.192  1.096  2.712  0.000    23.887     8.004
 507   8 O     -0.358  1.744  4.614  0.000    20.857     6.123
 508   1 H      0.171  0.829  0.000  0.000     1.268     1.764
 509   1 H      0.064  0.936  0.000  0.000     2.151     2.294
 510   1 H      0.085  0.915  0.000  0.000     1.930     2.173
 511   7 N     -0.393  1.310  4.083  0.000    30.188     8.160
 512   6 C      0.037  1.060  2.903  0.000    19.967     6.365
 513   6 C      0.275  1.053  2.672  0.000    22.342     7.741
 514   8 O     -0.505  1.752  4.753  0.000    23.897     6.554
 515   6 C     -0.076  1.061  3.014  0.000    21.937     6.667
 516   6 C     -0.023  1.057  2.966  0.000    20.945     6.509
 517   6 C     -0.121  1.041  3.080  0.000    22.862     6.817
 518   6 C     -0.118  1.043  3.075  0.000    22.811     6.810
 519   1 H      0.163  0.837  0.000  0.000     1.317     1.798
 520   1 H      0.028  0.972  0.000  0.000     2.622     2.532
 521   1 H      0.044  0.956  0.000  0.000     2.394     2.420
 522   1 H      0.054  0.946  0.000  0.000     2.276     2.359
 523   1 H      0.047  0.953  0.000  0.000     2.363     2.404
 524   1 H      0.026  0.974  0.000  0.000     2.637     2.539
 525   1 H      0.033  0.967  0.000  0.000     2.549     2.496
 526   1 H      0.052  0.948  0.000  0.000     2.292     2.368
 527   1 H      0.048  0.952  0.000  0.000     2.350     2.397
 528   1 H      0.045  0.955  0.000  0.000     2.388     2.416
 529   1 H      0.043  0.957  0.000  0.000     2.415     2.430
 530   7 N     -0.173  1.252  3.921  0.000    24.750     7.389
 531   6 C      0.032  1.057  2.911  0.000    20.043     6.375
 532   6 C      0.214  1.082  2.704  0.000    23.481     7.936
 533   8 O     -0.364  1.751  4.614  0.000    20.984     6.142
 534   6 C     -0.115  1.068  3.048  0.000    22.701     6.783
 535   6 C      0.289  1.036  2.675  0.000    22.106     7.698
 536   8 O     -0.475  1.745  4.730  0.000    23.242     6.464
 537   7 N     -0.274  1.270  4.004  0.000    27.081     7.729
 538   1 H      0.249  0.751  0.000  0.000     0.887     1.475
 539   1 H      0.076  0.924  0.000  0.000     2.025     2.225
 540   1 H      0.094  0.906  0.000  0.000     1.836     2.119
 541   1 H      0.103  0.897  0.000  0.000     1.762     2.076
 542   1 H      0.218  0.782  0.000  0.000     1.019     1.581
 543   1 H      0.222  0.778  0.000  0.000     1.001     1.568
 544   7 N     -0.412  1.313  4.099  0.000    30.718     8.231
 545   6 C      0.041  1.058  2.901  0.000    19.905     6.355
 546   6 C      0.279  1.050  2.670  0.000    22.270     7.728
 547   8 O     -0.535  1.764  4.771  0.000    24.579     6.647
 548   6 C     -0.072  1.056  3.016  0.000    21.868     6.657
 549   6 C      0.014  1.081  2.905  0.000    27.707     8.634
 550   6 C     -0.038  1.077  2.961  0.000    28.939     8.822
 551   6 C     -0.036  1.078  2.958  0.000    28.884     8.814
 552   6 C     -0.027  1.076  2.952  0.000    28.687     8.783
 553   6 C     -0.031  1.077  2.954  0.000    28.782     8.798
 554   6 C     -0.028  1.077  2.952  0.000    28.712     8.787
 555   1 H      0.194  0.806  0.000  0.000     1.138     1.671
 556   1 H      0.021  0.979  0.000  0.000     2.716     2.577
 557   1 H      0.037  0.963  0.000  0.000     2.496     2.470
 558   1 H      0.071  0.929  0.000  0.000     2.078     2.254
 559   1 H      0.010  0.990  0.000  0.000     2.888     2.657
 560   1 H      0.042  0.958  0.000  0.000     2.418     2.432
 561   1 H      0.017  0.983  0.000  0.000     2.779     2.607
 562   1 H      0.047  0.953  0.000  0.000     2.363     2.404
 563   1 H      0.035  0.965  0.000  0.000     2.512     2.479
 564   7 N     -0.184  1.254  3.930  0.000    24.990     7.424
 565   6 C      0.032  1.059  2.908  0.000    20.035     6.374
 566   6 C      0.206  1.089  2.705  0.000    23.631     7.961
 567   8 O     -0.373  1.758  4.615  0.000    21.159     6.167
 568   6 C     -0.079  1.058  3.021  0.000    22.008     6.678
 569   6 C     -0.087  1.053  3.033  0.000    22.156     6.702
 570   6 C     -0.031  1.057  2.974  0.000    21.214     6.573
 571   7 N     -0.132  1.214  3.919  0.000    23.873     7.257
 572   6 C      0.237  1.019  2.744  0.000    23.043     7.859
 573   7 N     -0.239  1.241  3.999  0.000    26.254     7.610
 574   7 N     -0.247  1.228  4.019  0.000    26.432     7.636
 575   1 H      0.243  0.757  0.000  0.000     0.910     1.494
 576   1 H      0.070  0.930  0.000  0.000     2.086     2.259
 577   1 H      0.082  0.918  0.000  0.000     1.959     2.189
 578   1 H      0.078  0.922  0.000  0.000     2.000     2.212
 579   1 H      0.051  0.949  0.000  0.000     2.310     2.377
 580   1 H      0.081  0.919  0.000  0.000     1.968     2.194
 581   1 H      0.109  0.891  0.000  0.000     1.704     2.041
 582   1 H      0.083  0.917  0.000  0.000     1.945     2.181
 583   1 H      0.244  0.756  0.000  0.000     0.905     1.490
 584   1 H      0.229  0.771  0.000  0.000     0.968     1.541
 585   1 H      0.227  0.773  0.000  0.000     0.979     1.550
 586   1 H      0.260  0.740  0.000  0.000     0.847     1.442
 587   1 H      0.231  0.769  0.000  0.000     0.960     1.535
 588   1 H      0.191  0.809  0.000  0.000     1.153     1.682
 589   1 H      0.068  0.932  0.000  0.000     2.112     2.273
 590   1 H      0.171  0.829  0.000  0.000     1.265     1.762
 591   1 H      0.075  0.925  0.000  0.000     2.032     2.229
 592   1 H      0.167  0.833  0.000  0.000     1.288     1.778
 593   1 H      0.055  0.945  0.000  0.000     2.261     2.351
 594   1 H      0.176  0.824  0.000  0.000     1.238     1.743
 595   1 H      0.072  0.928  0.000  0.000     2.067     2.248
 596   1 H      0.168  0.832  0.000  0.000     1.284     1.775
 597   1 H      0.076  0.924  0.000  0.000     2.016     2.220
 598   1 H      0.173  0.827  0.000  0.000     1.257     1.756
 599   1 H      0.061  0.939  0.000  0.000     2.188     2.313
 600   1 H      0.198  0.802  0.000  0.000     1.114     1.653
 601   1 H      0.081  0.919  0.000  0.000     1.965     2.192
 602   1 H      0.187  0.813  0.000  0.000     1.173     1.697
 603   1 H      0.076  0.924  0.000  0.000     2.016     2.220
 604   1 H      0.170  0.830  0.000  0.000     1.274     1.768
 605   1 H      0.061  0.939  0.000  0.000     2.188     2.313
 606   1 H      0.184  0.816  0.000  0.000     1.193     1.711
 607   1 H      0.085  0.915  0.000  0.000     1.923     2.168
 608   1 H      0.179  0.821  0.000  0.000     1.219     1.730
 609   1 H      0.080  0.920  0.000  0.000     1.983     2.202
 610   1 H      0.176  0.824  0.000  0.000     1.234     1.740
 611   1 H      0.076  0.924  0.000  0.000     2.020     2.223

 Mol. C6AA /au·bohr⁶  :    3432020.946599
 Mol. C8AA /au·bohr⁸  :   76767844.158567
 Mol. α(0) /au        :       2787.076065

 
molecular dipole:
                 x           y           z       tot (Debye)
 q only:      -97.126    -106.923      13.875
   full:      -97.427    -106.198      13.602     367.947
molecular quadrupole (traceless):
                xx          xy          yy          xz          yz          zz
 q only:    -4408.789  -16365.863   -7996.463    2848.996    1526.673   12405.252
  q+dip:    -4640.511  -16238.721   -7785.436    2829.492    1487.490   12425.946
   full:    -4640.383  -16239.464   -7772.465    2828.712    1489.727   12412.848
speedup  1.00
cpu  time for grad   23.00 s
wall time for grad   23.00 s

SCC energy    :    -921.5731144
rep           :      11.6970798
ES            :       2.4989540
AES           :      -0.0843985
AXC           :       0.3410156
disp          :      -0.8674318
XB            :       0.0000000
fix           :       0.0000000
Gborn         :       0.0000000
Gsasa         :       0.0000000
Ghb           :       0.0000000
Gshift        :       0.0000000
Gsolv         :      -0.5713275     -358.51
Etot ala COSMO:    -921.5731144
grad norm     :       0.7647919
total E       :    -909.7748424
atomizationE  :     170.9659543   107282.76
(atE without considering molecular charge,
 total energy contains solvation terms)
H-L gap (eV)  :          1.0412

------------------------------------------------------------------------
 * finished run on 2019/03/14 at 15:08:45.623     
------------------------------------------------------------------------
 total:
 * wall-time:     0 d,  0 h,  0 min, 24.592 sec
 *  cpu-time:     0 d,  0 h,  0 min, 24.456 sec
 * ratio c/w:     0.994 speedup
 SCF:
 * wall-time:     0 d,  0 h,  0 min, 24.077 sec
 *  cpu-time:     0 d,  0 h,  0 min, 24.073 sec
 * ratio c/w:     1.000 speedup

