      -----------------------------------------------------------      
     |                   =====================                   |     
     |                           x T B                           |     
     |                   =====================                   |     
     |                         S. Grimme                         |     
     |          Mulliken Center for Theoretical Chemistry        |     
     |                    University of Bonn                     |     
     |                 Version 6.0.1 (SAW181210)                 |     
      -----------------------------------------------------------      

   This program is distributed in the hope that it will be useful,
   but WITHOUT ANY WARRANTY; without even the implied warranty of
   MERCHANTABILITY or FITNESS FOR A PARTICULAR PURPOSE.
   
   FOR NON-COMMERCIAL, ACADEMIA USE ONLY.
   
   Cite this work as:
   S. Grimme, C. Bannwarth, P. Shushkov, J. Comput. Theory Chem., 2017,
   13, 1989-2009.
   C. Bannwarth, S. Ehlert and S. Grimme., ChemRxiv, 2018, preprint.
   http://doi.org/10.26434/chemrxiv.7246238.v1
   
   for sTDA-xTB:
   S. Grimme and C. Bannwarth, J. Chem. Phys., 2016, 145, 054103.
   
   in the mass-spec context:
   V. Asgeirsson, C. Bauer and S. Grimme, Chem. Sci., 2017, 8, 4879.
   
   if GBSA is used:
   P. Shushkov, F. März and S. Grimme, unpublished.
   
   for ANC optimizer:
   S. Grimme, unpublished.
   Rational Function algorithm used in ANCopt:
   F. Eckert, P. Pulay, H.-J. Werner, J. Comput. Chem., 1997, 18, 1473.
   
   with help from (in alphabetical order)
   C. Bannwarth, F. Bohle, G. Brandenburg, E. Caldeweyher, M. Checinski,
   S. Dohm, S. Ehlert, S. Ehrlich, F. März, H. Neugebauer, J. Pisarek,
   P. Pracht, P. Shushkov, and S. Spicher.
   
 * started run on 2019/03/07 at 11:37:45.362     
========================================================================
 # omp threads = 1
========================================================================
number of atoms            : 362
number of electrons        : 956
charge                     : 3
spin                       : .0
first test random number   : .4956
           ------------------------------------------------- 
          |                 G F N 2 - x T B                 |
          | Geometry, Frequencies, Noncovalent interactions |
          |            JCTC 2018 parametrisation            |
           ------------------------------------------------- 
 
      method parameters     
 k(s)        :  1.8500
 k(p)        :  2.2300
 k(d)        :  2.2300
 k(f)        :  2.0000
 kEN (H0ij)  : -2.0000
 D4 a1       :  0.5200
 D4 a2       :  5.0000
 D4 s6       :  1.0000
 D4 s8       :  2.7000
 D4 s9       :  5.0000
 alphaj      :  2.0000

 Solvent             : h2o
 Using internal parameter file: .param_gbsa2_h2o
 Gsolv ref. state (COSMO-RS): gsolv [1 M gas/solution]
 temperature (mdtemp)       :    298.150000000000     
 dielectric constant        :    80.2000000000000     
 rho                        :    1.00000000000000     
 mass                       :    18.0000000000000     
 surface tension            :    15.5689454083859     
 probe radius               :   0.975313790000000     
 vdW radii scaling          :    1.00000000000000     
 Gshift (Eh)                :   1.857443126794793E-003
 c1                         :    1.55243817000000     
 soset                      :   0.130326360000000     
 HB correction              :  T

            Z     q(EN)     CN     RAES       Cart. coordinates
     1  N   5.0   -0.23    3.25    1.97   223.61127   106.36700   278.04483
     2  C   4.0    0.03    4.33    4.26   223.14451   108.93325   277.13776
     3  C   4.0    0.15    3.49    3.11   225.46887   110.52440   277.66499
     4  O   6.0   -0.31    1.34    1.80   226.44775   111.67713   275.88865
     5  C   4.0   -0.07    4.22    4.04   220.82015   110.10677   278.39443
     6  H   1.0    0.11    1.08    1.44   222.52090   105.80954   279.11441
     7  H   1.0    0.05    1.13    1.45   222.81003   108.87278   275.33685
     8  H   1.0    0.05    1.05    1.44   220.56692   111.80375   277.75003
     9  H   1.0    0.06    1.05    1.44   219.34238   109.08632   278.02215
    10  H   1.0    0.06    1.06    1.44   221.07337   110.17480   280.20856
    11  N   5.0   -0.16    3.53    2.10   226.24744   110.68125   280.08762
    12  C   4.0    0.04    4.52    4.56   228.48676   112.13445   280.75280
    13  C   4.0    0.17    3.58    3.15   230.53901   111.33131   278.95001
    14  O   6.0   -0.31    1.33    1.80   231.75032   112.91113   277.78594
    15  C   4.0   -0.04    4.44    4.45   229.40517   111.62044   283.47212
    16  C   4.0    0.17    3.33    3.06   227.49466   112.31586   285.43366
    17  O   6.0   -0.26    1.23    1.80   226.47232   114.36055   285.39586
    18  N   5.0   -0.22    3.26    1.97   227.04679   110.59054   287.14008
    19  H   1.0    0.10    1.13    1.45   225.50289   109.96315   281.34051
    20  H   1.0    0.07    1.12    1.45   228.08614   113.92024   280.64887
    21  H   1.0    0.05    1.10    1.44   229.82091   109.84410   283.64031
    22  H   1.0    0.06    1.09    1.44   230.94719   112.56342   283.77448
    23  H   1.0    0.14    1.09    1.44   225.97154   110.87778   288.32494
    24  H   1.0    0.12    1.10    1.44   227.82725   109.16569   287.07961
    25  N   5.0   -0.17    3.56    2.12   230.85648   108.85766   278.64765
    26  C   4.0    0.03    4.47    4.49   232.77644   107.85044   276.94312
    27  C   4.0    0.17    3.48    3.11   232.45141   108.78396   274.22947
    28  O   6.0   -0.30    1.33    1.80   234.30523   109.19026   272.94068
    29  C   4.0   -0.05    4.36    4.31   232.63282   104.92703   276.98091
    30  C   4.0   -0.05    4.27    4.14   233.35092   103.69682   279.51314
    31  C   4.0   -0.00    4.33    4.26   232.58747   100.89247   279.49236
    32  N   5.0   -0.15    3.44    2.04   233.26021    99.68115   281.84507
    33  C   4.0    0.13    3.46    3.10   231.97331    97.72340   282.84473
    34  N   5.0   -0.22    3.31    1.98   229.98910    96.79932   281.61830
    35  N   5.0   -0.21    3.26    1.97   232.62904    96.83145   285.13697
    36  H   1.0    0.09    1.14    1.45   229.97587   107.72761   279.41488
    37  H   1.0    0.06    1.12    1.45   234.40917   108.44192   277.53082
    38  H   1.0    0.05    1.09    1.44   230.92640   104.41870   276.54439
    39  H   1.0    0.06    1.09    1.44   233.73831   104.26941   275.67511
    40  H   1.0    0.06    1.08    1.44   235.15561   103.85367   279.79849
    41  H   1.0    0.05    1.09    1.44   232.51188   104.56610   280.89264
    42  H   1.0    0.05    1.10    1.44   230.78089   100.74507   279.21646
    43  H   1.0    0.06    1.09    1.44   233.41517   100.03642   278.09774
    44  H   1.0    0.11    1.13    1.45   234.55467   100.24051   282.65387
    45  H   1.0    0.12    1.10    1.44   229.53556    97.44939   280.19912
    46  H   1.0    0.13    1.09    1.44   229.15762    95.55021   282.24191
    47  H   1.0    0.13    1.09    1.44   233.86115    97.50986   285.95144
    48  H   1.0    0.13    1.08    1.44   231.81646    95.58234   285.78515
    49  N   5.0   -0.15    3.59    2.15   230.08547   109.12222   273.41122
    50  C   4.0    0.04    4.54    4.59   229.56958   110.07843   270.89788
    51  C   4.0    0.16    3.52    3.12   230.51066   112.78640   270.82796
    52  O   6.0   -0.32    1.29    1.80   231.61804   113.63300   268.98170
    53  C   4.0   -0.04    4.42    4.41   226.68775   110.01607   270.37254
    54  C   4.0   -0.01    3.59    3.16   225.69942   107.47060   269.63933
    55  C   4.0   -0.04    3.52    3.12   223.11805   106.90558   269.70925
    56  C   4.0   -0.03    3.56    3.14   227.33592   105.63001   268.77383
    57  C   4.0   -0.03    3.44    3.09   222.18831   104.61523   268.87210
    58  C   4.0   -0.03    3.45    3.09   226.38917   103.29242   267.93857
    59  C   4.0   -0.03    3.44    3.09   223.86261   102.79542   267.98771
    60  H   1.0    0.11    1.15    1.45   228.76077   108.80286   274.29750
    61  H   1.0    0.07    1.14    1.45   230.40295   109.05608   269.62421
    62  H   1.0    0.06    1.11    1.44   225.79957   110.58676   271.87109
    63  H   1.0    0.05    1.10    1.44   226.30413   111.20848   269.03461
    64  H   1.0    0.06    1.10    1.44   221.99745   108.10555   270.33664
    65  H   1.0    0.08    1.11    1.45   229.06691   105.93804   268.74360
    66  H   1.0    0.07    1.09    1.44   220.46110   104.29398   268.90044
    67  H   1.0    0.07    1.10    1.44   227.50222   102.06788   267.34520
    68  H   1.0    0.07    1.10    1.44   223.25978   101.24207   267.43024
    69  N   5.0   -0.15    3.59    2.15   230.04201   114.17913   272.86887
    70  C   4.0    0.04    4.53    4.58   230.91506   116.81530   273.04461
    71  C   4.0    0.16    3.56    3.15   233.79123   116.73215   272.90855
    72  O   6.0   -0.32    1.32    1.80   234.98175   118.10409   271.45535
    73  C   4.0    0.05    4.30    4.19   230.05713   118.10787   275.51071
    74  O   6.0   -0.28    2.13    1.84   227.47198   118.86187   275.28583
    75  C   4.0   -0.08    4.18    3.96   231.71820   120.48704   276.08518
    76  H   1.0    0.13    1.16    1.46   229.22754   113.64623   274.17089
    77  H   1.0    0.06    1.12    1.45   230.19130   117.80174   271.68023
    78  H   1.0    0.06    1.11    1.45   230.24610   116.91168   276.88643
    79  H   1.0    0.15    1.08    1.44   227.00522   119.56296   276.63131
    80  H   1.0    0.05    1.05    1.44   231.14750   121.26938   277.64043
    81  H   1.0    0.05    1.06    1.44   233.47186   119.98059   276.26282
    82  H   1.0    0.06    1.05    1.44   231.56702   121.68701   274.70757
    83  N   5.0   -0.16    3.65    2.21   234.84380   114.91801   274.27860
    84  C   4.0    0.03    4.48    4.51   237.54233   114.48905   274.38632
    85  C   4.0    0.17    3.54    3.14   238.46452   113.93158   271.70291
    86  O   6.0   -0.31    1.32    1.80   240.54889   114.57597   270.98292
    87  C   4.0   -0.07    4.28    4.16   238.07523   112.31019   276.07384
    88  H   1.0    0.13    1.19    1.46   233.98398   113.88244   275.18945
    89  H   1.0    0.05    1.15    1.45   238.40972   115.96114   275.04961
    90  H   1.0    0.06    1.06    1.44   239.88370   112.02106   276.14754
    91  H   1.0    0.06    1.06    1.44   237.44596   112.67113   277.75759
    92  H   1.0    0.07    1.08    1.44   237.24375   110.81353   275.42000
    93  N   5.0   -0.15    3.65    2.20   236.89605   112.51050   270.34986
    94  C   4.0    0.04    4.54    4.59   237.51021   111.83209   267.76283
    95  C   4.0    0.16    3.50    3.12   237.71241   114.29629   266.31341
    96  O   6.0   -0.31    1.29    1.80   239.42639   114.54196   264.75061
    97  C   4.0   -0.04    4.41    4.40   235.48820   110.16157   266.54962
    98  C   4.0    0.17    3.31    3.05   235.50332   107.47816   267.56819
    99  O   6.0   -0.28    1.22    1.80   233.50966   106.39157   268.02928
   100  N   5.0   -0.23    3.26    1.97   237.72186   106.41047   267.92346
   101  H   1.0    0.13    1.18    1.46   235.48064   111.92658   270.89410
   102  H   1.0    0.06    1.13    1.45   239.07490   110.87967   267.72503
   103  H   1.0    0.07    1.11    1.44   233.83847   110.90613   266.83686
   104  H   1.0    0.05    1.09    1.44   235.74898   110.11811   264.73549
   105  H   1.0    0.13    1.09    1.44   237.80878   104.89302   268.49982
   106  H   1.0    0.11    1.10    1.44   239.08246   107.22872   267.57764
   107  N   5.0   -0.16    3.55    2.11   236.03433   116.14823   266.84820
   108  C   4.0    0.03    4.50    4.53   236.04945   118.66156   265.59720
   109  C   4.0    0.16    3.50    3.12   238.52310   119.95602   266.35498
   110  O   6.0   -0.32    1.32    1.80   239.57946   121.37899   264.92824
   111  C   4.0   -0.02    4.41    4.39   233.78934   120.39444   266.41167
   112  C   4.0   -0.06    4.30    4.19   231.25332   119.14533   265.76539
   113  C   4.0   -0.08    4.24    4.07   233.98587   123.00604   265.15123
   114  C   4.0   -0.09    4.15    3.90   228.98565   120.79506   266.42301
   115  H   1.0    0.13    1.15    1.45   234.85136   115.98004   267.94991
   116  H   1.0    0.04    1.12    1.45   235.89071   118.40834   263.78873
   117  H   1.0    0.06    1.13    1.45   233.87437   120.62310   268.22770
   118  H   1.0    0.04    1.09    1.44   231.21364   118.75416   263.97582
   119  H   1.0    0.06    1.09    1.44   231.12104   117.55418   266.66490
   120  H   1.0    0.04    1.06    1.44   232.57235   124.04728   265.67846
   121  H   1.0    0.06    1.06    1.44   235.55623   123.80918   265.65012
   122  H   1.0    0.05    1.05    1.44   233.95374   122.80951   263.32953
   123  H   1.0    0.04    1.05    1.44   227.43986   119.91634   265.97704
   124  H   1.0    0.05    1.05    1.44   228.98754   121.15033   268.22203
   125  H   1.0    0.04    1.06    1.44   229.08392   122.36920   265.48949
   126  N   5.0   -0.15    3.61    2.16   239.32245   119.54028   268.71525
   127  C   4.0    0.04    4.49    4.53   241.68650   120.57585   269.69791
   128  C   4.0    0.17    3.52    3.12   243.79165   119.52328   268.05007
   129  O   6.0   -0.29    1.34    1.80   245.46406   120.93490   267.14867
   130  C   4.0   -0.04    4.44    4.44   242.04177   119.74626   272.39833
   131  C   4.0   -0.05    4.32    4.23   240.10102   120.71758   274.27482
   132  C   4.0   -0.05    4.32    4.23   240.40716   119.50627   276.86564
   133  C   4.0   -0.03    4.28    4.16   238.39082   120.49271   278.66466
   134  N   5.0   -0.16    4.13    3.22   238.83301   119.45147   281.24413
   135  H   1.0    0.12    1.17    1.46   238.50042   118.64455   269.79239
   136  H   1.0    0.06    1.12    1.45   241.68461   122.40889   269.66389
   137  H   1.0    0.07    1.12    1.45   242.02665   117.91323   272.44746
   138  H   1.0    0.07    1.10    1.44   243.70284   120.28295   272.95391
   139  H   1.0    0.05    1.09    1.44   240.25976   122.53739   274.42978
   140  H   1.0    0.06    1.10    1.44   238.41538   120.37932   273.63799
   141  H   1.0    0.05    1.10    1.44   240.27676   117.68268   276.72202
   142  H   1.0    0.06    1.09    1.44   242.07389   119.87477   277.53460
   143  H   1.0    0.06    1.08    1.44   238.43239   122.32385   278.71190
   144  H   1.0    0.04    1.08    1.44   236.72597   120.00894   278.06939
   145  H   1.0    0.09    1.09    1.44   237.65194   120.02972   282.29293
   146  H   1.0    0.08    1.09    1.44   238.76120   117.77150   281.19122
   147  H   1.0    0.09    1.09    1.44   240.35046   119.92957   281.79026
   148  N   5.0   -0.15    3.50    2.08   243.78032   117.03073   267.66078
   149  C   4.0    0.03    4.35    4.29   245.65681   115.81941   266.04696
   150  C   4.0    0.17    3.37    3.07   245.31666   116.67168   263.33142
   151  O   6.0   -0.30    1.29    1.80   247.13836   116.73782   261.87444
   152  H   1.0    0.13    1.15    1.45   242.69750   116.01217   268.31841
   153  H   1.0    0.07    1.09    1.44   247.34434   116.23893   266.62710
   154  H   1.0    0.06    1.09    1.44   245.49052   113.99772   266.15467
   155  N   5.0   -0.15    3.56    2.13   242.99230   117.36899   262.64923
   156  C   4.0    0.03    4.47    4.49   242.25531   118.29684   260.14156
   157  C   4.0    0.15    3.49    3.11   242.93183   121.05206   259.71449
   158  O   6.0   -0.32    1.32    1.80   243.07167   121.84008   257.51673
   159  C   4.0   -0.04    4.50    4.54   239.40182   118.05307   259.73905
   160  C   4.0   -0.02    4.31    4.21   238.22830   115.47548   259.27418
   161  C   4.0   -0.09    4.22    4.03   235.35025   115.74193   259.15702
   162  C   4.0   -0.08    4.24    4.07   239.29222   114.40779   256.82698
   163  H   1.0    0.13    1.18    1.46   241.74130   117.31230   263.68480
   164  H   1.0    0.05    1.14    1.45   243.18883   117.25561   258.95671
   165  H   1.0    0.06    1.11    1.45   238.58168   118.76739   261.21493
   166  H   1.0    0.05    1.11    1.45   238.95963   119.11699   258.31231
   167  H   1.0    0.07    1.13    1.45   238.63081   114.31897   260.63856
   168  H   1.0    0.05    1.05    1.44   234.59436   114.09787   258.86033
   169  H   1.0    0.04    1.06    1.44   234.73420   116.41846   260.74439
   170  H   1.0    0.04    1.06    1.44   234.89671   116.87766   257.79263
   171  H   1.0    0.05    1.06    1.44   238.55711   112.75995   256.50762
   172  H   1.0    0.05    1.06    1.44   238.88782   115.53595   255.43993
   173  H   1.0    0.06    1.06    1.44   241.11202   114.24716   256.97060
   174  N   5.0   -0.15    3.65    2.21   243.25875   122.50904   261.74972
   175  C   4.0    0.04    4.57    4.63   244.00519   125.14143   261.53807
   176  C   4.0    0.17    3.57    3.15   246.76797   124.86742   260.76706
   177  O   6.0   -0.27    1.24    1.80   247.67882   126.00315   258.95104
   178  C   4.0    0.05    4.37    4.33   243.78032   126.63998   263.99660
   179  O   6.0   -0.25    2.22    1.86   245.14659   125.40221   265.97704
   180  C   4.0   -0.07    4.23    4.05   241.11580   126.99336   264.80163
   181  H   1.0    0.12    1.16    1.46   243.05277   121.99126   263.27662
   182  H   1.0    0.06    1.12    1.45   242.93750   126.07874   260.37967
   183  H   1.0    0.07    1.12    1.45   244.49463   128.29538   263.66968
   184  H   1.0    0.17    1.15    1.45   244.51353   123.97169   266.24349
   185  H   1.0    0.06    1.06    1.44   241.07045   127.95145   266.36443
   186  H   1.0    0.05    1.06    1.44   240.19929   127.90421   263.50150
   187  H   1.0    0.07    1.08    1.44   240.33346   125.35686   265.06619
   188  N   5.0   -0.15    3.68    2.25   248.05488   123.23659   262.16168
   189  C   4.0    0.05    4.51    4.55   250.67404   122.64888   261.68358
   190  C   4.0    0.18    3.51    3.12   250.74585   121.35631   259.09844
   191  O   6.0   -0.24    1.25    1.80   252.44849   121.80040   257.59610
   192  C   4.0   -0.04    4.45    4.46   251.58677   120.85742   263.73771
   193  C   4.0   -0.02    4.36    4.32   251.47906   122.00260   266.36632
   194  C   4.0    0.18    3.32    3.06   251.08600   120.08453   268.37888
   195  O   6.0   -0.24    1.23    1.80   249.54209   120.45113   270.06263
   196  N   5.0   -0.22    3.26    1.97   252.44660   117.97370   268.23904
   197  H   1.0    0.12    1.17    1.46   247.41804   122.43534   263.42402
   198  H   1.0    0.08    1.12    1.45   251.71906   124.15499   261.72137
   199  H   1.0    0.07    1.10    1.44   250.56443   119.33430   263.70559
   200  H   1.0    0.07    1.09    1.44   253.31020   120.35287   263.37300
   201  H   1.0    0.07    1.10    1.44   253.03997   122.90778   266.69324
   202  H   1.0    0.08    1.11    1.44   250.12224   123.23281   266.43246
   203  H   1.0    0.12    1.09    1.44   253.51618   117.77528   267.02961
   204  H   1.0    0.14    1.09    1.44   252.25763   116.80774   269.35587
   205  N   5.0   -0.15    3.58    2.14   248.84667   119.81618   258.49372
   206  C   4.0    0.05    4.42    4.42   248.80321   118.61243   255.98228
   207  C   4.0    0.17    3.47    3.10   248.40826   120.67034   253.96405
   208  O   6.0   -0.24    1.24    1.80   249.52130   120.57018   251.93826
   209  C   4.0   -0.07    4.21    4.03   246.69805   116.62633   255.89157
   210  H   1.0    0.12    1.16    1.46   247.59945   119.44580   259.46693
   211  H   1.0    0.08    1.12    1.45   250.39247   117.76205   255.65158
   212  H   1.0    0.06    1.05    1.44   246.67349   115.83642   254.23806
   213  H   1.0    0.07    1.05    1.44   247.00419   115.35076   257.17280
   214  H   1.0    0.06    1.06    1.44   245.08234   117.43324   256.20715
   215  N   5.0   -0.15    3.56    2.12   246.83978   122.54684   254.58766
   216  C   4.0    0.06    4.36    4.32   246.32578   124.61798   252.83399
   217  C   4.0    0.13    3.27    3.05   248.88258   125.87465   252.26708
   218  O   6.0   -0.20    1.11    1.80   249.48162   126.36408   250.08633
   219  C   4.0    0.04    4.27    4.13   244.53432   126.54361   254.06043
   220  O   6.0   -0.24    2.09    1.84   243.44961   128.13665   252.23873
   221  H   1.0    0.13    1.18    1.46   246.05933   122.65266   256.01062
   222  H   1.0    0.08    1.12    1.45   245.52831   124.00193   251.30332
   223  H   1.0    0.06    1.08    1.44   243.21151   125.66111   254.97316
   224  H   1.0    0.07    1.08    1.44   245.45461   127.54705   255.28686
   225  H   1.0    0.16    1.08    1.44   242.47641   129.17033   252.94927
   226  N   5.0   -0.21    3.29    1.98   247.33678   109.24506   249.16604
   227  C   4.0    0.03    4.47    4.49   245.20328   110.96849   249.23407
   228  C   4.0    0.16    3.47    3.10   242.91293   109.86678   250.56632
   229  O   6.0   -0.30    1.25    1.80   241.31611   111.21415   251.47339
   230  C   4.0   -0.02    4.38    4.35   244.39070   111.79241   246.52987
   231  C   4.0   -0.06    4.22    4.04   246.59601   113.05285   245.12958
   232  C   4.0   -0.07    4.27    4.14   243.49308   109.50395   245.06911
   233  H   1.0    0.11    1.08    1.44   247.03820   107.82398   248.43471
   234  H   1.0    0.06    1.13    1.45   245.79099   112.41980   250.18649
   235  H   1.0    0.06    1.12    1.45   243.02821   113.00939   246.66971
   236  H   1.0    0.07    1.05    1.44   246.04988   113.55174   243.45150
   237  H   1.0    0.07    1.05    1.44   247.14403   114.53440   246.05933
   238  H   1.0    0.06    1.06    1.44   247.98874   111.86989   244.99163
   239  H   1.0    0.07    1.06    1.44   242.98663   110.01418   243.38347
   240  H   1.0    0.06    1.06    1.44   244.85368   108.27941   244.95384
   241  H   1.0    0.06    1.06    1.44   242.06445   108.74806   245.93271
   242  N   5.0   -0.14    3.46    2.05   242.73908   107.33832   250.64569
   243  C   4.0    0.02    4.35    4.30   240.69061   106.12323   251.99496
   244  C   4.0    0.16    3.36    3.07   241.37092   105.70749   254.76151
   245  O   6.0   -0.25    1.24    1.80   243.45150   106.41425   255.58921
   246  H   1.0    0.10    1.13    1.45   243.78599   106.32165   249.93137
   247  H   1.0    0.06    1.09    1.44   239.17883   107.15502   251.87968
   248  H   1.0    0.06    1.09    1.44   240.30322   104.51507   251.20694
   249  N   5.0   -0.17    3.46    2.06   239.63237   104.56610   256.17692
   250  C   4.0    0.04    4.33    4.26   240.05000   104.01996   258.82254
   251  C   4.0    0.10    3.21    3.04   240.65282   101.19860   259.18725
   252  O   6.0   -0.23    1.11    1.80   241.24997   100.36335   261.30375
   253  C   4.0   -0.07    4.22    4.04   237.72186   104.70971   260.37400
   254  H   1.0    0.10    1.13    1.45   238.18106   104.09177   255.61756
   255  H   1.0    0.08    1.13    1.45   241.47296   105.02341   259.39701
   256  H   1.0    0.07    1.06    1.44   238.02988   104.33366   262.14089
   257  H   1.0    0.05    1.06    1.44   237.36848   106.49740   260.18314
   258  H   1.0    0.06    1.06    1.44   236.28377   103.73651   259.78441
   259  N   5.0   -0.21    3.23    1.96   229.73020   118.44802   247.59000
   260  C   4.0    0.03    4.32    4.23   230.10437   118.59164   250.34522
   261  C   4.0    0.10    3.24    3.04   229.00266   120.98214   251.38079
   262  O   6.0   -0.31    1.21    1.80   227.82725   120.98026   253.34233
   263  C   4.0   -0.05    4.49    4.52   232.94085   118.48204   250.99718
   264  C   4.0   -0.03    4.36    4.32   234.29578   116.07831   250.22050
   265  C   4.0   -0.08    4.24    4.08   237.07935   116.21059   250.79687
   266  C   4.0   -0.08    4.29    4.18   233.00699   113.91835   251.46016
   267  H   1.0    0.11    1.08    1.44   231.09837   118.20425   246.74719
   268  H   1.0    0.05    1.13    1.45   229.25021   117.15734   251.10300
   269  H   1.0    0.05    1.10    1.44   233.77611   119.90500   250.19783
   270  H   1.0    0.04    1.10    1.44   233.12982   118.69747   252.80754
   271  H   1.0    0.05    1.14    1.45   234.20508   115.85154   248.40448
   272  H   1.0    0.06    1.06    1.44   237.88626   114.64778   250.27908
   273  H   1.0    0.06    1.06    1.44   237.82579   117.61465   249.88602
   274  H   1.0    0.04    1.06    1.44   237.32123   116.45436   252.59778
   275  H   1.0    0.05    1.06    1.44   233.84225   112.35555   250.98962
   276  H   1.0    0.04    1.06    1.44   233.07880   114.12622   253.27997
   277  H   1.0    0.05    1.07    1.44   231.25521   113.85977   250.92159
   278  N   5.0   -0.22    3.21    1.96   223.99867   121.61142   256.95549
   279  C   4.0    0.03    4.32    4.23   224.65440   123.10620   259.20804
   280  C   4.0    0.09    3.22    3.04   222.43019   124.61420   260.30408
   281  O   6.0   -0.30    1.14    1.80   221.93886   124.48003   262.58687
   282  C   4.0   -0.02    4.34    4.27   226.91640   124.96758   258.66380
   283  C   4.0   -0.07    4.23    4.05   227.37183   126.69479   260.96359
   284  C   4.0   -0.08    4.23    4.06   229.30313   123.53894   258.01562
   285  H   1.0    0.14    1.11    1.45   225.07770   121.75504   255.74984
   286  H   1.0    0.04    1.12    1.45   225.15140   121.86654   260.46282
   287  H   1.0    0.06    1.12    1.45   226.46476   125.99937   257.21816
   288  H   1.0    0.05    1.05    1.44   228.76644   127.83051   260.60833
   289  H   1.0    0.06    1.06    1.44   225.85816   127.67177   261.30375
   290  H   1.0    0.05    1.05    1.44   227.77812   125.66867   262.42813
   291  H   1.0    0.05    1.06    1.44   230.65995   124.72947   257.69059
   292  H   1.0    0.04    1.06    1.44   229.76611   122.45424   259.41780
   293  H   1.0    0.07    1.08    1.44   229.01778   122.51660   256.52085
   294  N   5.0   -0.21    3.24    1.97   217.52257   120.10342   262.79474
   295  C   4.0    0.03    4.40    4.37   218.59405   118.90534   265.03028
   296  C   4.0    0.16    3.46    3.10   218.35783   120.48704   267.41512
   297  O   6.0   -0.30    1.26    1.80   217.32037   119.61020   269.31051
   298  C   4.0   -0.06    4.46    4.48   221.36061   118.18913   264.53329
   299  C   4.0   -0.03    4.33    4.25   221.80091   115.93469   262.74939
   300  C   4.0   -0.09    4.23    4.06   224.44086   115.98382   261.66468
   301  C   4.0   -0.08    4.24    4.09   221.26423   113.50450   264.10621
   302  H   1.0    0.11    1.08    1.44   218.55625   120.24893   261.54941
   303  H   1.0    0.06    1.14    1.45   217.60761   117.39356   265.34209
   304  H   1.0    0.05    1.10    1.44   222.21854   119.65178   263.83598
   305  H   1.0    0.05    1.10    1.44   222.15807   117.81685   266.14144
   306  H   1.0    0.05    1.14    1.45   220.64062   116.06319   261.33587
   307  H   1.0    0.05    1.06    1.44   224.67141   114.54763   260.54974
   308  H   1.0    0.04    1.06    1.44   224.68464   117.53528   260.71982
   309  H   1.0    0.04    1.06    1.44   225.66351   115.90067   263.02718
   310  H   1.0    0.05    1.06    1.44   221.54580   112.09476   262.97048
   311  H   1.0    0.05    1.06    1.44   222.37728   113.35332   265.55374
   312  H   1.0    0.05    1.06    1.44   219.52190   113.49316   264.67313
   313  N   5.0   -0.17    3.54    2.11   219.29892   122.81707   267.23748
   314  C   4.0    0.03    4.41    4.40   219.24600   124.57640   269.34453
   315  C   4.0    0.11    3.30    3.05   216.51157   124.65199   270.27994
   316  O   6.0   -0.26    1.11    1.80   215.91253   124.35909   272.52494
   317  C   4.0    0.05    4.33    4.25   219.98111   127.29572   268.45258
   318  O   6.0   -0.24    2.15    1.85   218.81515   127.81539   266.04129
   319  C   4.0   -0.07    4.19    3.98   222.76278   127.69823   268.28439
   320  H   1.0    0.12    1.16    1.45   219.98300   123.41233   265.89011
   321  H   1.0    0.05    1.12    1.45   220.42519   124.04350   270.64277
   322  H   1.0    0.07    1.12    1.45   219.36317   128.45979   269.72625
   323  H   1.0    0.16    1.11    1.44   218.30492   126.45857   265.39500
   324  H   1.0    0.07    1.06    1.44   223.10105   129.41032   267.72503
   325  H   1.0    0.05    1.06    1.44   223.52056   127.43556   269.93223
   326  H   1.0    0.06    1.06    1.44   223.48088   126.51148   267.08631
   327  N   5.0   -0.20    3.26    1.97   213.77336   117.82252   273.28650
   328  C   4.0    0.04    4.31    4.22   214.55948   117.52017   275.88865
   329  C   4.0    0.11    3.22    3.04   213.40864   119.52706   277.62531
   330  O   6.0   -0.22    1.11    1.80   212.64141   118.92234   279.75314
   331  C   4.0   -0.05    4.40    4.38   217.41108   117.59576   276.04928
   332  C   4.0   -0.04    4.33    4.26   218.58460   120.06563   275.18000
   333  C   4.0   -0.01    4.32    4.24   221.48533   120.02405   275.21591
   334  N   5.0   -0.15    3.46    2.05   222.43208   122.60353   274.91733
   335  C   4.0    0.12    3.48    3.11   223.47521   123.94524   276.76359
   336  N   5.0   -0.22    3.34    2.00   223.67174   122.91722   279.01615
   337  N   5.0   -0.23    3.28    1.97   224.33882   126.28661   276.33652
   338  H   1.0    0.13    1.11    1.44   214.97522   118.20614   272.26227
   339  H   1.0    0.07    1.13    1.45   213.94721   115.89122   276.46691
   340  H   1.0    0.06    1.10    1.44   217.91375   117.28206   277.78405
   341  H   1.0    0.05    1.10    1.44   218.09516   116.22948   275.03827
   342  H   1.0    0.08    1.10    1.44   218.01012   120.43790   273.47925
   343  H   1.0    0.07    1.09    1.44   217.98934   121.42434   276.25715
   344  H   1.0    0.05    1.10    1.44   222.08815   119.30785   276.79194
   345  H   1.0    0.05    1.08    1.44   222.11839   118.95825   273.86664
   346  H   1.0    0.09    1.14    1.45   222.30547   123.29517   273.45279
   347  H   1.0    0.11    1.11    1.45   223.13128   121.40544   279.26937
   348  H   1.0    0.12    1.09    1.44   224.34260   123.75626   280.23691
   349  H   1.0    0.11    1.09    1.44   224.22165   126.93856   274.85308
   350  H   1.0    0.13    1.09    1.44   225.01156   127.13887   277.54594
   351  H   1.0    0.10    1.08    1.44   223.59947   105.28898   276.72942
   352  H   1.0    0.09    1.04    1.44   250.06298   126.29520   253.68159
   353  H   1.0    0.11    1.08    1.44   248.62522   109.96953   248.32484
   354  H   1.0    0.08    1.04    1.43   240.56686   100.01613   257.71571
   355  H   1.0    0.11    1.07    1.44   228.68178   117.15932   247.22586
   356  H   1.0    0.07    1.05    1.44   229.23349   122.61006   250.44930
   357  H   1.0    0.10    1.07    1.44   223.91458   119.96453   257.37172
   358  H   1.0    0.07    1.04    1.43   221.37923   125.70424   259.17344
   359  H   1.0    0.11    1.08    1.44   216.20216   119.18765   262.23758
   360  H   1.0    0.08    1.05    1.44   215.10235   124.94965   269.05660
   361  H   1.0    0.12    1.08    1.44   213.09081   116.36867   272.72705
   362  H   1.0    0.09    1.04    1.43   213.27797   121.31949   277.04123

  Z AO/shell   Hii/eV     exponent
  1     Wed Apr 25 08:07:45 CEST 2018   EN: 2.200 GM2: 0.406  GM3: 0.0800  RAES: 1.40
     1s    -10.707211    1.230000
  6     Wed Apr 25 08:07:45 CEST 2018   EN: 2.550 GM2: 0.538  GM3: 0.1500  RAES: 3.00
     2s    -13.970922    2.096432
     2p    -10.063292    1.800000
  7     Wed Apr 25 08:07:45 CEST 2018   EN: 3.040 GM2: 0.461  GM3:-0.0640  RAES: 1.90
     2s    -16.686243    2.339881
     2p    -12.523956    2.014332
  8     Wed Apr 25 08:07:45 CEST 2018   EN: 3.440 GM2: 0.452  GM3:-0.0517  RAES: 1.80
     2s    -20.229985    2.439742
     2p    -15.503117    2.137023
 no old-style atom pair restraining (fixing) potential

molecular fragmentation (1/2 indicates fragments):
111111111111111111111111111111111111111111111111111111111111111111111111
111111111111111111111111111111111111111111111111111111111111111111111111
111111111111111111111111111111111111111111111111111111111111111111111111
111111111222222222222222222222222222222222222222222222222222222222222222
222222222222222222222222222222222222222222222222222222222222221122222222
22
# atoms in fragment 1/2:   227   135
 fragment masses (1/2) :     1577.80      821.09
CMA distance (Bohr)    :  11.852
constraining FC (au)   :  0.0500
           ------------------------------------------------- 
          |        Self-Consistent Charge Iterations        |
           ------------------------------------------------- 

 Ncao       : 866
 Nao        : 866
 Nshell     : 530
 Nel        : 956
 T(el)      :   500.0
 intcut     :    35.0
 scfconv/Eh :  0.100E-06
   qconv/e  :  0.100E-04
 intneglect :  0.100E-08
 broydamp   :      0.400
 iter      E             dE          RMSdq      gap      omega  full diag
   1   -549.6287159 -0.549629E+03  0.456E+00    2.85       0.0  T
   2   -550.8396141 -0.121090E+01  0.216E+00    1.74       1.0  T
   3   -550.9008448 -0.612307E-01  0.121E+00    1.96       1.0  T
   4   -550.9843362 -0.834914E-01  0.236E-01    1.42       1.0  T
   5   -550.9898813 -0.554512E-02  0.107E-01    1.57       1.0  T
   6   -550.9905344 -0.653105E-03  0.450E-02    1.54       1.0  T
   7   -550.9906945 -0.160051E-03  0.187E-02    1.53       1.0  T
   8   -550.9907099 -0.154053E-04  0.884E-03    1.52       1.0  T
   9   -550.9907150 -0.511093E-05  0.377E-03    1.51       1.4  T
  10   -550.9907162 -0.120345E-05  0.153E-03    1.51       3.4  T
  11   -550.9907164 -0.166351E-06  0.631E-04    1.51       8.3  T
  12   -550.9907164 -0.192738E-07  0.284E-04    1.51      18.5  T
  13   -550.9907164 -0.503326E-08  0.109E-04    1.51      48.4  T
  14   -550.9907164 -0.837758E-09  0.497E-05    1.51     105.7  T
  15   -550.9907164 -0.114596E-09  0.196E-05    1.51     267.9  T
speedup  1.00
cpu  time for SCC    5.59 s
wall time for SCC    5.59 s

   *** convergence criteria satisfied after 15 iterations ***

          eigenvalues
 #    :         466        467        468        469        470        471        472        473
 occ. :        2.000      2.000      2.000      2.000      2.000      2.000      2.000      2.000
 eps  :       -10.949    -10.942    -10.914    -10.876    -10.850    -10.820    -10.818    -10.461
 #    :         474        475        476        477        478        479        480        481
 occ. :        2.000      2.000      2.000      2.000      2.000      0.000      0.000      0.000
 eps  :       -10.066    -10.055    -10.004     -9.829     -9.705     -8.194     -7.963     -7.832
 #    :         482        483        484        485        486        487        488        489
 occ. :        0.000      0.000      0.000      0.000      0.000      0.000      0.000      0.000
 eps  :        -7.691     -7.673     -7.659     -6.930     -6.774     -6.732     -6.687     -6.664


   #   Z            q   n(s)   n(p)   n(d)      C6AA      α(0)
   1   7 N     -0.420  1.275  4.145  0.000    30.936     8.261
   2   6 C      0.018  1.033  2.948  0.000    20.279     6.413
   3   6 C      0.256  1.054  2.689  0.000    22.686     7.800
   4   8 O     -0.488  1.747  4.741  0.000    23.531     6.504
   5   6 C     -0.160  0.982  3.178  0.000    23.633     6.928
   6   1 H      0.191  0.809  0.000  0.000     1.152     1.681
   7   1 H      0.062  0.938  0.000  0.000     2.177     2.307
   8   1 H      0.067  0.933  0.000  0.000     2.120     2.277
   9   1 H      0.066  0.934  0.000  0.000     2.130     2.282
  10   1 H      0.069  0.931  0.000  0.000     2.101     2.267
  11   7 N     -0.184  1.205  3.979  0.000    24.982     7.423
  12   6 C      0.006  1.040  2.954  0.000    20.478     6.442
  13   6 C      0.268  1.038  2.694  0.000    22.476     7.764
  14   8 O     -0.474  1.729  4.744  0.000    23.206     6.459
  15   6 C     -0.142  1.020  3.123  0.000    23.218     6.856
  16   6 C      0.290  1.018  2.692  0.000    22.084     7.695
  17   8 O     -0.498  1.748  4.750  0.000    23.737     6.532
  18   7 N     -0.302  1.198  4.103  0.000    27.768     7.826
  19   1 H      0.222  0.778  0.000  0.000     1.001     1.567
  20   1 H      0.119  0.881  0.000  0.000     1.624     1.993
  21   1 H      0.093  0.907  0.000  0.000     1.852     2.128
  22   1 H      0.126  0.874  0.000  0.000     1.568     1.958
  23   1 H      0.232  0.768  0.000  0.000     0.956     1.532
  24   1 H      0.246  0.754  0.000  0.000     0.899     1.485
  25   7 N     -0.186  1.205  3.982  0.000    25.039     7.432
  26   6 C     -0.009  1.050  2.960  0.000    20.748     6.486
  27   6 C      0.268  1.038  2.694  0.000    22.476     7.763
  28   8 O     -0.483  1.742  4.741  0.000    23.415     6.488
  29   6 C     -0.110  1.016  3.095  0.000    22.593     6.765
  30   6 C     -0.116  1.014  3.102  0.000    22.710     6.783
  31   6 C     -0.050  1.011  3.039  0.000    21.529     6.617
  32   7 N     -0.148  1.180  3.968  0.000    24.209     7.308
  33   6 C      0.219  1.025  2.756  0.000    23.380     7.917
  34   7 N     -0.254  1.169  4.085  0.000    26.607     7.661
  35   7 N     -0.271  1.178  4.093  0.000    27.010     7.719
  36   1 H      0.228  0.772  0.000  0.000     0.974     1.546
  37   1 H      0.116  0.884  0.000  0.000     1.642     2.004
  38   1 H      0.084  0.916  0.000  0.000     1.936     2.176
  39   1 H      0.088  0.912  0.000  0.000     1.893     2.152
  40   1 H      0.095  0.905  0.000  0.000     1.832     2.116
  41   1 H      0.096  0.904  0.000  0.000     1.819     2.109
  42   1 H      0.099  0.901  0.000  0.000     1.789     2.092
  43   1 H      0.101  0.899  0.000  0.000     1.774     2.083
  44   1 H      0.242  0.758  0.000  0.000     0.914     1.497
  45   1 H      0.254  0.746  0.000  0.000     0.868     1.459
  46   1 H      0.251  0.749  0.000  0.000     0.881     1.470
  47   1 H      0.254  0.746  0.000  0.000     0.867     1.458
  48   1 H      0.250  0.750  0.000  0.000     0.882     1.471
  49   7 N     -0.184  1.206  3.978  0.000    24.978     7.423
  50   6 C      0.005  1.043  2.953  0.000    20.502     6.446
  51   6 C      0.268  1.042  2.690  0.000    22.477     7.764
  52   8 O     -0.506  1.746  4.760  0.000    23.910     6.556
  53   6 C     -0.106  1.012  3.094  0.000    22.512     6.752
  54   6 C     -0.000  1.081  2.919  0.000    28.027     8.684
  55   6 C     -0.066  1.053  3.013  0.000    29.651     8.930
  56   6 C     -0.068  1.061  3.006  0.000    29.685     8.935
  57   6 C     -0.056  1.057  2.999  0.000    29.396     8.891
  58   6 C     -0.053  1.057  2.995  0.000    29.313     8.879
  59   6 C     -0.057  1.052  3.005  0.000    29.416     8.894
  60   1 H      0.221  0.779  0.000  0.000     1.005     1.570
  61   1 H      0.107  0.893  0.000  0.000     1.725     2.054
  62   1 H      0.102  0.898  0.000  0.000     1.767     2.078
  63   1 H      0.081  0.919  0.000  0.000     1.971     2.195
  64   1 H      0.061  0.939  0.000  0.000     2.185     2.311
  65   1 H      0.076  0.924  0.000  0.000     2.025     2.225
  66   1 H      0.054  0.946  0.000  0.000     2.273     2.358
  67   1 H      0.055  0.945  0.000  0.000     2.256     2.348
  68   1 H      0.047  0.953  0.000  0.000     2.351     2.397
  69   7 N     -0.187  1.214  3.974  0.000    25.055     7.434
  70   6 C     -0.007  1.049  2.958  0.000    20.703     6.478
  71   6 C      0.260  1.043  2.697  0.000    22.618     7.788
  72   8 O     -0.489  1.746  4.742  0.000    23.532     6.504
  73   6 C      0.081  1.037  2.883  0.000    19.332     6.278
  74   8 O     -0.487  1.680  4.806  0.000    22.606     6.418
  75   6 C     -0.187  0.991  3.195  0.000    24.204     7.013
  76   1 H      0.239  0.761  0.000  0.000     0.926     1.507
  77   1 H      0.113  0.887  0.000  0.000     1.675     2.023
  78   1 H      0.082  0.918  0.000  0.000     1.960     2.189
  79   1 H      0.334  0.666  0.000  0.000     0.627     1.243
  80   1 H      0.098  0.902  0.000  0.000     1.806     2.101
  81   1 H      0.068  0.932  0.000  0.000     2.109     2.271
  82   1 H      0.083  0.917  0.000  0.000     1.945     2.180
  83   7 N     -0.192  1.210  3.982  0.000    25.164     7.450
  84   6 C     -0.007  1.039  2.969  0.000    20.707     6.478
  85   6 C      0.269  1.040  2.691  0.000    22.455     7.760
  86   8 O     -0.496  1.742  4.753  0.000    23.687     6.525
  87   6 C     -0.181  0.981  3.200  0.000    24.059     6.988
  88   1 H      0.241  0.759  0.000  0.000     0.918     1.501
  89   1 H      0.113  0.887  0.000  0.000     1.672     2.022
  90   1 H      0.090  0.910  0.000  0.000     1.874     2.141
  91   1 H      0.105  0.895  0.000  0.000     1.740     2.062
  92   1 H      0.085  0.915  0.000  0.000     1.923     2.168
  93   7 N     -0.190  1.209  3.980  0.000    25.112     7.443
  94   6 C      0.014  1.037  2.949  0.000    20.334     6.419
  95   6 C      0.264  1.047  2.690  0.000    22.552     7.777
  96   8 O     -0.503  1.754  4.748  0.000    23.844     6.547
  97   6 C     -0.134  1.018  3.117  0.000    23.062     6.834
  98   6 C      0.288  1.032  2.681  0.000    22.126     7.702
  99   8 O     -0.488  1.743  4.745  0.000    23.529     6.504
 100   7 N     -0.293  1.192  4.101  0.000    27.555     7.796
 101   1 H      0.235  0.765  0.000  0.000     0.945     1.523
 102   1 H      0.091  0.909  0.000  0.000     1.869     2.138
 103   1 H      0.114  0.886  0.000  0.000     1.659     2.014
 104   1 H      0.093  0.907  0.000  0.000     1.848     2.126
 105   1 H      0.246  0.754  0.000  0.000     0.899     1.485
 106   1 H      0.227  0.773  0.000  0.000     0.979     1.550
 107   7 N     -0.196  1.218  3.978  0.000    25.250     7.463
 108   6 C     -0.001  1.056  2.946  0.000    20.615     6.466
 109   6 C      0.272  1.042  2.686  0.000    22.400     7.750
 110   8 O     -0.500  1.739  4.761  0.000    23.780     6.538
 111   6 C     -0.046  1.051  2.995  0.000    21.366     6.574
 112   6 C     -0.095  1.006  3.089  0.000    22.298     6.721
 113   6 C     -0.159  0.980  3.178  0.000    23.611     6.925
 114   6 C     -0.157  0.978  3.179  0.000    23.572     6.920
 115   1 H      0.235  0.765  0.000  0.000     0.942     1.520
 116   1 H      0.081  0.919  0.000  0.000     1.965     2.192
 117   1 H      0.093  0.907  0.000  0.000     1.853     2.129
 118   1 H      0.046  0.954  0.000  0.000     2.370     2.407
 119   1 H      0.065  0.935  0.000  0.000     2.143     2.289
 120   1 H      0.084  0.916  0.000  0.000     1.933     2.174
 121   1 H      0.053  0.947  0.000  0.000     2.280     2.361
 122   1 H      0.054  0.946  0.000  0.000     2.265     2.353
 123   1 H      0.059  0.941  0.000  0.000     2.209     2.324
 124   1 H      0.069  0.931  0.000  0.000     2.091     2.261
 125   1 H      0.058  0.942  0.000  0.000     2.216     2.328
 126   7 N     -0.199  1.213  3.986  0.000    25.316     7.473
 127   6 C      0.011  1.038  2.951  0.000    20.398     6.430
 128   6 C      0.261  1.050  2.689  0.000    22.594     7.784
 129   8 O     -0.507  1.768  4.739  0.000    23.935     6.559
 130   6 C     -0.117  1.008  3.110  0.000    22.720     6.783
 131   6 C     -0.110  1.006  3.103  0.000    22.578     6.763
 132   6 C     -0.128  1.013  3.115  0.000    22.939     6.817
 133   6 C     -0.080  1.020  3.059  0.000    22.097     6.706
 134   7 N     -0.142  1.145  3.997  0.000    24.066     7.286
 135   1 H      0.237  0.763  0.000  0.000     0.934     1.514
 136   1 H      0.097  0.903  0.000  0.000     1.808     2.103
 137   1 H      0.095  0.905  0.000  0.000     1.829     2.115
 138   1 H      0.084  0.916  0.000  0.000     1.942     2.179
 139   1 H      0.084  0.916  0.000  0.000     1.940     2.178
 140   1 H      0.082  0.918  0.000  0.000     1.958     2.188
 141   1 H      0.090  0.910  0.000  0.000     1.877     2.142
 142   1 H      0.100  0.900  0.000  0.000     1.780     2.086
 143   1 H      0.141  0.859  0.000  0.000     1.452     1.884
 144   1 H      0.127  0.873  0.000  0.000     1.554     1.949
 145   1 H      0.303  0.697  0.000  0.000     0.705     1.315
 146   1 H      0.292  0.708  0.000  0.000     0.736     1.344
 147   1 H      0.291  0.709  0.000  0.000     0.741     1.348
 148   7 N     -0.181  1.206  3.975  0.000    24.924     7.415
 149   6 C     -0.046  1.009  3.037  0.000    21.458     6.604
 150   6 C      0.267  1.042  2.691  0.000    22.497     7.766
 151   8 O     -0.513  1.756  4.757  0.000    24.072     6.578
 152   1 H      0.240  0.760  0.000  0.000     0.922     1.504
 153   1 H      0.102  0.898  0.000  0.000     1.762     2.076
 154   1 H      0.117  0.883  0.000  0.000     1.638     2.001
 155   7 N     -0.194  1.214  3.981  0.000    25.220     7.459
 156   6 C      0.008  1.042  2.949  0.000    20.444     6.438
 157   6 C      0.259  1.047  2.694  0.000    22.637     7.792
 158   8 O     -0.509  1.758  4.751  0.000    23.988     6.567
 159   6 C     -0.097  1.011  3.087  0.000    22.328     6.723
 160   6 C     -0.033  1.034  2.999  0.000    21.126     6.537
 161   6 C     -0.154  0.980  3.175  0.000    23.517     6.910
 162   6 C     -0.156  0.980  3.176  0.000    23.550     6.915
 163   1 H      0.233  0.767  0.000  0.000     0.954     1.530
 164   1 H      0.093  0.907  0.000  0.000     1.845     2.124
 165   1 H      0.079  0.921  0.000  0.000     1.993     2.207
 166   1 H      0.074  0.926  0.000  0.000     2.042     2.234
 167   1 H      0.069  0.931  0.000  0.000     2.101     2.267
 168   1 H      0.067  0.933  0.000  0.000     2.114     2.273
 169   1 H      0.057  0.943  0.000  0.000     2.235     2.338
 170   1 H      0.055  0.945  0.000  0.000     2.255     2.348
 171   1 H      0.062  0.938  0.000  0.000     2.174     2.306
 172   1 H      0.057  0.943  0.000  0.000     2.231     2.335
 173   1 H      0.040  0.960  0.000  0.000     2.444     2.445
 174   7 N     -0.185  1.206  3.979  0.000    25.007     7.427
 175   6 C     -0.006  1.043  2.963  0.000    20.675     6.473
 176   6 C      0.269  1.041  2.690  0.000    22.457     7.762
 177   8 O     -0.511  1.760  4.751  0.000    24.033     6.573
 178   6 C      0.098  1.023  2.879  0.000    19.048     6.229
 179   8 O     -0.501  1.685  4.816  0.000    22.916     6.462
 180   6 C     -0.177  0.979  3.198  0.000    23.986     6.979
 181   1 H      0.232  0.768  0.000  0.000     0.957     1.532
 182   1 H      0.095  0.905  0.000  0.000     1.831     2.116
 183   1 H      0.068  0.932  0.000  0.000     2.102     2.267
 184   1 H      0.336  0.664  0.000  0.000     0.622     1.238
 185   1 H      0.092  0.908  0.000  0.000     1.864     2.135
 186   1 H      0.072  0.928  0.000  0.000     2.068     2.249
 187   1 H      0.090  0.910  0.000  0.000     1.882     2.145
 188   7 N     -0.188  1.206  3.982  0.000    25.064     7.435
 189   6 C      0.013  1.039  2.948  0.000    20.346     6.422
 190   6 C      0.276  1.041  2.683  0.000    22.336     7.740
 191   8 O     -0.508  1.758  4.750  0.000    23.955     6.562
 192   6 C     -0.098  1.007  3.091  0.000    22.357     6.728
 193   6 C     -0.130  1.008  3.121  0.000    22.972     6.821
 194   6 C      0.288  1.030  2.682  0.000    22.115     7.700
 195   8 O     -0.484  1.744  4.740  0.000    23.422     6.489
 196   7 N     -0.312  1.197  4.115  0.000    28.020     7.862
 197   1 H      0.236  0.764  0.000  0.000     0.941     1.520
 198   1 H      0.094  0.906  0.000  0.000     1.836     2.119
 199   1 H      0.078  0.922  0.000  0.000     1.995     2.208
 200   1 H      0.077  0.923  0.000  0.000     2.009     2.216
 201   1 H      0.093  0.907  0.000  0.000     1.854     2.129
 202   1 H      0.101  0.899  0.000  0.000     1.777     2.084
 203   1 H      0.226  0.774  0.000  0.000     0.983     1.553
 204   1 H      0.241  0.759  0.000  0.000     0.918     1.501
 205   7 N     -0.197  1.214  3.983  0.000    25.287     7.468
 206   6 C      0.017  1.044  2.939  0.000    20.293     6.414
 207   6 C      0.278  1.042  2.679  0.000    22.288     7.731
 208   8 O     -0.501  1.755  4.746  0.000    23.797     6.540
 209   6 C     -0.157  0.981  3.176  0.000    23.587     6.921
 210   1 H      0.225  0.775  0.000  0.000     0.985     1.555
 211   1 H      0.093  0.907  0.000  0.000     1.854     2.129
 212   1 H      0.076  0.924  0.000  0.000     2.015     2.220
 213   1 H      0.093  0.907  0.000  0.000     1.847     2.125
 214   1 H      0.077  0.923  0.000  0.000     2.010     2.217
 215   7 N     -0.190  1.214  3.976  0.000    25.110     7.442
 216   6 C      0.018  1.043  2.939  0.000    20.282     6.413
 217   6 C      0.213  1.085  2.702  0.000    23.496     7.938
 218   8 O     -0.360  1.753  4.608  0.000    20.905     6.130
 219   6 C      0.061  0.993  2.946  0.000    19.729     6.356
 220   8 O     -0.504  1.681  4.823  0.000    22.984     6.472
 221   1 H      0.232  0.768  0.000  0.000     0.955     1.531
 222   1 H      0.112  0.888  0.000  0.000     1.680     2.027
 223   1 H      0.083  0.917  0.000  0.000     1.946     2.181
 224   1 H      0.065  0.935  0.000  0.000     2.136     2.285
 225   1 H      0.363  0.637  0.000  0.000     0.559     1.174
 226   7 N     -0.424  1.289  4.135  0.000    31.064     8.278
 227   6 C      0.013  1.040  2.947  0.000    20.367     6.426
 228   6 C      0.275  1.042  2.682  0.000    22.342     7.740
 229   8 O     -0.478  1.733  4.745  0.000    23.294     6.471
 230   6 C     -0.034  1.041  2.993  0.000    21.133     6.538
 231   6 C     -0.147  0.977  3.170  0.000    23.378     6.890
 232   6 C     -0.148  0.974  3.174  0.000    23.396     6.892
 233   1 H      0.178  0.822  0.000  0.000     1.223     1.732
 234   1 H      0.061  0.939  0.000  0.000     2.187     2.313
 235   1 H      0.049  0.951  0.000  0.000     2.326     2.385
 236   1 H      0.058  0.942  0.000  0.000     2.224     2.332
 237   1 H      0.046  0.954  0.000  0.000     2.374     2.409
 238   1 H      0.053  0.947  0.000  0.000     2.282     2.362
 239   1 H      0.059  0.941  0.000  0.000     2.212     2.325
 240   1 H      0.054  0.946  0.000  0.000     2.267     2.354
 241   1 H      0.050  0.950  0.000  0.000     2.317     2.380
 242   7 N     -0.181  1.196  3.985  0.000    24.920     7.414
 243   6 C     -0.050  1.006  3.045  0.000    21.529     6.615
 244   6 C      0.268  1.042  2.690  0.000    22.469     7.762
 245   8 O     -0.498  1.767  4.731  0.000    23.737     6.532
 246   1 H      0.211  0.789  0.000  0.000     1.053     1.607
 247   1 H      0.111  0.889  0.000  0.000     1.690     2.033
 248   1 H      0.100  0.900  0.000  0.000     1.782     2.088
 249   7 N     -0.189  1.204  3.985  0.000    25.100     7.441
 250   6 C      0.016  1.037  2.947  0.000    20.303     6.416
 251   6 C      0.191  1.095  2.714  0.000    23.920     8.010
 252   8 O     -0.366  1.766  4.600  0.000    21.019     6.147
 253   6 C     -0.161  0.982  3.179  0.000    23.660     6.931
 254   1 H      0.229  0.771  0.000  0.000     0.969     1.542
 255   1 H      0.123  0.877  0.000  0.000     1.591     1.973
 256   1 H      0.095  0.905  0.000  0.000     1.831     2.116
 257   1 H      0.091  0.909  0.000  0.000     1.865     2.135
 258   1 H      0.085  0.915  0.000  0.000     1.931     2.173
 259   7 N     -0.427  1.289  4.138  0.000    31.122     8.285
 260   6 C      0.024  1.035  2.941  0.000    20.181     6.398
 261   6 C      0.200  1.085  2.715  0.000    23.737     7.979
 262   8 O     -0.374  1.735  4.639  0.000    21.168     6.169
 263   6 C     -0.092  1.013  3.079  0.000    22.232     6.709
 264   6 C     -0.019  1.021  2.998  0.000    20.871     6.497
 265   6 C     -0.151  0.977  3.174  0.000    23.452     6.900
 266   6 C     -0.153  0.974  3.180  0.000    23.485     6.903
 267   1 H      0.186  0.814  0.000  0.000     1.181     1.702
 268   1 H      0.076  0.924  0.000  0.000     2.016     2.220
 269   1 H      0.055  0.945  0.000  0.000     2.260     2.351
 270   1 H      0.064  0.936  0.000  0.000     2.146     2.291
 271   1 H      0.041  0.959  0.000  0.000     2.434     2.439
 272   1 H      0.061  0.939  0.000  0.000     2.188     2.313
 273   1 H      0.042  0.958  0.000  0.000     2.425     2.435
 274   1 H      0.058  0.942  0.000  0.000     2.218     2.329
 275   1 H      0.054  0.946  0.000  0.000     2.273     2.357
 276   1 H      0.064  0.936  0.000  0.000     2.157     2.296
 277   1 H      0.052  0.948  0.000  0.000     2.289     2.365
 278   7 N     -0.428  1.290  4.139  0.000    31.169     8.292
 279   6 C      0.019  1.045  2.936  0.000    20.267     6.413
 280   6 C      0.192  1.099  2.709  0.000    23.895     8.005
 281   8 O     -0.370  1.741  4.629  0.000    21.092     6.157
 282   6 C     -0.029  1.045  2.983  0.000    21.051     6.526
 283   6 C     -0.154  0.980  3.174  0.000    23.524     6.912
 284   6 C     -0.155  0.978  3.178  0.000    23.537     6.913
 285   1 H      0.196  0.804  0.000  0.000     1.126     1.662
 286   1 H      0.074  0.926  0.000  0.000     2.046     2.237
 287   1 H      0.050  0.950  0.000  0.000     2.317     2.380
 288   1 H      0.063  0.937  0.000  0.000     2.166     2.302
 289   1 H      0.049  0.951  0.000  0.000     2.333     2.388
 290   1 H      0.071  0.929  0.000  0.000     2.072     2.251
 291   1 H      0.056  0.944  0.000  0.000     2.244     2.342
 292   1 H      0.066  0.934  0.000  0.000     2.130     2.282
 293   1 H      0.069  0.931  0.000  0.000     2.097     2.264
 294   7 N     -0.424  1.280  4.144  0.000    31.056     8.277
 295   6 C      0.019  1.034  2.948  0.000    20.267     6.411
 296   6 C      0.262  1.050  2.688  0.000    22.582     7.782
 297   8 O     -0.487  1.750  4.737  0.000    23.501     6.500
 298   6 C     -0.106  1.016  3.090  0.000    22.499     6.750
 299   6 C     -0.025  1.027  2.998  0.000    20.977     6.514
 300   6 C     -0.150  0.976  3.174  0.000    23.424     6.896
 301   6 C     -0.152  0.975  3.177  0.000    23.467     6.902
 302   1 H      0.180  0.820  0.000  0.000     1.216     1.727
 303   1 H      0.060  0.940  0.000  0.000     2.203     2.321
 304   1 H      0.066  0.934  0.000  0.000     2.129     2.281
 305   1 H      0.069  0.931  0.000  0.000     2.092     2.262
 306   1 H      0.038  0.962  0.000  0.000     2.481     2.463
 307   1 H      0.052  0.948  0.000  0.000     2.290     2.366
 308   1 H      0.045  0.955  0.000  0.000     2.384     2.414
 309   1 H      0.063  0.937  0.000  0.000     2.159     2.298
 310   1 H      0.050  0.950  0.000  0.000     2.315     2.379
 311   1 H      0.060  0.940  0.000  0.000     2.198     2.318
 312   1 H      0.049  0.951  0.000  0.000     2.338     2.391
 313   7 N     -0.180  1.206  3.974  0.000    24.902     7.411
 314   6 C     -0.004  1.048  2.956  0.000    20.658     6.472
 315   6 C      0.197  1.086  2.717  0.000    23.800     7.990
 316   8 O     -0.354  1.757  4.597  0.000    20.782     6.112
 317   6 C      0.097  1.029  2.875  0.000    19.071     6.234
 318   8 O     -0.499  1.691  4.809  0.000    22.874     6.456
 319   6 C     -0.176  0.981  3.195  0.000    23.960     6.976
 320   1 H      0.236  0.764  0.000  0.000     0.938     1.517
 321   1 H      0.111  0.889  0.000  0.000     1.686     2.031
 322   1 H      0.078  0.922  0.000  0.000     2.002     2.213
 323   1 H      0.327  0.673  0.000  0.000     0.644     1.260
 324   1 H      0.087  0.913  0.000  0.000     1.904     2.158
 325   1 H      0.086  0.914  0.000  0.000     1.914     2.163
 326   1 H      0.087  0.913  0.000  0.000     1.909     2.160
 327   7 N     -0.424  1.284  4.140  0.000    31.053     8.276
 328   6 C      0.031  1.029  2.940  0.000    20.062     6.379
 329   6 C      0.196  1.097  2.707  0.000    23.814     7.992
 330   8 O     -0.397  1.771  4.626  0.000    21.628     6.235
 331   6 C     -0.096  1.007  3.089  0.000    22.311     6.722
 332   6 C     -0.116  1.012  3.104  0.000    22.697     6.781
 333   6 C     -0.052  1.017  3.035  0.000    21.580     6.625
 334   7 N     -0.142  1.176  3.965  0.000    24.065     7.286
 335   6 C      0.219  1.018  2.763  0.000    23.380     7.917
 336   7 N     -0.253  1.164  4.088  0.000    26.567     7.655
 337   7 N     -0.264  1.172  4.093  0.000    26.845     7.695
 338   1 H      0.203  0.797  0.000  0.000     1.092     1.637
 339   1 H      0.070  0.930  0.000  0.000     2.086     2.258
 340   1 H      0.072  0.928  0.000  0.000     2.061     2.245
 341   1 H      0.078  0.922  0.000  0.000     1.997     2.210
 342   1 H      0.091  0.909  0.000  0.000     1.873     2.140
 343   1 H      0.078  0.922  0.000  0.000     2.000     2.211
 344   1 H      0.101  0.899  0.000  0.000     1.773     2.082
 345   1 H      0.113  0.887  0.000  0.000     1.669     2.020
 346   1 H      0.218  0.782  0.000  0.000     1.019     1.581
 347   1 H      0.249  0.751  0.000  0.000     0.885     1.474
 348   1 H      0.262  0.738  0.000  0.000     0.838     1.434
 349   1 H      0.241  0.759  0.000  0.000     0.918     1.501
 350   1 H      0.263  0.737  0.000  0.000     0.833     1.430
 351   1 H      0.177  0.823  0.000  0.000     1.232     1.738
 352   1 H      0.071  0.929  0.000  0.000     2.079     2.254
 353   1 H      0.180  0.820  0.000  0.000     1.216     1.727
 354   1 H      0.082  0.918  0.000  0.000     1.961     2.190
 355   1 H      0.178  0.822  0.000  0.000     1.225     1.734
 356   1 H      0.062  0.938  0.000  0.000     2.175     2.306
 357   1 H      0.174  0.826  0.000  0.000     1.249     1.750
 358   1 H      0.061  0.939  0.000  0.000     2.185     2.312
 359   1 H      0.172  0.828  0.000  0.000     1.261     1.759
 360   1 H      0.069  0.931  0.000  0.000     2.098     2.265
 361   1 H      0.173  0.827  0.000  0.000     1.255     1.755
 362   1 H      0.078  0.922  0.000  0.000     2.004     2.214

 Mol. C6AA /au·bohr⁶  :    1126578.633234
 Mol. C8AA /au·bohr⁸  :   24881586.540501
 Mol. α(0) /au        :       1584.522231

 
molecular dipole:
                 x           y           z       tot (Debye)
 q only:      685.387     329.123     851.041
   full:      684.342     326.289     850.675    2896.355
molecular quadrupole (traceless):
                xx          xy          yy          xz          yz          zz
 q only:    17563.929  112541.994 -162333.588  292232.582  140308.910  144769.659
  q+dip:    17484.863  111379.983 -162646.547  291701.572  139117.591  145161.684
   full:    17485.730  111380.696 -162648.574  291703.286  139117.166  145162.844
speedup  1.00
cpu  time for grad    7.00 s
wall time for grad    7.01 s

SCC energy    :    -551.0121259
rep           :      12.2217447
ES            :       1.8301007
AES           :      -0.0517140
AXC           :       0.0880301
disp          :      -0.4538069
XB            :       0.0000000
fix           :       0.0000000
Gborn         :       0.0000000
Gsasa         :       0.0000000
Ghb           :       0.0000000
Gshift        :       0.0000000
Gsolv         :      -0.6731044     -422.38
Etot ala COSMO:    -551.0121259
grad norm     :       2.5439870
total E       :    -538.7532514
atomizationE  :      95.5291454    59945.44
(atE without considering molecular charge,
 total energy contains solvation terms)
H-L gap (eV)  :          1.5110

------------------------------------------------------------------------
 * finished run on 2019/03/07 at 11:37:52.987     
------------------------------------------------------------------------
 total:
 * wall-time:     0 d,  0 h,  0 min,  7.624 sec
 *  cpu-time:     0 d,  0 h,  0 min,  7.494 sec
 * ratio c/w:     0.983 speedup
 SCF:
 * wall-time:     0 d,  0 h,  0 min,  7.398 sec
 *  cpu-time:     0 d,  0 h,  0 min,  7.395 sec
 * ratio c/w:     1.000 speedup

