      -----------------------------------------------------------      
     |                   =====================                   |     
     |                           x T B                           |     
     |                   =====================                   |     
     |                         S. Grimme                         |     
     |          Mulliken Center for Theoretical Chemistry        |     
     |                    University of Bonn                     |     
     |                Version 6.1 RC1 (SAW190329)                |     
      -----------------------------------------------------------      

   This program is distributed in the hope that it will be useful,
   but WITHOUT ANY WARRANTY; without even the implied warranty of
   MERCHANTABILITY or FITNESS FOR A PARTICULAR PURPOSE.
   
   FOR NON-COMMERCIAL, ACADEMIA USE ONLY.
   
   Cite this work as:
   S. Grimme, C. Bannwarth, P. Shushkov, J. Comput. Theory Chem., 2017,
   13, 1989-2009. DOI: 10.1021/acs.jctc.7b00118
   C. Bannwarth, S. Ehlert and S. Grimme., J. Comput. Theory Chem., 2019,
   just accepted. DOI: 10.1021/acs.jctc.8b01176
   
   for sTDA-xTB:
   S. Grimme and C. Bannwarth, J. Chem. Phys., 2016, 145, 054103.
   DOI: 10.1063/1.4959605
   
   in the mass-spec context:
   V. Asgeirsson, C. Bauer and S. Grimme, Chem. Sci., 2017, 8, 4879.
   DOI: 10.1039/c7sc00601b
   
   for metadynamics refer to:
   S. Grimme, ChemRxiv, Preprint. DOI: 10.26434/chemrxiv.7660532.v1
   
   with help from (in alphabetical order)
   C. Bannwarth, F. Bohle, G. Brandenburg, E. Caldeweyher, M. Checinski,
   S. Dohm, S. Ehlert, S. Ehrlich, F. März, H. Neugebauer, J. Pisarek,
   P. Pracht, P. Shushkov, and S. Spicher.
   
 * started run on 2019/05/31 at 06:33:19.142     

           -------------------------------------------------
          |                Calculation Setup                |
           -------------------------------------------------

          program call               : /home/lum/qr/xtb-190329/bin/xtb xtb_tmp.xyz --chrg 0 --grad --gfn 2 --etemp 500 --acc 0.1 --gbsa h2o --parallel 2
          hostname                   : cu39
          coordinate file            : xtb_tmp.xyz
          omp threads                :                     2
          number of atoms            :                   412
          number of electrons        :                  1090
          charge                     :                     0
          spin                       :                   0.0
          first test random number   :      0.99090681095937


molecular fragmentation (1/2 indicates fragments):
111111111111111122222222222222222222222222222222222222222222222222222222
222222222222222222222222222222222222222222222222222222222222222222222222
222222222222222222222222222222222222222222222222222222222222222222222222
222222222222222222222222222222222222222222222222222222222222222222222222
222222222222222222222222222222222222222222222222222222222222222222222222
2222222222222222222222222222222222222211222222222222
# atoms in fragment 1/2:    18   394
 fragment masses (1/2) :      101.15     2636.18
CMA distance (Bohr)    :  14.246
constraining FC (au)   :  0.0500

########################################################################
# WARNING! Please study the warnings concerning your input carefully
#  - XTBPATH is not set, using XTBHOME instead
#  - Process number higher than OMP_NUM_THREADS, I hope you know what you are doing.
########################################################################

           ------------------------------------------------- 
          |                 G F N 2 - x T B                 |
          | Geometry, Frequencies, Noncovalent interactions |
          |            JCTC 2018 parametrisation            |
           ------------------------------------------------- 
 
             k(s)              :                1.8500
             k(p)              :                2.2300
             k(d)              :                2.2300
             k(f)              :                2.0000
             kEN (H0ij)        :               -2.0000
             D4 a1             :                0.5200
             D4 a2             :                5.0000
             D4 s6             :                1.0000
             D4 s8             :                2.7000
             D4 s9             :                5.0000
             alphaj            :                2.0000

  Z AO/shell   Hii/eV     exponent
  1     Wed Apr 25 08:07:45 CEST 2018   EN: 2.200 GM2: 0.406  GM3: 0.0800  RAES: 1.40
     1s    -10.707211    1.230000
  6     Wed Apr 25 08:07:45 CEST 2018   EN: 2.550 GM2: 0.538  GM3: 0.1500  RAES: 3.00
     2s    -13.970922    2.096432
     2p    -10.063292    1.800000
  7     Wed Apr 25 08:07:45 CEST 2018   EN: 3.040 GM2: 0.461  GM3:-0.0640  RAES: 1.90
     2s    -16.686243    2.339881
     2p    -12.523956    2.014332
  8     Wed Apr 25 08:07:45 CEST 2018   EN: 3.440 GM2: 0.452  GM3:-0.0517  RAES: 1.80
     2s    -20.229985    2.439742
     2p    -15.503117    2.137023
 16     Tue Apr 24 11:44:34 CEST 2018   EN: 2.580 GM2: 0.340  GM3:-0.0502  RAES: 3.10
     3s    -20.029654    1.981333
     3p    -11.377694    2.025643
     3d     -0.420282    1.702555

 Solvent             : h2o
 Using internal parameter file: .param_gbsa2_h2o
 Gsolv ref. state (COSMO-RS): gsolv [1 M gas/solution]
 temperature (mdtemp)       :    298.150000000000     
 dielectric constant        :    80.2000000000000     
 rho                        :    1.00000000000000     
 mass                       :    18.0000000000000     
 surface tension            :    15.5689454083859     
 probe radius               :   0.975313790000000     
 vdW radii scaling          :    1.00000000000000     
 Gshift (Eh)                :   1.857443126794793E-003
 c1                         :    1.55243817000000     
 soset                      :   0.130326360000000     
 HB correction              :  T
 Number of grid points      :          230

            Z     q(EN)     CN     RAES       Cart. coordinates
     1  N   5.0   -0.69    3.01    1.93    41.07564    42.17722    84.00435
     2  C   4.0    0.06    3.98    3.59    39.23671    42.99734    85.84733
     3  C   4.0    0.07    3.00    3.02    40.61501    43.21294    88.37814
     4  O   6.0   -0.41    1.00    1.80    41.53940    41.37150    89.43164
     5  C   4.0   -0.08    3.98    3.59    37.12704    41.00725    86.07643
     6  C   4.0   -0.23    3.98    3.59    35.21417    41.82284    88.06932
     7  C   4.0   -0.23    3.98    3.59    35.86162    40.52242    83.53405
     8  H   1.0    0.28    1.00    1.43    41.88198    40.47460    84.40055
     9  H   1.0    0.10    0.99    1.43    38.48491    44.83260    85.26240
    10  H   1.0    0.13    0.99    1.43    38.05238    39.27157    86.71285
    11  H   1.0    0.10    0.99    1.43    33.67275    40.46936    88.17256
    12  H   1.0    0.11    0.99    1.43    36.10773    41.93094    89.91675
    13  H   1.0    0.09    0.99    1.43    34.44153    43.67330    87.62361
    14  H   1.0    0.10    0.99    1.43    34.48639    39.01196    83.73042
    15  H   1.0    0.09    0.99    1.43    34.89570    42.21747    82.89214
    16  H   1.0    0.10    0.99    1.43    37.25559    39.97659    82.12755
    17  N   5.0   -0.70    3.00    1.93    39.33842    46.38037    95.50793
    18  C   4.0    0.07    3.98    3.59    37.63050    47.42516    97.38148
    19  C   4.0    0.28    3.01    3.02    39.02410    47.37275    99.91389
    20  O   6.0   -0.41    1.00    1.80    39.98887    45.42576   100.71783
    21  C   4.0   -0.15    3.98    3.59    35.18558    45.87306    97.58742
    22  C   4.0   -0.10    3.97    3.58    33.36013    46.90843    99.59233
    23  C   4.0   -0.22    3.98    3.59    32.31389    49.49437    98.84628
    24  C   4.0   -0.23    3.98    3.59    31.17132    45.06525   100.00209
    25  H   1.0    0.29    1.00    1.43    40.19959    44.72338    95.94672
    26  H   1.0    0.12    0.99    1.43    37.20966    49.36357    96.80882
    27  H   1.0    0.09    0.99    1.43    34.26366    45.85927    95.74107
    28  H   1.0    0.12    0.99    1.43    35.71213    43.93706    98.07862
    29  H   1.0    0.13    0.99    1.43    34.39639    47.09694   101.37812
    30  H   1.0    0.11    0.99    1.43    30.99609    50.16686   100.27220
    31  H   1.0    0.12    0.99    1.43    33.80509    50.89518    98.67978
    32  H   1.0    0.12    0.99    1.43    31.31532    49.39515    97.04923
    33  H   1.0    0.11    0.99    1.43    30.03487    45.64665   101.61220
    34  H   1.0    0.10    0.99    1.43    29.95401    45.05059    98.34644
    35  H   1.0    0.10    0.99    1.43    31.85839    43.16210   100.35323
    36  N   5.0   -0.49    3.01    1.93    39.13751    49.57654   101.12222
    37  C   4.0    0.07    3.99    3.60    40.40133    49.92289   103.53737
    38  C   4.0    0.26    3.02    3.02    38.67434    51.59291   105.14399
    39  O   6.0   -0.46    1.00    1.80    37.87981    53.60325   104.30451
    40  C   4.0   -0.13    3.98    3.59    42.95784    51.22549   103.01999
    41  C   4.0   -0.16    3.97    3.58    44.63396    51.57627   105.35538
    42  C   4.0   -0.15    3.98    3.58    46.57872    53.71711   105.07383
    43  C   4.0   -0.06    3.97    3.58    49.01738    53.14609   103.62256
    44  N   5.0   -0.72    3.98    2.81    48.66672    52.79429   100.84255
    45  H   1.0    0.28    1.00    1.43    38.39274    51.16800   100.35100
    46  H   1.0    0.13    0.99    1.43    40.65379    48.08077   104.43245
    47  H   1.0    0.12    0.99    1.43    43.89451    50.05707   101.60130
    48  H   1.0    0.12    0.99    1.43    42.50267    53.07019   102.21443
    49  H   1.0    0.12    0.99    1.43    43.42150    52.06849   106.95275
    50  H   1.0    0.11    0.99    1.43    45.56646    49.80806   105.85302
    51  H   1.0    0.11    0.99    1.43    45.61596    55.35550   104.27950
    52  H   1.0    0.11    0.99    1.43    47.16419    54.26697   106.97433
    53  H   1.0    0.10    0.99    1.43    50.28942    54.74558   103.89901
    54  H   1.0    0.11    0.99    1.43    49.91011    51.45863   104.39703
    55  H   1.0    0.23    0.99    1.43    50.39857    52.62680    99.91390
    56  H   1.0    0.24    1.00    1.43    47.64030    51.17995   100.49254
    57  H   1.0    0.23    1.00    1.43    47.70566    54.30795   100.08466
    58  N   5.0   -0.49    3.01    1.93    38.07838    50.72673   107.44026
    59  C   4.0    0.07    3.99    3.61    36.69174    52.31343   109.18253
    60  C   4.0    0.06    3.00    3.02    37.64948    51.92147   111.85201
    61  O   6.0   -0.41    1.00    1.80    38.64039    49.93305   112.53550
    62  C   4.0   -0.13    3.98    3.59    33.80544    51.94123   109.00916
    63  C   4.0   -0.09    3.97    3.58    32.76238    49.47088   110.13392
    64  C   4.0   -0.22    3.98    3.59    31.84463    49.88358   112.84376
    65  C   4.0   -0.22    3.98    3.59    30.57885    48.50341   108.49385
    66  H   1.0    0.25    1.00    1.43    38.74144    49.04246   108.07532
    67  H   1.0    0.15    0.99    1.43    37.07124    54.28112   108.65522
    68  H   1.0    0.12    0.99    1.43    32.93801    53.56016   109.94834
    69  H   1.0    0.12    0.99    1.43    33.34758    52.05351   107.00052
    70  H   1.0    0.14    0.99    1.43    34.28575    48.06976   110.15607
    71  H   1.0    0.11    0.99    1.43    31.21862    48.11981   113.69708
    72  H   1.0    0.12    0.99    1.43    33.33353    50.66771   114.02550
    73  H   1.0    0.11    0.99    1.43    30.26898    51.20492   112.85856
    74  H   1.0    0.11    0.99    1.43    29.42591    47.15589   109.53125
    75  H   1.0    0.11    0.99    1.43    29.36703    50.07409   107.95866
    76  H   1.0    0.10    0.99    1.43    31.28555    47.61963   106.77942
    77  N   5.0   -0.70    3.00    1.93    34.25474    61.77461   113.55252
    78  C   4.0    0.06    3.98    3.59    35.28279    62.29398   111.06320
    79  C   4.0    0.27    3.01    3.02    34.79768    60.00419   109.35840
    80  O   6.0   -0.45    1.00    1.80    35.05616    57.85536   110.18266
    81  C   4.0   -0.14    3.98    3.59    38.16962    62.68664   111.22871
    82  C   4.0   -0.11    3.98    3.58    39.44738    62.81976   108.65936
    83  C   4.0    0.31    2.99    3.02    42.36742    63.13640   108.84850
    84  O   6.0   -0.47    1.00    1.80    43.59614    61.88598   107.24928
    85  O   6.0   -0.39    1.00    1.80    43.25197    64.64225   110.40165
    86  H   1.0    0.28    1.00    1.43    34.58006    60.02119   114.26438
    87  H   1.0    0.11    0.99    1.43    34.36265    63.99659   110.33789
    88  H   1.0    0.12    0.99    1.43    38.57326    64.41187   112.29140
    89  H   1.0    0.13    0.99    1.43    38.96552    61.10826   112.30153
    90  H   1.0    0.14    0.99    1.43    39.09162    61.10435   107.57091
    91  H   1.0    0.11    0.99    1.43    38.74910    64.45471   107.60360
    92  N   5.0   -0.50    3.01    1.93    34.19568    60.48731   106.95263
    93  C   4.0    0.08    3.99    3.61    34.11682    58.57746   104.98989
    94  C   4.0    0.26    3.01    3.02    35.27482    59.74667   102.61916
    95  O   6.0   -0.43    1.00    1.80    34.94113    61.97512   102.07498
    96  C   4.0   -0.08    3.98    3.58    31.39432    57.62919   104.47136
    97  C   4.0   -0.20    3.98    3.59    29.59394    59.83186   104.00081
    98  C   4.0   -0.21    3.98    3.59    31.36374    55.77985   102.25519
    99  H   1.0    0.25    1.00    1.43    34.04834    62.28088   106.31256
   100  H   1.0    0.14    0.99    1.43    35.25539    56.96842   105.60789
   101  H   1.0    0.12    0.99    1.43    30.77968    56.63081   106.17919
   102  H   1.0    0.11    0.99    1.43    27.74438    59.11274   103.47400
   103  H   1.0    0.12    0.99    1.43    29.40077    60.98184   105.69300
   104  H   1.0    0.13    0.99    1.43    30.28409    61.01821   102.47064
   105  H   1.0    0.13    0.99    1.43    29.52676    54.86930   102.10800
   106  H   1.0    0.14    0.99    1.43    31.69402    56.75186   100.47342
   107  H   1.0    0.12    0.99    1.43    32.79514    54.32343   102.48778
   108  N   5.0   -0.49    3.01    1.93    36.66896    58.16321   101.24236
   109  C   4.0    0.07    3.99    3.61    37.68004    58.80882    98.78688
   110  C   4.0    0.26    3.01    3.02    37.68011    56.40460    97.18078
   111  O   6.0   -0.46    1.00    1.80    37.79598    54.29375    98.11664
   112  C   4.0   -0.14    3.98    3.59    40.34132    59.99795    98.93304
   113  C   4.0   -0.14    3.98    3.58    42.03710    58.70732   100.87640
   114  C   4.0   -0.16    3.98    3.58    44.71569    59.80037   100.88675
   115  C   4.0   -0.05    3.98    3.58    44.76009    62.65519   101.38010
   116  N   5.0   -0.72    3.98    2.80    46.56008    63.28846   103.44125
   117  H   1.0    0.29    1.00    1.43    36.97541    56.36260   101.83747
   118  H   1.0    0.13    0.99    1.43    36.39862    60.19368    97.93234
   119  H   1.0    0.11    0.99    1.43    41.20749    59.90164    97.06506
   120  H   1.0    0.11    0.99    1.43    40.09249    61.97760    99.43126
   121  H   1.0    0.14    0.99    1.43    41.22111    58.92824   102.75993
   122  H   1.0    0.12    0.99    1.43    42.09064    56.69355   100.44041
   123  H   1.0    0.11    0.99    1.43    45.73842    58.88433   102.41924
   124  H   1.0    0.10    0.99    1.43    45.65047    59.38980    99.09710
   125  H   1.0    0.10    0.99    1.43    45.28961    63.67061    99.66925
   126  H   1.0    0.12    0.99    1.43    42.90986    63.31551   102.00652
   127  H   1.0    0.25    1.00    1.43    46.86016    65.19875   103.50171
   128  H   1.0    0.31    0.99    1.43    45.67979    62.74245   105.18565
   129  H   1.0    0.24    1.00    1.43    48.26770    62.38393   103.25923
   130  N   5.0   -0.48    3.01    1.93    37.61564    56.83141    94.69545
   131  C   4.0    0.06    3.99    3.60    37.35922    54.84204    92.83789
   132  C   4.0    0.05    3.01    3.02    38.15181    55.88635    90.26808
   133  O   6.0   -0.41    1.00    1.80    37.85619    58.11689    89.74119
   134  C   4.0   -0.19    3.99    3.60    34.59955    53.97751    92.60411
   135  H   1.0    0.26    1.00    1.43    37.42419    58.60026    93.99036
   136  H   1.0    0.12    0.99    1.43    38.50855    53.22948    93.41140
   137  H   1.0    0.09    0.99    1.43    34.47879    52.34159    91.37127
   138  H   1.0    0.13    0.99    1.43    33.86595    53.45294    94.44812
   139  H   1.0    0.13    0.99    1.43    33.42751    55.49541    91.86631
   140  N   5.0   -0.70    3.01    1.93    37.71840    52.71265    82.19885
   141  C   4.0    0.06    3.98    3.59    36.83082    50.79010    80.46406
   142  C   4.0    0.08    3.00    3.02    38.35809    51.15337    78.03005
   143  O   6.0   -0.40    1.00    1.80    38.14751    53.00234    76.65738
   144  C   4.0   -0.09    3.98    3.58    33.94053    50.96505    80.09992
   145  C   4.0   -0.15    3.98    3.58    33.00634    48.82829    78.37119
   146  C   4.0   -0.21    3.98    3.59    33.13469    53.56140    79.12554
   147  C   4.0   -0.24    3.98    3.58    32.26975    46.46168    79.83590
   148  H   1.0    0.28    1.00    1.43    37.77241    54.48958    81.51366
   149  H   1.0    0.10    0.99    1.43    37.30921    48.96496    81.31379
   150  H   1.0    0.10    0.99    1.43    33.10778    50.70593    81.98104
   151  H   1.0    0.12    0.99    1.43    31.35884    49.47096    77.31258
   152  H   1.0    0.13    0.99    1.43    34.45423    48.34736    76.97783
   153  H   1.0    0.10    0.99    1.43    31.11024    53.57678    78.78713
   154  H   1.0    0.11    0.99    1.43    33.55482    55.01995    80.50976
   155  H   1.0    0.15    0.99    1.43    34.10081    54.01699    77.37187
   156  H   1.0    0.12    0.99    1.43    31.63746    45.01599    78.52074
   157  H   1.0    0.09    0.99    1.43    33.86968    45.74325    80.90640
   158  H   1.0    0.09    0.99    1.43    30.73066    46.87981    81.13487
   159  N   5.0   -0.69    3.01    1.93    27.81231    48.84122    71.27584
   160  C   4.0    0.07    3.98    3.59    25.80837    46.98487    71.55170
   161  C   4.0    0.26    3.02    3.02    23.46169    48.52438    72.30297
   162  O   6.0   -0.42    1.00    1.80    23.66821    50.13621    73.95915
   163  C   4.0   -0.11    3.98    3.58    26.57316    45.01172    73.54081
   164  C   4.0    0.30    2.99    3.02    29.31761    44.04379    72.99849
   165  O   6.0   -0.43    1.00    1.80    31.06725    45.45495    73.69292
   166  O   6.0   -0.40    1.00    1.80    29.59702    41.93645    71.99057
   167  H   1.0    0.29    1.00    1.43    28.20756    49.82368    72.86644
   168  H   1.0    0.11    0.99    1.43    25.57448    46.06036    69.72001
   169  H   1.0    0.11    0.99    1.43    26.55948    45.87316    75.41921
   170  H   1.0    0.11    0.99    1.43    25.24984    43.44032    73.47790
   171  N   5.0   -0.34    3.02    1.93    21.28192    48.16136    71.06409
   172  C   4.0    0.07    4.02    3.65    19.25561    50.04037    71.25141
   173  C   4.0    0.28    3.00    3.02    17.52315    49.55243    73.53627
   174  O   6.0   -0.38    1.00    1.80    17.99335    50.47381    75.59442
   175  C   4.0   -0.14    4.01    3.63    18.04675    49.95796    68.62882
   176  C   4.0   -0.15    4.00    3.62    18.38044    47.21947    67.76285
   177  C   4.0   -0.05    4.01    3.64    20.87237    46.40709    68.98601
   178  H   1.0    0.14    0.99    1.43    20.14314    51.86718    71.66368
   179  H   1.0    0.10    0.99    1.43    16.09488    50.59167    68.60531
   180  H   1.0    0.11    0.99    1.43    19.14038    51.17875    67.38453
   181  H   1.0    0.10    0.99    1.43    16.84817    45.98655    68.36841
   182  H   1.0    0.10    0.99    1.43    18.48582    47.04862    65.71836
   183  H   1.0    0.11    0.99    1.43    20.81176    44.46233    69.68103
   184  H   1.0    0.10    0.99    1.43    22.41527    46.52982    67.61754
   185  N   5.0   -0.51    3.01    1.93    15.47474    48.10189    73.14354
   186  C   4.0    0.09    3.99    3.61    13.59974    47.67852    75.10384
   187  C   4.0    0.33    3.01    3.02    14.88914    47.07759    77.62890
   188  O   6.0   -0.44    1.00    1.80    14.34932    48.10462    79.61235
   189  C   4.0   -0.03    3.98    3.58    11.86325    45.48274    74.32682
   190  O   6.0   -0.47    1.99    1.83    10.05891    45.15303    76.24416
   191  H   1.0    0.22    1.00    1.43    15.09920    47.43802    71.39712
   192  H   1.0    0.13    0.99    1.43    12.44786    49.37839    75.40305
   193  H   1.0    0.10    0.99    1.43    10.94118    45.96567    72.52987
   194  H   1.0    0.11    0.99    1.43    12.99247    43.75955    74.05328
   195  H   1.0    0.26    0.99    1.43     9.00257    43.72035    75.84283
   196  N   5.0   -0.46    3.01    1.93    16.62162    45.23575    77.44248
   197  C   4.0    0.10    3.99    3.61    17.95998    44.23218    79.59090
   198  C   4.0    0.30    3.02    3.02    19.97250    46.06225    80.55127
   199  O   6.0   -0.45    1.00    1.80    20.29409    46.41146    82.82255
   200  C   4.0   -0.02    3.98    3.59    19.15058    41.72547    78.82053
   201  O   6.0   -0.50    1.99    1.82    20.80244    42.16917    76.76820
   202  H   1.0    0.25    1.00    1.43    16.82789    44.24753    75.82568
   203  H   1.0    0.13    0.99    1.43    16.66343    43.86520    81.16720
   204  H   1.0    0.13    0.99    1.43    20.13082    40.89173    80.44202
   205  H   1.0    0.12    0.99    1.43    17.63742    40.41077    78.30253
   206  H   1.0    0.25    0.99    1.43    20.98463    40.58708    75.88748
   207  N   5.0   -0.45    3.00    1.93    21.31298    47.28722    78.81584
   208  C   4.0    0.02    4.00    3.62    23.30624    48.99136    79.58788
   209  C   4.0    0.30    3.01    3.02    22.53504    50.52952    81.89591
   210  O   6.0   -0.47    1.00    1.80    23.91690    50.74369    83.74722
   211  H   1.0    0.29    1.00    1.43    21.24471    46.77878    76.97999
   212  H   1.0    0.11    0.99    1.43    25.03059    47.94520    80.05666
   213  H   1.0    0.14    0.99    1.43    23.71152    50.25660    78.00843
   214  N   5.0   -0.47    3.01    1.93    20.32286    51.72304    81.70878
   215  C   4.0    0.07    3.99    3.61    19.40567    53.41031    83.67285
   216  C   4.0    0.29    3.01    3.02    19.51971    52.22286    86.31158
   217  O   6.0   -0.44    1.00    1.80    20.26862    53.39088    88.15581
   218  C   4.0   -0.20    3.99    3.60    16.66945    54.12768    83.11782
   219  H   1.0    0.28    1.00    1.43    19.26814    51.51251    80.12761
   220  H   1.0    0.12    0.99    1.43    20.61888    55.09217    83.72866
   221  H   1.0    0.11    0.99    1.43    15.90580    55.18947    84.70004
   222  H   1.0    0.11    0.99    1.43    16.59022    55.28542    81.42508
   223  H   1.0    0.13    0.99    1.43    15.56265    52.42194    82.81785
   224  N   5.0   -0.49    3.01    1.93    18.42497    49.93393    86.49415
   225  C   4.0    0.08    4.00    3.61    18.32650    48.67140    88.91964
   226  C   4.0    0.29    3.01    3.02    20.95586    48.21563    90.04232
   227  O   6.0   -0.45    1.00    1.80    21.28102    48.30267    92.33833
   228  C   4.0   -0.14    3.98    3.59    16.88295    46.16524    88.74960
   229  C   4.0   -0.15    3.98    3.59    14.00744    46.46597    88.80772
   230  C   4.0   -0.02    3.98    3.59    12.90971    47.52671    86.35670
   231  N   5.0   -0.48    3.02    1.93    10.16355    47.52512    86.51128
   232  C   4.0    0.38    3.00    3.02     8.61198    47.82298    84.55000
   233  N   5.0   -0.65    3.02    1.93     6.12248    47.72401    84.94159
   234  N   5.0   -0.63    3.01    1.93     9.47789    48.40960    82.27064
   235  H   1.0    0.29    1.00    1.43    18.35179    48.82523    84.93615
   236  H   1.0    0.13    0.99    1.43    17.38139    49.95127    90.25395
   237  H   1.0    0.13    0.99    1.43    17.47922    45.15149    87.05204
   238  H   1.0    0.13    0.99    1.43    17.43191    44.97919    90.34685
   239  H   1.0    0.13    0.99    1.43    13.21956    44.59074    89.16492
   240  H   1.0    0.11    0.99    1.43    13.51894    47.69228    90.38921
   241  H   1.0    0.13    0.99    1.43    13.57017    49.46377    86.06690
   242  H   1.0    0.13    0.99    1.43    13.55940    46.36600    84.76991
   243  H   1.0    0.24    1.00    1.43     9.43676    46.84543    88.14282
   244  H   1.0    0.26    1.00    1.43     5.39982    47.30491    86.65144
   245  H   1.0    0.27    1.00    1.43     4.92032    47.92265    83.48022
   246  H   1.0    0.31    1.00    1.43    11.33566    48.33435    81.81425
   247  H   1.0    0.28    1.00    1.43     8.27337    48.48806    80.79748
   248  N   5.0   -0.47    3.01    1.93    22.80095    47.70582    88.40829
   249  C   4.0    0.08    4.00    3.62    25.39175    47.35785    89.21887
   250  C   4.0    0.29    3.01    3.02    26.42282    49.81355    90.38125
   251  O   6.0   -0.41    1.00    1.80    27.54974    49.83566    92.39816
   252  C   4.0   -0.09    3.98    3.59    27.03595    46.50337    86.99802
   253  C   4.0   -0.23    3.99    3.60    29.80907    46.41356    87.76407
   254  C   4.0   -0.22    3.98    3.59    26.21103    43.90630    86.05974
   255  H   1.0    0.29    1.00    1.43    22.45384    47.66965    86.53117
   256  H   1.0    0.12    0.99    1.43    25.43911    45.92199    90.71409
   257  H   1.0    0.13    0.99    1.43    26.80147    47.87375    85.46239
   258  H   1.0    0.09    0.99    1.43    30.92033    45.95051    86.10455
   259  H   1.0    0.11    0.99    1.43    30.42430    48.22707    88.50070
   260  H   1.0    0.11    0.99    1.43    30.11697    44.97603    89.20146
   261  H   1.0    0.09    0.99    1.43    27.34625    43.38415    84.43259
   262  H   1.0    0.11    0.99    1.43    26.48717    42.47843    87.51429
   263  H   1.0    0.13    0.99    1.43    24.23009    43.88295    85.50532
   264  N   5.0   -0.48    3.01    1.93    25.97699    51.86326    88.97670
   265  C   4.0    0.08    4.00    3.62    26.89049    54.35231    89.67140
   266  C   4.0    0.30    3.01    3.02    26.34603    54.85493    92.46827
   267  O   6.0   -0.41    1.00    1.80    27.97401    55.60541    93.91804
   268  C   4.0   -0.09    3.98    3.59    25.67738    56.39752    88.00274
   269  C   4.0   -0.22    3.98    3.59    26.27782    59.02634    89.03188
   270  C   4.0   -0.22    3.98    3.59    26.62328    56.15762    85.28628
   271  H   1.0    0.29    1.00    1.43    25.07876    51.67603    87.29836
   272  H   1.0    0.11    0.99    1.43    28.95811    54.42258    89.46737
   273  H   1.0    0.15    0.99    1.43    23.63076    56.10632    88.04107
   274  H   1.0    0.11    0.99    1.43    25.46293    60.45306    87.80122
   275  H   1.0    0.13    0.99    1.43    25.50693    59.26487    90.92080
   276  H   1.0    0.11    0.99    1.43    28.31262    59.30894    89.11932
   277  H   1.0    0.10    0.99    1.43    25.77286    57.61747    84.11958
   278  H   1.0    0.10    0.99    1.43    28.66455    56.38273    85.22041
   279  H   1.0    0.13    0.99    1.43    26.14463    54.32971    84.48236
   280  N   5.0   -0.47    3.01    1.93    23.92112    54.53401    93.12843
   281  C   4.0    0.10    4.00    3.62    23.09373    55.01810    95.68921
   282  C   4.0    0.29    3.01    3.02    24.07531    52.96000    97.48370
   283  O   6.0   -0.41    1.00    1.80    25.24318    53.45641    99.40244
   284  C   4.0    0.03    3.98    3.58    20.20896    55.24655    95.79581
   285  O   6.0   -0.47    1.99    1.83    19.54784    57.33042    94.26991
   286  C   4.0   -0.22    3.98    3.59    19.31413    55.56868    98.52108
   287  H   1.0    0.29    1.00    1.43    22.63322    54.01507    91.81855
   288  H   1.0    0.14    0.99    1.43    23.94206    56.80419    96.30986
   289  H   1.0    0.12    0.99    1.43    19.40940    53.49972    94.98609
   290  H   1.0    0.25    0.99    1.43    17.76044    57.65140    94.44669
   291  H   1.0    0.10    0.99    1.43    17.28539    55.87636    98.57253
   292  H   1.0    0.13    0.99    1.43    19.78518    53.89961    99.62067
   293  H   1.0    0.12    0.99    1.43    20.25824    57.18442    99.36857
   294  N   5.0   -0.47    3.01    1.93    23.43409    50.61659    96.75843
   295  C   4.0    0.03    3.99    3.61    24.23886    48.39259    98.12242
   296  C   4.0    0.27    3.01    3.02    22.26429    47.70372   100.12243
   297  O   6.0   -0.40    1.00    1.80    22.14479    48.77680   102.15302
   298  H   1.0    0.30    1.00    1.43    22.65101    50.29402    95.04318
   299  H   1.0    0.11    0.99    1.43    24.52727    46.85802    96.78046
   300  H   1.0    0.13    0.99    1.43    26.00839    48.83074    99.09491
   301  N   5.0   -0.47    3.01    1.93    20.59953    45.90655    99.42412
   302  C   4.0    0.06    3.99    3.60    18.84279    44.82322   101.23959
   303  C   4.0    0.06    3.00    3.02    19.80363    42.14203   101.82613
   304  O   6.0   -0.39    1.00    1.80    21.99388    41.85098   102.51702
   305  C   4.0   -0.15    3.98    3.58    16.09730    45.14987   100.39691
   306  C   4.0   -0.15    3.98    3.59    15.57497    47.93903    99.79691
   307  C   4.0   -0.16    3.98    3.58    12.76375    48.41388    99.31386
   308  C   4.0   -0.06    3.98    3.58    12.35404    51.03596    98.17802
   309  N   5.0   -0.73    3.98    2.82     9.59745    51.53753    97.85811
   310  H   1.0    0.24    1.00    1.43    20.82295    45.00832    97.75909
   311  H   1.0    0.15    0.99    1.43    19.16023    45.94151   102.96289
   312  H   1.0    0.14    0.99    1.43    15.69837    43.98971    98.73451
   313  H   1.0    0.10    0.99    1.43    14.86718    44.52599   101.93031
   314  H   1.0    0.12    0.99    1.43    16.23767    49.09447   101.37383
   315  H   1.0    0.13    0.99    1.43    16.67337    48.45899    98.12974
   316  H   1.0    0.12    0.99    1.43    12.08014    46.95470    98.02414
   317  H   1.0    0.11    0.99    1.43    11.74754    48.23381   101.09862
   318  H   1.0    0.10    0.99    1.43    13.17437    52.46866    99.41544
   319  H   1.0    0.10    0.99    1.43    13.27960    51.13200    96.33757
   320  H   1.0    0.23    1.00    1.43     9.29633    53.19184    96.86999
   321  H   1.0    0.24    1.00    1.43     8.78229    50.05435    96.89007
   322  H   1.0    0.23    1.00    1.43     8.73435    51.66907    99.60272
   323  N   5.0   -0.70    3.00    1.93    17.16742    36.41874    97.93640
   324  C   4.0    0.06    3.98    3.59    16.88485    35.42417    95.39422
   325  C   4.0    0.28    3.01    3.02    18.76337    36.80852    93.67894
   326  O   6.0   -0.40    1.00    1.80    18.14649    38.43722    92.16650
   327  C   4.0   -0.10    3.98    3.59    14.17792    35.95135    94.55736
   328  C   4.0    0.34    2.99    3.02    13.50181    38.81043    94.73725
   329  O   6.0   -0.46    1.01    1.80    14.10140    39.92305    96.76259
   330  O   6.0   -0.38    1.00    1.80    12.32989    39.80305    92.98412
   331  H   1.0    0.33    1.00    1.43    15.93190    37.96095    98.06754
   332  H   1.0    0.09    0.99    1.43    17.28627    33.38875    95.32969
   333  H   1.0    0.12    0.99    1.43    13.90726    35.30358    92.61824
   334  H   1.0    0.10    0.99    1.43    12.88245    34.90308    95.77824
   335  N   5.0   -0.48    3.01    1.93    21.18532    36.14364    94.11450
   336  C   4.0    0.07    3.99    3.61    23.25632    37.60126    93.04258
   337  C   4.0    0.28    3.01    3.02    24.70986    35.83125    91.27277
   338  O   6.0   -0.42    1.00    1.80    24.29552    35.82828    88.99695
   339  C   4.0   -0.14    4.00    3.63    24.76589    38.92856    95.12644
   340  C   4.0   -0.14    3.98    3.58    26.26488    41.15549    94.09878
   341  S   6.0   -0.16    2.01    3.10    28.91784    40.19949    92.13367
   342  C   4.0   -0.22    3.98    3.58    31.33503    39.95207    94.57845
   343  H   1.0    0.23    1.00    1.43    21.51192    35.11754    95.72186
   344  H   1.0    0.15    0.99    1.43    22.36618    39.01058    91.80619
   345  H   1.0    0.13    0.99    1.43    23.42051    39.62063    96.53641
   346  H   1.0    0.10    0.99    1.43    26.00480    37.60857    96.10967
   347  H   1.0    0.11    0.99    1.43    25.04630    42.30189    92.89702
   348  H   1.0    0.10    0.99    1.43    27.00494    42.30722    95.63741
   349  H   1.0    0.10    0.99    1.43    33.03060    39.30778    93.62741
   350  H   1.0    0.09    0.99    1.43    31.64673    41.79633    95.42157
   351  H   1.0    0.10    0.99    1.43    30.74812    38.59617    96.00260
   352  N   5.0   -0.49    3.00    1.93    26.33102    34.22579    92.37509
   353  C   4.0    0.07    4.00    3.61    27.63418    32.35875    90.86417
   354  C   4.0    0.09    3.00    3.02    25.75360    30.53418    89.65361
   355  O   6.0   -0.39    1.00    1.80    25.92846    29.94047    87.43724
   356  C   4.0   -0.10    3.98    3.58    29.74226    30.97840    92.32562
   357  C   4.0   -0.22    3.98    3.59    31.91143    32.81547    92.84081
   358  C   4.0   -0.22    3.98    3.59    28.83621    29.77864    94.79029
   359  H   1.0    0.22    1.00    1.43    26.50030    34.15174    94.27079
   360  H   1.0    0.14    0.99    1.43    28.49216    33.35452    89.25965
   361  H   1.0    0.12    0.99    1.43    30.41553    29.47591    91.07363
   362  H   1.0    0.10    0.99    1.43    33.46194    31.82141    93.75111
   363  H   1.0    0.10    0.99    1.43    32.58539    33.64004    91.08519
   364  H   1.0    0.11    0.99    1.43    31.27046    34.33150    94.06868
   365  H   1.0    0.10    0.99    1.43    30.38156    28.71431    95.62426
   366  H   1.0    0.10    0.99    1.43    28.25536    31.20168    96.15482
   367  H   1.0    0.11    0.99    1.43    27.27596    28.48466    94.46473
   368  N   5.0   -0.69    3.00    1.93    20.04535    31.30766    88.00771
   369  C   4.0    0.08    3.99    3.60    18.54134    32.35374    85.97162
   370  C   4.0    0.30    3.02    3.02    20.01824    32.35450    83.51591
   371  O   6.0   -0.38    1.00    1.80    19.14543    31.48867    81.53871
   372  C   4.0   -0.08    3.98    3.59    17.75339    35.03772    86.62469
   373  C   4.0    0.32    2.99    3.02    16.66778    36.28336    84.18434
   374  O   6.0   -0.37    1.00    1.80    14.42885    35.80621    83.64794
   375  O   6.0   -0.41    1.00    1.80    18.18022    37.60095    82.95335
   376  H   1.0    0.26    1.00    1.43    19.37753    31.81002    89.73015
   377  H   1.0    0.13    0.99    1.43    16.82290    31.21062    85.66413
   378  H   1.0    0.12    0.99    1.43    16.30219    35.00688    88.09341
   379  H   1.0    0.15    0.99    1.43    19.37266    36.13282    87.28968
   380  N   5.0   -0.46    3.01    1.93    22.34608    33.32386    83.62226
   381  C   4.0    0.08    3.99    3.60    23.69133    33.89627    81.29687
   382  C   4.0    0.09    3.00    3.02    25.04710    31.53585    80.29340
   383  O   6.0   -0.41    1.00    1.80    25.81440    31.45973    78.10453
   384  C   4.0   -0.13    3.98    3.59    25.28460    36.29411    81.66240
   385  C   4.0   -0.10    3.97    3.58    25.63078    37.92803    79.28247
   386  C   4.0   -0.23    3.99    3.60    26.39547    40.59681    80.07189
   387  C   4.0   -0.20    3.98    3.59    27.62288    36.89364    77.47917
   388  H   1.0    0.29    1.00    1.43    22.90260    34.19328    85.22800
   389  H   1.0    0.16    0.99    1.43    22.22967    34.31743    79.87168
   390  H   1.0    0.12    0.99    1.43    24.23160    37.42984    83.03183
   391  H   1.0    0.12    0.99    1.43    27.10681    35.83047    82.50122
   392  H   1.0    0.12    0.99    1.43    23.79844    38.02098    78.31979
   393  H   1.0    0.11    0.99    1.43    26.81195    41.73312    78.41265
   394  H   1.0    0.11    0.99    1.43    24.87117    41.51583    81.09696
   395  H   1.0    0.09    0.99    1.43    28.06680    40.53128    81.26469
   396  H   1.0    0.12    0.99    1.43    27.87778    38.20718    75.91570
   397  H   1.0    0.11    0.99    1.43    29.38017    36.71570    78.51938
   398  H   1.0    0.16    0.99    1.43    27.03796    35.06814    76.75708
   399  H   1.0    0.29    1.00    1.43    40.32959    42.03439    82.48265
   400  H   1.0    0.12    1.00    1.43    40.78248    44.89521    89.22253
   401  H   1.0    0.28    1.00    1.43    38.48726    46.08615    94.06519
   402  H   1.0    0.13    1.00    1.43    37.48613    53.30637   113.12733
   403  H   1.0    0.29    1.00    1.43    34.91717    62.86331   114.67879
   404  H   1.0    0.12    1.00    1.43    38.92784    54.74066    88.98113
   405  H   1.0    0.28    1.00    1.43    36.70150    52.76114    83.56124
   406  H   1.0    0.13    1.00    1.43    39.60490    49.83924    77.49191
   407  H   1.0    0.33    1.00    1.43    29.24898    48.06045    70.80794
   408  H   1.0    0.13    1.00    1.43    18.64400    40.66137   101.64180
   409  H   1.0    0.29    1.00    1.43    16.76237    35.21342    99.06586
   410  H   1.0    0.14    1.00    1.43    24.34771    29.80466    90.68431
   411  H   1.0    0.31    1.00    1.43    20.03068    29.60978    87.90994
   412  H   1.0    0.16    1.00    1.43    25.31107    30.04527    81.42457

           ------------------------------------------------- 
          |        Self-Consistent Charge Iterations        |
           ------------------------------------------------- 

          ...................................................
          :                      SETUP                      :
          :.................................................:
          :  # basis functions                 988          :
          :  # atomic orbitals                 987          :
          :  # shells                          603          :
          :  # electrons                      1090          :
          :  max. iterations                   250          :
          :  Hamiltonian                  GFN2-xTB          :
          :  restarted?                      false          :
          :  GBSA solvation                   true          :
          :  PC potential                    false          :
          :  electronic temp.          500.0000000     K    :
          :  accuracy                    0.1000000          :
          :  -> integral cutoff          0.3500000E+02      :
          :  -> integral neglect         0.1000000E-08      :
          :  -> SCF convergence          0.1000000E-06 Eh   :
          :  -> wf. convergence          0.1000000E-04 e    :
          :  Broyden damping             0.4000000          :
          ...................................................

 iter      E             dE          RMSdq      gap      omega  full diag
   1   -623.1722339 -0.623172E+03  0.422E+00    2.08       0.0  T
   2   -624.9939327 -0.182170E+01  0.217E+00    1.74       1.0  T
   3   -625.0716156 -0.776828E-01  0.119E+00    2.08       1.0  T
   4   -625.0962613 -0.246457E-01  0.297E-01    1.43       1.0  T
   5   -625.1114178 -0.151565E-01  0.135E-01    1.65       1.0  T
   6   -625.1123642 -0.946392E-03  0.614E-02    1.69       1.0  T
   7   -625.1124793 -0.115175E-03  0.224E-02    1.72       1.0  T
   8   -625.1125199 -0.405316E-04  0.112E-02    1.71       1.0  T
   9   -625.1125269 -0.700596E-05  0.471E-03    1.70       1.0  T
  10   -625.1125280 -0.111311E-05  0.222E-03    1.70       2.2  T
  11   -625.1125283 -0.261608E-06  0.983E-04    1.69       5.0  T
  12   -625.1125283 -0.611955E-07  0.466E-04    1.69      10.6  T
  13   -625.1125283 -0.109653E-07  0.193E-04    1.69      25.5  T
  14   -625.1125283 -0.214141E-08  0.739E-05    1.69      66.7  T
  15   -625.1125283 -0.318664E-09  0.332E-05    1.69     148.3  T

   *** convergence criteria satisfied after 15 iterations ***

         #    Occupation            Energy/Eh            Energy/eV
      -------------------------------------------------------------
         1        2.0000           -0.7378779             -20.0787
       ...           ...                  ...                  ...
       539        2.0000           -0.3676801             -10.0051
       540        2.0000           -0.3673262              -9.9955
       541        2.0000           -0.3655213              -9.9463
       542        2.0000           -0.3618919              -9.8476
       543        2.0000           -0.3617672              -9.8442
       544        2.0000           -0.3583391              -9.7509
       545        2.0000           -0.3569866              -9.7141 (HOMO)
       546                         -0.2947240              -8.0198 (LUMO)
       547                         -0.2935826              -7.9888
       548                         -0.2899017              -7.8886
       549                         -0.2898654              -7.8876
       550                         -0.2868237              -7.8049
       ...                                ...                  ...
       987                          0.6477027              17.6249
      -------------------------------------------------------------
                  HL-Gap            0.0622626 Eh            1.6943 eV
             Fermi-level           -0.3258867 Eh           -8.8678 eV

 SCC (total)                   0 d,  0 h,  0 min, 14.509 sec
 SCC setup                      ...        0 min,  0.198 sec (  1.366%)
 Dispersion                     ...        0 min,  0.158 sec (  1.090%)
 integral evaluation            ...        0 min,  0.653 sec (  4.498%)
 zeroth order Hamiltonian       ...        0 min,  0.018 sec (  0.121%)
 iterations                     ...        0 min, 10.130 sec ( 69.819%)
 molecular gradient             ...        0 min,  3.271 sec ( 22.542%)
 printout                       ...        0 min,  0.082 sec (  0.563%)

         :::::::::::::::::::::::::::::::::::::::::::::::::::::
         ::                     SUMMARY                     ::
         :::::::::::::::::::::::::::::::::::::::::::::::::::::
         :: total energy             -617.772808909403 Eh   ::
         :: total w/o Gsasa/hb       -617.689549260124 Eh   ::
         :: gradient norm               0.597556495080 Eh/α ::
         :: HOMO-LUMO gap               1.694251474112 eV   ::
         ::.................................................::
         :: SCC energy               -625.129277085726 Eh   ::
         :: -> isotropic ES             2.264116350050 Eh   ::
         :: -> anisotropic ES          -0.126608513123 Eh   ::
         :: -> anisotropic XC           0.205096102040 Eh   ::
         :: -> dispersion              -0.494022928027 Eh   ::
         :: -> Gsolv                   -0.713590041597 Eh   ::
         ::    -> Gborn                -0.630330392318 Eh   ::
         ::    -> Gsasa                -0.018606198856 Eh   ::
         ::    -> Ghb                  -0.066510893550 Eh   ::
         ::    -> Gshift                0.001857443127 Eh   ::
         :: repulsion energy            7.314705802332 Eh   ::
         :: add. restraining            0.000000000000 Eh   ::
         :::::::::::::::::::::::::::::::::::::::::::::::::::::

           -------------------------------------------------
          |                Property Printout                |
           -------------------------------------------------

    * Orbital Energies and Occupations

         #    Occupation            Energy/Eh            Energy/eV
      -------------------------------------------------------------
         1        2.0000           -0.7378779             -20.0787
       ...           ...                  ...                  ...
       533        2.0000           -0.3850540             -10.4779
       534        2.0000           -0.3777428             -10.2789
       535        2.0000           -0.3741034             -10.1799
       536        2.0000           -0.3739008             -10.1744
       537        2.0000           -0.3738883             -10.1740
       538        2.0000           -0.3706294             -10.0853
       539        2.0000           -0.3676801             -10.0051
       540        2.0000           -0.3673262              -9.9955
       541        2.0000           -0.3655213              -9.9463
       542        2.0000           -0.3618919              -9.8476
       543        2.0000           -0.3617672              -9.8442
       544        2.0000           -0.3583391              -9.7509
       545        2.0000           -0.3569866              -9.7141 (HOMO)
       546                         -0.2947240              -8.0198 (LUMO)
       547                         -0.2935826              -7.9888
       548                         -0.2899017              -7.8886
       549                         -0.2898654              -7.8876
       550                         -0.2868237              -7.8049
       551                         -0.2841678              -7.7326
       552                         -0.2820517              -7.6750
       553                         -0.2527457              -6.8776
       554                         -0.2477973              -6.7429
       555                         -0.2433275              -6.6213
       556                         -0.2410669              -6.5598
       ...                                ...                  ...
       987                          0.6477027              17.6249
      -------------------------------------------------------------
                  HL-Gap            0.0622626 Eh            1.6943 eV
             Fermi-level           -0.3258867 Eh           -8.8678 eV

   #   Z        covCN         q      C6AA      α(0)
   1   7 N      2.640    -0.380    29.822     8.110
   2   6 C      3.786     0.033    20.030     6.375
   3   6 C      2.771     0.204    23.658     7.966
   4   8 O      0.856    -0.366    21.007     6.145
   5   6 C      3.855    -0.018    20.864     6.496
   6   6 C      3.756    -0.118    22.814     6.810
   7   6 C      3.755    -0.107    22.607     6.780
   8   1 H      0.860     0.161     1.329     1.806
   9   1 H      0.924     0.050     2.326     2.385
  10   1 H      0.924     0.044     2.397     2.421
  11   1 H      0.925     0.045     2.377     2.411
  12   1 H      0.925     0.038     2.473     2.459
  13   1 H      0.925     0.046     2.373     2.409
  14   1 H      0.925     0.037     2.486     2.466
  15   1 H      0.925     0.032     2.551     2.498
  16   1 H      0.925     0.037     2.489     2.467
  17   7 N      2.638    -0.377    29.752     8.101
  18   6 C      3.787     0.024    20.190     6.400
  19   6 C      2.758     0.276    22.324     7.737
  20   8 O      0.859    -0.502    23.821     6.544
  21   6 C      3.807    -0.071    21.860     6.656
  22   6 C      3.849    -0.008    20.687     6.469
  23   6 C      3.756    -0.108    22.629     6.783
  24   6 C      3.756    -0.108    22.620     6.781
  25   1 H      0.860     0.158     1.348     1.819
  26   1 H      0.924     0.052     2.293     2.368
  27   1 H      0.924     0.034     2.532     2.488
  28   1 H      0.924     0.038     2.478     2.462
  29   1 H      0.924     0.021     2.716     2.577
  30   1 H      0.925     0.033     2.542     2.493
  31   1 H      0.925     0.041     2.431     2.438
  32   1 H      0.925     0.035     2.515     2.480
  33   1 H      0.925     0.034     2.524     2.484
  34   1 H      0.925     0.027     2.630     2.536
  35   1 H      0.925     0.040     2.445     2.445
  36   7 N      2.696    -0.177    24.832     7.401
  37   6 C      3.792     0.015    20.335     6.422
  38   6 C      2.764     0.268    22.478     7.764
  39   8 O      0.859    -0.475    23.228     6.462
  40   6 C      3.804    -0.087    22.164     6.702
  41   6 C      3.798    -0.076    21.963     6.673
  42   6 C      3.799    -0.095    22.315     6.726
  43   6 C      3.728    -0.056    21.680     6.647
  44   7 N      3.480    -0.138    23.981     7.273
  45   1 H      0.860     0.223     0.996     1.563
  46   1 H      0.924     0.066     2.127     2.281
  47   1 H      0.924     0.072     2.062     2.246
  48   1 H      0.924     0.078     1.998     2.211
  49   1 H      0.924     0.034     2.524     2.485
  50   1 H      0.925     0.065     2.144     2.290
  51   1 H      0.925     0.083     1.946     2.182
  52   1 H      0.924     0.084     1.937     2.177
  53   1 H      0.924     0.129     1.545     1.944
  54   1 H      0.925     0.120     1.612     1.985
  55   1 H      0.858     0.308     0.690     1.302
  56   1 H      0.859     0.283     0.767     1.372
  57   1 H      0.859     0.291     0.740     1.348
  58   7 N      2.689    -0.164    24.544     7.358
  59   6 C      3.796     0.029    20.098     6.384
  60   6 C      2.767     0.204    23.669     7.968
  61   8 O      0.856    -0.375    21.182     6.171
  62   6 C      3.805    -0.071    21.852     6.655
  63   6 C      3.847    -0.011    20.744     6.479
  64   6 C      3.755    -0.112    22.708     6.795
  65   6 C      3.756    -0.114    22.740     6.799
  66   1 H      0.860     0.210     1.057     1.611
  67   1 H      0.924     0.102     1.767     2.079
  68   1 H      0.924     0.068     2.104     2.269
  69   1 H      0.924     0.066     2.130     2.283
  70   1 H      0.924     0.038     2.475     2.460
  71   1 H      0.925     0.043     2.414     2.430
  72   1 H      0.925     0.030     2.583     2.513
  73   1 H      0.925     0.043     2.405     2.425
  74   1 H      0.925     0.045     2.383     2.414
  75   1 H      0.925     0.042     2.425     2.435
  76   1 H      0.925     0.036     2.501     2.473
  77   7 N      2.636    -0.393    30.180     8.159
  78   6 C      3.784     0.031    20.064     6.380
  79   6 C      2.756     0.274    22.375     7.746
  80   8 O      0.859    -0.492    23.607     6.514
  81   6 C      3.806    -0.049    21.452     6.593
  82   6 C      3.798    -0.093    22.284     6.721
  83   6 C      2.684     0.365    20.804     7.464
  84   8 O      0.858    -0.593    25.943     6.829
  85   8 O      0.856    -0.623    26.683     6.926
  86   1 H      0.860     0.161     1.327     1.805
  87   1 H      0.924     0.032     2.558     2.501
  88   1 H      0.924     0.030     2.586     2.515
  89   1 H      0.924     0.021     2.713     2.576
  90   1 H      0.924     0.021     2.723     2.581
  91   1 H      0.924     0.022     2.710     2.574
  92   7 N      2.691    -0.173    24.743     7.388
  93   6 C      3.797     0.013    20.360     6.425
  94   6 C      2.758     0.275    22.358     7.743
  95   8 O      0.858    -0.500    23.788     6.539
  96   6 C      3.850    -0.011    20.745     6.478
  97   6 C      3.755    -0.116    22.767     6.804
  98   6 C      3.755    -0.113    22.711     6.795
  99   1 H      0.860     0.199     1.109     1.649
 100   1 H      0.924     0.077     2.014     2.219
 101   1 H      0.924     0.043     2.409     2.427
 102   1 H      0.925     0.049     2.336     2.390
 103   1 H      0.925     0.041     2.429     2.437
 104   1 H      0.925     0.045     2.387     2.416
 105   1 H      0.925     0.053     2.285     2.364
 106   1 H      0.925     0.034     2.529     2.487
 107   1 H      0.925     0.044     2.398     2.422
 108   7 N      2.693    -0.168    24.635     7.372
 109   6 C      3.796     0.014    20.337     6.422
 110   6 C      2.757     0.269    22.452     7.759
 111   8 O      0.858    -0.467    23.072     6.440
 112   6 C      3.803    -0.084    22.095     6.692
 113   6 C      3.801    -0.074    21.918     6.665
 114   6 C      3.802    -0.099    22.379     6.735
 115   6 C      3.730    -0.037    21.337     6.594
 116   7 N      3.478    -0.175    24.772     7.392
 117   1 H      0.860     0.231     0.960     1.534
 118   1 H      0.924     0.061     2.186     2.312
 119   1 H      0.924     0.072     2.069     2.249
 120   1 H      0.925     0.061     2.185     2.311
 121   1 H      0.924     0.049     2.326     2.385
 122   1 H      0.924     0.064     2.151     2.293
 123   1 H      0.925     0.092     1.864     2.135
 124   1 H      0.924     0.094     1.843     2.123
 125   1 H      0.925     0.107     1.720     2.051
 126   1 H      0.924     0.088     1.899     2.155
 127   1 H      0.859     0.269     0.813     1.412
 128   1 H      0.855     0.301     0.711     1.321
 129   1 H      0.859     0.291     0.741     1.348
 130   7 N      2.693    -0.161    24.484     7.349
 131   6 C      3.790     0.025    20.165     6.395
 132   6 C      2.772     0.198    23.775     7.986
 133   8 O      0.856    -0.357    20.840     6.120
 134   6 C      3.758    -0.113    22.707     6.794
 135   1 H      0.860     0.214     1.038     1.596
 136   1 H      0.924     0.105     1.741     2.063
 137   1 H      0.925     0.060     2.202     2.320
 138   1 H      0.925     0.071     2.075     2.252
 139   1 H      0.925     0.054     2.272     2.357
 140   7 N      2.640    -0.376    29.722     8.097
 141   6 C      3.784     0.035    20.008     6.372
 142   6 C      2.769     0.208    23.579     7.953
 143   8 O      0.856    -0.369    21.075     6.155
 144   6 C      3.851    -0.023    20.946     6.510
 145   6 C      3.802    -0.047    21.419     6.589
 146   6 C      3.754    -0.111    22.684     6.792
 147   6 C      3.752    -0.093    22.335     6.740
 148   1 H      0.860     0.166     1.295     1.783
 149   1 H      0.924     0.050     2.315     2.380
 150   1 H      0.924     0.043     2.409     2.427
 151   1 H      0.924     0.025     2.660     2.551
 152   1 H      0.924     0.018     2.765     2.600
 153   1 H      0.925     0.032     2.560     2.502
 154   1 H      0.925     0.051     2.313     2.378
 155   1 H      0.925     0.050     2.321     2.382
 156   1 H      0.925     0.022     2.704     2.571
 157   1 H      0.925     0.037     2.489     2.467
 158   1 H      0.925     0.030     2.582     2.513
 159   7 N      2.642    -0.384    29.931     8.125
 160   6 C      3.784     0.051    19.732     6.327
 161   6 C      2.765     0.257    22.669     7.797
 162   8 O      0.859    -0.493    23.637     6.518
 163   6 C      3.798    -0.088    22.173     6.705
 164   6 C      2.683     0.373    20.678     7.442
 165   8 O      0.856    -0.629    26.841     6.946
 166   8 O      0.856    -0.654    27.474     7.027
 167   1 H      0.860     0.158     1.347     1.818
 168   1 H      0.924     0.020     2.735     2.586
 169   1 H      0.924     0.010     2.894     2.660
 170   1 H      0.925     0.003     3.003     2.710
 171   7 N      2.752    -0.098    23.159     7.147
 172   6 C      3.818     0.011    20.372     6.424
 173   6 C      2.750     0.271    22.416     7.753
 174   8 O      0.859    -0.467    23.070     6.440
 175   6 C      3.828    -0.086    22.121     6.692
 176   6 C      3.820    -0.077    21.954     6.668
 177   6 C      3.762    -0.008    20.768     6.496
 178   1 H      0.924     0.087     1.908     2.160
 179   1 H      0.925     0.086     1.921     2.167
 180   1 H      0.925     0.081     1.973     2.197
 181   1 H      0.925     0.064     2.153     2.295
 182   1 H      0.925     0.083     1.947     2.182
 183   1 H      0.924     0.053     2.289     2.366
 184   1 H      0.924     0.058     2.221     2.330
 185   7 N      2.689    -0.184    24.988     7.424
 186   6 C      3.795     0.005    20.493     6.446
 187   6 C      2.754     0.288    22.117     7.701
 188   8 O      0.858    -0.447    22.645     6.380
 189   6 C      3.677     0.067    19.670     6.354
 190   8 O      1.656    -0.472    22.301     6.375
 191   1 H      0.860     0.220     1.012     1.576
 192   1 H      0.923     0.112     1.680     2.027
 193   1 H      0.923     0.066     2.131     2.283
 194   1 H      0.923     0.031     2.577     2.510
 195   1 H      0.805     0.357     0.572     1.188
 196   7 N      2.695    -0.179    24.880     7.408
 197   6 C      3.795     0.030    20.077     6.380
 198   6 C      2.762     0.280    22.259     7.726
 199   8 O      0.859    -0.491    23.591     6.512
 200   6 C      3.682     0.081    19.425     6.311
 201   8 O      1.655    -0.467    22.203     6.361
 202   1 H      0.860     0.204     1.083     1.631
 203   1 H      0.924     0.071     2.078     2.254
 204   1 H      0.924     0.041     2.430     2.438
 205   1 H      0.924     0.042     2.420     2.433
 206   1 H      0.805     0.328     0.641     1.258
 207   7 N      2.688    -0.140    24.040     7.282
 208   6 C      3.752    -0.022    21.030     6.540
 209   6 C      2.753     0.287    22.134     7.704
 210   8 O      0.859    -0.498    23.730     6.531
 211   1 H      0.860     0.203     1.091     1.636
 212   1 H      0.924     0.060     2.205     2.322
 213   1 H      0.924     0.110     1.698     2.038
 214   7 N      2.690    -0.173    24.752     7.389
 215   6 C      3.794     0.019    20.261     6.410
 216   6 C      2.760     0.278    22.295     7.732
 217   8 O      0.859    -0.471    23.146     6.450
 218   6 C      3.759    -0.146    23.360     6.890
 219   1 H      0.860     0.218     1.017     1.580
 220   1 H      0.924     0.081     1.965     2.192
 221   1 H      0.925     0.094     1.845     2.124
 222   1 H      0.925     0.086     1.923     2.169
 223   1 H      0.925     0.078     2.001     2.212
 224   7 N      2.688    -0.185    25.000     7.426
 225   6 C      3.798     0.015    20.334     6.421
 226   6 C      2.756     0.271    22.418     7.753
 227   8 O      0.859    -0.498    23.738     6.532
 228   6 C      3.805    -0.062    21.694     6.631
 229   6 C      3.803    -0.082    22.057     6.686
 230   6 C      3.737    -0.023    21.066     6.550
 231   7 N      2.701    -0.144    24.113     7.293
 232   6 C      2.736     0.231    23.143     7.876
 233   7 N      2.654    -0.259    26.728     7.678
 234   7 N      2.650    -0.236    26.179     7.599
 235   1 H      0.860     0.207     1.071     1.621
 236   1 H      0.923     0.104     1.750     2.069
 237   1 H      0.924     0.038     2.471     2.458
 238   1 H      0.924     0.045     2.381     2.413
 239   1 H      0.924     0.060     2.203     2.321
 240   1 H      0.925     0.093     1.850     2.127
 241   1 H      0.924     0.097     1.814     2.106
 242   1 H      0.924     0.055     2.260     2.351
 243   1 H      0.860     0.236     0.940     1.518
 244   1 H      0.860     0.255     0.864     1.456
 245   1 H      0.860     0.258     0.851     1.445
 246   1 H      0.860     0.237     0.935     1.515
 247   1 H      0.860     0.248     0.890     1.478
 248   7 N      2.690    -0.181    24.929     7.415
 249   6 C      3.803     0.029    20.078     6.379
 250   6 C      2.754     0.278    22.299     7.733
 251   8 O      0.858    -0.484    23.430     6.490
 252   6 C      3.854    -0.017    20.842     6.493
 253   6 C      3.758    -0.116    22.778     6.804
 254   6 C      3.757    -0.105    22.568     6.773
 255   1 H      0.860     0.207     1.073     1.623
 256   1 H      0.924     0.053     2.287     2.365
 257   1 H      0.924     0.049     2.337     2.391
 258   1 H      0.925     0.053     2.280     2.361
 259   1 H      0.925     0.044     2.401     2.423
 260   1 H      0.925     0.060     2.195     2.317
 261   1 H      0.925     0.048     2.348     2.396
 262   1 H      0.925     0.040     2.451     2.448
 263   1 H      0.925     0.022     2.708     2.574
 264   7 N      2.691    -0.188    25.080     7.438
 265   6 C      3.800     0.022    20.201     6.399
 266   6 C      2.758     0.288    22.116     7.701
 267   8 O      0.858    -0.482    23.399     6.486
 268   6 C      3.853    -0.024    20.972     6.513
 269   6 C      3.756    -0.119    22.839     6.814
 270   6 C      3.756    -0.122    22.898     6.823
 271   1 H      0.860     0.218     1.016     1.579
 272   1 H      0.923     0.057     2.236     2.339
 273   1 H      0.924     0.062     2.178     2.308
 274   1 H      0.925     0.065     2.143     2.289
 275   1 H      0.925     0.041     2.441     2.443
 276   1 H      0.925     0.047     2.359     2.402
 277   1 H      0.925     0.056     2.251     2.346
 278   1 H      0.925     0.046     2.374     2.409
 279   1 H      0.925     0.044     2.401     2.423
 280   7 N      2.691    -0.182    24.937     7.417
 281   6 C      3.802     0.017    20.286     6.412
 282   6 C      2.754     0.279    22.272     7.728
 283   8 O      0.858    -0.465    23.018     6.432
 284   6 C      3.727     0.112    18.847     6.198
 285   8 O      1.656    -0.487    22.617     6.420
 286   6 C      3.753    -0.142    23.297     6.883
 287   1 H      0.860     0.207     1.071     1.621
 288   1 H      0.924     0.079     1.987     2.204
 289   1 H      0.923     0.025     2.657     2.549
 290   1 H      0.805     0.360     0.564     1.180
 291   1 H      0.925     0.086     1.916     2.164
 292   1 H      0.925     0.048     2.343     2.394
 293   1 H      0.925     0.062     2.172     2.304
 294   7 N      2.689    -0.175    24.792     7.395
 295   6 C      3.744    -0.019    20.976     6.533
 296   6 C      2.753     0.280    22.260     7.726
 297   8 O      0.859    -0.449    22.691     6.387
 298   1 H      0.860     0.215     1.030     1.590
 299   1 H      0.925     0.054     2.276     2.359
 300   1 H      0.924     0.088     1.895     2.153
 301   7 N      2.692    -0.158    24.415     7.339
 302   6 C      3.793     0.013    20.366     6.427
 303   6 C      2.765     0.199    23.767     7.984
 304   8 O      0.856    -0.365    21.003     6.144
 305   6 C      3.802    -0.082    22.066     6.688
 306   6 C      3.804    -0.073    21.894     6.661
 307   6 C      3.802    -0.094    22.287     6.721
 308   6 C      3.731    -0.051    21.577     6.631
 309   7 N      3.482    -0.149    24.222     7.310
 310   1 H      0.860     0.180     1.211     1.724
 311   1 H      0.923     0.121     1.607     1.983
 312   1 H      0.924     0.059     2.213     2.326
 313   1 H      0.924     0.069     2.096     2.264
 314   1 H      0.924     0.062     2.177     2.307
 315   1 H      0.924     0.048     2.345     2.395
 316   1 H      0.924     0.071     2.072     2.251
 317   1 H      0.924     0.084     1.938     2.177
 318   1 H      0.924     0.122     1.599     1.977
 319   1 H      0.924     0.113     1.669     2.021
 320   1 H      0.859     0.313     0.677     1.289
 321   1 H      0.859     0.298     0.720     1.329
 322   1 H      0.859     0.302     0.707     1.317
 323   7 N      2.638    -0.450    31.798     8.375
 324   6 C      3.788     0.049    19.762     6.331
 325   6 C      2.758     0.280    22.265     7.727
 326   8 O      0.858    -0.499    23.761     6.535
 327   6 C      3.805    -0.082    22.062     6.687
 328   6 C      2.684     0.378    20.606     7.429
 329   8 O      0.860    -0.603    26.179     6.860
 330   8 O      0.856    -0.613    26.438     6.894
 331   1 H      0.861     0.208     1.064     1.616
 332   1 H      0.923     0.002     3.032     2.723
 333   1 H      0.924    -0.017     3.363     2.868
 334   1 H      0.924     0.018     2.759     2.598
 335   7 N      2.693    -0.207    25.493     7.499
 336   6 C      3.796     0.029    20.098     6.384
 337   6 C      2.761     0.277    22.320     7.737
 338   8 O      0.859    -0.496    23.691     6.526
 339   6 C      3.827    -0.071    21.845     6.651
 340   6 C      3.796    -0.005    20.681     6.476
 341  16 S      1.965    -0.229   150.863    20.673
 342   6 C      3.744    -0.069    21.896     6.675
 343   1 H      0.859     0.217     1.025     1.586
 344   1 H      0.923     0.065     2.147     2.291
 345   1 H      0.924     0.056     2.251     2.346
 346   1 H      0.925     0.068     2.112     2.273
 347   1 H      0.925     0.028     2.621     2.532
 348   1 H      0.925     0.066     2.134     2.284
 349   1 H      0.926     0.086     1.922     2.168
 350   1 H      0.925     0.072     2.064     2.247
 351   1 H      0.925     0.067     2.117     2.276
 352   7 N      2.688    -0.160    24.469     7.347
 353   6 C      3.799     0.020    20.235     6.405
 354   6 C      2.765     0.207    23.605     7.957
 355   8 O      0.856    -0.366    21.017     6.146
 356   6 C      3.850    -0.017    20.852     6.495
 357   6 C      3.756    -0.127    22.989     6.836
 358   6 C      3.754    -0.127    22.993     6.837
 359   1 H      0.860     0.216     1.029     1.589
 360   1 H      0.924     0.089     1.888     2.149
 361   1 H      0.924     0.057     2.238     2.339
 362   1 H      0.925     0.071     2.076     2.253
 363   1 H      0.925     0.049     2.329     2.387
 364   1 H      0.925     0.059     2.213     2.326
 365   1 H      0.925     0.073     2.056     2.242
 366   1 H      0.925     0.053     2.278     2.360
 367   1 H      0.925     0.043     2.408     2.427
 368   7 N      2.637    -0.390    30.087     8.146
 369   6 C      3.791     0.060    19.578     6.301
 370   6 C      2.764     0.282    22.234     7.722
 371   8 O      0.859    -0.529    24.445     6.629
 372   6 C      3.806    -0.078    21.991     6.676
 373   6 C      2.687     0.371    20.710     7.448
 374   8 O      0.856    -0.639    27.107     6.980
 375   8 O      0.856    -0.635    27.000     6.967
 376   1 H      0.860     0.148     1.415     1.863
 377   1 H      0.923    -0.003     3.106     2.756
 378   1 H      0.924     0.002     3.030     2.722
 379   1 H      0.924     0.023     2.693     2.566
 380   7 N      2.691    -0.170    24.682     7.379
 381   6 C      3.793     0.039    19.922     6.356
 382   6 C      2.762     0.207    23.597     7.955
 383   8 O      0.856    -0.357    20.846     6.121
 384   6 C      3.806    -0.064    21.725     6.635
 385   6 C      3.848    -0.000    20.551     6.448
 386   6 C      3.759    -0.101    22.477     6.759
 387   6 C      3.757    -0.119    22.826     6.812
 388   1 H      0.860     0.215     1.033     1.592
 389   1 H      0.923     0.080     1.980     2.201
 390   1 H      0.924     0.058     2.220     2.330
 391   1 H      0.925     0.063     2.169     2.303
 392   1 H      0.924     0.019     2.751     2.594
 393   1 H      0.925     0.034     2.529     2.487
 394   1 H      0.925     0.030     2.585     2.515
 395   1 H      0.925     0.045     2.379     2.412
 396   1 H      0.925     0.035     2.510     2.478
 397   1 H      0.925     0.044     2.397     2.421
 398   1 H      0.925     0.059     2.208     2.324
 399   1 H      0.862     0.181     1.209     1.723
 400   1 H      0.930     0.080     1.983     2.202
 401   1 H      0.862     0.169     1.279     1.772
 402   1 H      0.930     0.070     2.084     2.257
 403   1 H      0.862     0.181     1.210     1.723
 404   1 H      0.930     0.090     1.880     2.144
 405   1 H      0.862     0.188     1.171     1.695
 406   1 H      0.930     0.064     2.155     2.295
 407   1 H      0.862     0.167     1.291     1.779
 408   1 H      0.930     0.075     2.027     2.226
 409   1 H      0.862     0.178     1.225     1.734
 410   1 H      0.930     0.066     2.133     2.284
 411   1 H      0.862     0.187     1.173     1.696
 412   1 H      0.930     0.082     1.954     2.186

 Mol. C6AA /au·bohr⁶  :    1486278.562447
 Mol. C8AA /au·bohr⁸  :   32737993.928427
 Mol. α(0) /au        :       1813.556890


Wiberg/Mayer (AO) data.
largest (>0.10) Wiberg bond orders for each atom
          total WBO             WBO to atom ...
     1  N   2.997        C    2 1.007    H    8 0.956    H  399 0.945
     2  C   3.984        N    1 1.007    C    3 0.978    H    9 0.964    C    5 0.949
     3  C   3.895        O    4 1.905    C    2 0.978    H  400 0.953
     4  O   2.041        C    3 1.905
     5  C   3.994        C    7 1.010    C    6 1.009    H   10 0.965    C    2 0.949
     6  C   3.995        C    5 1.009    H   11 0.984    H   12 0.983    H   13 0.982
     7  C   3.996        C    5 1.010    H   14 0.983    H   15 0.981    H   16 0.978
     8  H   0.974        N    1 0.956
     9  H   0.998        C    2 0.964
    10  H   0.998        C    5 0.965
    11  H   0.998        C    6 0.984
    12  H   0.999        C    6 0.983
    13  H   0.998        C    6 0.982
    14  H   0.998        C    7 0.983
    15  H   0.999        C    7 0.981
    16  H   0.999        C    7 0.978
    17  N   2.994        C   18 1.014    H  401 0.956    H   25 0.956
    18  C   3.984        N   17 1.014    C   21 0.971    H   26 0.957    C   19 0.943
    19  C   3.947        O   20 1.628    N   36 1.309    C   18 0.943
    20  O   1.939        C   19 1.628    N   36 0.198
    21  C   3.995        C   22 0.995    H   28 0.975    H   27 0.973    C   18 0.971
    22  C   3.996        C   23 1.010    C   24 1.008    C   21 0.995    H   29 0.968
    23  C   3.995        C   22 1.010    H   32 0.986    H   30 0.984    H   31 0.980
    24  C   3.996        C   22 1.008    H   33 0.986    H   35 0.985    H   34 0.984
    25  H   0.975        N   17 0.956
    26  H   0.997        C   18 0.957
    27  H   0.998        C   21 0.973
    28  H   0.999        C   21 0.975
    29  H   0.999        C   22 0.968
    30  H   0.999        C   23 0.984
    31  H   0.998        C   23 0.980
    32  H   0.999        C   23 0.986
    33  H   0.998        C   24 0.986
    34  H   0.999        C   24 0.984
    35  H   0.998        C   24 0.985
    36  N   3.474        C   19 1.309    C   37 0.975    H   45 0.901    O   20 0.198
    37  C   3.961        N   36 0.975    C   40 0.963    H   46 0.959    C   38 0.942
    38  C   3.945        O   39 1.624    N   58 1.304    C   37 0.942
    39  O   1.976        C   38 1.624    N   58 0.197
    40  C   3.981        C   41 1.006    H   47 0.967    C   37 0.963    H   48 0.963
    41  C   3.990        C   40 1.006    C   42 1.004    H   49 0.975    H   50 0.974
    42  C   3.984        C   43 1.014    C   41 1.004    H   52 0.964    H   51 0.960
    43  C   3.914        C   42 1.014    H   54 0.964    H   53 0.962    N   44 0.952
    44  N   3.669        C   43 0.952    H   57 0.899    H   56 0.898    H   55 0.891
    45  H   0.950        N   36 0.901
    46  H   0.995        C   37 0.959
    47  H   0.994        C   40 0.967
    48  H   0.994        C   40 0.963
    49  H   0.999        C   41 0.975
    50  H   0.995        C   41 0.974
    51  H   0.993        C   42 0.960
    52  H   0.993        C   42 0.964
    53  H   0.983        C   43 0.962
    54  H   0.985        C   43 0.964
    55  H   0.905        N   44 0.891
    56  H   0.920        N   44 0.898
    57  H   0.915        N   44 0.899
    58  N   3.482        C   38 1.304    C   59 0.987    H   66 0.920    O   39 0.197
    59  C   3.967        C   60 1.003    N   58 0.987    C   62 0.939    H   67 0.926
    60  C   3.907        O   61 1.872    C   59 1.003    H  402 0.955
    61  O   2.031        C   60 1.872
    62  C   3.982        C   63 0.995    H   68 0.969    H   69 0.966    C   59 0.939
    63  C   3.995        C   64 1.011    C   65 1.006    C   62 0.995    H   70 0.969
    64  C   3.996        C   63 1.011    H   73 0.986    H   71 0.985    H   72 0.982
    65  C   3.995        C   63 1.006    H   76 0.988    H   75 0.986    H   74 0.985
    66  H   0.956        N   58 0.920
    67  H   0.989        C   59 0.926
    68  H   0.995        C   62 0.969
    69  H   0.996        C   62 0.966
    70  H   0.998        C   63 0.969
    71  H   0.998        C   64 0.985
    72  H   0.999        C   64 0.982
    73  H   0.998        C   64 0.986
    74  H   0.998        C   65 0.985
    75  H   0.998        C   65 0.986
    76  H   0.999        C   65 0.988
    77  N   2.990        C   78 1.019    H   86 0.954    H  403 0.954
    78  C   3.985        N   77 1.019    H   87 0.962    C   81 0.960    C   79 0.947
    79  C   3.946        O   80 1.625    N   92 1.302    C   78 0.947
    80  O   1.947        C   79 1.625    N   92 0.193
    81  C   3.995        C   82 1.008    H   89 0.978    H   88 0.974    C   78 0.960
    82  C   3.988        C   81 1.008    H   90 0.977    H   91 0.965    C   83 0.918
    83  C   3.936        O   85 1.548    O   84 1.435    C   82 0.918
    84  O   1.845        C   83 1.435    O   85 0.209
    85  O   1.837        C   83 1.548    O   84 0.209
    86  H   0.974        N   77 0.954
    87  H   0.999        C   78 0.962
    88  H   0.999        C   81 0.974
    89  H   1.000        C   81 0.978
    90  H   1.000        C   82 0.977
    91  H   1.000        C   82 0.965
    92  N   3.473        C   79 1.302    C   93 0.979    H   99 0.922    O   80 0.193
    93  C   3.960        N   92 0.979    C   96 0.948    H  100 0.947    C   94 0.944
    94  C   3.953        O   95 1.618    N  108 1.321    C   93 0.944
    95  O   1.944        C   94 1.618    N  108 0.200
    96  C   3.990        C   97 1.011    C   98 1.009    H  101 0.966    C   93 0.948
    97  C   3.995        C   96 1.011    H  103 0.986    H  104 0.984    H  102 0.984
    98  C   3.993        C   96 1.009    H  106 0.986    H  105 0.983    H  107 0.982
    99  H   0.960        N   92 0.922
   100  H   0.994        C   93 0.947
   101  H   0.998        C   96 0.966
   102  H   0.998        C   97 0.984
   103  H   0.998        C   97 0.986
   104  H   0.998        C   97 0.984
   105  H   0.996        C   98 0.983
   106  H   0.999        C   98 0.986
   107  H   0.998        C   98 0.982
   108  N   3.484        C   94 1.321    C  109 0.986    H  117 0.891    O   95 0.200
   109  C   3.963        N  108 0.986    C  112 0.957    H  118 0.953    C  110 0.943
   110  C   3.950        O  111 1.633    N  130 1.302    C  109 0.943
   111  O   1.980        C  110 1.633    N  130 0.196
   112  C   3.983        C  113 1.009    H  119 0.971    H  120 0.970    C  109 0.957
   113  C   3.991        C  112 1.009    C  114 1.007    H  121 0.975    H  122 0.966
   114  C   3.984        C  113 1.007    C  115 1.004    H  124 0.972    H  123 0.960
   115  C   3.922        C  114 1.004    H  125 0.970    H  126 0.967    N  116 0.960
   116  N   3.640        C  115 0.960    H  127 0.913    H  129 0.900    H  128 0.792
   117  H   0.946        N  108 0.891
   118  H   0.996        C  109 0.953
   119  H   0.994        C  112 0.971
   120  H   0.996        C  112 0.970
   121  H   0.998        C  113 0.975
   122  H   0.996        C  113 0.966
   123  H   0.991        C  114 0.960
   124  H   0.991        C  114 0.972
   125  H   0.988        C  115 0.970
   126  H   0.992        C  115 0.967
   127  H   0.927        N  116 0.913
   128  H   0.909        N  116 0.792
   129  H   0.915        N  116 0.900
   130  N   3.474        C  110 1.302    C  131 0.987    H  135 0.916    O  111 0.196
   131  C   3.969        N  130 0.987    C  132 0.985    C  134 0.958    H  136 0.946
   132  C   3.900        O  133 1.901    C  131 0.985    H  404 0.952
   133  O   2.055        C  132 1.901
   134  C   3.985        H  139 0.985    H  137 0.982    H  138 0.973    C  131 0.958
   135  H   0.954        N  130 0.916
   136  H   0.989        C  131 0.946
   137  H   0.996        C  134 0.982
   138  H   0.995        C  134 0.973
   139  H   0.997        C  134 0.985
   140  N   2.994        C  141 1.006    H  148 0.954    H  405 0.948
   141  C   3.985        N  140 1.006    C  142 0.976    H  149 0.963    C  144 0.954
   142  C   3.892        O  143 1.900    C  141 0.976    H  406 0.957
   143  O   2.042        C  142 1.900
   144  C   3.994        C  146 1.012    C  145 0.992    H  150 0.963    C  141 0.954
   145  C   3.995        C  147 1.019    C  144 0.992    H  152 0.976    H  151 0.976
   146  C   3.995        C  144 1.012    H  153 0.984    H  154 0.983    H  155 0.980
   147  C   3.998        C  145 1.019    H  158 0.986    H  156 0.986    H  157 0.982
   148  H   0.972        N  140 0.954
   149  H   0.997        C  141 0.963
   150  H   0.998        C  144 0.963
   151  H   0.999        C  145 0.976
   152  H   1.000        C  145 0.976
   153  H   0.999        C  146 0.984
   154  H   0.997        C  146 0.983
   155  H   0.998        C  146 0.980
   156  H   0.999        C  147 0.986
   157  H   0.999        C  147 0.982
   158  H   0.999        C  147 0.986
   159  N   2.993        C  160 1.013    H  167 0.956    H  407 0.952
   160  C   3.984        N  159 1.013    C  163 0.964    H  168 0.959    C  161 0.941
   161  C   3.950        O  162 1.616    N  171 1.293    C  160 0.941
   162  O   1.948        C  161 1.616    N  171 0.189
   163  C   3.987        H  170 0.980    H  169 0.975    C  160 0.964    C  164 0.905
   164  C   3.934        O  165 1.506    O  166 1.499    C  163 0.905
   165  O   1.810        C  164 1.506    O  166 0.219
   166  O   1.792        C  164 1.499    O  165 0.219
   167  H   0.975        N  159 0.956
   168  H   1.000        C  160 0.959
   169  H   1.000        C  163 0.975
   170  H   1.000        C  163 0.980
   171  N   3.503        C  161 1.293    C  177 0.974    C  172 0.951    O  162 0.189
   172  C   3.956        C  175 0.991    H  178 0.951    N  171 0.951    C  173 0.930
   173  C   3.947        O  174 1.659    N  185 1.283    C  172 0.930
   174  O   1.992        C  173 1.659    N  185 0.200
   175  C   3.985        C  176 1.004    C  172 0.991    H  180 0.973    H  179 0.970
   176  C   3.988        C  175 1.004    C  177 1.001    H  182 0.973    H  181 0.969
   177  C   3.962        C  176 1.001    N  171 0.974    H  183 0.970    H  184 0.962
   178  H   0.992        C  172 0.951
   179  H   0.992        C  175 0.970
   180  H   0.993        C  175 0.973
   181  H   0.996        C  176 0.969
   182  H   0.992        C  176 0.973
   183  H   0.997        C  177 0.970
   184  H   0.996        C  177 0.962
   185  N   3.451        C  173 1.283    C  186 0.979    H  191 0.909    O  174 0.200
   186  C   3.960        N  185 0.979    C  189 0.976    H  192 0.945    C  187 0.935
   187  C   3.944        O  188 1.652    N  196 1.271    C  186 0.935
   188  O   1.988        C  187 1.652    N  196 0.187
   189  C   3.961        O  190 1.012    C  186 0.976    H  194 0.966    H  193 0.962
   190  O   1.928        C  189 1.012    H  195 0.859
   191  H   0.952        N  185 0.909
   192  H   0.987        C  186 0.945
   193  H   0.995        C  189 0.962
   194  H   0.999        C  189 0.966
   195  H   0.872        O  190 0.859
   196  N   3.452        C  187 1.271    C  197 0.992    H  202 0.921    O  188 0.187
   197  C   3.977        N  196 0.992    C  200 0.978    H  203 0.951    C  198 0.938
   198  C   3.951        O  199 1.588    N  207 1.337    C  197 0.938
   199  O   1.956        C  198 1.588    N  207 0.195
   200  C   3.956        O  201 0.996    C  197 0.978    H  205 0.967    H  204 0.963
   201  O   1.940        C  200 0.996    H  206 0.877
   202  H   0.958        N  196 0.921
   203  H   0.995        C  197 0.951
   204  H   0.998        C  200 0.963
   205  H   0.998        C  200 0.967
   206  H   0.892        O  201 0.877
   207  N   3.504        C  198 1.337    C  208 0.985    H  211 0.923    O  199 0.195
   208  C   3.956        N  207 0.985    H  212 0.960    C  209 0.957    H  213 0.939
   209  C   3.956        O  210 1.589    N  214 1.322    C  208 0.957
   210  O   1.947        C  209 1.589    N  214 0.190
   211  H   0.959        N  207 0.923
   212  H   0.996        C  208 0.960
   213  H   0.988        C  208 0.939
   214  N   3.476        C  209 1.322    C  215 0.967    H  219 0.918    O  210 0.190
   215  C   3.953        C  218 0.990    N  214 0.967    H  220 0.951    C  216 0.939
   216  C   3.947        O  217 1.648    N  224 1.273    C  215 0.939
   217  O   1.971        C  216 1.648    N  224 0.185
   218  C   3.975        C  215 0.990    H  223 0.979    H  222 0.978    H  221 0.977
   219  H   0.952        N  214 0.918
   220  H   0.993        C  215 0.951
   221  H   0.991        C  218 0.977
   222  H   0.992        C  218 0.978
   223  H   0.994        C  218 0.979
   224  N   3.439        C  216 1.273    C  225 0.987    H  235 0.900    O  217 0.185
   225  C   3.967        N  224 0.987    C  228 0.980    H  236 0.944    C  226 0.935
   226  C   3.943        O  227 1.598    N  248 1.320    C  225 0.935
   227  O   1.941        C  226 1.598    N  248 0.191
   228  C   3.987        C  229 1.002    C  225 0.980    H  238 0.972    H  237 0.970
   229  C   3.986        C  230 1.008    C  228 1.002    H  239 0.972    H  240 0.968
   230  C   3.964        C  229 1.008    N  231 0.989    H  242 0.963    H  241 0.957
   231  N   3.452        C  232 1.301    C  230 0.989    H  243 0.910    N  234 0.100
   232  C   3.977        N  234 1.336    N  233 1.310    N  231 1.301
   233  N   3.380        C  232 1.310    H  244 0.916    H  245 0.914    N  234 0.104
   234  N   3.414        C  232 1.336    H  247 0.917    H  246 0.900    N  233 0.104    N  231 0.100
   235  H   0.957        N  224 0.900
   236  H   0.989        C  225 0.944
   237  H   0.998        C  228 0.970
   238  H   0.997        C  228 0.972
   239  H   0.996        C  229 0.972
   240  H   0.991        C  229 0.968
   241  H   0.991        C  230 0.957
   242  H   0.997        C  230 0.963
   243  H   0.944        N  231 0.910
   244  H   0.935        N  233 0.916
   245  H   0.933        N  233 0.914
   246  H   0.944        N  234 0.900
   247  H   0.938        N  234 0.917
   248  N   3.484        C  226 1.320    C  249 0.976    H  255 0.911    O  227 0.191
   249  C   3.961        N  248 0.976    C  252 0.971    H  256 0.951    C  250 0.926
   250  C   3.953        O  251 1.634    N  264 1.312    C  249 0.926
   251  O   1.963        C  250 1.634    N  264 0.203
   252  C   3.990        C  254 1.008    C  253 1.007    C  249 0.971    H  257 0.959
   253  C   3.992        C  252 1.007    H  259 0.983    H  260 0.982    H  258 0.982
   254  C   3.994        C  252 1.008    H  262 0.984    H  263 0.983    H  261 0.979
   255  H   0.957        N  248 0.911
   256  H   0.997        C  249 0.951
   257  H   0.997        C  252 0.959
   258  H   0.997        C  253 0.982
   259  H   0.998        C  253 0.983
   260  H   0.996        C  253 0.982
   261  H   0.997        C  254 0.979
   262  H   0.998        C  254 0.984
   263  H   1.000        C  254 0.983
   264  N   3.471        C  250 1.312    C  265 0.972    H  271 0.899    O  251 0.203
   265  C   3.959        N  264 0.972    C  268 0.967    H  272 0.952    C  266 0.935
   266  C   3.949        O  267 1.648    N  280 1.286    C  265 0.935
   267  O   1.959        C  266 1.648    N  280 0.194
   268  C   3.986        C  270 1.008    C  269 1.007    C  265 0.967    H  273 0.957
   269  C   3.992        C  268 1.007    H  276 0.986    H  275 0.984    H  274 0.983
   270  C   3.993        C  268 1.008    H  278 0.985    H  277 0.983    H  279 0.976
   271  H   0.952        N  264 0.899
   272  H   0.996        C  265 0.952
   273  H   0.996        C  268 0.957
   274  H   0.995        C  269 0.983
   275  H   0.998        C  269 0.984
   276  H   0.998        C  269 0.986
   277  H   0.996        C  270 0.983
   278  H   0.998        C  270 0.985
   279  H   0.998        C  270 0.976
   280  N   3.459        C  266 1.286    C  281 0.980    H  287 0.918    O  267 0.194
   281  C   3.962        N  280 0.980    C  284 0.967    H  288 0.952    C  282 0.924
   282  C   3.948        O  283 1.663    N  294 1.285    C  281 0.924
   283  O   1.981        C  282 1.663    N  294 0.199
   284  C   3.960        C  286 0.999    O  285 0.997    C  281 0.967    H  289 0.955
   285  O   1.925        C  284 0.997    H  290 0.853
   286  C   3.987        C  284 0.999    H  293 0.984    H  292 0.982    H  291 0.978
   287  H   0.957        N  280 0.918
   288  H   0.994        C  281 0.952
   289  H   0.999        C  284 0.955
   290  H   0.870        O  285 0.853
   291  H   0.992        C  286 0.978
   292  H   0.998        C  286 0.982
   293  H   0.996        C  286 0.984
   294  N   3.461        C  282 1.285    C  295 0.992    H  298 0.899    O  283 0.199
   295  C   3.969        N  294 0.992    H  299 0.971    H  300 0.956    C  296 0.940
   296  C   3.952        O  297 1.673    N  301 1.273    C  295 0.940
   297  O   1.999        C  296 1.673    N  301 0.199
   298  H   0.954        N  294 0.899
   299  H   0.997        C  295 0.971
   300  H   0.992        C  295 0.956
   301  N   3.465        C  296 1.273    C  302 0.966    H  310 0.938    O  297 0.199
   302  C   3.951        C  305 0.988    C  303 0.970    N  301 0.966    H  311 0.917
   303  C   3.895        O  304 1.901    C  302 0.970    H  408 0.953
   304  O   2.045        C  303 1.901
   305  C   3.984        C  306 1.003    C  302 0.988    H  312 0.973    H  313 0.971
   306  C   3.991        C  307 1.003    C  305 1.003    H  315 0.976    H  314 0.975
   307  C   3.987        C  308 1.011    C  306 1.003    H  316 0.972    H  317 0.970
   308  C   3.919        C  307 1.011    H  319 0.966    H  318 0.963    N  309 0.961
   309  N   3.662        C  308 0.961    H  321 0.896    H  322 0.895    H  320 0.890
   310  H   0.967        N  301 0.938
   311  H   0.985        C  302 0.917
   312  H   0.997        C  305 0.973
   313  H   0.995        C  305 0.971
   314  H   0.996        C  306 0.975
   315  H   0.998        C  306 0.976
   316  H   0.995        C  307 0.972
   317  H   0.993        C  307 0.970
   318  H   0.985        C  308 0.963
   319  H   0.987        C  308 0.966
   320  H   0.902        N  309 0.890
   321  H   0.911        N  309 0.896
   322  H   0.909        N  309 0.895
   323  N   2.958        C  324 1.014    H  409 0.957    H  331 0.847
   324  C   3.993        N  323 1.014    C  327 0.988    H  332 0.959    C  325 0.934
   325  C   3.932        O  326 1.662    N  335 1.263    C  324 0.934
   326  O   1.970        C  325 1.662    N  335 0.186
   327  C   3.985        C  324 0.988    H  333 0.979    H  334 0.967    C  328 0.919
   328  C   3.936        O  330 1.548    O  329 1.442    C  327 0.919
   329  O   1.868        C  328 1.442    O  330 0.208
   330  O   1.835        C  328 1.548    O  329 0.208
   331  H   0.957        N  323 0.847
   332  H   1.000        C  324 0.959
   333  H   1.000        C  327 0.979
   334  H   0.999        C  327 0.967
   335  N   3.420        C  325 1.263    C  336 0.965    H  343 0.920    O  326 0.186
   336  C   3.956        C  339 0.985    N  335 0.965    H  344 0.953    C  337 0.931
   337  C   3.947        O  338 1.640    N  352 1.294    C  336 0.931
   338  O   1.968        C  337 1.640    N  352 0.199
   339  C   3.991        C  340 1.013    C  336 0.985    H  345 0.966    H  346 0.965
   340  C   3.984        C  339 1.013    S  341 0.989    H  347 0.971    H  348 0.969
   341  S   2.092        C  342 1.009    C  340 0.989
   342  C   3.965        S  341 1.009    H  351 0.980    H  350 0.977    H  349 0.975
   343  H   0.953        N  335 0.920
   344  H   0.996        C  336 0.953
   345  H   0.997        C  339 0.966
   346  H   0.995        C  339 0.965
   347  H   0.999        C  340 0.971
   348  H   0.995        C  340 0.969
   349  H   0.993        C  342 0.975
   350  H   0.995        C  342 0.977
   351  H   0.995        C  342 0.980
   352  N   3.470        C  337 1.294    C  353 0.978    H  359 0.909    O  338 0.199
   353  C   3.956        N  352 0.978    C  354 0.970    C  356 0.947    H  360 0.945
   354  C   3.898        O  355 1.902    C  353 0.970    H  410 0.952
   355  O   2.045        C  354 1.902
   356  C   3.981        C  358 1.009    C  357 1.005    H  361 0.964    C  353 0.947
   357  C   3.990        C  356 1.005    H  363 0.985    H  364 0.982    H  362 0.981
   358  C   3.992        C  356 1.009    H  367 0.986    H  365 0.980    H  366 0.978
   359  H   0.953        N  352 0.909
   360  H   0.992        C  353 0.945
   361  H   0.996        C  356 0.964
   362  H   0.994        C  357 0.981
   363  H   0.998        C  357 0.985
   364  H   0.997        C  357 0.982
   365  H   0.995        C  358 0.980
   366  H   0.997        C  358 0.978
   367  H   0.998        C  358 0.986
   368  N   2.992        C  369 1.006    H  376 0.961    H  411 0.955
   369  C   3.986        N  368 1.006    C  372 0.976    H  377 0.961    C  370 0.947
   370  C   3.943        O  371 1.610    N  380 1.313    C  369 0.947
   371  O   1.908        C  370 1.610    N  380 0.189
   372  C   3.984        C  369 0.976    H  379 0.976    H  378 0.974    C  373 0.907
   373  C   3.938        O  374 1.507    O  375 1.500    C  372 0.907
   374  O   1.797        C  373 1.507    O  375 0.218
   375  O   1.796        C  373 1.500    O  374 0.218
   376  H   0.978        N  368 0.961
   377  H   1.000        C  369 0.961
   378  H   1.000        C  372 0.974
   379  H   0.999        C  372 0.976
   380  N   3.468        C  370 1.313    C  381 0.978    H  388 0.913    O  371 0.189
   381  C   3.961        C  382 0.984    N  380 0.978    C  384 0.963    H  389 0.927
   382  C   3.901        O  383 1.891    C  381 0.984    H  412 0.953
   383  O   2.049        C  382 1.891
   384  C   3.983        C  385 0.992    H  391 0.974    H  390 0.965    C  381 0.963
   385  C   3.994        C  387 1.011    C  386 1.006    C  384 0.992    H  392 0.965
   386  C   3.996        C  385 1.006    H  393 0.984    H  394 0.984    H  395 0.983
   387  C   3.994        C  385 1.011    H  397 0.986    H  396 0.985    H  398 0.975
   388  H   0.954        N  380 0.913
   389  H   0.994        C  381 0.927
   390  H   0.997        C  384 0.965
   391  H   0.996        C  384 0.974
   392  H   1.000        C  385 0.965
   393  H   0.998        C  386 0.984
   394  H   0.999        C  386 0.984
   395  H   0.998        C  386 0.983
   396  H   0.999        C  387 0.985
   397  H   0.998        C  387 0.986
   398  H   0.996        C  387 0.975
   399  H   0.967        N    1 0.945
   400  H   0.994        C    3 0.953
   401  H   0.971        N   17 0.956
   402  H   0.995        C   60 0.955
   403  H   0.967        N   77 0.954
   404  H   0.991        C  132 0.952
   405  H   0.965        N  140 0.948
   406  H   0.996        C  142 0.957
   407  H   0.972        N  159 0.952
   408  H   0.994        C  303 0.953
   409  H   0.968        N  323 0.957
   410  H   0.996        C  354 0.952
   411  H   0.965        N  368 0.955
   412  H   0.993        C  382 0.953
 
molecular dipole:
                 x           y           z       tot (Debye)
 q only:        2.727      27.276      17.976
   full:       -0.123      23.737      16.221      73.077
molecular quadrupole (traceless):
                xx          xy          yy          xz          yz          zz
 q only:    -1590.313    1104.732     327.601    1482.035    4712.707    1262.712
  q+dip:    -1480.066     815.293     262.150    1030.188    4118.531    1217.916
   full:    -1473.839     817.416     258.520    1028.753    4118.659    1215.318


           -------------------------------------------------
          | TOTAL ENERGY             -617.772808909403 Eh   |
          | GRADIENT NORM               0.597556495080 Eh/α |
          | HOMO-LUMO GAP               1.694251474112 eV   |
           -------------------------------------------------

------------------------------------------------------------------------
 * finished run on 2019/05/31 at 06:33:34.653     
------------------------------------------------------------------------
 total:
 * wall-time:     0 d,  0 h,  0 min, 15.509 sec
 *  cpu-time:     0 d,  0 h,  0 min, 30.705 sec
 * ratio c/w:     1.980 speedup
 SCF:
 * wall-time:     0 d,  0 h,  0 min, 14.515 sec
 *  cpu-time:     0 d,  0 h,  0 min, 28.916 sec
 * ratio c/w:     1.992 speedup

