      -----------------------------------------------------------      
     |                   =====================                   |     
     |                           x T B                           |     
     |                   =====================                   |     
     |                         S. Grimme                         |     
     |          Mulliken Center for Theoretical Chemistry        |     
     |                    University of Bonn                     |     
     |                Version 6.1 RC1 (SAW190329)                |     
      -----------------------------------------------------------      

   This program is distributed in the hope that it will be useful,
   but WITHOUT ANY WARRANTY; without even the implied warranty of
   MERCHANTABILITY or FITNESS FOR A PARTICULAR PURPOSE.
   
   FOR NON-COMMERCIAL, ACADEMIA USE ONLY.
   
   Cite this work as:
   S. Grimme, C. Bannwarth, P. Shushkov, J. Comput. Theory Chem., 2017,
   13, 1989-2009. DOI: 10.1021/acs.jctc.7b00118
   C. Bannwarth, S. Ehlert and S. Grimme., J. Comput. Theory Chem., 2019,
   just accepted. DOI: 10.1021/acs.jctc.8b01176
   
   for sTDA-xTB:
   S. Grimme and C. Bannwarth, J. Chem. Phys., 2016, 145, 054103.
   DOI: 10.1063/1.4959605
   
   in the mass-spec context:
   V. Asgeirsson, C. Bauer and S. Grimme, Chem. Sci., 2017, 8, 4879.
   DOI: 10.1039/c7sc00601b
   
   for metadynamics refer to:
   S. Grimme, ChemRxiv, Preprint. DOI: 10.26434/chemrxiv.7660532.v1
   
   with help from (in alphabetical order)
   C. Bannwarth, F. Bohle, G. Brandenburg, E. Caldeweyher, M. Checinski,
   S. Dohm, S. Ehlert, S. Ehrlich, F. März, H. Neugebauer, J. Pisarek,
   P. Pracht, P. Shushkov, and S. Spicher.
   
 * started run on 2019/05/31 at 06:33:52.057     

           -------------------------------------------------
          |                Calculation Setup                |
           -------------------------------------------------

          program call               : /home/lum/qr/xtb-190329/bin/xtb xtb_tmp.xyz --chrg 1 --grad --gfn 2 --etemp 500 --acc 0.1 --gbsa h2o --parallel 2
          hostname                   : cu39
          coordinate file            : xtb_tmp.xyz
          omp threads                :                     2
          number of atoms            :                   156
          number of electrons        :                   426
          charge                     :                     1
          spin                       :                   0.0
          first test random number   :      0.61830400328889


molecular fragmentation (1/2 indicates fragments):
111111111111111111111111111111111111111111111111111111111111111111111111
111111111111111111111111111111111111111111111111111111111111111112222222
222222222122
# atoms in fragment 1/2:   138    18
 fragment masses (1/2) :      994.15      101.15
CMA distance (Bohr)    :  15.533
constraining FC (au)   :  0.0500

########################################################################
# WARNING! Please study the warnings concerning your input carefully
#  - XTBPATH is not set, using XTBHOME instead
#  - Process number higher than OMP_NUM_THREADS, I hope you know what you are doing.
########################################################################

           ------------------------------------------------- 
          |                 G F N 2 - x T B                 |
          | Geometry, Frequencies, Noncovalent interactions |
          |            JCTC 2018 parametrisation            |
           ------------------------------------------------- 
 
             k(s)              :                1.8500
             k(p)              :                2.2300
             k(d)              :                2.2300
             k(f)              :                2.0000
             kEN (H0ij)        :               -2.0000
             D4 a1             :                0.5200
             D4 a2             :                5.0000
             D4 s6             :                1.0000
             D4 s8             :                2.7000
             D4 s9             :                5.0000
             alphaj            :                2.0000

  Z AO/shell   Hii/eV     exponent
  1     Wed Apr 25 08:07:45 CEST 2018   EN: 2.200 GM2: 0.406  GM3: 0.0800  RAES: 1.40
     1s    -10.707211    1.230000
  6     Wed Apr 25 08:07:45 CEST 2018   EN: 2.550 GM2: 0.538  GM3: 0.1500  RAES: 3.00
     2s    -13.970922    2.096432
     2p    -10.063292    1.800000
  7     Wed Apr 25 08:07:45 CEST 2018   EN: 3.040 GM2: 0.461  GM3:-0.0640  RAES: 1.90
     2s    -16.686243    2.339881
     2p    -12.523956    2.014332
  8     Wed Apr 25 08:07:45 CEST 2018   EN: 3.440 GM2: 0.452  GM3:-0.0517  RAES: 1.80
     2s    -20.229985    2.439742
     2p    -15.503117    2.137023
 16     Tue Apr 24 11:44:34 CEST 2018   EN: 2.580 GM2: 0.340  GM3:-0.0502  RAES: 3.10
     3s    -20.029654    1.981333
     3p    -11.377694    2.025643
     3d     -0.420282    1.702555

 Solvent             : h2o
 Using internal parameter file: .param_gbsa2_h2o
 Gsolv ref. state (COSMO-RS): gsolv [1 M gas/solution]
 temperature (mdtemp)       :    298.150000000000     
 dielectric constant        :    80.2000000000000     
 rho                        :    1.00000000000000     
 mass                       :    18.0000000000000     
 surface tension            :    15.5689454083859     
 probe radius               :   0.975313790000000     
 vdW radii scaling          :    1.00000000000000     
 Gshift (Eh)                :   1.857443126794793E-003
 c1                         :    1.55243817000000     
 soset                      :   0.130326360000000     
 HB correction              :  T
 Number of grid points      :          230

            Z     q(EN)     CN     RAES       Cart. coordinates
     1  N   5.0   -0.73    3.98    2.81   104.23667    47.80162    10.41998
     2  C   4.0    0.05    3.98    3.58   106.08948    47.92962    12.54661
     3  C   4.0    0.26    3.01    3.02   105.14789    49.19918    14.97779
     4  O   6.0   -0.47    1.00    1.80   105.96523    48.40267    16.98993
     5  C   4.0   -0.14    4.01    3.64   108.57358    49.15810    11.66015
     6  C   4.0   -0.14    3.97    3.58   110.35274    47.22637    10.46361
     7  S   6.0   -0.15    2.02    3.10   111.25155    44.83252    12.84711
     8  C   4.0   -0.20    3.98    3.58   111.78603    42.13499    10.79463
     9  H   1.0    0.24    1.00    1.43   104.95238    46.60181     9.05316
    10  H   1.0    0.25    1.00    1.43   102.51886    47.06862    10.98844
    11  H   1.0    0.24    1.00    1.43   103.96250    49.53349     9.56173
    12  H   1.0    0.12    0.99    1.43   106.56329    45.99418    13.13349
    13  H   1.0    0.11    0.99    1.43   108.20889    50.67677    10.31599
    14  H   1.0    0.12    0.99    1.43   109.52680    49.97973    13.29387
    15  H   1.0    0.11    0.99    1.43   109.50532    46.21627     8.88401
    16  H   1.0    0.12    0.99    1.43   112.07076    48.16171     9.82459
    17  H   1.0    0.12    0.99    1.43   112.49580    40.62700    11.99046
    18  H   1.0    0.11    0.99    1.43   110.02605    41.54092     9.92284
    19  H   1.0    0.12    0.99    1.43   113.19290    42.59707     9.37234
    20  N   5.0   -0.48    3.00    1.93   103.43483    51.04973    14.88552
    21  C   4.0    0.06    3.99    3.61   102.69578    52.30136    17.23723
    22  C   4.0    0.29    3.01    3.02   101.96281    50.35372    19.25610
    23  O   6.0   -0.45    1.00    1.80   102.78048    50.44458    21.40500
    24  C   4.0   -0.22    3.98    3.59   100.55486    54.17420    16.76967
    25  H   1.0    0.23    1.00    1.43   102.79662    51.86410    13.27882
    26  H   1.0    0.12    0.99    1.43   104.32716    53.32333    18.01054
    27  H   1.0    0.11    0.99    1.43   100.05418    55.11282    18.52919
    28  H   1.0    0.11    0.99    1.43   101.17050    55.62208    15.44883
    29  H   1.0    0.11    0.99    1.43    98.85793    53.28002    16.02543
    30  N   5.0   -0.48    3.00    1.93   100.42351    48.48062    18.45113
    31  C   4.0    0.07    3.99    3.61    99.45256    46.68097    20.29250
    32  C   4.0    0.31    3.01    3.02   101.64478    45.21354    21.53696
    33  O   6.0   -0.43    1.00    1.80   101.52138    44.57120    23.74897
    34  C   4.0   -0.10    3.99    3.60    97.58258    44.82799    19.06662
    35  C   4.0    0.28    3.00    3.02    95.88150    43.64973    21.07488
    36  O   6.0   -0.35    1.00    1.80    96.25251    41.56439    21.97101
    37  N   5.0   -0.65    3.00    1.93    93.96795    45.15035    21.82138
    38  H   1.0    0.23    1.00    1.43    99.35326    48.76660    16.89408
    39  H   1.0    0.13    0.99    1.43    98.47709    47.70195    21.81602
    40  H   1.0    0.10    0.99    1.43    96.38849    45.82335    17.70979
    41  H   1.0    0.13    0.99    1.43    98.59295    43.30616    18.11762
    42  H   1.0    0.30    1.00    1.43    92.67480    44.47055    23.04366
    43  H   1.0    0.26    1.00    1.43    93.50571    46.76231    20.92208
    44  N   5.0   -0.47    3.01    1.93   103.57334    44.61051    20.00670
    45  C   4.0    0.07    3.99    3.61   105.84498    43.39321    20.97102
    46  C   4.0    0.30    3.01    3.02   107.12209    45.06885    22.96555
    47  O   6.0   -0.42    1.00    1.80   107.58261    44.30148    25.10553
    48  C   4.0   -0.15    3.98    3.59   107.63212    42.83205    18.76210
    49  C   4.0   -0.16    3.98    3.59   110.24481    41.93697    19.60318
    50  C   4.0   -0.14    3.98    3.59   110.21881    39.31225    20.80311
    51  C   4.0   -0.04    3.98    3.59   112.88025    38.59737    21.63835
    52  N   5.0   -0.72    3.98    2.81   112.78557    36.42217    23.41967
    53  H   1.0    0.29    1.00    1.43   103.81975    45.61520    18.39550
    54  H   1.0    0.13    0.99    1.43   105.27251    41.66409    21.95076
    55  H   1.0    0.11    0.99    1.43   106.75128    41.39588    17.57431
    56  H   1.0    0.13    0.99    1.43   107.89824    44.56395    17.67836
    57  H   1.0    0.11    0.99    1.43   111.47730    41.92394    17.95257
    58  H   1.0    0.14    0.99    1.43   111.04232    43.26522    20.96996
    59  H   1.0    0.14    0.99    1.43   109.00887    39.36963    22.47227
    60  H   1.0    0.11    0.99    1.43   109.46817    37.93095    19.46770
    61  H   1.0    0.12    0.99    1.43   114.07541    38.14593    20.02291
    62  H   1.0    0.17    0.99    1.43   113.69064    40.19535    22.67507
    63  H   1.0    0.26    1.00    1.43   114.57635    35.78757    23.81603
    64  H   1.0    0.30    0.99    1.43   111.99248    37.11879    25.09217
    65  H   1.0    0.26    1.00    1.43   111.72312    34.95753    22.70502
    66  N   5.0   -0.47    3.01    1.93   107.63875    47.41052    22.18455
    67  C   4.0    0.08    3.99    3.61   108.94025    49.21224    23.78591
    68  C   4.0    0.30    3.02    3.02   107.77098    49.19792    26.42549
    69  O   6.0   -0.46    1.00    1.80   109.08067    49.09147    28.33899
    70  C   4.0   -0.21    3.98    3.59   108.80060    51.84044    22.61292
    71  H   1.0    0.29    1.00    1.43   107.23846    47.94555    20.38707
    72  H   1.0    0.14    0.99    1.43   110.92124    48.63343    24.03273
    73  H   1.0    0.11    0.99    1.43   109.68223    53.20424    23.86828
    74  H   1.0    0.11    0.99    1.43   109.80676    51.85275    20.82294
    75  H   1.0    0.13    0.99    1.43   106.83792    52.36500    22.31708
    76  N   5.0   -0.48    3.01    1.93   105.25192    49.44479    26.48214
    77  C   4.0    0.08    4.00    3.62   103.96474    49.56398    28.89001
    78  C   4.0    0.29    3.02    3.02   103.88919    46.96660    30.16214
    79  O   6.0   -0.39    1.01    1.80   104.40645    46.76838    32.41857
    80  C   4.0   -0.10    3.98    3.58   101.40578    50.92089    28.72006
    81  C   4.0   -0.20    3.98    3.59    99.44153    49.36687    27.30197
    82  C   4.0   -0.22    3.98    3.59   100.48673    51.58200    31.37494
    83  H   1.0    0.29    1.00    1.43   104.25044    49.61401    24.86050
    84  H   1.0    0.12    0.99    1.43   105.18306    50.68136    30.14719
    85  H   1.0    0.11    0.99    1.43   101.74053    52.67652    27.67664
    86  H   1.0    0.11    0.99    1.43    97.72892    50.47599    27.07365
    87  H   1.0    0.14    0.99    1.43   100.13130    48.83162    25.44511
    88  H   1.0    0.13    0.99    1.43    98.96734    47.66508    28.34545
    89  H   1.0    0.11    0.99    1.43    98.65271    52.50276    31.28830
    90  H   1.0    0.13    0.99    1.43   100.31618    49.87652    32.50640
    91  H   1.0    0.10    0.99    1.43   101.80810    52.85170    32.30644
    92  N   5.0   -0.47    3.01    1.93   103.38547    44.90568    28.80035
    93  C   4.0    0.09    4.02    3.65   103.69438    42.50083    30.08037
    94  C   4.0    0.33    3.01    3.02   106.06131    42.59025    31.75101
    95  O   6.0   -0.33    1.00    1.80   106.05893    41.84821    33.94916
    96  C   4.0   -0.09    3.99    3.60   104.01047    40.28780    28.25210
    97  C   4.0    0.29    3.00    3.02   104.89881    38.02675    29.80806
    98  O   6.0   -0.34    1.00    1.80   103.50285    36.94026    31.28737
    99  N   5.0   -0.63    3.00    1.93   107.30043    37.29875    29.38016
   100  H   1.0    0.31    1.00    1.43   102.87641    44.90782    26.94838
   101  H   1.0    0.15    0.99    1.43   102.09691    42.12762    31.34709
   102  H   1.0    0.14    0.99    1.43   102.19846    39.83614    27.38099
   103  H   1.0    0.14    0.99    1.43   105.40147    40.76543    26.81637
   104  H   1.0    0.31    1.00    1.43   107.99351    35.95609    30.54503
   105  H   1.0    0.31    1.00    1.43   108.61399    38.49391    28.62522
   106  N   5.0   -0.46    3.01    1.93   108.13290    43.33947    30.52559
   107  C   4.0    0.09    3.99    3.61   110.60805    43.26803    31.67137
   108  C   4.0    0.29    3.01    3.02   110.75863    45.06154    33.93543
   109  O   6.0   -0.34    1.00    1.80   111.74580    44.38997    35.92872
   110  C   4.0   -0.09    3.98    3.59   112.56197    43.93344    29.67612
   111  C   4.0    0.33    2.99    3.02   112.64460    42.08886    27.37507
   112  O   6.0   -0.46    1.00    1.80   111.55701    39.98980    27.51332
   113  O   6.0   -0.41    1.00    1.80   113.87290    42.85672    25.53558
   114  H   1.0    0.31    1.00    1.43   108.04210    43.79201    28.66628
   115  H   1.0    0.16    0.99    1.43   110.97045    41.36149    32.41723
   116  H   1.0    0.15    0.99    1.43   112.17779    45.82109    28.94017
   117  H   1.0    0.13    0.99    1.43   114.45092    43.94534    30.50782
   118  N   5.0   -0.47    3.01    1.93   109.81253    47.37372    33.59953
   119  C   4.0    0.08    3.99    3.60   109.79796    49.23381    35.62146
   120  C   4.0    0.12    3.00    3.02   108.56728    48.16101    38.01604
   121  O   6.0   -0.34    1.00    1.80   109.45759    48.50613    40.12024
   122  C   4.0   -0.13    3.99    3.60   108.33520    51.58814    34.76756
   123  C   4.0   -0.03    3.03    3.02   108.08265    53.53778    36.83046
   124  C   4.0   -0.07    3.03    3.02   110.18034    54.85020    37.70904
   125  C   4.0   -0.08    3.03    3.02   105.73284    54.08681    37.86274
   126  C   4.0   -0.07    3.03    3.02   109.92687    56.68449    39.55677
   127  C   4.0   -0.08    3.03    3.02   105.47365    55.93166    39.70073
   128  C   4.0   -0.07    3.03    3.02   107.56913    57.25112    40.54248
   129  H   1.0    0.30    1.00    1.43   109.15787    47.90202    31.87387
   130  H   1.0    0.15    0.99    1.43   111.74835    49.71874    36.13613
   131  H   1.0    0.11    0.99    1.43   109.33426    52.39498    33.14972
   132  H   1.0    0.12    0.99    1.43   106.45821    50.97307    34.17140
   133  H   1.0    0.13    1.00    1.43   112.01988    54.42366    36.93651
   134  H   1.0    0.12    0.99    1.43   104.09063    53.05951    37.21833
   135  H   1.0    0.13    1.00    1.43   111.57780    57.67191    40.22965
   136  H   1.0    0.13    1.00    1.43   103.63024    56.35117    40.46743
   137  H   1.0    0.14    1.00    1.43   107.35575    58.68908    41.97386
   138  N   5.0   -0.70    3.00    1.93   101.86354    62.63711    26.76740
   139  C   4.0    0.08    3.98    3.59   102.92823    61.65548    29.09423
   140  C   4.0    0.08    2.99    3.02   104.30434    63.69171    30.63496
   141  O   6.0   -0.39    1.00    1.80   104.07214    63.71574    32.95361
   142  C   4.0   -0.09    3.98    3.58   104.48975    59.24927    28.61204
   143  C   4.0   -0.21    3.98    3.59   106.89038    59.77356    27.10393
   144  C   4.0   -0.22    3.98    3.59   105.10510    57.95308    31.12060
   145  H   1.0    0.26    1.00    1.43   102.49891    61.98391    25.08903
   146  H   1.0    0.13    0.99    1.43   101.32243    61.13963    30.30849
   147  H   1.0    0.10    0.99    1.43   103.27831    57.98974    27.49802
   148  H   1.0    0.10    0.99    1.43   107.89520    58.01263    26.76414
   149  H   1.0    0.11    0.99    1.43   106.46797    60.64319    25.28828
   150  H   1.0    0.12    0.99    1.43   108.12367    61.05787    28.12818
   151  H   1.0    0.10    0.99    1.43   106.03529    56.15308    30.78618
   152  H   1.0    0.13    0.99    1.43   106.34387    59.13261    32.25485
   153  H   1.0    0.11    0.99    1.43   103.39242    57.61549    32.20196
   154  H   1.0    0.17    1.00    1.43   106.98221    47.14017    37.88763
   155  H   1.0    0.30    1.00    1.43   100.19250    62.32269    26.73068
   156  H   1.0    0.15    1.00    1.43   105.37410    64.97876    29.75737

           ------------------------------------------------- 
          |        Self-Consistent Charge Iterations        |
           ------------------------------------------------- 

          ...................................................
          :                      SETUP                      :
          :.................................................:
          :  # basis functions                 390          :
          :  # atomic orbitals                 389          :
          :  # shells                          233          :
          :  # electrons                       426          :
          :  max. iterations                   250          :
          :  Hamiltonian                  GFN2-xTB          :
          :  restarted?                      false          :
          :  GBSA solvation                   true          :
          :  PC potential                    false          :
          :  electronic temp.          500.0000000     K    :
          :  accuracy                    0.1000000          :
          :  -> integral cutoff          0.3500000E+02      :
          :  -> integral neglect         0.1000000E-08      :
          :  -> SCF convergence          0.1000000E-06 Eh   :
          :  -> wf. convergence          0.1000000E-04 e    :
          :  Broyden damping             0.4000000          :
          ...................................................

 iter      E             dE          RMSdq      gap      omega  full diag
   1   -243.6914215 -0.243691E+03  0.442E+00    1.74       0.0  T
   2   -244.4865027 -0.795081E+00  0.228E+00    1.76       1.0  T
   3   -244.5116120 -0.251093E-01  0.121E+00    2.16       1.0  T
   4   -244.5151036 -0.349163E-02  0.310E-01    1.89       1.0  T
   5   -244.5218372 -0.673361E-02  0.139E-01    2.07       1.0  T
   6   -244.5223219 -0.484687E-03  0.664E-02    2.01       1.0  T
   7   -244.5223619 -0.399767E-04  0.308E-02    2.00       1.0  T
   8   -244.5224101 -0.481563E-04  0.135E-02    1.99       1.0  T
   9   -244.5224128 -0.277656E-05  0.630E-03    1.98       1.3  T
  10   -244.5224140 -0.118177E-05  0.267E-03    1.98       3.0  T
  11   -244.5224141 -0.109970E-06  0.123E-03    1.98       6.5  T
  12   -244.5224142 -0.366159E-07  0.513E-04    1.98      15.6  T
  13   -244.5224142 -0.109424E-07  0.238E-04    1.98      33.7  T
  14   -244.5224142 -0.104944E-08  0.984E-05    1.98      81.4  T
  15   -244.5224142 -0.256819E-09  0.394E-05    1.98     203.0  T

   *** convergence criteria satisfied after 15 iterations ***

         #    Occupation            Energy/Eh            Energy/eV
      -------------------------------------------------------------
         1        2.0000           -0.7475250             -20.3412
       ...           ...                  ...                  ...
       207        2.0000           -0.3988589             -10.8535
       208        2.0000           -0.3972752             -10.8104
       209        2.0000           -0.3958311             -10.7711
       210        2.0000           -0.3940263             -10.7220
       211        2.0000           -0.3739018             -10.1744
       212        2.0000           -0.3670066              -9.9868
       213        2.0000           -0.3582591              -9.7487 (HOMO)
       214                         -0.2854435              -7.7673 (LUMO)
       215                         -0.2833588              -7.7106
       216                         -0.2619445              -7.1279
       217                         -0.2487190              -6.7680
       218                         -0.2416543              -6.5757
       ...                                ...                  ...
       389                          0.6638974              18.0656
      -------------------------------------------------------------
                  HL-Gap            0.0728156 Eh            1.9814 eV
             Fermi-level           -0.3220354 Eh           -8.7630 eV

 SCC (total)                   0 d,  0 h,  0 min,  1.499 sec
 SCC setup                      ...        0 min,  0.027 sec (  1.823%)
 Dispersion                     ...        0 min,  0.008 sec (  0.538%)
 integral evaluation            ...        0 min,  0.062 sec (  4.108%)
 zeroth order Hamiltonian       ...        0 min,  0.005 sec (  0.324%)
 iterations                     ...        0 min,  1.172 sec ( 78.167%)
 molecular gradient             ...        0 min,  0.220 sec ( 14.693%)
 printout                       ...        0 min,  0.005 sec (  0.342%)

         :::::::::::::::::::::::::::::::::::::::::::::::::::::
         ::                     SUMMARY                     ::
         :::::::::::::::::::::::::::::::::::::::::::::::::::::
         :: total energy             -241.627847722325 Eh   ::
         :: total w/o Gsasa/hb       -241.592019037258 Eh   ::
         :: gradient norm               0.255939812003 Eh/α ::
         :: HOMO-LUMO gap               1.981413044080 eV   ::
         ::.................................................::
         :: SCC energy               -244.529661071746 Eh   ::
         :: -> isotropic ES             0.969105032625 Eh   ::
         :: -> anisotropic ES          -0.068008551534 Eh   ::
         :: -> anisotropic XC           0.085501840660 Eh   ::
         :: -> dispersion              -0.196979199571 Eh   ::
         :: -> Gsolv                   -0.364800611611 Eh   ::
         ::    -> Gborn                -0.328971926544 Eh   ::
         ::    -> Gsasa                -0.009104344011 Eh   ::
         ::    -> Ghb                  -0.028581784183 Eh   ::
         ::    -> Gshift                0.001857443127 Eh   ::
         :: repulsion energy            2.888212295987 Eh   ::
         :: add. restraining            0.000000000000 Eh   ::
         :::::::::::::::::::::::::::::::::::::::::::::::::::::

           -------------------------------------------------
          |                Property Printout                |
           -------------------------------------------------

    * Orbital Energies and Occupations

         #    Occupation            Energy/Eh            Energy/eV
      -------------------------------------------------------------
         1        2.0000           -0.7475250             -20.3412
       ...           ...                  ...                  ...
       201        2.0000           -0.4095988             -11.1458
       202        2.0000           -0.4061931             -11.0531
       203        2.0000           -0.4050932             -11.0231
       204        2.0000           -0.4034531             -10.9785
       205        2.0000           -0.4014093             -10.9229
       206        2.0000           -0.4006482             -10.9022
       207        2.0000           -0.3988589             -10.8535
       208        2.0000           -0.3972752             -10.8104
       209        2.0000           -0.3958311             -10.7711
       210        2.0000           -0.3940263             -10.7220
       211        2.0000           -0.3739018             -10.1744
       212        2.0000           -0.3670066              -9.9868
       213        2.0000           -0.3582591              -9.7487 (HOMO)
       214                         -0.2854435              -7.7673 (LUMO)
       215                         -0.2833588              -7.7106
       216                         -0.2619445              -7.1279
       217                         -0.2487190              -6.7680
       218                         -0.2416543              -6.5757
       219                         -0.2356445              -6.4122
       220                         -0.2289987              -6.2314
       221                         -0.2259183              -6.1475
       222                         -0.2241875              -6.1005
       223                         -0.2222870              -6.0487
       224                         -0.2217865              -6.0351
       ...                                ...                  ...
       389                          0.6638974              18.0656
      -------------------------------------------------------------
                  HL-Gap            0.0728156 Eh            1.9814 eV
             Fermi-level           -0.3220354 Eh           -8.7630 eV

   #   Z        covCN         q      C6AA      α(0)
   1   7 N      3.482    -0.149    24.222     7.310
   2   6 C      3.780    -0.038    21.274     6.571
   3   6 C      2.757     0.267    22.494     7.767
   4   8 O      0.860    -0.469    23.113     6.446
   5   6 C      3.835    -0.092    22.233     6.708
   6   6 C      3.792    -0.033    21.179     6.554
   7  16 S      1.970    -0.226   150.703    20.662
   8   6 C      3.744    -0.065    21.828     6.665
   9   1 H      0.859     0.312     0.678     1.290
  10   1 H      0.859     0.311     0.682     1.293
  11   1 H      0.859     0.302     0.706     1.317
  12   1 H      0.923     0.159     1.335     1.807
  13   1 H      0.924     0.109     1.705     2.042
  14   1 H      0.924     0.098     1.806     2.102
  15   1 H      0.925     0.083     1.950     2.184
  16   1 H      0.925     0.066     2.134     2.284
  17   1 H      0.925     0.055     2.254     2.348
  18   1 H      0.925     0.073     2.048     2.238
  19   1 H      0.925     0.048     2.339     2.392
  20   7 N      2.686    -0.161    24.483     7.349
  21   6 C      3.798     0.006    20.479     6.444
  22   6 C      2.758     0.279    22.272     7.728
  23   8 O      0.858    -0.476    23.251     6.465
  24   6 C      3.754    -0.145    23.354     6.891
  25   1 H      0.860     0.252     0.876     1.466
  26   1 H      0.924     0.093     1.851     2.128
  27   1 H      0.925     0.068     2.112     2.272
  28   1 H      0.925     0.089     1.890     2.150
  29   1 H      0.925     0.080     1.978     2.199
  30   7 N      2.687    -0.194    25.217     7.458
  31   6 C      3.798     0.018    20.269     6.410
  32   6 C      2.753     0.280    22.255     7.725
  33   8 O      0.858    -0.492    23.613     6.515
  34   6 C      3.808    -0.120    22.788     6.795
  35   6 C      2.744     0.295    21.994     7.679
  36   8 O      0.859    -0.496    23.700     6.527
  37   7 N      2.639    -0.293    27.547     7.795
  38   1 H      0.860     0.240     0.925     1.507
  39   1 H      0.923     0.071     2.070     2.250
  40   1 H      0.924     0.103     1.759     2.074
  41   1 H      0.925     0.099     1.793     2.094
  42   1 H      0.860     0.220     1.009     1.574
  43   1 H      0.860     0.239     0.928     1.509
  44   7 N      2.689    -0.180    24.909     7.413
  45   6 C      3.796     0.012    20.382     6.429
  46   6 C      2.755     0.280    22.253     7.725
  47   8 O      0.858    -0.518    24.184     6.593
  48   6 C      3.806    -0.100    22.404     6.738
  49   6 C      3.804    -0.069    21.810     6.649
  50   6 C      3.802    -0.085    22.126     6.697
  51   6 C      3.733    -0.046    21.485     6.616
  52   7 N      3.482    -0.152    24.283     7.319
  53   1 H      0.860     0.237     0.936     1.516
  54   1 H      0.924     0.073     2.050     2.239
  55   1 H      0.924     0.096     1.825     2.113
  56   1 H      0.924     0.098     1.802     2.099
  57   1 H      0.925     0.072     2.063     2.246
  58   1 H      0.924     0.036     2.498     2.472
  59   1 H      0.924     0.051     2.314     2.379
  60   1 H      0.924     0.081     1.973     2.197
  61   1 H      0.925     0.107     1.718     2.050
  62   1 H      0.924     0.114     1.666     2.018
  63   1 H      0.859     0.287     0.753     1.360
  64   1 H      0.857     0.280     0.775     1.379
  65   1 H      0.859     0.296     0.726     1.335
  66   7 N      2.692    -0.185    25.009     7.427
  67   6 C      3.796     0.029    20.094     6.383
  68   6 C      2.762     0.284    22.194     7.715
  69   8 O      0.858    -0.518    24.194     6.595
  70   6 C      3.757    -0.139    23.228     6.872
  71   1 H      0.860     0.253     0.870     1.461
  72   1 H      0.923     0.057     2.233     2.337
  73   1 H      0.925     0.059     2.215     2.327
  74   1 H      0.925     0.089     1.890     2.150
  75   1 H      0.925     0.086     1.917     2.165
  76   7 N      2.689    -0.186    25.032     7.431
  77   6 C      3.803     0.024    20.166     6.393
  78   6 C      2.769     0.280    22.255     7.726
  79   8 O      0.861    -0.513    24.084     6.580
  80   6 C      3.851    -0.021    20.919     6.505
  81   6 C      3.755    -0.124    22.943     6.830
  82   6 C      3.756    -0.115    22.753     6.801
  83   1 H      0.860     0.234     0.950     1.527
  84   1 H      0.923     0.065     2.141     2.288
  85   1 H      0.924     0.067     2.124     2.279
  86   1 H      0.925     0.068     2.107     2.270
  87   1 H      0.925     0.057     2.236     2.338
  88   1 H      0.925     0.035     2.519     2.482
  89   1 H      0.925     0.064     2.147     2.292
  90   1 H      0.925     0.030     2.589     2.516
  91   1 H      0.925     0.041     2.438     2.442
  92   7 N      2.688    -0.188    25.072     7.437
  93   6 C      3.820     0.044    19.825     6.337
  94   6 C      2.761     0.301    21.886     7.661
  95   8 O      0.858    -0.534    24.558     6.644
  96   6 C      3.812    -0.109    22.563     6.761
  97   6 C      2.748     0.293    22.028     7.685
  98   8 O      0.858    -0.503    23.855     6.548
  99   7 N      2.636    -0.302    27.787     7.829
 100   1 H      0.860     0.243     0.912     1.496
 101   1 H      0.924     0.052     2.298     2.370
 102   1 H      0.924     0.091     1.869     2.138
 103   1 H      0.925     0.084     1.939     2.177
 104   1 H      0.860     0.218     1.020     1.582
 105   1 H      0.860     0.237     0.937     1.516
 106   7 N      2.694    -0.198    25.299     7.470
 107   6 C      3.796     0.047    19.789     6.334
 108   6 C      2.756     0.277    22.313     7.735
 109   8 O      0.859    -0.523    24.295     6.608
 110   6 C      3.805    -0.101    22.430     6.742
 111   6 C      2.683     0.372    20.689     7.443
 112   8 O      0.856    -0.601    26.140     6.855
 113   8 O      0.857    -0.585    25.747     6.803
 114   1 H      0.860     0.229     0.969     1.542
 115   1 H      0.923     0.044     2.391     2.418
 116   1 H      0.924     0.049     2.334     2.389
 117   1 H      0.924     0.032     2.561     2.503
 118   7 N      2.689    -0.178    24.862     7.405
 119   6 C      3.792     0.043    19.862     6.347
 120   6 C      2.765     0.220    23.352     7.914
 121   8 O      0.856    -0.369    21.081     6.156
 122   6 C      3.812    -0.069    21.810     6.647
 123   6 C      2.968     0.009    27.820     8.652
 124   6 C      2.924    -0.038    28.946     8.823
 125   6 C      2.925    -0.040    28.990     8.830
 126   6 C      2.920    -0.031    28.785     8.798
 127   6 C      2.919    -0.032    28.796     8.800
 128   6 C      2.919    -0.034    28.846     8.807
 129   1 H      0.860     0.225     0.985     1.555
 130   1 H      0.924     0.073     2.048     2.238
 131   1 H      0.924     0.075     2.037     2.232
 132   1 H      0.924     0.063     2.165     2.301
 133   1 H      0.926     0.037     2.484     2.464
 134   1 H      0.926     0.032     2.555     2.499
 135   1 H      0.926     0.044     2.402     2.424
 136   1 H      0.926     0.043     2.408     2.427
 137   1 H      0.926     0.043     2.404     2.425
 138   7 N      2.633    -0.395    30.226     8.165
 139   6 C      3.784     0.035    20.002     6.371
 140   6 C      2.762     0.203    23.689     7.971
 141   8 O      0.856    -0.390    21.481     6.214
 142   6 C      3.850    -0.015    20.817     6.490
 143   6 C      3.754    -0.118    22.820     6.812
 144   6 C      3.756    -0.110    22.650     6.786
 145   1 H      0.860     0.173     1.254     1.754
 146   1 H      0.923     0.052     2.301     2.372
 147   1 H      0.924     0.053     2.286     2.364
 148   1 H      0.925     0.050     2.321     2.382
 149   1 H      0.925     0.059     2.216     2.328
 150   1 H      0.925     0.035     2.512     2.479
 151   1 H      0.925     0.038     2.476     2.461
 152   1 H      0.925     0.032     2.561     2.503
 153   1 H      0.925     0.039     2.466     2.456
 154   1 H      0.930     0.060     2.201     2.320
 155   1 H      0.862     0.186     1.181     1.702
 156   1 H      0.930     0.075     2.031     2.229

 Mol. C6AA /au·bohr⁶  :     230247.805474
 Mol. C8AA /au·bohr⁸  :    5259211.343814
 Mol. α(0) /au        :        721.618896


Wiberg/Mayer (AO) data.
largest (>0.10) Wiberg bond orders for each atom
          total WBO             WBO to atom ...
     1  N   3.658        C    2 0.955    H   11 0.889    H   10 0.888    H    9 0.885
     2  C   3.923        C    5 0.979    N    1 0.955    C    3 0.948    H   12 0.929
     3  C   3.952        O    4 1.604    N   20 1.320    C    2 0.948
     4  O   2.010        C    3 1.604    N   20 0.200
     5  C   3.976        C    6 1.013    C    2 0.979    H   14 0.962    H   13 0.956
     6  C   3.974        C    5 1.013    S    7 0.984    H   16 0.973    H   15 0.968
     7  S   2.087        C    8 1.011    C    6 0.984
     8  C   3.975        S    7 1.011    H   19 0.985    H   18 0.981    H   17 0.980
     9  H   0.902        N    1 0.885
    10  H   0.903        N    1 0.888
    11  H   0.909        N    1 0.889
    12  H   0.975        C    2 0.929
    13  H   0.988        C    5 0.956
    14  H   0.990        C    5 0.962
    15  H   0.993        C    6 0.968
    16  H   0.995        C    6 0.973
    17  H   0.997        C    8 0.980
    18  H   0.995        C    8 0.981
    19  H   0.998        C    8 0.985
    20  N   3.479        C    3 1.320    C   21 0.975    H   25 0.905    O    4 0.200
    21  C   3.964        C   24 0.996    N   20 0.975    H   26 0.947    C   22 0.936
    22  C   3.939        O   23 1.658    N   30 1.258    C   21 0.936
    23  O   2.001        C   22 1.658    N   30 0.184
    24  C   3.978        C   21 0.996    H   27 0.979    H   29 0.979    H   28 0.975
    25  H   0.936        N   20 0.905
    26  H   0.991        C   21 0.947
    27  H   0.995        C   24 0.979
    28  H   0.992        C   24 0.975
    29  H   0.994        C   24 0.979
    30  N   3.417        C   22 1.258    C   31 0.984    H   38 0.906    O   23 0.184
    31  C   3.972        N   30 0.984    C   34 0.971    H   39 0.946    C   32 0.931
    32  C   3.942        O   33 1.630    N   44 1.298    C   31 0.931
    33  O   1.988        C   32 1.630    N   44 0.191
    34  C   3.982        C   31 0.971    H   41 0.968    H   40 0.957    C   35 0.956
    35  C   3.940        O   36 1.667    N   37 1.295    C   34 0.956
    36  O   1.969        C   35 1.667    N   37 0.203
    37  N   3.386        C   35 1.295    H   42 0.931    H   43 0.924    O   36 0.203
    38  H   0.942        N   30 0.906
    39  H   0.995        C   31 0.946
    40  H   0.989        C   34 0.957
    41  H   0.990        C   34 0.968
    42  H   0.952        N   37 0.931
    43  H   0.943        N   37 0.924
    44  N   3.447        C   32 1.298    C   45 0.977    H   53 0.886    O   33 0.191
    45  C   3.962        C   48 0.980    N   44 0.977    H   54 0.955    C   46 0.928
    46  C   3.935        O   47 1.602    N   66 1.320    C   45 0.928
    47  O   1.971        C   46 1.602    N   66 0.196
    48  C   3.977        C   49 1.008    C   45 0.980    H   55 0.968    H   56 0.957
    49  C   3.992        C   48 1.008    C   50 1.004    H   58 0.973    H   57 0.971
    50  C   3.988        C   51 1.009    C   49 1.004    H   60 0.972    H   59 0.972
    51  C   3.905        C   50 1.009    H   61 0.968    H   62 0.949    N   52 0.948
    52  N   3.662        C   51 0.948    H   63 0.904    H   65 0.898    H   64 0.873
    53  H   0.944        N   44 0.886
    54  H   0.994        C   45 0.955
    55  H   0.991        C   48 0.968
    56  H   0.990        C   48 0.957
    57  H   0.994        C   49 0.971
    58  H   0.999        C   49 0.973
    59  H   0.997        C   50 0.972
    60  H   0.993        C   50 0.972
    61  H   0.988        C   51 0.968
    62  H   0.987        C   51 0.949
    63  H   0.917        N   52 0.904
    64  H   0.921        N   52 0.873
    65  H   0.913        N   52 0.898
    66  N   3.468        C   46 1.320    C   67 0.981    H   71 0.879    O   47 0.196
    67  C   3.969        C   70 0.992    N   66 0.981    H   72 0.954    C   68 0.941
    68  C   3.938        O   69 1.605    N   76 1.305    C   67 0.941
    69  O   1.951        C   68 1.605    N   76 0.189
    70  C   3.978        C   67 0.992    H   73 0.983    H   74 0.977    H   75 0.975
    71  H   0.935        N   66 0.879
    72  H   0.996        C   67 0.954
    73  H   0.996        C   70 0.983
    74  H   0.992        C   70 0.977
    75  H   0.993        C   70 0.975
    76  N   3.465        C   68 1.305    C   77 0.985    H   83 0.894    O   69 0.189
    77  C   3.964        N   76 0.985    C   80 0.963    H   84 0.944    C   78 0.936
    78  C   3.935        O   79 1.602    N   92 1.315    C   77 0.936
    79  O   1.962        C   78 1.602    N   92 0.194
    80  C   3.986        C   81 1.010    C   82 1.008    C   77 0.963    H   85 0.962
    81  C   3.992        C   80 1.010    H   88 0.986    H   86 0.982    H   87 0.974
    82  C   3.993        C   80 1.008    H   90 0.987    H   91 0.984    H   89 0.983
    83  H   0.945        N   76 0.894
    84  H   0.995        C   77 0.944
    85  H   0.995        C   80 0.962
    86  H   0.995        C   81 0.982
    87  H   0.997        C   81 0.974
    88  H   0.999        C   81 0.986
    89  H   0.995        C   82 0.983
    90  H   0.999        C   82 0.987
    91  H   0.998        C   82 0.984
    92  N   3.466        C   78 1.315    C   93 0.983    H  100 0.874    O   79 0.194
    93  C   3.973        N   92 0.983    C   96 0.971    H  101 0.956    C   94 0.930
    94  C   3.942        O   95 1.613    N  106 1.297    C   93 0.930
    95  O   1.921        C   94 1.613    N  106 0.184
    96  C   3.985        C   93 0.971    H  103 0.964    H  102 0.961    C   97 0.957
    97  C   3.943        O   98 1.655    N   99 1.299    C   96 0.957
    98  O   1.949        C   97 1.655    N   99 0.194
    99  N   3.363        C   97 1.299    H  104 0.930    H  105 0.879    O   98 0.194
   100  H   0.941        N   92 0.874
   101  H   0.997        C   93 0.956
   102  H   0.991        C   96 0.961
   103  H   0.993        C   96 0.964
   104  H   0.952        N   99 0.930
   105  H   0.944        N   99 0.879
   106  N   3.450        C   94 1.297    C  107 0.981    H  114 0.888    O   95 0.184
   107  C   3.967        C  110 0.985    N  106 0.981    H  115 0.954    C  108 0.934
   108  C   3.942        O  109 1.611    N  118 1.316    C  107 0.934
   109  O   1.928        C  108 1.611    N  118 0.194
   110  C   3.971        C  107 0.985    H  117 0.964    H  116 0.964    C  111 0.908
   111  C   3.942        O  113 1.537    O  112 1.461    C  110 0.908
   112  O   1.852        C  111 1.461    O  113 0.213
   113  O   1.855        C  111 1.537    O  112 0.213
   114  H   0.947        N  106 0.888
   115  H   0.997        C  107 0.954
   116  H   0.998        C  110 0.964
   117  H   0.998        C  110 0.964
   118  N   3.468        C  108 1.316    C  119 0.976    H  129 0.890    O  109 0.194
   119  C   3.965        N  118 0.976    C  120 0.973    C  122 0.954    H  130 0.949
   120  C   3.898        O  121 1.896    C  119 0.973    H  154 0.956
   121  O   2.036        C  120 1.896
   122  C   3.982        C  123 1.005    H  132 0.966    H  131 0.959    C  119 0.954
   123  C   3.986        C  125 1.417    C  124 1.412    C  122 1.005    C  128 0.110
   124  C   3.991        C  126 1.447    C  123 1.412    H  133 0.969    C  127 0.112
   125  C   3.991        C  127 1.442    C  123 1.417    H  134 0.968    C  126 0.111
   126  C   3.992        C  124 1.447    C  128 1.437    H  135 0.970    C  125 0.111
   127  C   3.992        C  125 1.442    C  128 1.441    H  136 0.970    C  124 0.112
   128  C   3.991        C  127 1.441    C  126 1.437    H  137 0.970    C  123 0.110
   129  H   0.949        N  118 0.890
   130  H   0.994        C  119 0.949
   131  H   0.994        C  122 0.959
   132  H   0.996        C  122 0.966
   133  H   0.999        C  124 0.969
   134  H   0.999        C  125 0.968
   135  H   0.998        C  126 0.970
   136  H   0.998        C  127 0.970
   137  H   0.998        C  128 0.970
   138  N   2.994        C  139 1.016    H  155 0.955    H  145 0.949
   139  C   3.984        N  138 1.016    C  140 0.977    H  146 0.955    C  142 0.947
   140  C   3.886        O  141 1.888    C  139 0.977    H  156 0.954
   141  O   2.025        C  140 1.888
   142  C   3.992        C  143 1.010    C  144 1.009    H  147 0.963    C  139 0.947
   143  C   3.994        C  142 1.010    H  150 0.986    H  148 0.984    H  149 0.980
   144  C   3.995        C  142 1.009    H  152 0.987    H  151 0.985    H  153 0.984
   145  H   0.970        N  138 0.949
   146  H   0.997        C  139 0.955
   147  H   0.997        C  142 0.963
   148  H   0.998        C  143 0.984
   149  H   0.997        C  143 0.980
   150  H   0.999        C  143 0.986
   151  H   0.999        C  144 0.985
   152  H   0.999        C  144 0.987
   153  H   0.999        C  144 0.984
   154  H   0.996        C  120 0.956
   155  H   0.965        N  138 0.955
   156  H   0.994        C  140 0.954
 
molecular dipole:
                 x           y           z       tot (Debye)
 q only:      101.109      49.940     -11.311
   full:      101.072      49.815     -12.005     288.034
molecular quadrupole (traceless):
                xx          xy          yy          xz          yz          zz
 q only:     9477.245    7490.069   -2075.075   -1958.486    -666.984   -7402.170
  q+dip:     9511.614    7464.745   -2083.827   -2073.427    -725.311   -7427.787
   full:     9510.772    7461.655   -2082.034   -2072.581    -726.730   -7428.738


           -------------------------------------------------
          | TOTAL ENERGY             -241.627847722325 Eh   |
          | GRADIENT NORM               0.255939812003 Eh/α |
          | HOMO-LUMO GAP               1.981413044080 eV   |
           -------------------------------------------------

------------------------------------------------------------------------
 * finished run on 2019/05/31 at 06:33:53.832     
------------------------------------------------------------------------
 total:
 * wall-time:     0 d,  0 h,  0 min,  1.775 sec
 *  cpu-time:     0 d,  0 h,  0 min,  3.455 sec
 * ratio c/w:     1.947 speedup
 SCF:
 * wall-time:     0 d,  0 h,  0 min,  1.500 sec
 *  cpu-time:     0 d,  0 h,  0 min,  2.998 sec
 * ratio c/w:     1.999 speedup

