      -----------------------------------------------------------      
     |                   =====================                   |     
     |                           x T B                           |     
     |                   =====================                   |     
     |                         S. Grimme                         |     
     |          Mulliken Center for Theoretical Chemistry        |     
     |                    University of Bonn                     |     
     |                 Version 6.0.1 (SAW181210)                 |     
      -----------------------------------------------------------      

   This program is distributed in the hope that it will be useful,
   but WITHOUT ANY WARRANTY; without even the implied warranty of
   MERCHANTABILITY or FITNESS FOR A PARTICULAR PURPOSE.
   
   FOR NON-COMMERCIAL, ACADEMIA USE ONLY.
   
   Cite this work as:
   S. Grimme, C. Bannwarth, P. Shushkov, J. Comput. Theory Chem., 2017,
   13, 1989-2009.
   C. Bannwarth, S. Ehlert and S. Grimme., ChemRxiv, 2018, preprint.
   http://doi.org/10.26434/chemrxiv.7246238.v1
   
   for sTDA-xTB:
   S. Grimme and C. Bannwarth, J. Chem. Phys., 2016, 145, 054103.
   
   in the mass-spec context:
   V. Asgeirsson, C. Bauer and S. Grimme, Chem. Sci., 2017, 8, 4879.
   
   if GBSA is used:
   P. Shushkov, F. März and S. Grimme, unpublished.
   
   for ANC optimizer:
   S. Grimme, unpublished.
   Rational Function algorithm used in ANCopt:
   F. Eckert, P. Pulay, H.-J. Werner, J. Comput. Chem., 1997, 18, 1473.
   
   with help from (in alphabetical order)
   C. Bannwarth, F. Bohle, G. Brandenburg, E. Caldeweyher, M. Checinski,
   S. Dohm, S. Ehlert, S. Ehrlich, F. März, H. Neugebauer, J. Pisarek,
   P. Pracht, P. Shushkov, and S. Spicher.
   
 * started run on 2019/03/07 at 11:37:44.871     
========================================================================
 # omp threads = 1
========================================================================
number of atoms            : 287
number of electrons        : 804
charge                     : -3
spin                       : .0
first test random number   : .7707
           ------------------------------------------------- 
          |                 G F N 2 - x T B                 |
          | Geometry, Frequencies, Noncovalent interactions |
          |            JCTC 2018 parametrisation            |
           ------------------------------------------------- 
 
      method parameters     
 k(s)        :  1.8500
 k(p)        :  2.2300
 k(d)        :  2.2300
 k(f)        :  2.0000
 kEN (H0ij)  : -2.0000
 D4 a1       :  0.5200
 D4 a2       :  5.0000
 D4 s6       :  1.0000
 D4 s8       :  2.7000
 D4 s9       :  5.0000
 alphaj      :  2.0000

 Solvent             : h2o
 Using internal parameter file: .param_gbsa2_h2o
 Gsolv ref. state (COSMO-RS): gsolv [1 M gas/solution]
 temperature (mdtemp)       :    298.150000000000     
 dielectric constant        :    80.2000000000000     
 rho                        :    1.00000000000000     
 mass                       :    18.0000000000000     
 surface tension            :    15.5689454083859     
 probe radius               :   0.975313790000000     
 vdW radii scaling          :    1.00000000000000     
 Gshift (Eh)                :   1.857443126794793E-003
 c1                         :    1.55243817000000     
 soset                      :   0.130326360000000     
 HB correction              :  T

            Z     q(EN)     CN     RAES       Cart. coordinates
     1  N   5.0   -0.26    3.26    1.97   236.89605   112.51050   270.34986
     2  C   4.0    0.03    4.34    4.28   237.51021   111.83209   267.76283
     3  C   4.0    0.06    3.25    3.04   237.71241   114.29629   266.31341
     4  O   6.0   -0.33    1.19    1.80   239.42639   114.54196   264.75061
     5  C   4.0   -0.05    4.40    4.38   235.48820   110.16157   266.54962
     6  C   4.0    0.15    3.30    3.05   235.50332   107.47816   267.56819
     7  O   6.0   -0.32    1.21    1.80   233.50966   106.39157   268.02928
     8  N   5.0   -0.25    3.26    1.97   237.72186   106.41047   267.92346
     9  H   1.0    0.09    1.08    1.44   235.48064   111.92658   270.89410
    10  H   1.0    0.04    1.13    1.45   239.07490   110.87967   267.72503
    11  H   1.0    0.04    1.09    1.44   233.83847   110.90613   266.83686
    12  H   1.0    0.04    1.09    1.44   235.74898   110.11811   264.73549
    13  H   1.0    0.11    1.09    1.44   237.80878   104.89302   268.49982
    14  H   1.0    0.10    1.10    1.44   239.08246   107.22872   267.57764
    15  N   5.0   -0.25    3.24    1.97   242.99230   117.36899   262.64923
    16  C   4.0    0.03    4.30    4.20   242.25531   118.29684   260.14156
    17  C   4.0    0.06    3.23    3.04   242.93183   121.05206   259.71449
    18  O   6.0   -0.31    1.12    1.80   243.07167   121.84008   257.51673
    19  C   4.0   -0.05    4.49    4.53   239.40182   118.05307   259.73905
    20  C   4.0   -0.03    4.31    4.21   238.22830   115.47548   259.27418
    21  C   4.0   -0.10    4.21    4.03   235.35025   115.74193   259.15702
    22  C   4.0   -0.08    4.23    4.07   239.29222   114.40779   256.82698
    23  H   1.0    0.12    1.11    1.45   241.74130   117.31230   263.68480
    24  H   1.0    0.04    1.14    1.45   243.18883   117.25561   258.95671
    25  H   1.0    0.04    1.10    1.44   238.58168   118.76739   261.21493
    26  H   1.0    0.05    1.11    1.45   238.95963   119.11699   258.31231
    27  H   1.0    0.06    1.13    1.45   238.63081   114.31897   260.63856
    28  H   1.0    0.04    1.05    1.44   234.59436   114.09787   258.86033
    29  H   1.0    0.03    1.05    1.44   234.73420   116.41846   260.74439
    30  H   1.0    0.04    1.06    1.44   234.89671   116.87766   257.79263
    31  H   1.0    0.05    1.06    1.44   238.55711   112.75995   256.50762
    32  H   1.0    0.05    1.06    1.44   238.88782   115.53595   255.43993
    33  H   1.0    0.05    1.06    1.44   241.11202   114.24716   256.97060
    34  N   5.0   -0.24    3.22    1.96   248.84667   119.81618   258.49372
    35  C   4.0    0.03    4.21    4.02   248.80321   118.61243   255.98228
    36  C   4.0    0.08    3.20    3.04   248.40826   120.67034   253.96405
    37  O   6.0   -0.32    1.17    1.80   249.52130   120.57018   251.93826
    38  C   4.0   -0.08    4.21    4.02   246.69805   116.62633   255.89157
    39  H   1.0    0.10    1.08    1.44   247.59945   119.44580   259.46693
    40  H   1.0    0.05    1.12    1.45   250.39247   117.76205   255.65158
    41  H   1.0    0.06    1.05    1.44   246.67349   115.83642   254.23806
    42  H   1.0    0.04    1.05    1.44   247.00419   115.35076   257.17280
    43  H   1.0    0.05    1.06    1.44   245.08234   117.43324   256.20715
    44  N   5.0   -0.23    3.25    1.97   254.55364   123.13454   252.85856
    45  C   4.0    0.04    4.43    4.44   255.99173   121.25049   251.41103
    46  C   4.0    0.15    3.45    3.10   255.34544   121.39033   248.65392
    47  O   6.0   -0.31    1.23    1.80   256.99706   121.79095   247.05521
    48  C   4.0   -0.04    4.41    4.39   255.60433   118.56896   252.39936
    49  C   4.0    0.15    3.29    3.05   256.70037   118.20803   255.05820
    50  O   6.0   -0.32    1.23    1.80   257.94003   119.85587   256.06165
    51  N   5.0   -0.25    3.23    1.96   256.15235   116.04051   256.17881
    52  H   1.0    0.11    1.08    1.44   253.69193   122.49771   254.07932
    53  H   1.0    0.05    1.14    1.45   257.76618   121.65867   251.63024
    54  H   1.0    0.06    1.09    1.44   253.81287   118.18346   252.42392
    55  H   1.0    0.04    1.09    1.44   256.39235   117.37844   251.25040
    56  H   1.0    0.11    1.09    1.44   256.68148   115.74949   257.68681
    57  H   1.0    0.10    1.09    1.44   255.26796   114.92368   255.39835
    58  N   5.0   -0.17    3.50    2.08   252.93415   120.88010   248.05677
    59  C   4.0    0.04    4.29    4.19   251.94393   120.97648   245.46595
    60  C   4.0    0.09    3.24    3.04   252.67526   123.51816   244.26409
    61  O   6.0   -0.30    1.12    1.80   253.46138   123.60886   242.09468
    62  C   4.0   -0.08    4.19    3.98   249.04509   120.66089   245.48674
    63  H   1.0    0.12    1.17    1.46   251.81732   120.46436   249.16226
    64  H   1.0    0.05    1.12    1.45   252.66392   119.60831   244.48140
    65  H   1.0    0.05    1.05    1.44   248.41015   120.72703   243.76898
    66  H   1.0    0.05    1.05    1.44   248.61046   119.04518   246.23507
    67  H   1.0    0.05    1.05    1.44   248.28920   122.01205   246.46940
    68  N   5.0   -0.24    3.24    1.96   261.91791   104.99884   240.59613
    69  C   4.0    0.03    4.41    4.40   259.38945   104.39413   241.58068
    70  C   4.0    0.15    3.46    3.10   258.57876   106.45393   243.41938
    71  O   6.0   -0.32    1.29    1.80   259.68425   106.78841   245.41115
    72  C   4.0    0.06    4.30    4.20   259.38567   101.76741   242.96207
    73  O   6.0   -0.29    2.15    1.85   260.95604   101.90914   245.16927
    74  C   4.0   -0.08    4.18    3.95   260.26062    99.66604   241.19895
    75  H   1.0    0.10    1.08    1.44   263.10654   104.06532   241.19139
    76  H   1.0    0.05    1.13    1.45   258.21593   104.30342   240.17472
    77  H   1.0    0.05    1.10    1.44   257.67169   101.36490   243.47418
    78  H   1.0    0.17    1.13    1.45   260.97682   103.40202   245.70973
    79  H   1.0    0.04    1.05    1.44   260.24172    98.06733   242.09468
    80  H   1.0    0.06    1.06    1.44   259.13434    99.56966   239.75520
    81  H   1.0    0.04    1.06    1.44   261.96326   100.02130   240.62069
    82  N   5.0   -0.16    3.51    2.08   256.63045   107.85800   242.70317
    83  C   4.0    0.04    4.66    4.72   255.69882   109.90268   244.36802
    84  C   4.0    0.15    3.48    3.11   253.43304   108.85577   245.75697
    85  O   6.0   -0.31    1.28    1.80   251.58488   108.07343   244.58912
    86  C   4.0   -0.02    4.48    4.50   255.13946   112.32342   242.99608
    87  C   4.0   -0.06    4.33    4.25   257.49595   113.26450   241.56367
    88  C   4.0   -0.09    4.27    4.15   254.25129   114.32275   244.81967
    89  C   4.0   -0.09    4.17    3.93   259.88645   113.29474   243.16049
    90  H   1.0    0.12    1.14    1.45   255.82543   107.68225   241.30289
    91  H   1.0    0.05    1.16    1.46   257.01029   110.39212   245.55099
    92  H   1.0    0.06    1.14    1.45   253.80720   111.99272   241.78288
    93  H   1.0    0.05    1.09    1.44   257.76996   112.19492   240.10102
    94  H   1.0    0.04    1.09    1.44   257.17658   114.95770   240.93817
    95  H   1.0    0.04    1.06    1.44   253.89791   115.87233   243.90504
    96  H   1.0    0.05    1.06    1.44   252.72628   113.75016   245.66059
    97  H   1.0    0.05    1.06    1.44   255.55709   114.63456   246.06877
    98  H   1.0    0.03    1.05    1.44   261.29052   113.90323   242.14948
    99  H   1.0    0.04    1.06    1.44   259.64646   114.40212   244.60046
   100  H   1.0    0.05    1.06    1.44   260.24928   111.59777   243.75008
   101  N   5.0   -0.16    3.48    2.07   253.60311   108.80664   248.26275
   102  C   4.0    0.04    4.50    4.54   251.61512   107.90524   249.93515
   103  C   4.0    0.15    3.49    3.11   249.55343   109.88001   250.17704
   104  O   6.0   -0.31    1.24    1.80   250.00696   111.95681   251.11812
   105  C   4.0   -0.05    4.40    4.38   252.67526   107.35155   252.55998
   106  C   4.0   -0.04    4.30    4.20   250.73451   106.36889   254.49506
   107  C   4.0    0.16    3.29    3.05   249.82744   103.71572   253.96027
   108  O   6.0   -0.30    1.23    1.80   251.15592   102.21150   252.79431
   109  N   5.0   -0.23    3.23    1.96   247.51819   103.06754   254.78230
   110  H   1.0    0.09    1.14    1.45   254.92592   109.31498   249.06021
   111  H   1.0    0.05    1.15    1.45   250.92348   106.36700   249.21517
   112  H   1.0    0.05    1.09    1.44   254.01885   106.11378   252.39936
   113  H   1.0    0.05    1.09    1.44   253.43493   108.88412   253.21950
   114  H   1.0    0.04    1.09    1.44   251.48284   106.41803   256.16747
   115  H   1.0    0.06    1.10    1.44   249.29076   107.49895   254.51963
   116  H   1.0    0.13    1.11    1.44   246.61302   104.14469   255.59677
   117  H   1.0    0.14    1.08    1.44   246.94372   101.57466   254.49506
   118  N   5.0   -0.17    3.53    2.10   247.33678   109.24506   249.16604
   119  C   4.0    0.03    4.57    4.63   245.20328   110.96849   249.23407
   120  C   4.0    0.16    3.47    3.10   242.91293   109.86678   250.56632
   121  O   6.0   -0.30    1.25    1.80   241.31611   111.21415   251.47339
   122  C   4.0   -0.02    4.38    4.34   244.39070   111.79241   246.52987
   123  C   4.0   -0.08    4.22    4.04   246.59601   113.05285   245.12958
   124  C   4.0   -0.08    4.27    4.14   243.49308   109.50395   245.06911
   125  H   1.0    0.10    1.13    1.45   247.03820   107.82398   248.43471
   126  H   1.0    0.06    1.14    1.45   245.79099   112.41980   250.18649
   127  H   1.0    0.05    1.12    1.45   243.02821   113.00939   246.66971
   128  H   1.0    0.04    1.06    1.44   246.04988   113.55174   243.45150
   129  H   1.0    0.05    1.05    1.44   247.14403   114.53440   246.05933
   130  H   1.0    0.06    1.06    1.44   247.98874   111.86989   244.99163
   131  H   1.0    0.04    1.06    1.44   242.98663   110.01418   243.38347
   132  H   1.0    0.05    1.06    1.44   244.85368   108.27941   244.95384
   133  H   1.0    0.05    1.06    1.44   242.06445   108.74806   245.93271
   134  N   5.0   -0.15    3.47    2.06   242.73908   107.33832   250.64569
   135  C   4.0    0.02    4.36    4.31   240.69061   106.12323   251.99496
   136  C   4.0    0.16    3.37    3.07   241.37092   105.70749   254.76151
   137  O   6.0   -0.30    1.27    1.80   243.45150   106.41425   255.58921
   138  H   1.0    0.11    1.14    1.45   243.78599   106.32165   249.93137
   139  H   1.0    0.06    1.09    1.44   239.17883   107.15502   251.87968
   140  H   1.0    0.06    1.09    1.44   240.30322   104.51507   251.20694
   141  N   5.0   -0.17    3.53    2.10   239.63237   104.56610   256.17692
   142  C   4.0    0.03    4.43    4.43   240.05000   104.01996   258.82254
   143  C   4.0    0.15    3.43    3.09   240.65282   101.19860   259.18725
   144  O   6.0   -0.29    1.22    1.80   241.24997   100.36335   261.30375
   145  C   4.0   -0.08    4.22    4.04   237.72186   104.70971   260.37400
   146  H   1.0    0.11    1.14    1.45   238.18106   104.09177   255.61756
   147  H   1.0    0.06    1.13    1.45   241.47296   105.02341   259.39701
   148  H   1.0    0.06    1.06    1.44   238.02988   104.33366   262.14089
   149  H   1.0    0.04    1.06    1.44   237.36848   106.49740   260.18314
   150  H   1.0    0.05    1.06    1.44   236.28377   103.73651   259.78441
   151  N   5.0   -0.15    3.54    2.10   240.55077    99.75485   257.13312
   152  C   4.0    0.04    4.48    4.51   241.03454    97.05444   257.22761
   153  C   4.0    0.15    3.44    3.09   243.11324    96.30421   255.34733
   154  O   6.0   -0.29    1.23    1.80   243.79354    97.77442   253.62579
   155  C   4.0   -0.04    4.40    4.37   238.62892    95.55588   256.69659
   156  C   4.0    0.17    3.29    3.05   236.46141    96.13225   258.52774
   157  O   6.0   -0.30    1.21    1.80   236.53133    95.41226   260.69903
   158  N   5.0   -0.24    3.24    1.96   234.51877    97.37758   257.56209
   159  H   1.0    0.11    1.15    1.45   240.19929   100.31799   255.64969
   160  H   1.0    0.07    1.14    1.45   241.60902    96.65192   258.92080
   161  H   1.0    0.05    1.10    1.44   238.07334    95.90926   254.98639
   162  H   1.0    0.05    1.09    1.44   239.01443    93.76631   256.77596
   163  H   1.0    0.11    1.09    1.44   233.22620    97.71017   258.48805
   164  H   1.0    0.13    1.10    1.44   234.54901    97.85379   256.00873
   165  N   5.0   -0.15    3.51    2.09   244.12614    94.02142   255.64780
   166  C   4.0    0.04    4.48    4.51   246.07255    93.03121   253.96405
   167  C   4.0    0.15    3.50    3.11   244.90848    92.76665   251.33922
   168  O   6.0   -0.30    1.28    1.80   242.64081    92.36602   251.14080
   169  C   4.0   -0.05    4.37    4.32   246.99663    90.45362   254.93537
   170  C   4.0    0.24    3.15    3.03   248.34967    90.61047   257.45815
   171  O   6.0   -0.31    1.18    1.80   250.66459    90.98086   257.48083
   172  O   6.0   -0.31    1.18    1.80   247.07411    90.27788   259.41024
   173  H   1.0    0.10    1.14    1.45   243.70095    93.00097   256.83832
   174  H   1.0    0.06    1.12    1.45   247.51442    94.16126   253.90169
   175  H   1.0    0.05    1.09    1.44   245.56233    89.32357   255.09411
   176  H   1.0    0.04    1.09    1.44   248.12669    89.71474   253.69382
   177  N   5.0   -0.17    3.39    2.02   246.39003    93.18050   249.33989
   178  C   4.0    0.01    4.37    4.33   245.32989    92.93861   246.84734
   179  C   4.0    0.15    3.33    3.06   244.08078    95.23841   245.66248
   180  O   6.0   -0.31    1.22    1.80   243.89370    95.47840   243.35324
   181  H   1.0    0.09    1.12    1.45   247.96228    93.58868   249.40225
   182  H   1.0    0.04    1.10    1.44   246.66971    92.38870   245.72295
   183  H   1.0    0.05    1.11    1.44   244.08645    91.59313   246.89836
   184  N   5.0   -0.16    3.48    2.06   243.16049    97.00530   247.24985
   185  C   4.0    0.03    4.44    4.45   241.92272    99.29943   246.32200
   186  C   4.0    0.15    3.43    3.09   243.80488   101.45561   245.89492
   187  O   6.0   -0.32    1.30    1.80   243.70662   103.39636   247.16482
   188  C   4.0   -0.04    4.43    4.44   239.95173   100.24996   248.25330
   189  C   4.0   -0.04    4.27    4.15   238.03744    98.38102   249.26619
   190  C   4.0    0.24    3.14    3.03   236.27999    99.54698   251.23340
   191  O   6.0   -0.31    1.21    1.80   236.83746   101.61812   252.20660
   192  O   6.0   -0.32    1.18    1.80   234.27877    98.38102   251.72283
   193  H   1.0    0.12    1.13    1.45   243.24174    96.89759   248.86935
   194  H   1.0    0.05    1.13    1.45   241.13092    98.84778   244.73085
   195  H   1.0    0.07    1.11    1.44   240.86069   100.94916   249.68193
   196  H   1.0    0.05    1.10    1.44   239.02955   101.63135   247.47662
   197  H   1.0    0.04    1.09    1.44   237.03777    97.72529   247.87535
   198  H   1.0    0.06    1.09    1.44   238.91805    96.95617   250.01074
   199  N   5.0   -0.15    3.46    2.06   245.56611   101.14947   244.07889
   200  C   4.0    0.04    4.54    4.59   247.43694   103.14124   243.60835
   201  C   4.0    0.15    3.44    3.09   247.51442   104.06910   240.89282
   202  O   6.0   -0.29    1.23    1.80   246.22751   102.98440   239.25631
   203  C   4.0    0.06    4.35    4.29   250.12224   102.34189   244.35101
   204  O   6.0   -0.26    2.15    1.85   250.75718   100.03264   243.11702
   205  C   4.0   -0.06    4.18    3.97   250.47751   102.15858   247.22151
   206  H   1.0    0.12    1.12    1.45   245.70028    99.83800   243.13025
   207  H   1.0    0.05    1.16    1.45   246.86435   104.51696   244.67605
   208  H   1.0    0.06    1.12    1.45   251.27686   103.65147   243.78977
   209  H   1.0    0.14    1.08    1.44   252.22928    99.60179   243.52520
   210  H   1.0    0.06    1.05    1.44   252.19905   101.64836   247.59378
   211  H   1.0    0.05    1.07    1.44   250.14680   103.79131   247.98496
   212  H   1.0    0.07    1.05    1.44   249.31343   100.91892   247.90370
   213  N   5.0   -0.16    3.54    2.10   248.83344   106.14213   240.42416
   214  C   4.0    0.03    4.60    4.67   249.12068   107.29486   237.96563
   215  C   4.0    0.16    3.51    3.12   251.89480   107.59533   237.42895
   216  O   6.0   -0.31    1.29    1.80   253.18359   109.06553   238.65916
   217  C   4.0   -0.02    4.48    4.51   247.86590   109.92725   237.85225
   218  C   4.0   -0.06    4.33    4.26   245.04832   109.70804   238.40216
   219  C   4.0   -0.09    4.26    4.12   248.40826   111.12344   235.30301
   220  C   4.0   -0.10    4.15    3.90   243.78032   112.22327   238.85758
   221  H   1.0    0.12    1.17    1.46   249.62146   106.94904   241.59390
   222  H   1.0    0.05    1.14    1.45   248.30810   106.21583   236.72597
   223  H   1.0    0.05    1.13    1.45   248.56888   111.02518   239.14104
   224  H   1.0    0.04    1.09    1.44   244.22818   108.87089   236.99242
   225  H   1.0    0.05    1.10    1.44   244.80644   108.64223   239.87425
   226  H   1.0    0.04    1.06    1.44   247.62213   112.77695   235.22364
   227  H   1.0    0.05    1.06    1.44   250.22050   111.29730   235.08191
   228  H   1.0    0.04    1.06    1.44   247.72984   110.06142   233.97264
   229  H   1.0    0.03    1.06    1.44   241.99831   111.95870   239.19584
   230  H   1.0    0.04    1.06    1.44   244.55888   113.04908   240.29755
   231  H   1.0    0.04    1.06    1.44   243.96929   113.28151   237.37226
   232  N   5.0   -0.14    3.51    2.08   252.82643   106.11567   235.62993
   233  C   4.0    0.03    4.41    4.39   255.51551   106.06654   234.92695
   234  C   4.0    0.06    3.21    3.04   256.25629   107.77674   232.72731
   235  O   6.0   -0.32    1.12    1.80   254.94104   107.88445   230.78845
   236  C   4.0   -0.05    4.35    4.30   256.33944   103.39825   234.34869
   237  C   4.0    0.24    3.14    3.03   255.63835   101.47639   236.45007
   238  O   6.0   -0.29    1.22    1.80   254.69537   102.27008   238.46263
   239  O   6.0   -0.32    1.17    1.80   256.06731    99.21061   236.07968
   240  H   1.0    0.10    1.13    1.45   251.90992   105.09144   234.76254
   241  H   1.0    0.05    1.14    1.45   256.38479   106.73550   236.39527
   242  H   1.0    0.05    1.09    1.44   255.57410   102.86534   232.77077
   243  H   1.0    0.03    1.09    1.44   258.15546   103.37368   234.09736
   244  N   5.0   -0.26    3.26    1.97   243.26820   119.39666   233.70052
   245  C   4.0    0.02    4.34    4.28   243.80866   120.29051   236.21952
   246  C   4.0    0.06    3.23    3.04   241.71863   122.10086   237.06423
   247  O   6.0   -0.31    1.12    1.80   240.70195   121.82307   239.14104
   248  C   4.0   -0.05    4.42    4.42   246.32956   121.68512   236.24031
   249  C   4.0   -0.02    3.58    3.15   248.54243   120.09775   237.12659
   250  C   4.0   -0.05    3.52    3.12   250.97639   120.95191   236.75243
   251  C   4.0   -0.05    3.54    3.13   248.19850   117.81118   238.37948
   252  C   4.0   -0.04    3.46    3.10   253.02864   119.54784   237.60469
   253  C   4.0   -0.05    3.43    3.09   250.28475   116.39767   239.26576
   254  C   4.0   -0.05    3.44    3.09   252.68471   117.30285   238.86703
   255  H   1.0    0.09    1.09    1.44   244.40771   119.79729   232.61393
   256  H   1.0    0.04    1.14    1.45   243.89370   118.85998   237.36092
   257  H   1.0    0.03    1.10    1.44   246.68105   122.29928   234.54901
   258  H   1.0    0.04    1.10    1.44   246.18405   123.15533   237.32501
   259  H   1.0    0.04    1.10    1.44   251.24662   122.47881   235.92473
   260  H   1.0    0.05    1.10    1.44   246.56955   117.20269   238.63837
   261  H   1.0    0.05    1.10    1.44   254.65947   120.13744   237.31556
   262  H   1.0    0.05    1.09    1.44   250.03531   114.87455   240.10669
   263  H   1.0    0.05    1.10    1.44   254.07365   116.39956   239.44906
   264  N   5.0   -0.24    3.22    1.96   235.81890   118.61999   238.44940
   265  C   4.0    0.03    4.21    4.02   236.02299   117.48993   240.95140
   266  C   4.0    0.08    3.20    3.04   235.44663   119.49682   242.96207
   267  O   6.0   -0.31    1.12    1.80   234.07279   118.99415   244.72896
   268  C   4.0   -0.09    4.18    3.95   238.72719   116.39011   241.36903
   269  H   1.0    0.10    1.08    1.44   237.14738   118.46881   237.52532
   270  H   1.0    0.04    1.12    1.45   234.81357   116.11988   241.08935
   271  H   1.0    0.05    1.05    1.44   238.83301   115.64556   243.04143
   272  H   1.0    0.03    1.05    1.44   239.06734   115.10510   240.10669
   273  H   1.0    0.06    1.05    1.44   239.96496   117.73371   241.21974
   274  H   1.0    0.08    1.08    1.44   238.10118   111.91806   271.39352
   275  H   1.0    0.04    1.04    1.44   236.47055   115.68457   266.63208
   276  H   1.0    0.10    1.08    1.44   243.62663   115.79719   262.50914
   277  H   1.0    0.04    1.04    1.43   243.25300   122.18606   261.19163
   278  H   1.0    0.09    1.07    1.44   250.25692   119.35016   259.32233
   279  H   1.0    0.06    1.04    1.44   247.23150   122.11018   254.30044
   280  H   1.0    0.09    1.07    1.44   255.62453   124.27101   253.53251
   281  H   1.0    0.05    1.04    1.44   252.50944   125.11624   245.25892
   282  H   1.0    0.08    1.07    1.44   261.93084   104.80396   238.90663
   283  H   1.0    0.04    1.04    1.43   257.82077   108.83113   232.83554
   284  H   1.0    0.08    1.08    1.44   243.15042   117.70004   233.71322
   285  H   1.0    0.04    1.04    1.43   241.17570   123.51198   235.93064
   286  H   1.0    0.08    1.08    1.44   234.54237   117.88675   237.59769
   287  H   1.0    0.05    1.04    1.44   236.20307   121.22259   242.81856

  Z AO/shell   Hii/eV     exponent
  1     Wed Apr 25 08:07:45 CEST 2018   EN: 2.200 GM2: 0.406  GM3: 0.0800  RAES: 1.40
     1s    -10.707211    1.230000
  6     Wed Apr 25 08:07:45 CEST 2018   EN: 2.550 GM2: 0.538  GM3: 0.1500  RAES: 3.00
     2s    -13.970922    2.096432
     2p    -10.063292    1.800000
  7     Wed Apr 25 08:07:45 CEST 2018   EN: 3.040 GM2: 0.461  GM3:-0.0640  RAES: 1.90
     2s    -16.686243    2.339881
     2p    -12.523956    2.014332
  8     Wed Apr 25 08:07:45 CEST 2018   EN: 3.440 GM2: 0.452  GM3:-0.0517  RAES: 1.80
     2s    -20.229985    2.439742
     2p    -15.503117    2.137023
 no old-style atom pair restraining (fixing) potential

molecular fragmentation (1/2 indicates fragments):
111111111111112222222222222222222222222222222222222222222222222222222222
222222222222222222222222222222222222222222222222222222222222222222222222
222222222222222222222222222222222222222222222222222222222222222222222222
22222222222222222222222222222222222222222222222222222222211222222222222
# atoms in fragment 1/2:    16   271
 fragment masses (1/2) :      116.12     1911.11
CMA distance (Bohr)    :  22.552
constraining FC (au)   :  0.0500
           ------------------------------------------------- 
          |        Self-Consistent Charge Iterations        |
           ------------------------------------------------- 

 Ncao       : 713
 Nao        : 713
 Nshell     : 429
 Nel        : 804
 T(el)      :   500.0
 intcut     :    35.0
 scfconv/Eh :  0.100E-06
   qconv/e  :  0.100E-04
 intneglect :  0.100E-08
 broydamp   :      0.400
 iter      E             dE          RMSdq      gap      omega  full diag
   1   -465.3801087 -0.465380E+03  0.495E+00    3.42       0.0  T
   2   -466.7834392 -0.140333E+01  0.224E+00    1.71       1.0  T
   3   -466.8695471 -0.861079E-01  0.135E+00    1.89       1.0  T
   4   -466.9401610 -0.706139E-01  0.253E-01    1.28       1.0  T
   5   -466.9459940 -0.583309E-02  0.122E-01    1.52       1.0  T
   6   -466.9466205 -0.626436E-03  0.545E-02    1.48       1.0  T
   7   -466.9467733 -0.152861E-03  0.188E-02    1.47       1.0  T
   8   -466.9467876 -0.143002E-04  0.891E-03    1.44       1.0  T
   9   -466.9467925 -0.486905E-05  0.378E-03    1.44       1.6  T
  10   -466.9467933 -0.775346E-06  0.157E-03    1.43       3.8  T
  11   -466.9467935 -0.181766E-06  0.628E-04    1.43       9.4  T
  12   -466.9467935 -0.191852E-07  0.310E-04    1.43      19.1  T
  13   -466.9467935 -0.507453E-08  0.140E-04    1.43      42.0  T
  14   -466.9467935 -0.133701E-08  0.605E-05    1.43      97.6  T
  15   -466.9467935 -0.149896E-09  0.240E-05    1.43     246.2  T
speedup  1.00
cpu  time for SCC    3.00 s
wall time for SCC    3.00 s

   *** convergence criteria satisfied after 15 iterations ***

          eigenvalues
 #    :         390        391        392        393        394        395        396        397
 occ. :        2.000      2.000      2.000      2.000      2.000      2.000      2.000      2.000
 eps  :       -10.404    -10.387    -10.342    -10.291    -10.228    -10.202    -10.121    -10.107
 #    :         398        399        400        401        402        403        404        405
 occ. :        2.000      2.000      2.000      2.000      2.000      0.000      0.000      0.000
 eps  :       -10.012     -9.901     -9.826     -9.790     -9.741     -8.307     -7.886     -7.609
 #    :         406        407        408        409        410        411        412        413
 occ. :        0.000      0.000      0.000      0.000      0.000      0.000      0.000      0.000
 eps  :        -7.532     -7.512     -7.493     -7.323     -6.974     -6.841     -6.662     -6.615


   #   Z            q   n(s)   n(p)   n(d)      C6AA      α(0)
   1   7 N     -0.412  1.280  4.132  0.000    30.704     8.230
   2   6 C      0.028  1.032  2.941  0.000    20.120     6.388
   3   6 C      0.189  1.094  2.717  0.000    23.948     8.015
   4   8 O     -0.368  1.757  4.611  0.000    21.050     6.151
   5   6 C     -0.126  1.018  3.107  0.000    22.889     6.808
   6   6 C      0.289  1.031  2.680  0.000    22.102     7.698
   7   8 O     -0.508  1.759  4.749  0.000    23.961     6.563
   8   7 N     -0.295  1.192  4.103  0.000    27.595     7.802
   9   1 H      0.192  0.808  0.000  0.000     1.148     1.678
  10   1 H      0.076  0.924  0.000  0.000     2.022     2.224
  11   1 H      0.098  0.902  0.000  0.000     1.806     2.102
  12   1 H      0.089  0.911  0.000  0.000     1.891     2.150
  13   1 H      0.236  0.764  0.000  0.000     0.941     1.519
  14   1 H      0.233  0.767  0.000  0.000     0.950     1.527
  15   7 N     -0.425  1.288  4.136  0.000    31.070     8.278
  16   6 C      0.021  1.036  2.943  0.000    20.234     6.407
  17   6 C      0.190  1.094  2.716  0.000    23.931     8.012
  18   8 O     -0.388  1.765  4.623  0.000    21.444     6.209
  19   6 C     -0.090  1.012  3.078  0.000    22.188     6.702
  20   6 C     -0.025  1.033  2.992  0.000    20.975     6.514
  21   6 C     -0.152  0.979  3.173  0.000    23.474     6.904
  22   6 C     -0.148  0.977  3.171  0.000    23.385     6.890
  23   1 H      0.197  0.803  0.000  0.000     1.119     1.657
  24   1 H      0.078  0.922  0.000  0.000     1.998     2.211
  25   1 H      0.064  0.936  0.000  0.000     2.152     2.294
  26   1 H      0.059  0.941  0.000  0.000     2.214     2.327
  27   1 H      0.057  0.943  0.000  0.000     2.232     2.336
  28   1 H      0.051  0.949  0.000  0.000     2.304     2.373
  29   1 H      0.056  0.944  0.000  0.000     2.242     2.341
  30   1 H      0.055  0.945  0.000  0.000     2.258     2.350
  31   1 H      0.042  0.958  0.000  0.000     2.416     2.430
  32   1 H      0.054  0.946  0.000  0.000     2.268     2.355
  33   1 H      0.046  0.954  0.000  0.000     2.371     2.408
  34   7 N     -0.416  1.283  4.133  0.000    30.819     8.245
  35   6 C      0.028  1.036  2.936  0.000    20.120     6.389
  36   6 C      0.195  1.099  2.706  0.000    23.843     7.997
  37   8 O     -0.366  1.744  4.622  0.000    21.015     6.146
  38   6 C     -0.147  0.980  3.167  0.000    23.380     6.891
  39   1 H      0.181  0.819  0.000  0.000     1.207     1.721
  40   1 H      0.068  0.932  0.000  0.000     2.105     2.269
  41   1 H      0.060  0.940  0.000  0.000     2.193     2.315
  42   1 H      0.069  0.931  0.000  0.000     2.093     2.262
  43   1 H      0.071  0.929  0.000  0.000     2.077     2.253
  44   7 N     -0.413  1.280  4.133  0.000    30.751     8.236
  45   6 C      0.030  1.028  2.942  0.000    20.068     6.379
  46   6 C      0.267  1.047  2.686  0.000    22.496     7.767
  47   8 O     -0.514  1.759  4.755  0.000    24.095     6.581
  48   6 C     -0.131  1.018  3.114  0.000    23.005     6.826
  49   6 C      0.289  1.033  2.678  0.000    22.108     7.699
  50   8 O     -0.491  1.744  4.747  0.000    23.586     6.511
  51   7 N     -0.306  1.195  4.111  0.000    27.872     7.841
  52   1 H      0.179  0.821  0.000  0.000     1.219     1.729
  53   1 H      0.070  0.930  0.000  0.000     2.088     2.259
  54   1 H      0.089  0.911  0.000  0.000     1.892     2.151
  55   1 H      0.080  0.920  0.000  0.000     1.982     2.201
  56   1 H      0.244  0.756  0.000  0.000     0.907     1.491
  57   1 H      0.226  0.774  0.000  0.000     0.981     1.552
  58   7 N     -0.189  1.218  3.971  0.000    25.093     7.440
  59   6 C      0.017  1.042  2.941  0.000    20.298     6.416
  60   6 C      0.207  1.085  2.708  0.000    23.607     7.957
  61   8 O     -0.359  1.752  4.607  0.000    20.887     6.127
  62   6 C     -0.161  0.985  3.176  0.000    23.651     6.931
  63   1 H      0.242  0.758  0.000  0.000     0.915     1.498
  64   1 H      0.094  0.906  0.000  0.000     1.844     2.123
  65   1 H      0.086  0.914  0.000  0.000     1.918     2.165
  66   1 H      0.085  0.915  0.000  0.000     1.929     2.172
  67   1 H      0.088  0.912  0.000  0.000     1.902     2.157
  68   7 N     -0.411  1.282  4.129  0.000    30.681     8.226
  69   6 C      0.012  1.041  2.947  0.000    20.382     6.430
  70   6 C      0.270  1.044  2.686  0.000    22.431     7.756
  71   8 O     -0.495  1.734  4.760  0.000    23.664     6.522
  72   6 C      0.116  1.026  2.858  0.000    18.780     6.188
  73   8 O     -0.510  1.679  4.831  0.000    23.097     6.488
  74   6 C     -0.145  0.976  3.168  0.000    23.330     6.884
  75   1 H      0.196  0.804  0.000  0.000     1.127     1.663
  76   1 H      0.043  0.957  0.000  0.000     2.410     2.427
  77   1 H      0.015  0.985  0.000  0.000     2.812     2.622
  78   1 H      0.336  0.664  0.000  0.000     0.621     1.237
  79   1 H      0.067  0.933  0.000  0.000     2.119     2.276
  80   1 H      0.053  0.947  0.000  0.000     2.280     2.361
  81   1 H      0.070  0.930  0.000  0.000     2.082     2.256
  82   7 N     -0.183  1.216  3.966  0.000    24.962     7.420
  83   6 C      0.011  1.036  2.952  0.000    20.372     6.424
  84   6 C      0.271  1.043  2.686  0.000    22.422     7.754
  85   8 O     -0.508  1.744  4.764  0.000    23.965     6.563
  86   6 C     -0.035  1.033  3.002  0.000    21.152     6.540
  87   6 C     -0.090  1.008  3.083  0.000    22.203     6.706
  88   6 C     -0.151  0.975  3.176  0.000    23.439     6.898
  89   6 C     -0.152  0.974  3.178  0.000    23.476     6.906
  90   1 H      0.210  0.790  0.000  0.000     1.057     1.611
  91   1 H      0.094  0.906  0.000  0.000     1.840     2.121
  92   1 H      0.079  0.921  0.000  0.000     1.990     2.206
  93   1 H      0.049  0.951  0.000  0.000     2.329     2.386
  94   1 H      0.068  0.932  0.000  0.000     2.102     2.267
  95   1 H      0.076  0.924  0.000  0.000     2.016     2.220
  96   1 H      0.050  0.950  0.000  0.000     2.320     2.382
  97   1 H      0.057  0.943  0.000  0.000     2.231     2.335
  98   1 H      0.061  0.939  0.000  0.000     2.189     2.313
  99   1 H      0.058  0.942  0.000  0.000     2.226     2.333
 100   1 H      0.047  0.953  0.000  0.000     2.361     2.403
 101   7 N     -0.187  1.214  3.973  0.000    25.049     7.433
 102   6 C      0.009  1.033  2.957  0.000    20.418     6.433
 103   6 C      0.265  1.041  2.694  0.000    22.530     7.773
 104   8 O     -0.460  1.735  4.726  0.000    22.922     6.419
 105   6 C     -0.094  1.009  3.085  0.000    22.278     6.717
 106   6 C     -0.126  1.013  3.113  0.000    22.908     6.812
 107   6 C      0.280  1.041  2.679  0.000    22.259     7.725
 108   8 O     -0.506  1.754  4.752  0.000    23.927     6.558
 109   7 N     -0.302  1.195  4.106  0.000    27.769     7.826
 110   1 H      0.228  0.772  0.000  0.000     0.972     1.544
 111   1 H      0.065  0.935  0.000  0.000     2.146     2.291
 112   1 H      0.087  0.913  0.000  0.000     1.912     2.162
 113   1 H      0.096  0.904  0.000  0.000     1.821     2.110
 114   1 H      0.115  0.885  0.000  0.000     1.653     2.011
 115   1 H      0.083  0.917  0.000  0.000     1.943     2.180
 116   1 H      0.232  0.768  0.000  0.000     0.958     1.533
 117   1 H      0.207  0.793  0.000  0.000     1.073     1.622
 118   7 N     -0.184  1.206  3.978  0.000    24.980     7.423
 119   6 C     -0.003  1.045  2.958  0.000    20.630     6.466
 120   6 C      0.275  1.037  2.688  0.000    22.352     7.742
 121   8 O     -0.463  1.731  4.732  0.000    22.978     6.427
 122   6 C     -0.033  1.042  2.991  0.000    21.129     6.537
 123   6 C     -0.153  0.979  3.174  0.000    23.488     6.907
 124   6 C     -0.155  0.975  3.179  0.000    23.522     6.911
 125   1 H      0.191  0.809  0.000  0.000     1.151     1.681
 126   1 H      0.110  0.890  0.000  0.000     1.697     2.037
 127   1 H      0.079  0.921  0.000  0.000     1.990     2.206
 128   1 H      0.078  0.922  0.000  0.000     2.000     2.211
 129   1 H      0.066  0.934  0.000  0.000     2.128     2.281
 130   1 H      0.051  0.949  0.000  0.000     2.301     2.372
 131   1 H      0.082  0.918  0.000  0.000     1.962     2.190
 132   1 H      0.040  0.960  0.000  0.000     2.446     2.445
 133   1 H      0.048  0.952  0.000  0.000     2.340     2.392
 134   7 N     -0.180  1.197  3.982  0.000    24.895     7.410
 135   6 C     -0.044  1.006  3.038  0.000    21.404     6.596
 136   6 C      0.268  1.047  2.685  0.000    22.468     7.762
 137   8 O     -0.500  1.745  4.756  0.000    23.795     6.540
 138   1 H      0.209  0.791  0.000  0.000     1.061     1.614
 139   1 H      0.110  0.890  0.000  0.000     1.698     2.037
 140   1 H      0.096  0.904  0.000  0.000     1.821     2.110
 141   7 N     -0.188  1.207  3.982  0.000    25.085     7.439
 142   6 C      0.011  1.038  2.950  0.000    20.387     6.429
 143   6 C      0.264  1.049  2.687  0.000    22.545     7.775
 144   8 O     -0.490  1.756  4.734  0.000    23.570     6.509
 145   6 C     -0.157  0.980  3.177  0.000    23.576     6.919
 146   1 H      0.219  0.781  0.000  0.000     1.015     1.578
 147   1 H      0.116  0.884  0.000  0.000     1.644     2.005
 148   1 H      0.093  0.907  0.000  0.000     1.849     2.126
 149   1 H      0.095  0.905  0.000  0.000     1.834     2.118
 150   1 H      0.070  0.930  0.000  0.000     2.088     2.260
 151   7 N     -0.179  1.200  3.979  0.000    24.883     7.409
 152   6 C      0.026  1.032  2.942  0.000    20.140     6.389
 153   6 C      0.264  1.051  2.686  0.000    22.553     7.777
 154   8 O     -0.516  1.754  4.762  0.000    24.140     6.587
 155   6 C     -0.115  1.012  3.102  0.000    22.678     6.777
 156   6 C      0.293  1.029  2.678  0.000    22.029     7.685
 157   8 O     -0.476  1.738  4.738  0.000    23.257     6.466
 158   7 N     -0.293  1.197  4.096  0.000    27.557     7.796
 159   1 H      0.209  0.791  0.000  0.000     1.060     1.613
 160   1 H      0.099  0.901  0.000  0.000     1.791     2.093
 161   1 H      0.064  0.936  0.000  0.000     2.147     2.291
 162   1 H      0.089  0.911  0.000  0.000     1.890     2.150
 163   1 H      0.253  0.747  0.000  0.000     0.870     1.461
 164   1 H      0.223  0.777  0.000  0.000     0.998     1.564
 165   7 N     -0.173  1.208  3.965  0.000    24.745     7.388
 166   6 C      0.030  1.034  2.936  0.000    20.076     6.380
 167   6 C      0.271  1.042  2.687  0.000    22.420     7.755
 168   8 O     -0.482  1.744  4.739  0.000    23.395     6.485
 169   6 C     -0.118  1.020  3.098  0.000    22.737     6.786
 170   6 C      0.373  1.014  2.612  0.000    20.679     7.442
 171   8 O     -0.639  1.769  4.870  0.000    27.088     6.978
 172   8 O     -0.646  1.770  4.876  0.000    27.289     7.004
 173   1 H      0.218  0.782  0.000  0.000     1.016     1.579
 174   1 H      0.069  0.931  0.000  0.000     2.093     2.262
 175   1 H      0.060  0.940  0.000  0.000     2.195     2.317
 176   1 H      0.063  0.937  0.000  0.000     2.159     2.298
 177   7 N     -0.192  1.205  3.986  0.000    25.157     7.449
 178   6 C     -0.047  1.005  3.043  0.000    21.459     6.603
 179   6 C      0.271  1.043  2.686  0.000    22.421     7.753
 180   8 O     -0.485  1.751  4.734  0.000    23.454     6.493
 181   1 H      0.223  0.777  0.000  0.000     0.996     1.563
 182   1 H      0.116  0.884  0.000  0.000     1.643     2.004
 183   1 H      0.124  0.876  0.000  0.000     1.584     1.968
 184   7 N     -0.186  1.209  3.977  0.000    25.030     7.430
 185   6 C      0.010  1.044  2.946  0.000    20.407     6.433
 186   6 C      0.267  1.051  2.682  0.000    22.495     7.767
 187   8 O     -0.478  1.732  4.746  0.000    23.298     6.471
 188   6 C     -0.073  1.002  3.071  0.000    21.878     6.657
 189   6 C     -0.115  1.011  3.104  0.000    22.679     6.778
 190   6 C      0.364  1.025  2.611  0.000    20.833     7.470
 191   8 O     -0.641  1.760  4.880  0.000    27.138     6.984
 192   8 O     -0.651  1.772  4.879  0.000    27.415     7.020
 193   1 H      0.204  0.796  0.000  0.000     1.087     1.633
 194   1 H      0.094  0.906  0.000  0.000     1.845     2.124
 195   1 H      0.062  0.938  0.000  0.000     2.176     2.307
 196   1 H      0.067  0.933  0.000  0.000     2.123     2.278
 197   1 H      0.050  0.950  0.000  0.000     2.321     2.382
 198   1 H      0.037  0.963  0.000  0.000     2.482     2.463
 199   7 N     -0.171  1.208  3.963  0.000    24.703     7.382
 200   6 C      0.013  1.037  2.950  0.000    20.363     6.424
 201   6 C      0.272  1.040  2.688  0.000    22.407     7.751
 202   8 O     -0.507  1.752  4.755  0.000    23.939     6.560
 203   6 C      0.111  1.022  2.867  0.000    18.840     6.195
 204   8 O     -0.499  1.683  4.816  0.000    22.859     6.454
 205   6 C     -0.153  0.982  3.171  0.000    23.507     6.910
 206   1 H      0.214  0.786  0.000  0.000     1.035     1.593
 207   1 H      0.095  0.905  0.000  0.000     1.830     2.115
 208   1 H      0.053  0.947  0.000  0.000     2.277     2.359
 209   1 H      0.327  0.673  0.000  0.000     0.645     1.261
 210   1 H      0.070  0.930  0.000  0.000     2.080     2.255
 211   1 H      0.064  0.936  0.000  0.000     2.147     2.291
 212   1 H      0.059  0.941  0.000  0.000     2.213     2.326
 213   7 N     -0.177  1.204  3.972  0.000    24.826     7.400
 214   6 C      0.015  1.035  2.950  0.000    20.311     6.415
 215   6 C      0.278  1.038  2.684  0.000    22.296     7.733
 216   8 O     -0.477  1.730  4.747  0.000    23.272     6.468
 217   6 C     -0.036  1.040  2.995  0.000    21.168     6.543
 218   6 C     -0.090  1.002  3.088  0.000    22.203     6.706
 219   6 C     -0.151  0.976  3.175  0.000    23.440     6.899
 220   6 C     -0.148  0.975  3.173  0.000    23.387     6.892
 221   1 H      0.229  0.771  0.000  0.000     0.971     1.543
 222   1 H      0.074  0.926  0.000  0.000     2.046     2.237
 223   1 H      0.075  0.925  0.000  0.000     2.029     2.227
 224   1 H      0.055  0.945  0.000  0.000     2.258     2.350
 225   1 H      0.041  0.959  0.000  0.000     2.436     2.440
 226   1 H      0.085  0.915  0.000  0.000     1.927     2.171
 227   1 H      0.049  0.951  0.000  0.000     2.336     2.390
 228   1 H      0.057  0.943  0.000  0.000     2.237     2.339
 229   1 H      0.057  0.943  0.000  0.000     2.233     2.337
 230   1 H      0.059  0.941  0.000  0.000     2.205     2.322
 231   1 H      0.065  0.935  0.000  0.000     2.144     2.290
 232   7 N     -0.179  1.212  3.967  0.000    24.869     7.407
 233   6 C      0.034  1.028  2.937  0.000    20.000     6.368
 234   6 C      0.184  1.093  2.722  0.000    24.046     8.031
 235   8 O     -0.365  1.758  4.607  0.000    20.994     6.143
 236   6 C     -0.115  1.023  3.092  0.000    22.682     6.778
 237   6 C      0.373  1.019  2.608  0.000    20.679     7.442
 238   8 O     -0.638  1.775  4.864  0.000    27.076     6.976
 239   8 O     -0.628  1.770  4.858  0.000    26.820     6.943
 240   1 H      0.205  0.795  0.000  0.000     1.080     1.628
 241   1 H      0.082  0.918  0.000  0.000     1.958     2.188
 242   1 H      0.065  0.935  0.000  0.000     2.143     2.289
 243   1 H      0.067  0.933  0.000  0.000     2.115     2.274
 244   7 N     -0.414  1.280  4.134  0.000    30.766     8.238
 245   6 C      0.027  1.031  2.942  0.000    20.133     6.390
 246   6 C      0.189  1.096  2.715  0.000    23.955     8.016
 247   8 O     -0.374  1.763  4.611  0.000    21.170     6.169
 248   6 C     -0.099  1.013  3.086  0.000    22.373     6.731
 249   6 C      0.001  1.085  2.914  0.000    28.004     8.680
 250   6 C     -0.059  1.055  3.004  0.000    29.460     8.901
 251   6 C     -0.072  1.057  3.015  0.000    29.794     8.952
 252   6 C     -0.047  1.058  2.989  0.000    29.156     8.855
 253   6 C     -0.056  1.060  2.997  0.000    29.399     8.892
 254   6 C     -0.058  1.052  3.006  0.000    29.448     8.899
 255   1 H      0.194  0.806  0.000  0.000     1.138     1.671
 256   1 H      0.073  0.927  0.000  0.000     2.056     2.242
 257   1 H      0.082  0.918  0.000  0.000     1.954     2.186
 258   1 H      0.073  0.927  0.000  0.000     2.054     2.241
 259   1 H      0.062  0.938  0.000  0.000     2.177     2.307
 260   1 H      0.062  0.938  0.000  0.000     2.170     2.303
 261   1 H      0.058  0.942  0.000  0.000     2.226     2.333
 262   1 H      0.054  0.946  0.000  0.000     2.267     2.354
 263   1 H      0.052  0.948  0.000  0.000     2.292     2.367
 264   7 N     -0.412  1.280  4.132  0.000    30.709     8.230
 265   6 C      0.029  1.037  2.934  0.000    20.107     6.387
 266   6 C      0.204  1.092  2.704  0.000    23.665     7.967
 267   8 O     -0.387  1.755  4.631  0.000    21.414     6.204
 268   6 C     -0.154  0.984  3.170  0.000    23.524     6.913
 269   1 H      0.186  0.814  0.000  0.000     1.180     1.701
 270   1 H      0.062  0.938  0.000  0.000     2.169     2.303
 271   1 H      0.057  0.943  0.000  0.000     2.231     2.335
 272   1 H      0.071  0.929  0.000  0.000     2.076     2.253
 273   1 H      0.081  0.919  0.000  0.000     1.967     2.193
 274   1 H      0.190  0.810  0.000  0.000     1.161     1.687
 275   1 H      0.087  0.913  0.000  0.000     1.903     2.157
 276   1 H      0.176  0.824  0.000  0.000     1.239     1.744
 277   1 H      0.079  0.921  0.000  0.000     1.984     2.203
 278   1 H      0.186  0.814  0.000  0.000     1.179     1.701
 279   1 H      0.085  0.915  0.000  0.000     1.927     2.171
 280   1 H      0.185  0.815  0.000  0.000     1.186     1.706
 281   1 H      0.075  0.925  0.000  0.000     2.031     2.228
 282   1 H      0.180  0.820  0.000  0.000     1.214     1.726
 283   1 H      0.093  0.907  0.000  0.000     1.851     2.127
 284   1 H      0.176  0.824  0.000  0.000     1.237     1.742
 285   1 H      0.079  0.921  0.000  0.000     1.991     2.206
 286   1 H      0.183  0.817  0.000  0.000     1.196     1.713
 287   1 H      0.077  0.923  0.000  0.000     2.008     2.216

 Mol. C6AA /au·bohr⁶  :     773176.748321
 Mol. C8AA /au·bohr⁸  :   17141393.723587
 Mol. α(0) /au        :       1311.633107

 
molecular dipole:
                 x           y           z       tot (Debye)
 q only:     -742.228    -296.746    -747.706
   full:     -741.820    -300.152    -748.066    2784.392
molecular quadrupole (traceless):
                xx          xy          yy          xz          yz          zz
 q only:   -75834.343 -110219.435  155628.466 -277334.644 -110792.807  -79794.123
  q+dip:   -75174.375 -111414.832  154870.997 -277320.052 -112108.682  -79696.622
   full:   -75172.441 -111415.364  154867.663 -277317.951 -112106.426  -79695.221
speedup  1.00
cpu  time for grad    3.85 s
wall time for grad    3.86 s

SCC energy    :    -466.9532795
rep           :       9.4325777
ES            :       1.8586372
AES           :      -0.0301384
AXC           :       0.0578266
disp          :      -0.3542400
XB            :       0.0000000
fix           :       0.0000000
Gborn         :       0.0000000
Gsasa         :       0.0000000
Ghb           :       0.0000000
Gshift        :       0.0000000
Gsolv         :      -0.5394567     -338.51
Etot ala COSMO:    -466.9532795
grad norm     :       2.1802346
total E       :    -457.4922711
atomizationE  :      79.6280326    49967.34
(atE without considering molecular charge,
 total energy contains solvation terms)
H-L gap (eV)  :          1.4340

------------------------------------------------------------------------
 * finished run on 2019/03/07 at 11:37:49.188     
------------------------------------------------------------------------
 total:
 * wall-time:     0 d,  0 h,  0 min,  4.316 sec
 *  cpu-time:     0 d,  0 h,  0 min,  4.172 sec
 * ratio c/w:     0.967 speedup
 SCF:
 * wall-time:     0 d,  0 h,  0 min,  4.092 sec
 *  cpu-time:     0 d,  0 h,  0 min,  4.086 sec
 * ratio c/w:     0.999 speedup

