      -----------------------------------------------------------      
     |                   =====================                   |     
     |                           x T B                           |     
     |                   =====================                   |     
     |                         S. Grimme                         |     
     |          Mulliken Center for Theoretical Chemistry        |     
     |                    University of Bonn                     |     
     |                Version 6.1 RC1 (SAW190329)                |     
      -----------------------------------------------------------      

   This program is distributed in the hope that it will be useful,
   but WITHOUT ANY WARRANTY; without even the implied warranty of
   MERCHANTABILITY or FITNESS FOR A PARTICULAR PURPOSE.
   
   FOR NON-COMMERCIAL, ACADEMIA USE ONLY.
   
   Cite this work as:
   S. Grimme, C. Bannwarth, P. Shushkov, J. Comput. Theory Chem., 2017,
   13, 1989-2009. DOI: 10.1021/acs.jctc.7b00118
   C. Bannwarth, S. Ehlert and S. Grimme., J. Comput. Theory Chem., 2019,
   just accepted. DOI: 10.1021/acs.jctc.8b01176
   
   for sTDA-xTB:
   S. Grimme and C. Bannwarth, J. Chem. Phys., 2016, 145, 054103.
   DOI: 10.1063/1.4959605
   
   in the mass-spec context:
   V. Asgeirsson, C. Bauer and S. Grimme, Chem. Sci., 2017, 8, 4879.
   DOI: 10.1039/c7sc00601b
   
   for metadynamics refer to:
   S. Grimme, ChemRxiv, Preprint. DOI: 10.26434/chemrxiv.7660532.v1
   
   with help from (in alphabetical order)
   C. Bannwarth, F. Bohle, G. Brandenburg, E. Caldeweyher, M. Checinski,
   S. Dohm, S. Ehlert, S. Ehrlich, F. März, H. Neugebauer, J. Pisarek,
   P. Pracht, P. Shushkov, and S. Spicher.
   
 * started run on 2019/05/31 at 06:33:07.484     

           -------------------------------------------------
          |                Calculation Setup                |
           -------------------------------------------------

          program call               : /home/lum/qr/xtb-190329/bin/xtb xtb_tmp.xyz --chrg 3 --grad --gfn 2 --etemp 500 --acc 0.1 --gbsa h2o --parallel 2
          hostname                   : cu39
          coordinate file            : xtb_tmp.xyz
          omp threads                :                     2
          number of atoms            :                   478
          number of electrons        :                  1314
          charge                     :                     3
          spin                       :                   0.0
          first test random number   :      0.18312350454065


molecular fragmentation (1/2 indicates fragments):
111111111111111111111111111111111111111122222222222222222222222222222222
222222222222222222222222222222222222222222222222222222222222222222222222
222222222222222222222222222222222222222222222222222222222222222222222222
222222222222222222222222222222222222222222222222222222222222222222222222
222222222222222222222222222222222222222222222222222222222222222222222222
222222222222222222222222222222222222222222222222222222222222222222222222
2222222222222222222222222222222211222222222222
# atoms in fragment 1/2:    42   436
 fragment masses (1/2) :      269.34     3096.57
CMA distance (Bohr)    :  17.032
constraining FC (au)   :  0.0500

########################################################################
# WARNING! Please study the warnings concerning your input carefully
#  - XTBPATH is not set, using XTBHOME instead
#  - Process number higher than OMP_NUM_THREADS, I hope you know what you are doing.
########################################################################

           ------------------------------------------------- 
          |                 G F N 2 - x T B                 |
          | Geometry, Frequencies, Noncovalent interactions |
          |            JCTC 2018 parametrisation            |
           ------------------------------------------------- 
 
             k(s)              :                1.8500
             k(p)              :                2.2300
             k(d)              :                2.2300
             k(f)              :                2.0000
             kEN (H0ij)        :               -2.0000
             D4 a1             :                0.5200
             D4 a2             :                5.0000
             D4 s6             :                1.0000
             D4 s8             :                2.7000
             D4 s9             :                5.0000
             alphaj            :                2.0000

  Z AO/shell   Hii/eV     exponent
  1     Wed Apr 25 08:07:45 CEST 2018   EN: 2.200 GM2: 0.406  GM3: 0.0800  RAES: 1.40
     1s    -10.707211    1.230000
  6     Wed Apr 25 08:07:45 CEST 2018   EN: 2.550 GM2: 0.538  GM3: 0.1500  RAES: 3.00
     2s    -13.970922    2.096432
     2p    -10.063292    1.800000
  7     Wed Apr 25 08:07:45 CEST 2018   EN: 3.040 GM2: 0.461  GM3:-0.0640  RAES: 1.90
     2s    -16.686243    2.339881
     2p    -12.523956    2.014332
  8     Wed Apr 25 08:07:45 CEST 2018   EN: 3.440 GM2: 0.452  GM3:-0.0517  RAES: 1.80
     2s    -20.229985    2.439742
     2p    -15.503117    2.137023
 16     Tue Apr 24 11:44:34 CEST 2018   EN: 2.580 GM2: 0.340  GM3:-0.0502  RAES: 3.10
     3s    -20.029654    1.981333
     3p    -11.377694    2.025643
     3d     -0.420282    1.702555

 Solvent             : h2o
 Using internal parameter file: .param_gbsa2_h2o
 Gsolv ref. state (COSMO-RS): gsolv [1 M gas/solution]
 temperature (mdtemp)       :    298.150000000000     
 dielectric constant        :    80.2000000000000     
 rho                        :    1.00000000000000     
 mass                       :    18.0000000000000     
 surface tension            :    15.5689454083859     
 probe radius               :   0.975313790000000     
 vdW radii scaling          :    1.00000000000000     
 Gshift (Eh)                :   1.857443126794793E-003
 c1                         :    1.55243817000000     
 soset                      :   0.130326360000000     
 HB correction              :  T
 Number of grid points      :          230

            Z     q(EN)     CN     RAES       Cart. coordinates
     1  N   5.0   -0.69    3.01    1.93    46.56790    19.56208    48.93115
     2  C   4.0    0.06    3.98    3.58    43.99390    19.44797    49.88298
     3  C   4.0    0.25    3.02    3.02    43.23358    16.65153    49.53992
     4  O   6.0   -0.37    1.00    1.80    44.71194    15.18960    48.49700
     5  C   4.0   -0.15    3.98    3.59    42.29014    21.29749    48.38476
     6  C   4.0   -0.11    3.97    3.58    41.12984    23.47817    49.91459
     7  C   4.0   -0.22    3.98    3.59    43.08165    25.17334    51.18475
     8  C   4.0   -0.22    3.99    3.60    39.51085    25.08135    48.14542
     9  H   1.0    0.32    1.00    1.43    46.98645    18.03723    47.83999
    10  H   1.0    0.12    0.99    1.43    43.98111    19.93127    51.89828
    11  H   1.0    0.12    0.99    1.43    43.44210    22.09423    46.87268
    12  H   1.0    0.11    0.99    1.43    40.77305    20.24933    47.45822
    13  H   1.0    0.10    0.99    1.43    39.90829    22.68839    51.39304
    14  H   1.0    0.10    0.99    1.43    42.12499    26.44989    52.47646
    15  H   1.0    0.11    0.99    1.43    44.47468    24.10726    52.24648
    16  H   1.0    0.12    0.99    1.43    44.11441    26.29082    49.79794
    17  H   1.0    0.11    0.99    1.43    38.45142    26.47522    49.21466
    18  H   1.0    0.11    0.99    1.43    40.69904    26.07465    46.79377
    19  H   1.0    0.12    0.99    1.43    38.19797    23.90389    47.10111
    20  N   5.0   -0.35    3.03    1.93    40.99997    15.82842    50.37901
    21  C   4.0    0.07    4.03    3.66    40.44146    13.12625    50.33970
    22  C   4.0    0.30    3.00    3.02    41.40877    11.79802    47.96012
    23  O   6.0   -0.36    1.00    1.80    42.70410     9.89271    48.08512
    24  C   4.0   -0.13    4.00    3.63    37.55719    12.95225    50.65216
    25  C   4.0   -0.14    4.01    3.63    36.61650    15.68314    50.52450
    26  C   4.0   -0.06    4.02    3.66    38.88586    17.19901    51.44686
    27  H   1.0    0.13    0.99    1.43    41.42937    12.20809    51.91622
    28  H   1.0    0.12    0.99    1.43    36.72275    11.78708    49.18047
    29  H   1.0    0.13    0.99    1.43    37.09615    12.16171    52.49174
    30  H   1.0    0.11    0.99    1.43    36.16732    16.20547    48.58703
    31  H   1.0    0.12    0.99    1.43    34.95592    15.95511    51.70336
    32  H   1.0    0.09    0.99    1.43    38.85339    19.14371    50.81074
    33  H   1.0    0.09    0.99    1.43    38.98740    17.14197    53.51147
    34  N   5.0   -0.45    3.01    1.93    40.50935    12.71007    45.76492
    35  C   4.0    0.03    3.99    3.60    41.41082    11.85908    43.32409
    36  C   4.0    0.07    3.00    3.02    40.36373    13.62754    41.28480
    37  O   6.0   -0.42    1.00    1.80    38.77930    15.20952    41.82945
    38  H   1.0    0.28    1.00    1.43    39.54262    14.36427    45.68767
    39  H   1.0    0.15    0.99    1.43    43.48052    11.86427    43.29373
    40  H   1.0    0.14    0.99    1.43    40.76644     9.92358    42.97695
    41  N   5.0   -0.69    3.00    1.93    34.32611    30.38291    36.85780
    42  C   4.0    0.07    3.98    3.59    34.11632    28.25929    38.56403
    43  C   4.0    0.10    3.00    3.02    31.43315    28.08233    39.58575
    44  O   6.0   -0.37    1.00    1.80    30.13993    26.19436    39.25714
    45  C   4.0   -0.13    3.99    3.60    35.96469    28.48282    40.78904
    46  C   4.0   -0.03    3.12    3.03    35.05563    26.93531    42.97015
    47  C   4.0    0.02    3.21    3.04    33.96699    27.80087    45.14518
    48  C   4.0    0.02    3.18    3.03    35.01224    24.24263    43.10514
    49  N   5.0   -0.48    3.11    1.94    33.26783    25.81348    46.63709
    50  C   4.0    0.12    3.22    3.04    33.88530    23.60954    45.45008
    51  C   4.0   -0.09    3.02    3.02    35.84255    22.32320    41.50268
    52  C   4.0   -0.10    3.02    3.02    33.63027    21.11501    46.23399
    53  C   4.0   -0.07    3.03    3.02    35.54094    19.85943    42.26671
    54  C   4.0   -0.09    3.03    3.02    34.47151    19.26512    44.60592
    55  H   1.0    0.28    1.00    1.43    35.85158    31.52396    37.07735
    56  H   1.0    0.13    0.99    1.43    34.45668    26.50016    37.51662
    57  H   1.0    0.11    0.99    1.43    37.83853    27.87906    40.18007
    58  H   1.0    0.12    0.99    1.43    36.05636    30.45722    41.35329
    59  H   1.0    0.12    1.00    1.43    33.65563    29.71640    45.74231
    60  H   1.0    0.24    1.00    1.43    32.43546    25.95379    48.33750
    61  H   1.0    0.13    1.00    1.43    36.70593    22.75968    39.70573
    62  H   1.0    0.12    1.00    1.43    32.83249    20.66451    48.05668
    63  H   1.0    0.17    1.00    1.43    36.14561    18.33522    41.06417
    64  H   1.0    0.13    1.00    1.43    34.29392    17.29321    45.10055
    65  N   5.0   -0.71    3.00    1.92    22.68406    22.76455    41.22158
    66  C   4.0    0.03    3.98    3.59    21.16158    24.17510    43.00906
    67  C   4.0    0.28    3.00    3.02    21.43374    23.10438    45.68004
    68  O   6.0   -0.44    1.00    1.80    21.31105    24.43509    47.55606
    69  H   1.0    0.29    1.00    1.43    22.06122    22.56988    39.42061
    70  H   1.0    0.13    0.99    1.43    21.72219    26.16512    43.03156
    71  H   1.0    0.13    0.99    1.43    19.18540    24.04836    42.43896
    72  N   5.0   -0.47    3.01    1.93    21.60042    20.57149    45.72711
    73  C   4.0    0.07    3.98    3.59    21.90677    19.05778    48.01128
    74  C   4.0    0.27    3.00    3.02    22.67525    16.36571    47.21465
    75  O   6.0   -0.42    1.00    1.80    24.70797    16.05044    46.14841
    76  C   4.0   -0.14    3.98    3.58    19.57040    19.23793    49.72471
    77  C   4.0   -0.12    3.98    3.59    20.07972    18.05722    52.33682
    78  C   4.0    0.28    3.00    3.02    17.63917    17.35418    53.68234
    79  O   6.0   -0.38    1.00    1.80    17.12849    15.18466    54.30532
    80  N   5.0   -0.64    3.00    1.93    16.11720    19.30879    54.20654
    81  H   1.0    0.29    1.00    1.43    21.97928    19.75118    44.03978
    82  H   1.0    0.14    0.99    1.43    23.53759    19.79086    49.07701
    83  H   1.0    0.14    0.99    1.43    19.14635    21.24363    49.93466
    84  H   1.0    0.13    0.99    1.43    17.93842    18.36904    48.80287
    85  H   1.0    0.15    0.99    1.43    21.24241    16.36091    52.16976
    86  H   1.0    0.11    0.99    1.43    21.11411    19.40387    53.50450
    87  H   1.0    0.27    1.00    1.43    16.54262    21.07725    53.65111
    88  H   1.0    0.30    1.00    1.43    14.38239    18.97222    54.91801
    89  N   5.0   -0.49    3.00    1.93    21.05225    14.50287    47.76880
    90  C   4.0    0.08    3.99    3.60    21.45581    11.77793    47.53598
    91  C   4.0    0.29    3.01    3.02    23.52994    10.89948    49.36284
    92  O   6.0   -0.38    1.00    1.80    23.06517     9.49444    51.14154
    93  C   4.0   -0.08    3.98    3.58    21.96937    10.89178    44.80683
    94  C   4.0   -0.19    3.98    3.59    23.02443     8.20178    44.81586
    95  C   4.0   -0.20    3.98    3.59    19.52070    11.00402    43.28297
    96  H   1.0    0.24    1.00    1.43    19.42587    14.96866    48.64283
    97  H   1.0    0.13    0.99    1.43    19.71275    10.87416    48.19199
    98  H   1.0    0.16    0.99    1.43    23.36430    12.14424    43.94100
    99  H   1.0    0.13    0.99    1.43    22.97826     7.42201    42.91699
   100  H   1.0    0.16    0.99    1.43    24.97684     8.18083    45.45246
   101  H   1.0    0.13    0.99    1.43    21.91441     6.98754    46.04985
   102  H   1.0    0.13    0.99    1.43    19.87474    10.46918    41.33192
   103  H   1.0    0.12    0.99    1.43    18.13606     9.70127    44.06423
   104  H   1.0    0.13    0.99    1.43    18.72717    12.89731    43.29616
   105  N   5.0   -0.46    3.01    1.93    25.84492    11.75136    48.83483
   106  C   4.0    0.08    4.00    3.62    27.90613    11.28647    50.54688
   107  C   4.0    0.29    3.01    3.02    27.63666    13.01879    52.86951
   108  O   6.0   -0.38    1.00    1.80    26.23787    14.84193    52.91484
   109  C   4.0   -0.11    3.99    3.60    30.45900    11.77497    49.26473
   110  C   4.0    0.28    3.00    3.02    30.98304     9.79070    47.23922
   111  O   6.0   -0.37    1.00    1.80    29.76973     9.65763    45.28626
   112  N   5.0   -0.64    3.00    1.93    32.89077     8.20252    47.77221
   113  H   1.0    0.30    1.00    1.43    26.05536    13.09502    47.47839
   114  H   1.0    0.15    0.99    1.43    27.74932     9.31746    51.17729
   115  H   1.0    0.13    0.99    1.43    30.35653    13.61484    48.33788
   116  H   1.0    0.11    0.99    1.43    31.96901    11.80947    50.66577
   117  H   1.0    0.31    1.00    1.43    33.34604     6.85395    46.50680
   118  H   1.0    0.26    1.00    1.43    33.84942     8.25397    49.41218
   119  N   5.0   -0.47    3.01    1.93    29.06376    12.26170    54.82767
   120  C   4.0    0.07    3.99    3.60    29.58483    13.82071    57.01669
   121  C   4.0    0.26    3.01    3.02    32.47481    14.24007    57.03430
   122  O   6.0   -0.45    1.00    1.80    33.76365    13.27191    55.38098
   123  C   4.0   -0.09    3.98    3.59    28.45370    12.60752    59.40016
   124  C   4.0    0.31    3.00    3.02    25.59394    12.43089    59.02739
   125  O   6.0   -0.40    1.00    1.80    24.19981    14.23238    59.37360
   126  N   5.0   -0.62    3.00    1.93    24.74919    10.14895    58.34033
   127  H   1.0    0.25    1.00    1.43    30.32406    10.85075    54.54254
   128  H   1.0    0.14    0.99    1.43    28.66161    15.65030    56.68968
   129  H   1.0    0.13    0.99    1.43    29.27193    10.74671    59.72794
   130  H   1.0    0.12    0.99    1.43    28.81467    13.80243    61.03402
   131  H   1.0    0.31    1.00    1.43    22.91427     9.92205    57.88545
   132  H   1.0    0.28    1.00    1.43    25.91807     8.72098    57.89119
   133  N   5.0   -0.49    3.00    1.93    33.41311    15.80378    58.77952
   134  C   4.0    0.08    3.99    3.60    35.96109    16.81822    58.62718
   135  C   4.0    0.25    3.01    3.02    37.50923    16.14157    60.98214
   136  O   6.0   -0.43    1.00    1.80    36.60390    16.37249    63.11012
   137  C   4.0   -0.09    3.98    3.58    35.84708    19.74953    58.33206
   138  C   4.0   -0.21    3.98    3.59    33.89680    20.90817    60.12251
   139  C   4.0   -0.22    3.98    3.59    38.41493    20.99139    58.80117
   140  H   1.0    0.24    1.00    1.43    32.34351    16.40033    60.23829
   141  H   1.0    0.12    0.99    1.43    36.79201    15.96784    56.94093
   142  H   1.0    0.11    0.99    1.43    35.26814    20.14085    56.38343
   143  H   1.0    0.10    0.99    1.43    34.08989    22.95092    60.09767
   144  H   1.0    0.11    0.99    1.43    31.98000    20.45976    59.54016
   145  H   1.0    0.13    0.99    1.43    34.20017    20.24164    62.04256
   146  H   1.0    0.10    0.99    1.43    38.28685    22.99310    58.35105
   147  H   1.0    0.13    0.99    1.43    38.97049    20.79084    60.77128
   148  H   1.0    0.10    0.99    1.43    39.88297    20.17871    57.62231
   149  N   5.0   -0.35    3.02    1.93    39.91292    15.44135    60.59941
   150  C   4.0    0.07    4.02    3.66    41.58257    14.73952    62.70021
   151  C   4.0    0.29    3.00    3.02    42.69013    17.07683    64.05363
   152  O   6.0   -0.45    1.00    1.80    44.92788    17.64501    63.94523
   153  C   4.0   -0.12    4.01    3.64    43.66449    13.16994    61.46166
   154  C   4.0   -0.13    4.01    3.64    43.83636    14.30163    58.81802
   155  C   4.0   -0.05    4.02    3.65    41.07768    14.82112    58.17341
   156  H   1.0    0.14    0.99    1.43    40.50950    13.67900    64.12201
   157  H   1.0    0.14    0.99    1.43    45.43092    13.32442    62.49795
   158  H   1.0    0.12    0.99    1.43    43.11453    11.19147    61.36178
   159  H   1.0    0.13    0.99    1.43    44.89306    16.06367    58.88396
   160  H   1.0    0.12    0.99    1.43    44.73750    13.04981    57.46092
   161  H   1.0    0.09    0.99    1.43    40.91540    16.37459    56.83278
   162  H   1.0    0.12    0.99    1.43    40.18452    13.12983    57.37910
   163  N   5.0   -0.47    3.01    1.93    40.97537    18.39121    65.35023
   164  C   4.0    0.07    3.99    3.61    41.65080    20.40909    67.07318
   165  C   4.0    0.28    3.01    3.02    43.28131    19.37603    69.24098
   166  O   6.0   -0.37    1.00    1.80    43.19942    17.16964    69.91988
   167  C   4.0   -0.19    3.99    3.60    39.26999    21.58059    68.18368
   168  H   1.0    0.28    1.00    1.43    39.17212    17.73346    65.38972
   169  H   1.0    0.13    0.99    1.43    42.74881    21.83330    66.05058
   170  H   1.0    0.14    0.99    1.43    39.75216    23.09451    69.48253
   171  H   1.0    0.11    0.99    1.43    38.09302    22.34411    66.68860
   172  H   1.0    0.14    0.99    1.43    38.20923    20.16135    69.22286
   173  N   5.0   -0.50    3.01    1.93    44.76484    21.13753    70.29376
   174  C   4.0    0.08    3.99    3.61    46.32485    20.66688    72.48932
   175  C   4.0    0.28    3.01    3.02    45.31344    22.30910    74.63935
   176  O   6.0   -0.46    1.00    1.80    44.95201    24.57064    74.36094
   177  C   4.0   -0.14    3.98    3.59    49.11019    21.33614    72.03815
   178  C   4.0   -0.14    3.98    3.59    50.35461    19.55185    70.14207
   179  C   4.0   -0.01    3.99    3.60    49.54483    20.08993    67.41120
   180  N   5.0   -0.48    3.02    1.93    51.71315    20.70685    65.84464
   181  C   4.0    0.39    3.01    3.02    51.67269    20.80398    63.33595
   182  N   5.0   -0.63    3.01    1.93    49.64521    20.10265    62.04032
   183  N   5.0   -0.64    3.02    1.93    53.72345    21.62383    62.11647
   184  H   1.0    0.29    1.00    1.43    44.66551    22.96176    69.69824
   185  H   1.0    0.14    0.99    1.43    46.13640    18.65750    72.93954
   186  H   1.0    0.12    0.99    1.43    49.22420    23.28428    71.37460
   187  H   1.0    0.12    0.99    1.43    50.08561    21.21961    73.85193
   188  H   1.0    0.12    0.99    1.43    52.39796    19.73087    70.32115
   189  H   1.0    0.13    0.99    1.43    49.87447    17.61482    70.64880
   190  H   1.0    0.15    0.99    1.43    48.57906    18.44264    66.63123
   191  H   1.0    0.14    0.99    1.43    48.21965    21.67735    67.37399
   192  H   1.0    0.24    1.00    1.43    53.25781    21.36576    66.75545
   193  H   1.0    0.31    1.00    1.43    48.07118    19.42066    62.88746
   194  H   1.0    0.28    1.00    1.43    49.63180    20.23087    60.14409
   195  H   1.0    0.28    1.00    1.43    55.28065    22.18699    63.05270
   196  H   1.0    0.28    1.00    1.43    53.84306    21.52023    60.22284
   197  N   5.0   -0.48    3.01    1.93    44.85878    21.06710    76.79387
   198  C   4.0    0.06    3.99    3.60    43.51980    22.11827    78.93768
   199  C   4.0    0.08    3.00    3.02    45.22814    22.01836    81.27314
   200  O   6.0   -0.35    1.00    1.80    46.19184    20.03209    81.96586
   201  C   4.0   -0.12    4.01    3.63    41.08936    20.57438    79.39531
   202  C   4.0   -0.13    3.98    3.58    38.88020    22.22973    80.17472
   203  S   6.0   -0.08    2.01    3.10    36.05175    20.40983    80.95635
   204  C   4.0   -0.18    3.98    3.58    35.47869    18.93580    77.91195
   205  H   1.0    0.26    1.00    1.43    45.31451    19.22165    76.94821
   206  H   1.0    0.12    0.99    1.43    43.07990    24.08092    78.49223
   207  H   1.0    0.13    0.99    1.43    40.60286    19.62146    77.62948
   208  H   1.0    0.15    0.99    1.43    41.45144    19.12887    80.82424
   209  H   1.0    0.12    0.99    1.43    39.30777    23.32672    81.85927
   210  H   1.0    0.13    0.99    1.43    38.36398    23.47256    78.62638
   211  H   1.0    0.13    0.99    1.43    33.54696    18.25049    77.93058
   212  H   1.0    0.14    0.99    1.43    35.73646    20.32485    76.42159
   213  H   1.0    0.13    0.99    1.43    36.75901    17.35051    77.65372
   214  N   5.0   -0.68    3.00    1.93    43.33881    32.22812    77.44335
   215  C   4.0    0.08    3.99    3.60    43.35533    30.45223    75.36894
   216  C   4.0    0.27    3.00    3.02    44.75932    31.51029    73.07349
   217  O   6.0   -0.43    1.00    1.80    44.92648    33.77156    72.62989
   218  C   4.0   -0.14    3.98    3.59    40.66928    29.66962    74.53870
   219  C   4.0   -0.12    3.99    3.60    39.89824    27.27172    75.95223
   220  C   4.0    0.27    3.00    3.02    37.55674    25.99391    74.90148
   221  O   6.0   -0.42    1.00    1.80    37.61354    23.85853    74.01217
   222  N   5.0   -0.63    3.00    1.93    35.43387    27.36282    75.05403
   223  H   1.0    0.33    1.00    1.43    43.12811    34.09021    77.02174
   224  H   1.0    0.14    0.99    1.43    44.36645    28.77192    76.02667
   225  H   1.0    0.11    0.99    1.43    39.39227    31.23914    74.91265
   226  H   1.0    0.14    0.99    1.43    40.66266    29.26909    72.51734
   227  H   1.0    0.14    0.99    1.43    41.43155    25.92314    75.71765
   228  H   1.0    0.10    0.99    1.43    39.66707    27.68175    77.95965
   229  H   1.0    0.28    1.00    1.43    35.42676    29.06866    75.89107
   230  H   1.0    0.30    1.00    1.43    33.82918    26.66178    74.30700
   231  N   5.0   -0.50    3.01    1.93    45.69750    29.66391    71.63153
   232  C   4.0    0.07    3.99    3.60    46.95692    29.91753    69.21603
   233  C   4.0    0.27    3.01    3.02    45.59119    28.20469    67.31905
   234  O   6.0   -0.46    1.00    1.80    44.88394    26.08124    67.90543
   235  C   4.0   -0.08    3.98    3.58    49.76289    29.08947    69.50750
   236  C   4.0   -0.14    3.98    3.59    51.28118    31.29297    70.62626
   237  C   4.0   -0.20    3.98    3.59    50.86135    28.13876    67.01411
   238  C   4.0   -0.21    3.98    3.58    53.82713    30.50048    71.72423
   239  H   1.0    0.28    1.00    1.43    45.39035    27.84897    72.17378
   240  H   1.0    0.14    0.99    1.43    46.85400    31.89281    68.61741
   241  H   1.0    0.12    0.99    1.43    49.78671    27.52811    70.86788
   242  H   1.0    0.13    0.99    1.43    51.56752    32.72365    69.16848
   243  H   1.0    0.15    0.99    1.43    50.15129    32.14654    72.12514
   244  H   1.0    0.11    0.99    1.43    52.85895    27.73870    67.24281
   245  H   1.0    0.14    0.99    1.43    49.91288    26.41665    66.42183
   246  H   1.0    0.14    0.99    1.43    50.63384    29.53544    65.52553
   247  H   1.0    0.13    0.99    1.43    54.74258    32.11674    72.60338
   248  H   1.0    0.12    0.99    1.43    53.57393    29.03040    73.13869
   249  H   1.0    0.12    0.99    1.43    55.07733    29.79559    70.25750
   250  N   5.0   -0.50    3.00    1.93    45.37081    29.16291    64.98770
   251  C   4.0    0.08    3.99    3.61    44.18257    27.79339    62.94342
   252  C   4.0    0.26    3.00    3.02    45.81892    27.59265    60.55078
   253  O   6.0   -0.41    1.00    1.80    46.40838    25.57153    59.61991
   254  C   4.0   -0.13    3.99    3.61    41.66185    29.02410    62.11734
   255  C   4.0   -0.02    3.03    3.02    39.86239    29.20072    64.29245
   256  C   4.0   -0.08    3.04    3.02    40.12205    31.18583    65.98181
   257  C   4.0   -0.11    3.03    3.02    37.98446    27.42044    64.70434
   258  C   4.0   -0.10    3.03    3.02    38.54588    31.39911    68.04380
   259  C   4.0   -0.07    3.03    3.02    36.36125    27.63717    66.73557
   260  C   4.0    0.11    3.03    3.02    36.63465    29.63804    68.41055
   261  O   6.0   -0.45    1.99    1.83    34.99621    29.85756    70.37640
   262  H   1.0    0.27    1.00    1.43    45.85568    30.99240    64.68643
   263  H   1.0    0.15    0.99    1.43    43.81110    25.88803    63.65619
   264  H   1.0    0.11    0.99    1.43    42.04240    30.92446    61.41608
   265  H   1.0    0.10    0.99    1.43    40.85582    27.90970    60.58326
   266  H   1.0    0.13    1.00    1.43    41.57112    32.58147    65.66253
   267  H   1.0    0.10    1.00    1.43    37.77639    25.86239    63.40788
   268  H   1.0    0.11    0.99    1.43    38.79460    32.94702    69.35305
   269  H   1.0    0.13    1.00    1.43    34.88444    26.27191    67.05894
   270  H   1.0    0.26    0.99    1.43    35.57857    31.20399    71.46913
   271  N   5.0   -0.48    3.01    1.93    46.32482    29.83896    59.48246
   272  C   4.0    0.07    3.99    3.60    47.01845    30.22530    56.84575
   273  C   4.0    0.29    3.01    3.02    49.85876    30.76098    56.73004
   274  O   6.0   -0.43    1.00    1.80    50.69151    32.64062    57.78817
   275  C   4.0   -0.13    3.99    3.60    45.52222    32.55141    55.92763
   276  C   4.0   -0.04    3.02    3.02    45.53752    33.04854    53.12874
   277  C   4.0   -0.08    3.03    3.02    47.32688    34.61032    52.01547
   278  C   4.0   -0.11    3.04    3.02    43.61211    32.08423    51.62479
   279  C   4.0   -0.08    3.03    3.02    47.16688    35.23146    49.48260
   280  C   4.0   -0.07    3.03    3.02    43.43551    32.67610    49.09434
   281  C   4.0    0.12    3.03    3.02    45.20460    34.29216    48.01291
   282  O   6.0   -0.44    1.99    1.83    44.91279    34.91900    45.53617
   283  H   1.0    0.25    1.00    1.43    45.97368    31.43367    60.47536
   284  H   1.0    0.12    0.99    1.43    46.50952    28.52983    55.78367
   285  H   1.0    0.10    0.99    1.43    43.56534    32.29140    56.52613
   286  H   1.0    0.12    0.99    1.43    46.30702    34.19704    56.89541
   287  H   1.0    0.14    1.00    1.43    48.83504    35.40712    53.13412
   288  H   1.0    0.11    1.00    1.43    42.19199    30.88277    52.45316
   289  H   1.0    0.13    1.00    1.43    48.53889    36.49508    48.65591
   290  H   1.0    0.13    1.00    1.43    41.90532    31.95906    47.95336
   291  H   1.0    0.27    0.99    1.43    46.24336    36.05476    45.01096
   292  N   5.0   -0.46    3.01    1.93    51.30275    29.02649    55.58157
   293  C   4.0    0.08    3.99    3.60    53.99355    29.37904    55.24938
   294  C   4.0    0.06    3.00    3.02    54.56295    29.94085    52.48267
   295  O   6.0   -0.37    1.00    1.80    53.31099    29.04070    50.75485
   296  C   4.0    0.04    3.98    3.58    55.51097    27.00423    56.05586
   297  O   6.0   -0.46    1.99    1.82    54.97910    26.39934    58.60505
   298  C   4.0   -0.19    3.98    3.59    58.34724    27.49029    55.84500
   299  H   1.0    0.25    1.00    1.43    50.50473    27.62817    54.55568
   300  H   1.0    0.15    0.99    1.43    54.55604    30.96776    56.44818
   301  H   1.0    0.13    0.99    1.43    54.98245    25.42759    54.80626
   302  H   1.0    0.28    0.99    1.43    53.36992    25.55585    58.69270
   303  H   1.0    0.14    0.99    1.43    59.35433    25.89318    56.64733
   304  H   1.0    0.12    0.99    1.43    58.89762    27.67602    53.87798
   305  H   1.0    0.13    0.99    1.43    58.85646    29.19716    56.87058
   306  N   5.0   -0.68    3.00    1.93    50.26851    36.73242    61.86005
   307  C   4.0    0.07    3.98    3.59    48.23145    38.38318    62.65202
   308  C   4.0    0.27    3.01    3.02    46.44598    36.94837    64.43948
   309  O   6.0   -0.46    1.00    1.80    46.11846    34.66194    64.24376
   310  C   4.0   -0.13    3.99    3.61    46.62865    39.30811    60.42097
   311  C   4.0   -0.03    3.02    3.02    47.88678    40.91692    58.42986
   312  C   4.0   -0.09    3.03    3.02    50.44167    41.47632    58.31939
   313  C   4.0   -0.09    3.04    3.02    46.32370    41.84329    56.52194
   314  C   4.0   -0.08    3.03    3.02    51.41627    42.92536    56.36517
   315  C   4.0   -0.05    3.03    3.02    47.27240    43.26090    54.55872
   316  C   4.0    0.12    3.03    3.02    49.84284    43.81791    54.46745
   317  O   6.0   -0.43    1.99    1.83    50.69623    45.24453    52.51792
   318  H   1.0    0.31    1.00    1.43    49.85698    35.28763    60.66752
   319  H   1.0    0.12    0.99    1.43    49.06777    39.98421    63.65581
   320  H   1.0    0.11    0.99    1.43    45.83782    37.64782    59.47541
   321  H   1.0    0.11    0.99    1.43    45.04253    40.38021    61.20452
   322  H   1.0    0.12    1.00    1.43    51.73398    40.78886    59.73569
   323  H   1.0    0.13    1.00    1.43    44.32693    41.43379    56.59219
   324  H   1.0    0.13    0.99    1.43    53.41500    43.34366    56.30703
   325  H   1.0    0.15    1.00    1.43    46.06367    43.92582    53.06354
   326  H   1.0    0.27    0.99    1.43    52.49921    45.50636    52.64356
   327  N   5.0   -0.50    3.00    1.93    45.27772    38.38485    66.15512
   328  C   4.0    0.02    3.99    3.61    43.60154    37.34693    68.05341
   329  C   4.0    0.26    3.00    3.02    42.29090    39.41639    69.56569
   330  O   6.0   -0.41    1.00    1.80    41.63878    41.40717    68.58218
   331  H   1.0    0.25    1.00    1.43    45.61051    40.26920    66.20608
   332  H   1.0    0.11    0.99    1.43    42.11251    36.23962    67.12714
   333  H   1.0    0.15    0.99    1.43    44.65420    36.09447    69.31886
   334  N   5.0   -0.48    3.01    1.93    41.87976    38.78191    71.98653
   335  C   4.0    0.07    3.99    3.60    40.64913    40.41945    73.79124
   336  C   4.0    0.08    3.00    3.02    41.81780    39.95057    76.38078
   337  O   6.0   -0.41    1.00    1.80    42.14456    37.82042    77.21103
   338  C   4.0   -0.14    3.98    3.59    37.76804    39.96341    73.85518
   339  C   4.0   -0.13    3.98    3.58    36.98792    37.17996    73.96371
   340  C   4.0   -0.04    3.99    3.60    34.09154    37.05605    73.93832
   341  N   5.0   -0.49    3.01    1.93    33.08630    34.50418    73.64942
   342  C   4.0    0.36    3.01    3.02    32.16976    33.12438    75.55820
   343  N   5.0   -0.64    3.02    1.93    30.73545    31.12151    75.08788
   344  N   5.0   -0.64    3.02    1.93    32.98999    33.52902    77.91213
   345  H   1.0    0.28    1.00    1.43    42.54231    37.10490    72.63327
   346  H   1.0    0.14    0.99    1.43    40.99395    42.36783    73.18355
   347  H   1.0    0.11    0.99    1.43    36.96066    41.00089    75.44567
   348  H   1.0    0.12    0.99    1.43    36.98869    40.77083    72.12864
   349  H   1.0    0.12    0.99    1.43    37.72717    36.22134    72.29563
   350  H   1.0    0.13    0.99    1.43    37.76234    36.29543    75.65498
   351  H   1.0    0.12    0.99    1.43    33.33337    37.92138    75.65287
   352  H   1.0    0.11    0.99    1.43    33.38085    38.18432    72.36397
   353  H   1.0    0.24    1.00    1.43    32.36897    34.09115    71.92458
   354  H   1.0    0.26    1.00    1.43    29.99401    30.81376    73.33602
   355  H   1.0    0.27    1.00    1.43    29.70922    30.37563    76.51810
   356  H   1.0    0.27    1.00    1.43    34.04149    35.06862    78.31050
   357  H   1.0    0.27    1.00    1.43    32.10888    32.67559    79.37254
   358  N   5.0   -0.72    3.00    1.93    24.16035    27.39836    70.19628
   359  C   4.0    0.10    3.98    3.59    25.55504    25.09489    69.73011
   360  C   4.0    0.28    3.01    3.02    25.91023    24.49810    66.91645
   361  O   6.0   -0.41    1.00    1.80    27.61934    23.14963    66.17496
   362  C   4.0   -0.01    3.98    3.58    24.30666    22.84068    71.08616
   363  O   6.0   -0.46    1.99    1.83    26.20893    21.14338    71.81271
   364  H   1.0    0.27    1.00    1.43    22.25176    27.30714    70.30736
   365  H   1.0    0.14    0.99    1.43    27.44940    25.32586    70.52687
   366  H   1.0    0.11    0.99    1.43    23.25657    23.57698    72.71867
   367  H   1.0    0.12    0.99    1.43    22.94443    21.92889    69.81502
   368  H   1.0    0.27    0.99    1.43    25.48870    19.84244    72.86729
   369  N   5.0   -0.48    3.01    1.93    24.14440    25.46173    65.35962
   370  C   4.0    0.07    4.00    3.61    24.24950    24.98633    62.66081
   371  C   4.0    0.27    3.01    3.02    25.53704    27.22670    61.33833
   372  O   6.0   -0.41    1.00    1.80    24.45413    29.20683    60.85630
   373  C   4.0   -0.14    3.98    3.59    21.62989    24.49552    61.54661
   374  C   4.0   -0.14    3.98    3.58    20.32454    22.20405    62.73491
   375  C   4.0   -0.02    3.98    3.59    21.78322    19.71354    62.31064
   376  N   5.0   -0.47    3.02    1.93    20.31525    17.83280    60.94548
   377  C   4.0    0.39    3.01    3.02    18.29394    16.65025    61.85478
   378  N   5.0   -0.62    3.02    1.93    17.20743    14.84085    60.48626
   379  N   5.0   -0.63    3.01    1.93    17.29068    17.30654    64.06766
   380  H   1.0    0.26    1.00    1.43    22.97826    26.83276    65.99141
   381  H   1.0    0.13    0.99    1.43    25.44312    23.31281    62.44841
   382  H   1.0    0.13    0.99    1.43    20.47910    26.18143    61.82081
   383  H   1.0    0.11    0.99    1.43    21.83710    24.21543    59.51627
   384  H   1.0    0.12    0.99    1.43    20.09901    22.57114    64.74896
   385  H   1.0    0.14    0.99    1.43    18.45427    22.04348    61.89104
   386  H   1.0    0.12    0.99    1.43    23.44289    20.06115    61.14916
   387  H   1.0    0.13    0.99    1.43    22.44507    18.93780    64.10888
   388  H   1.0    0.28    1.00    1.43    21.22128    16.96960    59.49867
   389  H   1.0    0.31    1.00    1.43    17.80279    14.45077    58.71564
   390  H   1.0    0.29    1.00    1.43    15.60412    14.00473    61.07765
   391  H   1.0    0.27    1.00    1.43    18.13417    18.60744    65.16748
   392  H   1.0    0.28    1.00    1.43    15.74863    16.41505    64.73473
   393  N   5.0   -0.49    3.01    1.93    27.97663    26.80621    60.79074
   394  C   4.0    0.08    3.99    3.60    29.68016    28.75980    59.88952
   395  C   4.0    0.28    3.00    3.02    29.74830    28.80233    56.97179
   396  O   6.0   -0.43    1.00    1.80    31.54492    28.03299    55.75647
   397  C   4.0   -0.12    3.99    3.60    32.32240    28.29616    60.98166
   398  C   4.0   -0.02    3.03    3.02    33.77083    30.70364    61.37485
   399  C   4.0   -0.07    3.04    3.02    33.19375    32.25399    63.41129
   400  C   4.0   -0.08    3.03    3.02    35.69788    31.39963    59.74532
   401  C   4.0   -0.07    3.03    3.02    34.55044    34.44020    63.83377
   402  C   4.0   -0.09    3.03    3.02    37.06583    33.58589    60.17216
   403  C   4.0   -0.07    3.03    3.02    36.51070    35.08961    62.23321
   404  H   1.0    0.24    1.00    1.43    28.77603    25.13497    61.25551
   405  H   1.0    0.14    0.99    1.43    28.92767    30.58971    60.50933
   406  H   1.0    0.11    0.99    1.43    32.12458    27.33349    62.79472
   407  H   1.0    0.12    0.99    1.43    33.34414    27.08072    59.66798
   408  H   1.0    0.13    1.00    1.43    31.66886    31.72541    64.65772
   409  H   1.0    0.12    1.00    1.43    36.11019    30.23533    58.12264
   410  H   1.0    0.13    1.00    1.43    34.09329    35.67036    65.39109
   411  H   1.0    0.11    1.00    1.43    38.56487    34.10919    58.89015
   412  H   1.0    0.13    1.00    1.43    37.57237    36.78828    62.59247
   413  N   5.0   -0.47    3.01    1.93    27.62626    29.72788    55.93177
   414  C   4.0    0.09    3.99    3.60    27.36803    30.14940    53.24366
   415  C   4.0    0.09    3.00    3.02    27.59835    32.98635    52.65684
   416  O   6.0   -0.37    1.00    1.80    29.36778    33.82876    51.44285
   417  C   4.0    0.04    3.98    3.58    24.87002    29.05115    52.22879
   418  O   6.0   -0.45    1.99    1.82    22.88843    30.02142    53.74524
   419  C   4.0   -0.20    3.98    3.59    24.89912    26.16911    52.26656
   420  H   1.0    0.29    1.00    1.43    26.17951    30.29201    57.05025
   421  H   1.0    0.15    0.99    1.43    28.96977    29.21169    52.33002
   422  H   1.0    0.13    0.99    1.43    24.65091    29.72145    50.26752
   423  H   1.0    0.27    0.99    1.43    21.33663    29.19082    53.26186
   424  H   1.0    0.14    0.99    1.43    23.23146    25.44763    51.30975
   425  H   1.0    0.11    0.99    1.43    26.53713    25.46675    51.25270
   426  H   1.0    0.13    0.99    1.43    24.96283    25.48831    54.20367
   427  N   5.0   -0.69    3.00    1.93    24.68476    38.57591    61.75781
   428  C   4.0    0.07    3.98    3.59    26.72002    39.68325    63.19168
   429  C   4.0    0.27    3.02    3.02    29.09330    39.81167    61.52233
   430  O   6.0   -0.38    1.00    1.80    29.96412    37.87210    60.58343
   431  C   4.0   -0.12    3.99    3.60    27.38931    38.08638    65.52094
   432  C   4.0    0.08    3.23    3.04    25.40236    38.11456    67.51027
   433  N   5.0   -0.46    3.14    1.94    25.85443    39.15246    69.83242
   434  C   4.0    0.07    3.36    3.07    22.97270    37.20729    67.62040
   435  C   4.0    0.19    3.43    3.09    23.74591    38.81456    71.21054
   436  N   5.0   -0.35    2.09    1.90    21.96284    37.65549    69.94404
   437  H   1.0    0.29    1.00    1.43    24.97119    36.79836    61.13362
   438  H   1.0    0.12    0.99    1.43    26.06292    41.55296    63.75411
   439  H   1.0    0.13    0.99    1.43    27.78071    36.15791    64.89011
   440  H   1.0    0.12    0.99    1.43    29.12766    38.84783    66.33320
   441  H   1.0    0.23    1.00    1.43    27.44262    40.10323    70.44763
   442  H   1.0    0.12    1.00    1.43    21.84780    36.31570    66.18380
   443  H   1.0    0.13    1.00    1.43    23.60049    39.42263    73.14040
   444  N   5.0   -0.33    3.03    1.93    30.14629    42.07350    61.20464
   445  C   4.0    0.07    4.03    3.68    32.55992    42.34216    59.93587
   446  C   4.0    0.28    3.01    3.02    34.67876    41.74815    61.83051
   447  O   6.0   -0.40    1.00    1.80    34.26837    41.15519    64.01823
   448  C   4.0   -0.13    4.01    3.63    32.57055    45.09327    59.05532
   449  C   4.0   -0.12    4.01    3.63    31.11302    46.43600    61.15291
   450  C   4.0   -0.04    4.01    3.64    29.14143    44.49925    62.00477
   451  H   1.0    0.14    0.99    1.43    32.68197    40.97898    58.38431
   452  H   1.0    0.13    0.99    1.43    34.46473    45.86074    58.82889
   453  H   1.0    0.13    0.99    1.43    31.54699    45.22916    57.27459
   454  H   1.0    0.13    0.99    1.43    32.36505    46.87173    62.73081
   455  H   1.0    0.12    0.99    1.43    30.23133    48.17686    60.51393
   456  H   1.0    0.12    0.99    1.43    28.90187    44.57256    64.05195
   457  H   1.0    0.12    0.99    1.43    27.30592    44.80062    61.09859
   458  N   5.0   -0.48    3.01    1.93    37.01284    41.85259    60.82905
   459  C   4.0    0.01    3.99    3.60    39.27469    41.65879    62.34196
   460  C   4.0    0.06    3.00    3.02    41.01007    43.90736    61.80062
   461  O   6.0   -0.38    1.00    1.80    40.83703    45.11297    59.83782
   462  H   1.0    0.26    1.00    1.43    37.27943    42.59665    59.08759
   463  H   1.0    0.15    0.99    1.43    38.73984    41.61175    64.33582
   464  H   1.0    0.10    0.99    1.43    40.30388    39.91941    61.87208
   465  H   1.0    0.30    1.00    1.43    46.76348    20.96511    47.98997
   466  H   1.0    0.14    1.00    1.43    40.97961    13.48548    39.50391
   467  H   1.0    0.32    1.00    1.43    34.40291    29.81826    35.25536
   468  H   1.0    0.15    1.00    1.43    30.69168    29.52902    40.54928
   469  H   1.0    0.33    1.00    1.43    24.20834    23.50299    41.06719
   470  H   1.0    0.14    1.00    1.43    45.57243    23.59272    82.26001
   471  H   1.0    0.30    1.00    1.43    42.05388    31.86050    78.49520
   472  H   1.0    0.14    1.00    1.43    56.00058    31.07921    52.02613
   473  H   1.0    0.30    1.00    1.43    51.45465    37.64292    61.04973
   474  H   1.0    0.15    1.00    1.43    42.34419    41.41102    77.45831
   475  H   1.0    0.30    1.00    1.43    24.64821    28.06656    71.68224
   476  H   1.0    0.16    1.00    1.43    26.27829    34.18921    53.27458
   477  H   1.0    0.30    1.00    1.43    23.28101    38.51788    62.71629
   478  H   1.0    0.14    1.00    1.43    42.31860    44.41693    63.06518

           ------------------------------------------------- 
          |        Self-Consistent Charge Iterations        |
           ------------------------------------------------- 

          ...................................................
          :                      SETUP                      :
          :.................................................:
          :  # basis functions                1198          :
          :  # atomic orbitals                1197          :
          :  # shells                          717          :
          :  # electrons                      1314          :
          :  max. iterations                   250          :
          :  Hamiltonian                  GFN2-xTB          :
          :  restarted?                      false          :
          :  GBSA solvation                   true          :
          :  PC potential                    false          :
          :  electronic temp.          500.0000000     K    :
          :  accuracy                    0.1000000          :
          :  -> integral cutoff          0.3500000E+02      :
          :  -> integral neglect         0.1000000E-08      :
          :  -> SCF convergence          0.1000000E-06 Eh   :
          :  -> wf. convergence          0.1000000E-04 e    :
          :  Broyden damping             0.4000000          :
          ...................................................

 iter      E             dE          RMSdq      gap      omega  full diag
   1   -750.4299294 -0.750430E+03  0.420E+00    2.15       0.0  T
   2   -752.2459174 -0.181599E+01  0.223E+00    1.40       1.0  T
   3   -752.3112966 -0.653792E-01  0.118E+00    1.85       1.0  T
   4   -752.3321927 -0.208960E-01  0.317E-01    1.26       1.0  T
   5   -752.3614555 -0.292628E-01  0.116E-01    1.38       1.0  T
   6   -752.3625131 -0.105760E-02  0.621E-02    1.42       1.0  T
   7   -752.3630735 -0.560431E-03  0.262E-02    1.42       1.0  T
   8   -752.3631158 -0.422824E-04  0.100E-02    1.43       1.0  T
   9   -752.3631281 -0.123412E-04  0.496E-03    1.43       1.0  T
  10   -752.3631307 -0.259986E-05  0.262E-03    1.43       1.7  T
  11   -752.3631314 -0.719143E-06  0.116E-03    1.43       3.9  T
  12   -752.3631316 -0.183131E-06  0.527E-04    1.43       8.7  T
  13   -752.3631316 -0.293446E-07  0.308E-04    1.43      14.8  T
  14   -752.3631317 -0.140514E-07  0.136E-04    1.43      33.6  T
  15   -752.3631317 -0.241585E-08  0.622E-05    1.43      73.6  T
  16   -752.3631317 -0.436899E-09  0.276E-05    1.43     165.8  T

   *** convergence criteria satisfied after 16 iterations ***

         #    Occupation            Energy/Eh            Energy/eV
      -------------------------------------------------------------
         1        2.0000           -0.7450570             -20.2740
       ...           ...                  ...                  ...
       651        2.0000           -0.3722280             -10.1288
       652        2.0000           -0.3652269              -9.9383
       653        2.0000           -0.3619968              -9.8504
       654        2.0000           -0.3606796              -9.8146
       655        2.0000           -0.3600753              -9.7981
       656        2.0000           -0.3535043              -9.6193
       657        2.0000           -0.3524111              -9.5896 (HOMO)
       658        0.0000           -0.2999175              -8.1612 (LUMO)
       659                         -0.2985882              -8.1250
       660                         -0.2970496              -8.0831
       661                         -0.2968403              -8.0774
       662                         -0.2954624              -8.0399
       ...                                ...                  ...
      1197                          0.7228335              19.6693
      -------------------------------------------------------------
                  HL-Gap            0.0524935 Eh            1.4284 eV
             Fermi-level           -0.3263080 Eh           -8.8793 eV

 SCC (total)                   0 d,  0 h,  0 min, 13.249 sec
 SCC setup                      ...        0 min,  0.287 sec (  2.166%)
 Dispersion                     ...        0 min,  0.233 sec (  1.762%)
 integral evaluation            ...        0 min,  0.871 sec (  6.574%)
 zeroth order Hamiltonian       ...        0 min,  0.023 sec (  0.171%)
 iterations                     ...        0 min, 10.421 sec ( 78.651%)
 molecular gradient             ...        0 min,  1.368 sec ( 10.324%)
 printout                       ...        0 min,  0.047 sec (  0.351%)

         :::::::::::::::::::::::::::::::::::::::::::::::::::::
         ::                     SUMMARY                     ::
         :::::::::::::::::::::::::::::::::::::::::::::::::::::
         :: total energy             -742.913363081968 Eh   ::
         :: total w/o Gsasa/hb       -742.807249677594 Eh   ::
         :: gradient norm               0.589298845054 Eh/α ::
         :: HOMO-LUMO gap               1.428421225265 eV   ::
         ::.................................................::
         :: SCC energy               -752.392823864873 Eh   ::
         :: -> isotropic ES             2.015714409659 Eh   ::
         :: -> anisotropic ES          -0.038287666002 Eh   ::
         :: -> anisotropic XC           0.265836527991 Eh   ::
         :: -> dispersion              -0.596607455577 Eh   ::
         :: -> Gsolv                   -0.592080567382 Eh   ::
         ::    -> Gborn                -0.485967163008 Eh   ::
         ::    -> Gsasa                -0.031549648234 Eh   ::
         ::    -> Ghb                  -0.076421199267 Eh   ::
         ::    -> Gshift                0.001857443127 Eh   ::
         :: repulsion energy            9.430115696870 Eh   ::
         :: add. restraining            0.000000000000 Eh   ::
         :::::::::::::::::::::::::::::::::::::::::::::::::::::

           -------------------------------------------------
          |                Property Printout                |
           -------------------------------------------------

    * Orbital Energies and Occupations

         #    Occupation            Energy/Eh            Energy/eV
      -------------------------------------------------------------
         1        2.0000           -0.7450570             -20.2740
       ...           ...                  ...                  ...
       645        2.0000           -0.3827366             -10.4148
       646        2.0000           -0.3781385             -10.2897
       647        2.0000           -0.3778851             -10.2828
       648        2.0000           -0.3778444             -10.2817
       649        2.0000           -0.3769675             -10.2578
       650        2.0000           -0.3742453             -10.1837
       651        2.0000           -0.3722280             -10.1288
       652        2.0000           -0.3652269              -9.9383
       653        2.0000           -0.3619968              -9.8504
       654        2.0000           -0.3606796              -9.8146
       655        2.0000           -0.3600753              -9.7981
       656        2.0000           -0.3535043              -9.6193
       657        2.0000           -0.3524111              -9.5896 (HOMO)
       658        0.0000           -0.2999175              -8.1612 (LUMO)
       659                         -0.2985882              -8.1250
       660                         -0.2970496              -8.0831
       661                         -0.2968403              -8.0774
       662                         -0.2954624              -8.0399
       663                         -0.2937841              -7.9943
       664                         -0.2820179              -7.6741
       665                         -0.2491143              -6.7787
       666                         -0.2396901              -6.5223
       667                         -0.2377746              -6.4702
       668                         -0.2366580              -6.4398
       ...                                ...                  ...
      1197                          0.7228335              19.6693
      -------------------------------------------------------------
                  HL-Gap            0.0524935 Eh            1.4284 eV
             Fermi-level           -0.3263080 Eh           -8.8793 eV

   #   Z        covCN         q      C6AA      α(0)
   1   7 N      2.642    -0.401    30.412     8.190
   2   6 C      3.779     0.029    20.113     6.389
   3   6 C      2.766     0.257    22.681     7.800
   4   8 O      0.860    -0.508    23.957     6.562
   5   6 C      3.805    -0.073    21.897     6.662
   6   6 C      3.848    -0.014    20.787     6.485
   7   6 C      3.756    -0.118    22.813     6.810
   8   6 C      3.760    -0.115    22.745     6.799
   9   1 H      0.860     0.163     1.317     1.798
  10   1 H      0.924     0.060     2.193     2.316
  11   1 H      0.924     0.040     2.445     2.445
  12   1 H      0.924     0.027     2.630     2.536
  13   1 H      0.924     0.039     2.462     2.454
  14   1 H      0.925     0.049     2.328     2.386
  15   1 H      0.925     0.048     2.348     2.396
  16   1 H      0.925     0.035     2.512     2.478
  17   1 H      0.925     0.046     2.367     2.406
  18   1 H      0.925     0.031     2.567     2.506
  19   1 H      0.925     0.035     2.516     2.480
  20   7 N      2.758    -0.093    23.064     7.133
  21   6 C      3.828     0.014    20.315     6.413
  22   6 C      2.751     0.290    22.084     7.695
  23   8 O      0.859    -0.496    23.690     6.526
  24   6 C      3.827    -0.083    22.065     6.684
  25   6 C      3.828    -0.074    21.885     6.657
  26   6 C      3.774    -0.016    20.894     6.513
  27   1 H      0.924     0.066     2.129     2.282
  28   1 H      0.925     0.052     2.294     2.368
  29   1 H      0.925     0.086     1.916     2.164
  30   1 H      0.925     0.054     2.274     2.358
  31   1 H      0.925     0.078     2.005     2.214
  32   1 H      0.925     0.082     1.955     2.187
  33   1 H      0.924     0.065     2.143     2.289
  34   7 N      2.688    -0.169    24.657     7.375
  35   6 C      3.738    -0.025    21.103     6.555
  36   6 C      2.764     0.197    23.794     7.988
  37   8 O      0.856    -0.350    20.701     6.100
  38   1 H      0.860     0.208     1.065     1.616
  39   1 H      0.924     0.100     1.784     2.089
  40   1 H      0.924     0.116     1.646     2.006
  41   7 N      2.636    -0.394    30.218     8.164
  42   6 C      3.786     0.047    19.803     6.338
  43   6 C      2.769     0.207    23.601     7.956
  44   8 O      0.856    -0.388    21.439     6.208
  45   6 C      3.809    -0.070    21.826     6.650
  46   6 C      3.061    -0.040    28.920     8.819
  47   6 C      3.033    -0.012    28.283     8.723
  48   6 C      3.118    -0.020    28.325     8.717
  49   7 N      2.780    -0.105    23.299     7.169
  50   6 C      3.090     0.044    26.902     8.502
  51   6 C      2.912    -0.039    28.964     8.825
  52   6 C      2.908    -0.061    29.517     8.909
  53   6 C      2.921    -0.049    29.214     8.864
  54   6 C      2.926    -0.041    29.008     8.833
  55   1 H      0.860     0.173     1.256     1.756
  56   1 H      0.923     0.033     2.551     2.498
  57   1 H      0.924     0.053     2.280     2.361
  58   1 H      0.925     0.058     2.226     2.333
  59   1 H      0.926     0.047     2.363     2.404
  60   1 H      0.860     0.192     1.147     1.678
  61   1 H      0.926     0.012     2.856     2.643
  62   1 H      0.926     0.043     2.413     2.429
  63   1 H      0.926     0.037     2.491     2.468
  64   1 H      0.926     0.027     2.635     2.539
  65   7 N      2.632    -0.389    30.064     8.143
  66   6 C      3.737    -0.016    20.942     6.530
  67   6 C      2.748     0.272    22.407     7.751
  68   8 O      0.858    -0.477    23.279     6.469
  69   1 H      0.860     0.165     1.306     1.790
  70   1 H      0.924     0.041     2.438     2.442
  71   1 H      0.924     0.065     2.144     2.290
  72   7 N      2.691    -0.173    24.749     7.389
  73   6 C      3.788     0.017    20.304     6.418
  74   6 C      2.747     0.271    22.416     7.752
  75   8 O      0.858    -0.481    23.372     6.482
  76   6 C      3.801    -0.083    22.090     6.692
  77   6 C      3.805    -0.113    22.647     6.775
  78   6 C      2.743     0.285    22.168     7.709
  79   8 O      0.859    -0.502    23.820     6.544
  80   7 N      2.639    -0.281    27.266     7.755
  81   1 H      0.860     0.210     1.058     1.611
  82   1 H      0.923     0.088     1.897     2.154
  83   1 H      0.924     0.087     1.905     2.158
  84   1 H      0.924     0.052     2.301     2.372
  85   1 H      0.924     0.065     2.140     2.288
  86   1 H      0.924     0.091     1.873     2.140
  87   1 H      0.860     0.230     0.963     1.537
  88   1 H      0.860     0.236     0.939     1.518
  89   7 N      2.685    -0.174    24.763     7.391
  90   6 C      3.792     0.009    20.436     6.438
  91   6 C      2.759     0.278    22.294     7.732
  92   8 O      0.858    -0.495    23.669     6.523
  93   6 C      3.850    -0.018    20.858     6.496
  94   6 C      3.756    -0.117    22.804     6.809
  95   6 C      3.756    -0.121    22.868     6.818
  96   1 H      0.860     0.220     1.011     1.575
  97   1 H      0.924     0.077     2.013     2.219
  98   1 H      0.924     0.054     2.275     2.359
  99   1 H      0.925     0.051     2.303     2.373
 100   1 H      0.925     0.042     2.423     2.434
 101   1 H      0.925     0.040     2.446     2.446
 102   1 H      0.925     0.048     2.344     2.394
 103   1 H      0.925     0.049     2.330     2.387
 104   1 H      0.925     0.047     2.361     2.403
 105   7 N      2.691    -0.173    24.754     7.389
 106   6 C      3.804     0.027    20.124     6.387
 107   6 C      2.753     0.274    22.372     7.745
 108   8 O      0.858    -0.461    22.936     6.421
 109   6 C      3.809    -0.113    22.643     6.773
 110   6 C      2.743     0.291    22.070     7.692
 111   8 O      0.859    -0.489    23.536     6.504
 112   7 N      2.638    -0.287    27.414     7.776
 113   1 H      0.860     0.228     0.976     1.547
 114   1 H      0.924     0.073     2.058     2.244
 115   1 H      0.924     0.085     1.930     2.172
 116   1 H      0.925     0.087     1.907     2.159
 117   1 H      0.860     0.229     0.968     1.541
 118   1 H      0.860     0.229     0.971     1.543
 119   7 N      2.696    -0.180    24.902     7.411
 120   6 C      3.793     0.015    20.328     6.420
 121   6 C      2.755     0.260    22.612     7.787
 122   8 O      0.859    -0.473    23.202     6.458
 123   6 C      3.807    -0.115    22.702     6.783
 124   6 C      2.746     0.290    22.087     7.695
 125   8 O      0.859    -0.470    23.130     6.448
 126   7 N      2.638    -0.276    27.135     7.737
 127   1 H      0.860     0.214     1.039     1.597
 128   1 H      0.923     0.097     1.811     2.105
 129   1 H      0.925     0.076     2.025     2.226
 130   1 H      0.925     0.097     1.816     2.107
 131   1 H      0.860     0.226     0.983     1.553
 132   1 H      0.860     0.219     1.016     1.579
 133   7 N      2.687    -0.159    24.445     7.343
 134   6 C      3.792     0.006    20.485     6.445
 135   6 C      2.756     0.260    22.615     7.787
 136   8 O      0.859    -0.487    23.498     6.499
 137   6 C      3.849    -0.024    20.973     6.514
 138   6 C      3.756    -0.128    23.004     6.839
 139   6 C      3.755    -0.120    22.859     6.817
 140   1 H      0.860     0.218     1.020     1.582
 141   1 H      0.924     0.076     2.024     2.225
 142   1 H      0.924     0.053     2.287     2.365
 143   1 H      0.925     0.059     2.206     2.322
 144   1 H      0.925     0.044     2.402     2.424
 145   1 H      0.925     0.064     2.152     2.294
 146   1 H      0.925     0.061     2.189     2.314
 147   1 H      0.925     0.047     2.357     2.401
 148   1 H      0.925     0.042     2.425     2.435
 149   7 N      2.751    -0.089    22.971     7.118
 150   6 C      3.826     0.013    20.334     6.417
 151   6 C      2.751     0.271    22.427     7.755
 152   8 O      0.858    -0.473    23.204     6.458
 153   6 C      3.834    -0.070    21.820     6.646
 154   6 C      3.831    -0.073    21.879     6.655
 155   6 C      3.770    -0.010    20.786     6.497
 156   1 H      0.924     0.062     2.180     2.309
 157   1 H      0.925     0.077     2.012     2.218
 158   1 H      0.925     0.053     2.282     2.362
 159   1 H      0.925     0.074     2.042     2.234
 160   1 H      0.925     0.062     2.179     2.308
 161   1 H      0.925     0.063     2.166     2.302
 162   1 H      0.924     0.060     2.202     2.320
 163   7 N      2.692    -0.172    24.721     7.384
 164   6 C      3.796     0.021    20.231     6.405
 165   6 C      2.755     0.278    22.299     7.733
 166   8 O      0.858    -0.498    23.741     6.533
 167   6 C      3.759    -0.126    22.965     6.832
 168   1 H      0.860     0.221     1.004     1.570
 169   1 H      0.924     0.076     2.021     2.223
 170   1 H      0.925     0.070     2.083     2.257
 171   1 H      0.925     0.075     2.030     2.228
 172   1 H      0.925     0.060     2.194     2.316
 173   7 N      2.693    -0.177    24.836     7.402
 174   6 C      3.796     0.012    20.382     6.429
 175   6 C      2.758     0.269    22.464     7.761
 176   8 O      0.858    -0.458    22.879     6.413
 177   6 C      3.806    -0.079    22.003     6.678
 178   6 C      3.803    -0.083    22.085     6.691
 179   6 C      3.739    -0.028    21.163     6.564
 180   7 N      2.701    -0.143    24.102     7.291
 181   6 C      2.737     0.228    23.209     7.888
 182   7 N      2.650    -0.236    26.185     7.600
 183   7 N      2.654    -0.255    26.634     7.665
 184   1 H      0.860     0.235     0.945     1.523
 185   1 H      0.924     0.071     2.076     2.253
 186   1 H      0.924     0.075     2.029     2.227
 187   1 H      0.924     0.061     2.187     2.313
 188   1 H      0.925     0.080     1.984     2.203
 189   1 H      0.925     0.065     2.137     2.286
 190   1 H      0.924     0.089     1.893     2.151
 191   1 H      0.924     0.080     1.983     2.202
 192   1 H      0.860     0.229     0.969     1.542
 193   1 H      0.860     0.251     0.880     1.469
 194   1 H      0.860     0.240     0.923     1.505
 195   1 H      0.860     0.247     0.895     1.482
 196   1 H      0.860     0.240     0.923     1.505
 197   7 N      2.692    -0.166    24.581     7.364
 198   6 C      3.789     0.020    20.252     6.409
 199   6 C      2.766     0.199    23.768     7.984
 200   8 O      0.856    -0.358    20.860     6.123
 201   6 C      3.829    -0.066    21.735     6.633
 202   6 C      3.796    -0.021    20.951     6.518
 203  16 S      1.964    -0.229   150.840    20.671
 204   6 C      3.744    -0.062    21.765     6.655
 205   1 H      0.860     0.209     1.061     1.614
 206   1 H      0.925     0.095     1.827     2.114
 207   1 H      0.924     0.071     2.077     2.254
 208   1 H      0.924     0.057     2.235     2.338
 209   1 H      0.925     0.062     2.172     2.305
 210   1 H      0.925     0.072     2.063     2.246
 211   1 H      0.925     0.065     2.147     2.291
 212   1 H      0.925     0.079     1.985     2.203
 213   1 H      0.925     0.043     2.413     2.429
 214   7 N      2.633    -0.402    30.433     8.193
 215   6 C      3.793     0.019    20.266     6.411
 216   6 C      2.751     0.269    22.452     7.759
 217   8 O      0.858    -0.497    23.723     6.530
 218   6 C      3.804    -0.075    21.925     6.666
 219   6 C      3.809    -0.114    22.665     6.777
 220   6 C      2.743     0.282    22.226     7.719
 221   8 O      0.859    -0.503    23.841     6.547
 222   7 N      2.639    -0.272    27.050     7.724
 223   1 H      0.860     0.172     1.264     1.761
 224   1 H      0.924     0.059     2.216     2.328
 225   1 H      0.925     0.061     2.183     2.311
 226   1 H      0.924     0.041     2.440     2.443
 227   1 H      0.925     0.075     2.031     2.228
 228   1 H      0.924     0.064     2.155     2.296
 229   1 H      0.860     0.222     0.999     1.566
 230   1 H      0.860     0.232     0.954     1.530
 231   7 N      2.697    -0.180    24.892     7.410
 232   6 C      3.791     0.010    20.411     6.434
 233   6 C      2.757     0.270    22.434     7.756
 234   8 O      0.858    -0.475    23.245     6.464
 235   6 C      3.851    -0.025    20.981     6.515
 236   6 C      3.803    -0.062    21.686     6.630
 237   6 C      3.753    -0.128    23.007     6.840
 238   6 C      3.751    -0.113    22.724     6.798
 239   1 H      0.860     0.223     0.997     1.564
 240   1 H      0.924     0.066     2.132     2.283
 241   1 H      0.924     0.053     2.280     2.361
 242   1 H      0.924     0.040     2.451     2.448
 243   1 H      0.924     0.035     2.522     2.484
 244   1 H      0.925     0.067     2.124     2.279
 245   1 H      0.925     0.047     2.356     2.400
 246   1 H      0.925     0.046     2.375     2.410
 247   1 H      0.925     0.033     2.547     2.496
 248   1 H      0.925     0.042     2.416     2.431
 249   1 H      0.925     0.046     2.367     2.406
 250   7 N      2.687    -0.170    24.682     7.379
 251   6 C      3.797     0.009    20.434     6.437
 252   6 C      2.752     0.267    22.500     7.767
 253   8 O      0.858    -0.452    22.745     6.394
 254   6 C      3.815    -0.079    22.002     6.676
 255   6 C      2.972     0.001    28.009     8.681
 256   6 C      2.929    -0.047    29.171     8.857
 257   6 C      2.926    -0.041    29.030     8.836
 258   6 C      2.918    -0.082    30.054     8.990
 259   6 C      2.919    -0.062    29.531     8.911
 260   6 C      2.850     0.135    25.042     8.202
 261   8 O      1.659    -0.408    20.997     6.186
 262   1 H      0.860     0.221     1.003     1.569
 263   1 H      0.924     0.095     1.829     2.115
 264   1 H      0.924     0.054     2.272     2.357
 265   1 H      0.924     0.062     2.177     2.307
 266   1 H      0.926     0.039     2.466     2.456
 267   1 H      0.926     0.048     2.343     2.394
 268   1 H      0.926     0.043     2.411     2.428
 269   1 H      0.926     0.061     2.184     2.311
 270   1 H      0.805     0.333     0.631     1.247
 271   7 N      2.695    -0.171    24.702     7.382
 272   6 C      3.789     0.017    20.301     6.417
 273   6 C      2.758     0.273    22.394     7.749
 274   8 O      0.858    -0.468    23.081     6.441
 275   6 C      3.814    -0.073    21.887     6.659
 276   6 C      2.966    -0.004    28.126     8.699
 277   6 C      2.925    -0.040    28.988     8.829
 278   6 C      2.928    -0.043    29.067     8.842
 279   6 C      2.918    -0.074    29.845     8.959
 280   6 C      2.917    -0.058    29.451     8.899
 281   6 C      2.848     0.145    24.845     8.169
 282   8 O      1.659    -0.440    21.643     6.280
 283   1 H      0.860     0.207     1.072     1.622
 284   1 H      0.924     0.076     2.026     2.226
 285   1 H      0.924     0.067     2.115     2.274
 286   1 H      0.924     0.060     2.203     2.321
 287   1 H      0.926     0.033     2.540     2.492
 288   1 H      0.926     0.060     2.201     2.320
 289   1 H      0.926     0.031     2.572     2.508
 290   1 H      0.926     0.053     2.281     2.362
 291   1 H      0.805     0.342     0.607     1.224
 292   7 N      2.688    -0.163    24.517     7.354
 293   6 C      3.792     0.007    20.468     6.443
 294   6 C      2.768     0.194    23.855     7.999
 295   8 O      0.856    -0.367    21.029     6.148
 296   6 C      3.726     0.113    18.827     6.195
 297   8 O      1.656    -0.446    21.771     6.299
 298   6 C      3.753    -0.138    23.208     6.870
 299   1 H      0.860     0.215     1.031     1.591
 300   1 H      0.924     0.108     1.715     2.048
 301   1 H      0.923     0.042     2.427     2.437
 302   1 H      0.805     0.331     0.634     1.251
 303   1 H      0.925     0.085     1.933     2.174
 304   1 H      0.925     0.047     2.363     2.404
 305   1 H      0.925     0.070     2.089     2.260
 306   7 N      2.634    -0.386    29.994     8.134
 307   6 C      3.785     0.031    20.070     6.381
 308   6 C      2.758     0.264    22.553     7.777
 309   8 O      0.858    -0.476    23.256     6.466
 310   6 C      3.814    -0.070    21.833     6.651
 311   6 C      2.965    -0.000    28.030     8.684
 312   6 C      2.923    -0.043    29.061     8.840
 313   6 C      2.930    -0.044    29.086     8.845
 314   6 C      2.918    -0.078    29.947     8.974
 315   6 C      2.918    -0.058    29.447     8.899
 316   6 C      2.847     0.144    24.859     8.171
 317   8 O      1.660    -0.442    21.686     6.287
 318   1 H      0.860     0.174     1.247     1.749
 319   1 H      0.924     0.037     2.496     2.470
 320   1 H      0.924     0.053     2.288     2.366
 321   1 H      0.924     0.035     2.511     2.478
 322   1 H      0.926     0.044     2.392     2.418
 323   1 H      0.926     0.040     2.444     2.445
 324   1 H      0.926     0.036     2.505     2.475
 325   1 H      0.926     0.043     2.411     2.428
 326   1 H      0.805     0.345     0.600     1.216
 327   7 N      2.686    -0.162    24.500     7.351
 328   6 C      3.747    -0.039    21.333     6.588
 329   6 C      2.751     0.269    22.451     7.759
 330   8 O      0.858    -0.484    23.440     6.491
 331   1 H      0.860     0.196     1.127     1.663
 332   1 H      0.924     0.096     1.826     2.113
 333   1 H      0.924     0.100     1.787     2.091
 334   7 N      2.693    -0.164    24.539     7.357
 335   6 C      3.789     0.023    20.202     6.401
 336   6 C      2.768     0.198    23.782     7.987
 337   8 O      0.856    -0.338    20.490     6.069
 338   6 C      3.806    -0.079    21.996     6.676
 339   6 C      3.800    -0.084    22.111     6.695
 340   6 C      3.741    -0.030    21.183     6.567
 341   7 N      2.697    -0.151    24.273     7.317
 342   6 C      2.737     0.219    23.371     7.915
 343   7 N      2.651    -0.242    26.327     7.620
 344   7 N      2.651    -0.242    26.309     7.618
 345   1 H      0.860     0.225     0.988     1.557
 346   1 H      0.924     0.082     1.955     2.187
 347   1 H      0.924     0.071     2.080     2.255
 348   1 H      0.925     0.077     2.005     2.215
 349   1 H      0.924     0.068     2.107     2.270
 350   1 H      0.925     0.077     2.009     2.216
 351   1 H      0.924     0.085     1.925     2.170
 352   1 H      0.924     0.087     1.910     2.161
 353   1 H      0.860     0.236     0.939     1.518
 354   1 H      0.860     0.245     0.905     1.490
 355   1 H      0.860     0.261     0.843     1.439
 356   1 H      0.860     0.248     0.891     1.479
 357   1 H      0.860     0.257     0.855     1.448
 358   7 N      2.634    -0.396    30.264     8.170
 359   6 C      3.784     0.015    20.334     6.423
 360   6 C      2.755     0.267    22.491     7.766
 361   8 O      0.859    -0.475    23.247     6.464
 362   6 C      3.676     0.079    19.472     6.322
 363   8 O      1.656    -0.484    22.560     6.412
 364   1 H      0.860     0.160     1.336     1.810
 365   1 H      0.924     0.083     1.952     2.185
 366   1 H      0.923     0.034     2.533     2.489
 367   1 H      0.924     0.020     2.729     2.583
 368   1 H      0.805     0.340     0.611     1.228
 369   7 N      2.689    -0.170    24.687     7.379
 370   6 C      3.799     0.004    20.516     6.449
 371   6 C      2.753     0.268    22.480     7.764
 372   8 O      0.858    -0.477    23.274     6.468
 373   6 C      3.804    -0.081    22.050     6.685
 374   6 C      3.800    -0.092    22.262     6.718
 375   6 C      3.737    -0.029    21.183     6.568
 376   7 N      2.699    -0.136    23.943     7.267
 377   6 C      2.737     0.232    23.141     7.876
 378   7 N      2.653    -0.249    26.492     7.644
 379   7 N      2.650    -0.247    26.426     7.635
 380   1 H      0.860     0.213     1.040     1.597
 381   1 H      0.924     0.082     1.958     2.188
 382   1 H      0.925     0.075     2.030     2.228
 383   1 H      0.925     0.067     2.123     2.279
 384   1 H      0.925     0.066     2.125     2.280
 385   1 H      0.925     0.088     1.896     2.153
 386   1 H      0.925     0.090     1.879     2.144
 387   1 H      0.924     0.076     2.021     2.223
 388   1 H      0.860     0.230     0.965     1.539
 389   1 H      0.860     0.230     0.964     1.538
 390   1 H      0.860     0.249     0.887     1.475
 391   1 H      0.860     0.247     0.894     1.481
 392   1 H      0.860     0.249     0.889     1.477
 393   7 N      2.691    -0.178    24.844     7.403
 394   6 C      3.794     0.020    20.254     6.409
 395   6 C      2.752     0.271    22.428     7.755
 396   8 O      0.858    -0.457    22.857     6.410
 397   6 C      3.813    -0.081    22.044     6.683
 398   6 C      2.972     0.011    27.765     8.643
 399   6 C      2.927    -0.041    29.022     8.835
 400   6 C      2.926    -0.041    29.017     8.834
 401   6 C      2.921    -0.029    28.716     8.788
 402   6 C      2.920    -0.036    28.896     8.815
 403   6 C      2.923    -0.037    28.922     8.819
 404   1 H      0.860     0.215     1.033     1.592
 405   1 H      0.924     0.068     2.106     2.269
 406   1 H      0.924     0.075     2.029     2.227
 407   1 H      0.924     0.073     2.055     2.242
 408   1 H      0.926     0.045     2.383     2.414
 409   1 H      0.926     0.037     2.483     2.464
 410   1 H      0.926     0.043     2.404     2.425
 411   1 H      0.926     0.026     2.639     2.540
 412   1 H      0.926     0.029     2.598     2.521
 413   7 N      2.690    -0.166    24.594     7.366
 414   6 C      3.791     0.020    20.248     6.408
 415   6 C      2.764     0.202    23.711     7.974
 416   8 O      0.856    -0.359    20.887     6.127
 417   6 C      3.725     0.116    18.779     6.188
 418   8 O      1.655    -0.484    22.551     6.411
 419   6 C      3.753    -0.139    23.246     6.875
 420   1 H      0.860     0.221     1.006     1.571
 421   1 H      0.924     0.091     1.874     2.141
 422   1 H      0.923     0.021     2.716     2.577
 423   1 H      0.805     0.349     0.591     1.207
 424   1 H      0.925     0.080     1.975     2.198
 425   1 H      0.925     0.050     2.319     2.381
 426   1 H      0.925     0.068     2.111     2.272
 427   7 N      2.637    -0.393    30.175     8.158
 428   6 C      3.786     0.034    20.010     6.371
 429   6 C      2.766     0.263    22.564     7.779
 430   8 O      0.859    -0.507    23.944     6.561
 431   6 C      3.810    -0.073    21.891     6.660
 432   6 C      3.089     0.025    27.350     8.572
 433   7 N      2.811    -0.104    23.281     7.166
 434   6 C      3.164     0.009    27.486     8.569
 435   6 C      3.172     0.085    25.754     8.290
 436   7 N      1.907    -0.308    28.838     7.962
 437   1 H      0.860     0.159     1.341     1.814
 438   1 H      0.925     0.038     2.481     2.463
 439   1 H      0.924     0.061     2.185     2.312
 440   1 H      0.924     0.052     2.299     2.371
 441   1 H      0.859     0.206     1.077     1.626
 442   1 H      0.926     0.019     2.753     2.595
 443   1 H      0.926     0.043     2.411     2.428
 444   7 N      2.759    -0.076    22.721     7.080
 445   6 C      3.833     0.014    20.320     6.413
 446   6 C      2.754     0.274    22.360     7.743
 447   8 O      0.858    -0.459    22.890     6.414
 448   6 C      3.828    -0.074    21.890     6.657
 449   6 C      3.829    -0.070    21.815     6.646
 450   6 C      3.764    -0.011    20.811     6.502
 451   1 H      0.924     0.072     2.068     2.249
 452   1 H      0.925     0.059     2.209     2.324
 453   1 H      0.925     0.065     2.145     2.290
 454   1 H      0.924     0.058     2.217     2.328
 455   1 H      0.925     0.066     2.132     2.283
 456   1 H      0.924     0.067     2.120     2.277
 457   1 H      0.924     0.062     2.172     2.305
 458   7 N      2.689    -0.171    24.693     7.380
 459   6 C      3.739    -0.022    21.054     6.547
 460   6 C      2.763     0.199    23.752     7.981
 461   8 O      0.856    -0.364    20.981     6.141
 462   1 H      0.860     0.208     1.068     1.619
 463   1 H      0.924     0.124     1.584     1.968
 464   1 H      0.923     0.106     1.733     2.059
 465   1 H      0.862     0.176     1.236     1.742
 466   1 H      0.930     0.082     1.953     2.185
 467   1 H      0.862     0.180     1.213     1.725
 468   1 H      0.930     0.070     2.080     2.255
 469   1 H      0.862     0.175     1.241     1.745
 470   1 H      0.930     0.087     1.908     2.160
 471   1 H      0.862     0.188     1.168     1.693
 472   1 H      0.930     0.078     1.996     2.209
 473   1 H      0.862     0.174     1.249     1.751
 474   1 H      0.930     0.077     2.005     2.214
 475   1 H      0.862     0.194     1.138     1.671
 476   1 H      0.930     0.082     1.956     2.187
 477   1 H      0.862     0.182     1.199     1.715
 478   1 H      0.930     0.083     1.945     2.181

 Mol. C6AA /au·bohr⁶  :    2202426.053869
 Mol. C8AA /au·bohr⁸  :   49946211.277350
 Mol. α(0) /au        :       2242.797652


Wiberg/Mayer (AO) data.
largest (>0.10) Wiberg bond orders for each atom
          total WBO             WBO to atom ...
     1  N   2.985        C    2 1.025    H  465 0.952    H    9 0.937
     2  C   3.985        N    1 1.025    C    5 0.970    H   10 0.944    C    3 0.941
     3  C   3.937        O    4 1.600    N   20 1.301    C    2 0.941
     4  O   1.975        C    3 1.600    N   20 0.185
     5  C   3.991        C    6 0.994    H   12 0.972    C    2 0.970    H   11 0.969
     6  C   3.994        C    7 1.011    C    8 1.007    C    5 0.994    H   13 0.960
     7  C   3.994        C    6 1.011    H   16 0.986    H   14 0.983    H   15 0.981
     8  C   3.994        C    6 1.007    H   18 0.986    H   17 0.985    H   19 0.979
     9  H   0.973        N    1 0.937
    10  H   0.996        C    2 0.944
    11  H   0.998        C    5 0.969
    12  H   0.999        C    5 0.972
    13  H   0.998        C    6 0.960
    14  H   0.997        C    7 0.983
    15  H   0.998        C    7 0.981
    16  H   0.998        C    7 0.986
    17  H   0.997        C    8 0.985
    18  H   0.999        C    8 0.986
    19  H   0.999        C    8 0.979
    20  N   3.514        C    3 1.301    C   26 0.974    C   21 0.963    O    4 0.185
    21  C   3.968        C   24 0.977    N   20 0.963    H   27 0.957    C   22 0.941
    22  C   3.944        O   23 1.647    N   34 1.270    C   21 0.941
    23  O   1.954        C   22 1.647    N   34 0.187
    24  C   3.986        C   25 1.002    C   21 0.977    H   28 0.975    H   29 0.972
    25  C   3.990        C   26 1.003    C   24 1.002    H   30 0.972    H   31 0.970
    26  C   3.957        C   25 1.003    N   20 0.974    H   32 0.955    H   33 0.951
    27  H   0.995        C   21 0.957
    28  H   0.997        C   24 0.975
    29  H   0.992        C   24 0.972
    30  H   0.997        C   25 0.972
    31  H   0.993        C   25 0.970
    32  H   0.993        C   26 0.955
    33  H   0.996        C   26 0.951
    34  N   3.442        C   22 1.270    C   35 1.005    H   38 0.912    O   23 0.187
    35  C   3.975        C   36 1.012    N   34 1.005    H   39 0.935    H   40 0.923
    36  C   3.910        O   37 1.887    C   35 1.012    H  466 0.953
    37  O   2.070        C   36 1.887
    38  H   0.957        N   34 0.912
    39  H   0.990        C   35 0.935
    40  H   0.986        C   35 0.923
    41  N   2.998        C   42 1.008    H  467 0.957    H   55 0.950
    42  C   3.983        N   41 1.008    C   43 0.968    H   56 0.964    C   45 0.958
    43  C   3.889        O   44 1.887    C   42 0.968    H  468 0.954
    44  O   2.024        C   43 1.887
    45  C   3.992        C   46 1.009    H   58 0.971    H   57 0.967    C   42 0.958
    46  C   3.976        C   47 1.570    C   48 1.207    C   45 1.009
    47  C   3.955        C   46 1.570    N   49 1.208    H   59 0.968
    48  C   3.986        C   51 1.331    C   50 1.244    C   46 1.207
    49  N   3.549        C   47 1.208    C   50 1.180    H   60 0.936
    50  C   3.962        C   52 1.334    C   48 1.244    N   49 1.180
    51  C   3.993        C   53 1.506    C   48 1.331    H   61 0.969    C   52 0.113
    52  C   3.987        C   54 1.494    C   50 1.334    H   62 0.967    C   51 0.113
    53  C   3.991        C   51 1.506    C   54 1.369    H   63 0.966
    54  C   3.990        C   52 1.494    C   53 1.369    H   64 0.966
    55  H   0.970        N   41 0.950
    56  H   0.999        C   42 0.964
    57  H   0.997        C   45 0.967
    58  H   0.996        C   45 0.971
    59  H   0.997        C   47 0.968
    60  H   0.962        N   49 0.936
    61  H   0.999        C   51 0.969
    62  H   0.998        C   52 0.967
    63  H   0.998        C   53 0.966
    64  H   0.999        C   54 0.966
    65  N   3.003        C   66 1.025    H  469 0.959    H   69 0.957
    66  C   3.984        N   65 1.025    H   70 0.968    H   71 0.957    C   67 0.951
    67  C   3.950        O   68 1.642    N   72 1.293    C   66 0.951
    68  O   1.959        C   67 1.642    N   72 0.195
[...]
   151  C   3.953        O  152 1.621    N  163 1.326    C  150 0.924
   152  O   1.969        C  151 1.621    N  163 0.200
   153  C   3.989        C  154 1.005    C  150 0.997    H  158 0.977    H  157 0.970
   154  C   3.990        C  155 1.005    C  153 1.005    H  160 0.975    H  159 0.975
   155  C   3.964        C  154 1.005    N  149 0.972    H  162 0.965    H  161 0.955
   156  H   0.996        C  150 0.951
   157  H   0.993        C  153 0.970
   158  H   0.997        C  153 0.977
   159  H   0.995        C  154 0.975
   160  H   0.996        C  154 0.975
   161  H   0.996        C  155 0.955
   162  H   0.996        C  155 0.965
   163  N   3.486        C  151 1.326    C  164 0.982    H  168 0.894    O  152 0.200
   164  C   3.966        C  167 0.994    N  163 0.982    H  169 0.948    C  165 0.929
   165  C   3.946        O  166 1.641    N  173 1.296    C  164 0.929
   166  O   1.956        C  165 1.641    N  173 0.196
   167  C   3.984        C  164 0.994    H  172 0.983    H  170 0.979    H  171 0.976
   168  H   0.951        N  163 0.894
   169  H   0.994        C  164 0.948
   170  H   0.994        C  167 0.979
   171  H   0.994        C  167 0.976
   172  H   0.996        C  167 0.983
   173  N   3.468        C  165 1.296    C  174 0.986    H  184 0.886    O  166 0.196
   174  C   3.969        N  173 0.986    C  177 0.971    H  185 0.955    C  175 0.933
   175  C   3.947        O  176 1.633    N  197 1.295    C  174 0.933
   176  O   1.988        C  175 1.633    N  197 0.195
   177  C   3.986        C  178 1.008    H  187 0.971    C  174 0.971    H  186 0.965
   178  C   3.989        C  177 1.008    C  179 1.004    H  189 0.975    H  188 0.965
   179  C   3.955        C  178 1.004    N  180 0.984    H  190 0.960    H  191 0.955
   180  N   3.463        C  181 1.311    C  179 0.984    H  192 0.911    N  182 0.105
   181  C   3.978        N  182 1.338    N  180 1.311    N  183 1.297
   182  N   3.418        C  181 1.338    H  194 0.923    H  193 0.894    N  180 0.105    N  183 0.103
   183  N   3.379        C  181 1.297    H  196 0.920    H  195 0.920    N  182 0.103
   184  H   0.945        N  173 0.886
   185  H   0.995        C  174 0.955
   186  H   0.994        C  177 0.965
   187  H   0.995        C  177 0.971
   188  H   0.993        C  178 0.965
   189  H   0.995        C  178 0.975
   190  H   0.992        C  179 0.960
   191  H   0.994        C  179 0.955
   192  H   0.948        N  180 0.911
   193  H   0.937        N  182 0.894
   194  H   0.942        N  182 0.923
   195  H   0.939        N  183 0.920
   196  H   0.942        N  183 0.920
   197  N   3.476        C  175 1.295    C  198 0.977    H  205 0.924    O  176 0.195
   198  C   3.962        N  197 0.977    C  199 0.968    C  201 0.951    H  206 0.947
   199  C   3.894        O  200 1.913    C  198 0.968    H  470 0.952
   200  O   2.048        C  199 1.913
   201  C   3.986        C  202 1.014    H  208 0.974    H  207 0.966    C  198 0.951
   202  C   3.979        C  201 1.014    S  203 0.989    H  209 0.972    H  210 0.964
   203  S   2.080        C  204 1.010    C  202 0.989
   204  C   3.974        S  203 1.010    H  213 0.985    H  211 0.980    H  212 0.976
   205  H   0.956        N  197 0.924
   206  H   0.991        C  198 0.947
   207  H   0.995        C  201 0.966
   208  H   0.997        C  201 0.974
   209  H   0.996        C  202 0.972
   210  H   0.995        C  202 0.964
   211  H   0.996        C  204 0.980
   212  H   0.994        C  204 0.976
   213  H   0.998        C  204 0.985
   214  N   2.991        C  215 1.030    H  471 0.950    H  223 0.938
   215  C   3.984        N  214 1.030    C  218 0.958    H  224 0.947    C  216 0.944
   216  C   3.941        O  217 1.609    N  231 1.310    C  215 0.944
   217  O   1.954        C  216 1.609    N  231 0.193
   218  C   3.993        C  219 0.993    H  226 0.974    H  225 0.972    C  215 0.958
   219  C   3.990        C  218 0.993    C  220 0.965    H  228 0.959    H  227 0.951
   220  C   3.945        O  221 1.638    N  222 1.309    C  219 0.965
   221  O   1.949        C  220 1.638    N  222 0.201
   222  N   3.402        C  220 1.309    H  229 0.929    H  230 0.923    O  221 0.201
   223  H   0.970        N  214 0.938
   224  H   0.996        C  215 0.947
   225  H   0.996        C  218 0.972
   226  H   0.998        C  218 0.974
   227  H   0.994        C  219 0.951
   228  H   0.996        C  219 0.959
   229  H   0.951        N  222 0.929
   230  H   0.946        N  222 0.923
   231  N   3.476        C  216 1.310    C  232 0.987    H  239 0.901    O  217 0.193
   232  C   3.966        N  231 0.987    H  240 0.956    C  235 0.946    C  233 0.939
   233  C   3.950        O  234 1.615    N  250 1.309    C  232 0.939
   234  O   1.975        C  233 1.615    N  250 0.196
   235  C   3.987        C  237 1.010    C  236 0.996    H  241 0.960    C  232 0.946
   236  C   3.995        C  238 1.018    C  235 0.996    H  242 0.977    H  243 0.976
   237  C   3.992        C  235 1.010    H  246 0.985    H  245 0.982    H  244 0.979
   238  C   3.994        C  236 1.018    H  248 0.987    H  247 0.987    H  249 0.985
   239  H   0.950        N  231 0.901
   240  H   0.995        C  232 0.956
   241  H   0.997        C  235 0.960
   242  H   0.998        C  236 0.977
   243  H   0.999        C  236 0.976
   244  H   0.995        C  237 0.979
   245  H   0.998        C  237 0.982
   246  H   0.998        C  237 0.985
   247  H   0.998        C  238 0.987
   248  H   0.998        C  238 0.987
   249  H   0.998        C  238 0.985
   250  N   3.484        C  233 1.309    C  251 0.988    H  262 0.897    O  234 0.196
   251  C   3.959        N  250 0.988    H  263 0.953    C  254 0.951    C  252 0.927
   252  C   3.947        O  253 1.668    N  271 1.277    C  251 0.927
   253  O   1.982        C  252 1.668    N  271 0.197
   254  C   3.989        C  255 1.011    H  265 0.969    H  264 0.964    C  251 0.951
   255  C   3.988        C  257 1.407    C  256 1.405    C  254 1.011
   256  C   3.990        C  258 1.452    C  255 1.405    H  266 0.960    C  259 0.108
   257  C   3.989        C  259 1.455    C  255 1.407    H  267 0.966    C  258 0.105
   258  C   3.986        C  256 1.452    C  260 1.371    H  268 0.961    C  257 0.105
   259  C   3.988        C  257 1.455    C  260 1.370    H  269 0.966    C  256 0.108
   260  C   3.949        C  258 1.371    C  259 1.370    O  261 1.076
   261  O   2.100        C  260 1.076    H  270 0.860
   262  H   0.951        N  250 0.897
   263  H   0.990        C  251 0.953
   264  H   0.996        C  254 0.964
   265  H   0.995        C  254 0.969
   266  H   0.998        C  256 0.960
   267  H   0.998        C  257 0.966
   268  H   0.998        C  258 0.961
   269  H   0.996        C  259 0.966
   270  H   0.889        O  261 0.860
   271  N   3.459        C  252 1.277    C  272 0.975    H  283 0.918    O  253 0.197
   272  C   3.966        N  271 0.975    C  275 0.966    H  284 0.958    C  273 0.935
   273  C   3.948        O  274 1.648    N  292 1.287    C  272 0.935
   274  O   1.980        C  273 1.648    N  292 0.196
   275  C   3.989        C  276 1.009    H  285 0.966    C  272 0.966    H  286 0.963
   276  C   3.987        C  277 1.413    C  278 1.400    C  275 1.009
   277  C   3.991        C  279 1.448    C  276 1.413    H  287 0.970    C  280 0.107
   278  C   3.988        C  280 1.464    C  276 1.400    H  288 0.964    C  279 0.104
   279  C   3.988        C  277 1.448    C  281 1.375    H  289 0.967    C  278 0.104
   280  C   3.987        C  278 1.464    C  281 1.360    H  290 0.968    C  277 0.107
   281  C   3.934        C  279 1.375    C  280 1.360    O  282 1.069
   282  O   2.090        C  281 1.069    H  291 0.862
   283  H   0.957        N  271 0.918
   284  H   0.994        C  272 0.958
   285  H   0.994        C  275 0.966
   286  H   0.996        C  275 0.963
   287  H   0.999        C  277 0.970
   288  H   0.996        C  278 0.964
   289  H   0.999        C  279 0.967
   290  H   0.997        C  280 0.968
   291  H   0.883        O  282 0.862
   292  N   3.469        C  273 1.287    C  293 0.989    H  299 0.921    O  274 0.196
   293  C   3.965        N  292 0.989    C  294 0.983    H  300 0.943    C  296 0.919
   294  C   3.902        O  295 1.893    C  293 0.983    H  472 0.953
   295  O   2.043        C  294 1.893
   296  C   3.958        C  298 1.005    O  297 1.005    H  301 0.962    C  293 0.919
   297  O   1.970        C  296 1.005    H  302 0.873
   298  C   3.986        C  296 1.005    H  305 0.983    H  304 0.982    H  303 0.979
   299  H   0.953        N  292 0.921
   300  H   0.988        C  293 0.943
   301  H   0.998        C  296 0.962
   302  H   0.890        O  297 0.873
   303  H   0.992        C  298 0.979
   304  H   0.998        C  298 0.982
   305  H   0.995        C  298 0.983
   306  N   2.996        C  307 1.028    H  473 0.943    H  318 0.939
   307  C   3.989        N  306 1.028    C  310 0.966    H  319 0.959    C  308 0.940
   308  C   3.947        O  309 1.619    N  327 1.310    C  307 0.940
   309  O   1.959        C  308 1.619    N  327 0.195
   310  C   3.995        C  311 1.004    C  307 0.966    H  321 0.961    H  320 0.957
   311  C   3.987        C  312 1.429    C  313 1.385    C  310 1.004
   312  C   3.991        C  314 1.430    C  311 1.429    H  322 0.957    C  315 0.105
   313  C   3.990        C  315 1.477    C  311 1.385    H  323 0.969    C  314 0.107
   314  C   3.986        C  312 1.430    C  316 1.385    H  324 0.967    C  313 0.107
   315  C   3.988        C  313 1.477    C  316 1.350    H  325 0.969    C  312 0.105
   316  C   3.934        C  314 1.385    C  315 1.350    O  317 1.070
   317  O   2.089        C  316 1.070    H  326 0.860
   318  H   0.970        N  306 0.939
   319  H   0.998        C  307 0.959
   320  H   0.996        C  310 0.957
   321  H   0.998        C  310 0.961
   322  H   0.998        C  312 0.957
   323  H   0.998        C  313 0.969
   324  H   0.999        C  314 0.967
   325  H   0.998        C  315 0.969
   326  H   0.881        O  317 0.860
   327  N   3.475        C  308 1.310    C  328 0.988    H  331 0.928    O  309 0.195
   328  C   3.958        N  327 0.988    C  329 0.960    H  333 0.942    H  332 0.934
   329  C   3.956        O  330 1.639    N  334 1.299    C  328 0.960
   330  O   1.961        C  329 1.639    N  334 0.201
   331  H   0.961        N  327 0.928
   332  H   0.991        C  328 0.934
   333  H   0.990        C  328 0.942
   334  N   3.475        C  329 1.299    C  335 0.982    H  345 0.904    O  330 0.201
   335  C   3.966        N  334 0.982    C  336 0.980    H  346 0.955    C  338 0.947
   336  C   3.902        O  337 1.905    C  335 0.980    H  474 0.954
   337  O   2.068        C  336 1.905
   338  C   3.982        C  339 1.006    H  347 0.970    H  348 0.968    C  335 0.947
   339  C   3.988        C  338 1.006    C  340 0.996    H  350 0.970    H  349 0.970
   340  C   3.953        C  339 0.996    N  341 0.982    H  352 0.966    H  351 0.961
   341  N   3.447        C  342 1.293    C  340 0.982    H  353 0.914
   342  C   3.977        N  344 1.328    N  343 1.324    N  341 1.293
   343  N   3.397        C  342 1.324    H  354 0.919    H  355 0.909    N  344 0.106
   344  N   3.406        C  342 1.328    H  357 0.914    H  356 0.913    N  343 0.106
   345  H   0.949        N  334 0.904
   346  H   0.993        C  335 0.955
   347  H   0.994        C  338 0.970
   348  H   0.994        C  338 0.968
   349  H   0.995        C  339 0.970
   350  H   0.994        C  339 0.970
   351  H   0.993        C  340 0.961
   352  H   0.992        C  340 0.966
   353  H   0.944        N  341 0.914
   354  H   0.940        N  343 0.919
   355  H   0.932        N  343 0.909
   356  H   0.939        N  344 0.913
   357  H   0.934        N  344 0.914
   358  N   2.998        C  359 1.025    H  364 0.955    H  475 0.950
   359  C   3.982        N  358 1.025    C  362 0.961    H  365 0.954    C  360 0.941
   360  C   3.948        O  361 1.657    N  369 1.276    C  359 0.941
   361  O   1.972        C  360 1.657    N  369 0.194
   362  C   3.957        O  363 1.004    H  367 0.970    H  366 0.966    C  359 0.961
   363  O   1.928        C  362 1.004    H  368 0.869
   364  H   0.974        N  358 0.955
   365  H   0.993        C  359 0.954
   366  H   0.998        C  362 0.966
   367  H   1.000        C  362 0.970
   368  H   0.884        O  363 0.869
   369  N   3.460        C  360 1.276    C  370 0.979    H  380 0.919    O  361 0.194
   370  C   3.965        C  373 0.985    N  369 0.979    H  381 0.946    C  371 0.926
   371  C   3.944        O  372 1.647    N  393 1.290    C  370 0.926
   372  O   1.977        C  371 1.647    N  393 0.200
   373  C   3.986        C  374 1.007    C  370 0.985    H  383 0.971    H  382 0.969
   374  C   3.988        C  373 1.007    C  375 0.993    H  384 0.974    H  385 0.969
   375  C   3.953        C  374 0.993    N  376 0.983    H  386 0.966    H  387 0.964
   376  N   3.464        C  377 1.316    C  375 0.983    H  388 0.907    N  378 0.100
   377  C   3.977        N  379 1.316    N  376 1.316    N  378 1.314
   378  N   3.398        C  377 1.314    H  389 0.922    H  390 0.918    N  379 0.101    N  376 0.100
   379  N   3.394        C  377 1.316    H  392 0.919    H  391 0.914    N  378 0.101
   380  H   0.954        N  369 0.919
   381  H   0.993        C  370 0.946
   382  H   0.994        C  373 0.969
   383  H   0.995        C  373 0.971
   384  H   0.996        C  374 0.974
   385  H   0.992        C  374 0.969
   386  H   0.992        C  375 0.966
   387  H   0.994        C  375 0.964
   388  H   0.947        N  376 0.907
   389  H   0.947        N  378 0.922
   390  H   0.938        N  378 0.918
   391  H   0.939        N  379 0.914
   392  H   0.938        N  379 0.919
   393  N   3.467        C  371 1.290    C  394 0.977    H  404 0.919    O  372 0.200
   394  C   3.966        C  397 0.978    N  393 0.977    H  405 0.949    C  395 0.919
   395  C   3.945        O  396 1.666    N  413 1.283    C  394 0.919
   396  O   1.992        C  395 1.666    N  413 0.198
   397  C   3.986        C  398 1.009    C  394 0.978    H  407 0.962    H  406 0.960
   398  C   3.988        C  400 1.421    C  399 1.407    C  397 1.009    C  403 0.110
   399  C   3.991        C  401 1.453    C  398 1.407    H  408 0.968    C  402 0.111
   400  C   3.990        C  402 1.438    C  398 1.421    H  409 0.968    C  401 0.111
   401  C   3.991        C  399 1.453    C  403 1.431    H  410 0.969    C  400 0.111
   402  C   3.992        C  403 1.445    C  400 1.438    H  411 0.971    C  399 0.111
   403  C   3.991        C  402 1.445    C  401 1.431    H  412 0.966    C  398 0.110
   404  H   0.954        N  393 0.919
   405  H   0.995        C  394 0.949
   406  H   0.994        C  397 0.960
   407  H   0.994        C  397 0.962
   408  H   0.998        C  399 0.968
   409  H   0.999        C  400 0.968
   410  H   0.998        C  401 0.969
   411  H   0.999        C  402 0.971
   412  H   0.999        C  403 0.966
   413  N   3.474        C  395 1.283    C  414 0.985    H  420 0.912    O  396 0.198
   414  C   3.969        N  413 0.985    C  415 0.959    H  421 0.954    C  417 0.952
   415  C   3.893        O  416 1.914    C  414 0.959    H  476 0.952
   416  O   2.048        C  415 1.914
   417  C   3.958        C  419 0.998    O  418 0.994    H  422 0.959    C  414 0.952
   418  O   1.930        C  417 0.994    H  423 0.862
   419  C   3.987        C  417 0.998    H  426 0.983    H  425 0.983    H  424 0.973
   420  H   0.951        N  413 0.912
   421  H   0.992        C  414 0.954
   422  H   0.999        C  417 0.959
   423  H   0.878        O  418 0.862
   424  H   0.992        C  419 0.973
   425  H   0.997        C  419 0.983
   426  H   0.995        C  419 0.983
   427  N   3.001        C  428 1.021    H  437 0.957    H  477 0.949
   428  C   3.985        N  427 1.021    H  438 0.962    C  431 0.952    C  429 0.938
   429  C   3.946        O  430 1.617    N  444 1.301    C  428 0.938
   430  O   1.933        C  429 1.617    N  444 0.193
   431  C   3.995        C  432 1.020    H  440 0.970    H  439 0.961    C  428 0.952
   432  C   3.944        C  434 1.544    N  433 1.197    C  431 1.020    C  435 0.113
   433  N   3.588        C  435 1.272    C  432 1.197    H  441 0.924    N  436 0.104
   434  C   3.972        C  432 1.544    N  436 1.297    H  442 0.970
   435  C   3.957        N  436 1.540    N  433 1.272    H  443 0.964    C  432 0.113
   436  N   3.012        C  435 1.540    C  434 1.297    N  433 0.104
   437  H   0.975        N  427 0.957
   438  H   0.999        C  428 0.962
   439  H   0.996        C  431 0.961
   440  H   0.997        C  431 0.970
   441  H   0.958        N  433 0.924
   442  H   1.000        C  434 0.970
   443  H   0.998        C  435 0.964
   444  N   3.526        C  429 1.301    C  445 0.978    C  450 0.976    O  430 0.193
   445  C   3.972        C  448 0.983    N  444 0.978    H  451 0.946    C  446 0.932
   446  C   3.951        O  447 1.665    N  458 1.276    C  445 0.932
   447  O   1.980        C  446 1.665    N  458 0.195
   448  C   3.991        C  449 1.005    C  445 0.983    H  453 0.975    H  452 0.973
   449  C   3.992        C  448 1.005    C  450 1.003    H  454 0.979    H  455 0.976
   450  C   3.966        C  449 1.003    N  444 0.976    H  457 0.968    H  456 0.967
   451  H   0.995        C  445 0.946
   452  H   0.996        C  448 0.973
   453  H   0.996        C  448 0.975
   454  H   0.997        C  449 0.979
   455  H   0.995        C  449 0.976
   456  H   0.995        C  450 0.967
   457  H   0.996        C  450 0.968
   458  N   3.451        C  446 1.276    C  459 1.002    H  462 0.920    O  447 0.195
   459  C   3.966        N  458 1.002    C  460 0.998    H  463 0.941    H  464 0.918
   460  C   3.902        O  461 1.897    C  459 0.998    H  478 0.952
   461  O   2.051        C  460 1.897
   462  H   0.957        N  458 0.920
   463  H   0.985        C  459 0.941
   464  H   0.989        C  459 0.918
   465  H   0.969        N    1 0.952
   466  H   0.993        C   36 0.953
   467  H   0.967        N   41 0.957
   468  H   0.995        C   43 0.954
   469  H   0.969        N   65 0.959
   470  H   0.992        C  199 0.952
   471  H   0.964        N  214 0.950
   472  H   0.993        C  294 0.953
   473  H   0.969        N  306 0.943
   474  H   0.994        C  336 0.954
   475  H   0.962        N  358 0.950
   476  H   0.993        C  415 0.952
   477  H   0.966        N  427 0.949
   478  H   0.993        C  460 0.952
 
molecular dipole:
                 x           y           z       tot (Debye)
 q only:      101.063      78.712     204.820
   full:      101.063      80.066     202.703     610.628
molecular quadrupole (traceless):
                xx          xy          yy          xz          yz          zz
 q only:    -4170.156    4123.662   -6763.817   10323.923    8248.676   10933.973
  q+dip:    -4119.394    4237.596   -6548.474   10183.900    8299.186   10667.869
   full:    -4113.583    4233.633   -6552.396   10186.543    8297.525   10665.979


           -------------------------------------------------
          | TOTAL ENERGY             -742.913363081968 Eh   |
          | GRADIENT NORM               0.589298845054 Eh/α |
          | HOMO-LUMO GAP               1.428421225265 eV   |
           -------------------------------------------------

------------------------------------------------------------------------
 * finished run on 2019/05/31 at 06:33:21.458     
------------------------------------------------------------------------
 total:
 * wall-time:     0 d,  0 h,  0 min, 13.973 sec
 *  cpu-time:     0 d,  0 h,  0 min, 27.518 sec
 * ratio c/w:     1.969 speedup
 SCF:
 * wall-time:     0 d,  0 h,  0 min, 13.252 sec
 *  cpu-time:     0 d,  0 h,  0 min, 26.230 sec
 * ratio c/w:     1.979 speedup

