      -----------------------------------------------------------      
     |                   =====================                   |     
     |                           x T B                           |     
     |                   =====================                   |     
     |                         S. Grimme                         |     
     |          Mulliken Center for Theoretical Chemistry        |     
     |                    University of Bonn                     |     
     |                 Version 6.0.1 (SAW181210)                 |     
      -----------------------------------------------------------      

   This program is distributed in the hope that it will be useful,
   but WITHOUT ANY WARRANTY; without even the implied warranty of
   MERCHANTABILITY or FITNESS FOR A PARTICULAR PURPOSE.
   
   FOR NON-COMMERCIAL, ACADEMIA USE ONLY.
   
   Cite this work as:
   S. Grimme, C. Bannwarth, P. Shushkov, J. Comput. Theory Chem., 2017,
   13, 1989-2009.
   C. Bannwarth, S. Ehlert and S. Grimme., ChemRxiv, 2018, preprint.
   http://doi.org/10.26434/chemrxiv.7246238.v1
   
   for sTDA-xTB:
   S. Grimme and C. Bannwarth, J. Chem. Phys., 2016, 145, 054103.
   
   in the mass-spec context:
   V. Asgeirsson, C. Bauer and S. Grimme, Chem. Sci., 2017, 8, 4879.
   
   if GBSA is used:
   P. Shushkov, F. März and S. Grimme, unpublished.
   
   for ANC optimizer:
   S. Grimme, unpublished.
   Rational Function algorithm used in ANCopt:
   F. Eckert, P. Pulay, H.-J. Werner, J. Comput. Chem., 1997, 18, 1473.
   
   with help from (in alphabetical order)
   C. Bannwarth, F. Bohle, G. Brandenburg, E. Caldeweyher, M. Checinski,
   S. Dohm, S. Ehlert, S. Ehrlich, F. März, H. Neugebauer, J. Pisarek,
   P. Pracht, P. Shushkov, and S. Spicher.
   
 * started run on 2019/03/14 at 16:03:16.878     
========================================================================
 # omp threads = 1
========================================================================
number of atoms            : 364
number of electrons        : 982
charge                     : -3
spin                       : .0
first test random number   : .1356

########################################################################
# WARNING! Please study the warnings concerning your input carefully
#  - XTBPATH is not set, using XTBHOME instead
########################################################################

           ------------------------------------------------- 
          |                 G F N 2 - x T B                 |
          | Geometry, Frequencies, Noncovalent interactions |
          |            JCTC 2018 parametrisation            |
           ------------------------------------------------- 
 
      method parameters     
 k(s)        :  1.8500
 k(p)        :  2.2300
 k(d)        :  2.2300
 k(f)        :  2.0000
 kEN (H0ij)  : -2.0000
 D4 a1       :  0.5200
 D4 a2       :  5.0000
 D4 s6       :  1.0000
 D4 s8       :  2.7000
 D4 s9       :  5.0000
 alphaj      :  2.0000

 Solvent             : h2o
 Using internal parameter file: .param_gbsa2_h2o
 Gsolv ref. state (COSMO-RS): gsolv [1 M gas/solution]
 temperature (mdtemp)       :    298.150000000000     
 dielectric constant        :    80.2000000000000     
 rho                        :    1.00000000000000     
 mass                       :    18.0000000000000     
 surface tension            :    15.5689454083859     
 probe radius               :   0.975313790000000     
 vdW radii scaling          :    1.00000000000000     
 Gshift (Eh)                :   1.857443126794793E-003
 c1                         :    1.55243817000000     
 soset                      :   0.130326360000000     
 HB correction              :  T

            Z     q(EN)     CN     RAES       Cart. coordinates
     1  N   5.0   -0.23    3.23    1.96    27.72653    24.20152    50.53092
     2  C   4.0    0.02    4.30    4.20    30.42177    24.26648    50.10498
     3  C   4.0    0.14    3.47    3.10    31.27675    22.05901    48.42947
     4  O   6.0   -0.32    1.26    1.80    33.10903    22.25974    47.02403
     5  C   4.0   -0.05    4.26    4.11    31.88914    24.24553    52.61470
     6  C   4.0   -0.05    4.23    4.06    32.51511    21.56213    53.50162
     7  C   4.0   -0.02    4.19    3.99    32.87900    21.25001    56.34621
     8  N   5.0   -0.15    3.40    2.02    34.53430    23.12139    57.48069
     9  C   4.0    0.08    3.34    3.06    35.32933    23.08337    59.86191
    10  N   5.0   -0.21    3.25    1.97    35.22342    21.01244    61.27711
    11  N   5.0   -0.21    3.25    1.97    36.21869    25.21460    60.87272
    12  H   1.0    0.06    1.02    1.43    27.09891    24.31738    52.33900
    13  H   1.0    0.03    1.05    1.44    30.87321    26.01071    49.07323
    14  H   1.0    0.04    1.03    1.43    33.62313    25.31044    52.29479
    15  H   1.0    0.03    1.03    1.43    30.71770    25.22519    54.00036
    16  H   1.0    0.03    1.05    1.44    30.92796    20.33996    53.03726
    17  H   1.0    0.05    1.02    1.43    34.14587    20.88477    52.43898
    18  H   1.0    0.02    1.03    1.43    31.00119    21.40123    57.19365
    19  H   1.0    0.03    1.03    1.43    33.65456    19.36729    56.65836
    20  H   1.0    0.07    1.08    1.44    34.73306    24.73879    56.48284
    21  H   1.0    0.06    1.03    1.43    34.85516    19.29610    60.54130
    22  H   1.0    0.06    1.03    1.43    35.85787    21.08203    63.07286
    23  H   1.0    0.07    1.03    1.43    36.07513    26.84376    59.90497
    24  H   1.0    0.06    1.03    1.43    36.95555    25.27833    62.62566
    25  N   5.0   -0.16    3.50    2.08    30.05345    19.85828    48.72644
    26  C   4.0    0.03    4.42    4.42    30.85706    17.65033    47.30197
    27  C   4.0    0.16    3.51    3.12    30.46196    18.01232    44.46087
    28  O   6.0   -0.29    1.32    1.80    32.07841    17.43314    42.89936
    29  C   4.0   -0.04    4.25    4.11    29.52590    15.28588    48.24151
    30  C   4.0    0.25    3.12    3.03    29.76673    13.01923    46.32547
    31  O   6.0   -0.29    1.16    1.80    31.93393    12.24557    45.86651
    32  O   6.0   -0.30    1.16    1.80    27.71835    12.14017    45.56146
    33  H   1.0    0.07    1.06    1.44    28.34457    19.77113    49.61089
    34  H   1.0    0.06    1.06    1.44    32.90293    17.43326    47.56065
    35  H   1.0    0.03    1.03    1.43    30.40064    14.67101    50.00131
    36  H   1.0    0.04    1.03    1.43    27.52146    15.66070    48.51165
    37  N   5.0   -0.14    3.50    2.08    28.31445    19.15187    43.78277
    38  C   4.0    0.04    4.34    4.27    27.86023    19.85350    41.16984
    39  C   4.0    0.16    3.48    3.11    30.09876    21.36356    40.11076
    40  O   6.0   -0.31    1.24    1.80    30.71705    21.23557    37.88392
    41  C   4.0   -0.08    4.11    3.81    25.43104    21.38484    40.97574
    42  H   1.0    0.07    1.07    1.44    27.04709    19.65299    45.11682
    43  H   1.0    0.07    1.05    1.44    27.73403    18.14101    39.99635
    44  H   1.0    0.04    1.00    1.43    25.11306    21.90070    39.01696
    45  H   1.0    0.03    1.00    1.43    23.85450    20.24209    41.62733
    46  H   1.0    0.03    1.00    1.43    25.57378    23.08001    42.12737
    47  N   5.0   -0.15    3.53    2.10    31.22698    22.96679    41.71780
    48  C   4.0    0.04    4.52    4.57    33.37955    24.42217    40.86490
    49  C   4.0    0.15    3.52    3.13    35.67033    22.75017    40.35607
    50  O   6.0   -0.32    1.31    1.80    37.21243    23.28706    38.71124
    51  C   4.0   -0.02    4.33    4.26    34.23049    26.48230    42.72576
    52  C   4.0   -0.05    4.20    3.99    31.99699    27.81178    44.00435
    53  C   4.0   -0.08    4.12    3.84    35.97149    28.35893    41.39168
    54  C   4.0   -0.09    4.00    3.63    30.16472    29.28086    42.34170
    55  H   1.0    0.09    1.09    1.44    30.83857    22.86813    43.58019
    56  H   1.0    0.05    1.06    1.44    32.83211    25.28434    39.06310
    57  H   1.0    0.05    1.06    1.44    35.28536    25.50757    44.21785
    58  H   1.0    0.04    1.04    1.43    30.91483    26.39016    45.02345
    59  H   1.0    0.03    1.03    1.43    32.79397    29.12574    45.37587
    60  H   1.0    0.04    1.00    1.43    36.56337    29.80555    42.71941
    61  H   1.0    0.05    1.00    1.43    37.64214    27.44115    40.62491
    62  H   1.0    0.04    1.00    1.43    34.98696    29.25122    39.82945
    63  H   1.0    0.03    1.00    1.43    28.57866    29.85767    43.51496
    64  H   1.0    0.03    1.00    1.43    31.05480    30.95572    41.55878
    65  H   1.0    0.04    1.00    1.43    29.40627    28.12980    40.82121
    66  N   5.0   -0.14    3.52    2.09    36.01482    20.79224    41.91956
    67  C   4.0    0.04    4.44    4.44    37.97466    18.94967    41.35713
    68  C   4.0    0.16    3.54    3.13    37.81958    18.20150    38.58223
    69  O   6.0   -0.31    1.28    1.80    39.62160    18.40198    37.13352
    70  C   4.0   -0.04    4.37    4.32    37.72824    16.66924    43.10598
    71  C   4.0   -0.02    4.17    3.95    39.69542    14.57237    42.78688
    72  C   4.0   -0.08    4.11    3.81    42.33758    15.48047    43.48452
    73  C   4.0   -0.08    4.11    3.82    38.94331    12.35702    44.48965
    74  H   1.0    0.11    1.11    1.44    34.56342    20.21722    43.01875
    75  H   1.0    0.05    1.06    1.44    39.80503    19.89650    41.56512
    76  H   1.0    0.05    1.03    1.43    37.81239    17.37141    45.04439
    77  H   1.0    0.07    1.05    1.44    35.87269    15.81634    42.82703
    78  H   1.0    0.05    1.05    1.44    39.70864    13.92427    40.81049
    79  H   1.0    0.04    1.01    1.43    43.62102    13.88568    43.41654
    80  H   1.0    0.05    1.00    1.43    43.01364    16.87908    42.13874
    81  H   1.0    0.04    1.00    1.43    42.31880    16.28119    45.37697
    82  H   1.0    0.03    1.00    1.43    40.20840    10.76502    44.20440
    83  H   1.0    0.04    1.00    1.43    39.01757    12.93790    46.45784
    84  H   1.0    0.06    1.00    1.43    37.02460    11.72902    44.08687
    85  N   5.0   -0.13    3.54    2.11    35.51657    17.47946    37.81759
    86  C   4.0    0.04    4.46    4.48    35.14952    16.59370    35.25948
    87  C   4.0    0.16    3.51    3.12    35.96813    18.52840    33.31153
    88  O   6.0   -0.31    1.29    1.80    36.62645    17.88449    31.16509
    89  C   4.0   -0.02    4.29    4.17    32.38841    15.96669    34.80962
    90  C   4.0    0.25    3.12    3.03    31.61616    13.75239    36.62948
    91  O   6.0   -0.29    1.18    1.80    33.06191    11.89697    36.67688
    92  O   6.0   -0.28    1.16    1.80    29.62863    14.06195    37.84111
    93  H   1.0    0.11    1.08    1.44    34.22590    16.97127    39.13229
    94  H   1.0    0.06    1.06    1.44    36.25062    14.85745    34.94227
    95  H   1.0    0.07    1.03    1.43    31.21243    17.61621    35.17156
    96  H   1.0    0.05    1.03    1.43    32.15565    15.32950    32.86280
    97  N   5.0   -0.13    3.53    2.10    35.76275    20.96178    33.92459
    98  C   4.0    0.04    4.38    4.34    36.49359    22.87855    32.11823
    99  C   4.0    0.15    3.47    3.10    39.20209    22.55454    31.15901
   100  O   6.0   -0.31    1.26    1.80    39.78910    23.16535    29.00818
   101  C   4.0   -0.07    4.14    3.88    36.26749    25.46416    33.34416
   102  H   1.0    0.11    1.11    1.44    35.61706    21.49389    35.75303
   103  H   1.0    0.06    1.05    1.44    35.24643    22.69454    30.47109
   104  H   1.0    0.04    1.00    1.43    36.81288    26.94634    32.03445
   105  H   1.0    0.04    1.01    1.43    34.32752    25.72087    33.95321
   106  H   1.0    0.06    1.01    1.43    37.48718    25.52835    34.99258
   107  N   5.0   -0.15    3.52    2.09    40.87486    21.78827    32.89461
   108  C   4.0    0.04    4.40    4.38    43.50389    21.53797    32.25805
   109  C   4.0    0.15    3.39    3.08    44.16624    18.94280    31.09785
   110  O   6.0   -0.30    1.23    1.80    46.35703    18.37788    30.63760
   111  C   4.0   -0.04    4.32    4.24    45.29476    21.99960    34.48509
   112  C   4.0   -0.03    4.14    3.87    45.37241    24.61126    35.78375
   113  C   4.0   -0.08    4.09    3.77    46.05610    26.79037    34.01477
   114  C   4.0   -0.07    4.10    3.80    42.93294    25.22945    37.19616
   115  H   1.0    0.11    1.09    1.44    40.25004    21.09487    34.56274
   116  H   1.0    0.05    1.07    1.44    43.85054    22.90551    30.73862
   117  H   1.0    0.06    1.03    1.43    44.83591    20.56151    35.89595
   118  H   1.0    0.05    1.04    1.43    47.17810    21.53977    33.77258
   119  H   1.0    0.04    1.06    1.44    46.88226    24.43212    37.19424
   120  H   1.0    0.04    1.00    1.43    46.19263    28.54807    35.07240
   121  H   1.0    0.04    1.00    1.43    47.85898    26.45121    33.09210
   122  H   1.0    0.04    1.00    1.43    44.60330    27.03913    32.58554
   123  H   1.0    0.04    1.00    1.43    43.24112    26.72316    38.57560
   124  H   1.0    0.05    1.00    1.43    41.48529    25.85666    35.88645
   125  H   1.0    0.06    1.00    1.43    42.21499    23.58475    38.19350
   126  N   5.0   -0.13    3.52    2.09    42.19854    17.47310    30.43615
   127  C   4.0    0.04    4.43    4.43    42.48465    14.91482    29.52022
   128  C   4.0    0.15    3.42    3.08    42.04600    14.70323    26.67363
   129  O   6.0   -0.29    1.23    1.80    42.98240    13.00693    25.42087
   130  C   4.0   -0.03    4.28    4.16    40.61935    13.12563    30.83081
   131  C   4.0   -0.03    4.18    3.96    40.98144    13.08969    33.68754
   132  C   4.0    0.25    3.12    3.03    43.78282    12.46083    34.36044
   133  O   6.0   -0.30    1.17    1.80    44.55863    10.32513    33.73268
   134  O   6.0   -0.29    1.16    1.80    45.01484    14.12841    35.47104
   135  H   1.0    0.11    1.11    1.45    40.41961    17.93577    30.96177
   136  H   1.0    0.08    1.06    1.44    44.42251    14.28444    29.90452
   137  H   1.0    0.06    1.03    1.43    38.70459    13.74279    30.35813
   138  H   1.0    0.06    1.03    1.43    40.91415    11.21927    30.09836
   139  H   1.0    0.07    1.03    1.43    40.50230    14.91297    34.52438
   140  H   1.0    0.05    1.02    1.43    39.76458    11.64400    34.53255
   141  N   5.0   -0.14    3.53    2.10    40.50835    16.45119    25.65389
   142  C   4.0    0.04    4.43    4.43    40.02043    16.49944    22.96370
   143  C   4.0    0.16    3.40    3.08    42.13189    17.83329    21.46730
   144  O   6.0   -0.30    1.23    1.80    42.13688    17.83247    19.16395
   145  C   4.0   -0.03    4.33    4.25    37.49622    17.77739    22.39582
   146  C   4.0    0.15    3.23    3.04    35.32252    16.32195    23.58912
   147  O   6.0   -0.30    1.20    1.80    34.75041    14.19084    22.91599
   148  N   5.0   -0.18    3.18    1.95    34.00233    17.61450    25.32734
   149  H   1.0    0.09    1.07    1.44    39.77209    17.83235    26.74333
   150  H   1.0    0.07    1.06    1.44    39.95047    14.53239    22.31164
   151  H   1.0    0.05    1.09    1.44    37.55262    19.72234    23.06259
   152  H   1.0    0.05    1.03    1.43    37.24493    17.76012    20.35093
   153  H   1.0    0.10    1.03    1.43    32.60722    16.74464    26.29050
   154  H   1.0    0.09    1.03    1.43    34.64827    19.24880    26.05348
   155  N   5.0   -0.12    3.52    2.09    43.85431    19.04032    22.86625
   156  C   4.0    0.03    4.39    4.36    45.93959    20.41261    21.76488
   157  C   4.0    0.15    3.40    3.08    48.27660    18.71348    21.57141
   158  O   6.0   -0.28    1.25    1.80    48.40956    16.66223    22.61868
   159  C   4.0   -0.05    4.33    4.25    46.34030    22.91616    23.17210
   160  C   4.0   -0.01    4.17    3.94    46.86629    22.81102    26.02035
   161  C   4.0   -0.06    4.10    3.80    49.59758    22.12938    26.64183
   162  C   4.0   -0.07    4.13    3.85    46.27572    25.41958    27.11507
   163  H   1.0    0.09    1.09    1.44    43.86600    18.81254    24.75572
   164  H   1.0    0.06    1.07    1.44    45.32094    20.83640    19.82905
   165  H   1.0    0.04    1.03    1.43    47.88735    23.95488    22.29716
   166  H   1.0    0.05    1.04    1.43    44.59282    23.98595    22.91547
   167  H   1.0    0.06    1.05    1.44    45.62890    21.41483    26.92217
   168  H   1.0    0.05    1.00    1.43    49.79494    21.87288    28.67309
   169  H   1.0    0.07    1.00    1.43    50.16369    20.36480    25.75463
   170  H   1.0    0.06    1.00    1.43    50.83835    23.65490    26.04238
   171  H   1.0    0.04    1.00    1.43    46.79012    25.48430    29.09688
   172  H   1.0    0.06    1.01    1.43    47.38752    26.85641    26.15208
   173  H   1.0    0.05    1.00    1.43    44.27792    25.87366    26.93766
   174  N   5.0   -0.14    3.48    2.06    50.08057    19.54507    19.96128
   175  C   4.0    0.04    4.38    4.35    52.35243    18.08047    19.61294
   176  C   4.0    0.08    3.24    3.04    54.40134    18.92742    21.47458
   177  O   6.0   -0.31    1.16    1.80    54.35078    20.97609    22.53155
   178  C   4.0    0.04    4.23    4.06    53.41143    18.34880    16.91050
   179  O   6.0   -0.27    2.16    1.85    54.63977    20.73556    16.74726
   180  C   4.0   -0.09    4.09    3.77    51.37569    18.10477    14.89075
   181  H   1.0    0.08    1.06    1.44    50.17380    21.39396    19.51204
   182  H   1.0    0.05    1.06    1.44    51.82686    16.11294    19.97707
   183  H   1.0    0.02    1.03    1.43    54.85015    16.86549    16.65877
   184  H   1.0    0.10    1.04    1.43    54.59379    21.23226    14.99049
   185  H   1.0    0.02    1.00    1.43    52.24313    18.17141    13.02754
   186  H   1.0    0.03    1.00    1.43    50.34668    16.34083    15.07756
   187  H   1.0    0.04    1.00    1.43    50.02883    19.64778    15.04998
   188  N   5.0   -0.21    3.23    1.96    57.00816    25.10134    19.74633
   189  C   4.0    0.03    4.32    4.24    55.31217    27.11208    20.51253
   190  C   4.0    0.16    3.50    3.12    55.93769    27.95147    23.21925
   191  O   6.0   -0.29    1.26    1.80    56.28873    30.18562    23.73261
   192  C   4.0   -0.04    4.26    4.12    52.55916    26.28400    20.30399
   193  C   4.0   -0.04    4.17    3.94    50.72699    28.48355    20.61248
   194  C   4.0    0.26    3.13    3.03    50.78686    29.74635    23.29114
   195  O   6.0   -0.30    1.24    1.80    51.29413    28.36441    25.12191
   196  O   6.0   -0.30    1.16    1.80    50.22301    32.02960    23.36835
   197  H   1.0    0.10    1.04    1.43    56.26864    23.49519    19.01747
   198  H   1.0    0.04    1.05    1.44    55.63145    28.75508    19.27741
   199  H   1.0    0.04    1.03    1.43    52.26479    25.40311    18.45563
   200  H   1.0    0.06    1.03    1.43    52.20151    24.87420    21.76561
   201  H   1.0    0.04    1.02    1.43    51.04578    29.94934    19.19544
   202  H   1.0    0.04    1.02    1.43    48.79058    27.80276    20.36477
   203  N   5.0   -0.14    3.48    2.07    56.20880    26.08509    24.88953
   204  C   4.0    0.04    4.31    4.21    56.33940    26.54709    27.60143
   205  C   4.0    0.09    3.28    3.05    58.24487    28.63866    28.17105
   206  O   6.0   -0.30    1.12    1.80    57.81270    30.33266    29.70303
   207  C   4.0   -0.05    4.33    4.25    57.00855    24.03052    28.88372
   208  C   4.0   -0.03    4.15    3.90    57.17256    24.01018    31.78657
   209  C   4.0   -0.09    4.09    3.79    59.58139    25.29335    32.75176
   210  C   4.0   -0.08    4.09    3.79    54.80156    25.16663    32.97691
   211  H   1.0    0.10    1.09    1.44    55.75891    24.31352    24.33015
   212  H   1.0    0.07    1.05    1.44    54.47914    27.22601    28.22488
   213  H   1.0    0.04    1.03    1.43    55.55759    22.67834    28.29546
   214  H   1.0    0.03    1.03    1.43    58.79391    23.38415    28.07714
   215  H   1.0    0.03    1.06    1.44    57.26556    22.00798    32.30929
   216  H   1.0    0.02    1.00    1.43    59.96810    24.70481    34.67974
   217  H   1.0    0.03    1.00    1.43    61.19115    24.74578    31.59905
   218  H   1.0    0.05    1.01    1.43    59.38674    27.33107    32.61624
   219  H   1.0    0.03    1.00    1.43    54.71197    24.82077    34.99987
   220  H   1.0    0.05    1.00    1.43    54.74888    27.18877    32.62224
   221  H   1.0    0.04    1.00    1.43    53.11290    24.35013    32.13176
   222  N   5.0   -0.23    3.21    1.96    54.81435    20.90352    40.16766
   223  C   4.0    0.02    4.22    4.03    52.09464    21.33680    39.98659
   224  C   4.0    0.14    3.42    3.08    50.82138    20.93138    42.55671
   225  O   6.0   -0.32    1.25    1.80    49.27697    22.41818    43.42981
   226  C   4.0   -0.07    4.10    3.81    50.89951    19.61903    38.00679
   227  H   1.0    0.07    1.02    1.43    55.67824    19.85069    38.82801
   228  H   1.0    0.04    1.05    1.44    51.76022    23.31687    39.46888
   229  H   1.0    0.05    1.00    1.43    48.89012    20.00261    37.82797
   230  H   1.0    0.04    1.00    1.43    51.77458    19.92999    36.17608
   231  H   1.0    0.04    1.00    1.43    51.09928    17.63128    38.48575
   232  N   5.0   -0.15    3.46    2.05    51.40949    18.77805    43.76504
   233  C   4.0    0.03    4.33    4.26    50.03020    18.05956    46.02039
   234  C   4.0    0.07    3.27    3.05    50.49074    19.94163    48.16245
   235  O   6.0   -0.33    1.20    1.80    48.76995    20.69223    49.54851
   236  C   4.0   -0.06    4.36    4.30    50.79263    15.46120    47.04092
   237  C   4.0   -0.03    4.18    3.95    51.06107    13.36313    45.05387
   238  C   4.0   -0.10    4.11    3.82    51.50909    10.85542    46.41453
   239  C   4.0   -0.08    4.12    3.83    48.70817    13.19754    43.39570
   240  H   1.0    0.07    1.07    1.44    52.59388    17.51389    42.97646
   241  H   1.0    0.05    1.05    1.44    48.00725    18.08427    45.56017
   242  H   1.0    0.03    1.03    1.43    52.56194    15.65414    48.09262
   243  H   1.0    0.03    1.03    1.43    49.34003    14.90622    48.39478
   244  H   1.0    0.03    1.05    1.44    52.71862    13.72400    43.86255
   245  H   1.0    0.02    1.00    1.43    51.79157     9.35089    45.04723
   246  H   1.0    0.02    1.00    1.43    53.17577    10.95510    47.61494
   247  H   1.0    0.03    1.00    1.43    49.88954    10.38739    47.58751
   248  H   1.0    0.04    1.00    1.43    48.92992    11.78640    41.91969
   249  H   1.0    0.03    1.00    1.43    47.10495    12.67113    44.56295
   250  H   1.0    0.04    1.00    1.43    48.28271    14.97740    42.46242
   251  N   5.0   -0.21    3.23    1.96    47.13876    25.46501    47.75744
   252  C   4.0    0.03    4.26    4.13    44.54287    25.47646    48.62611
   253  C   4.0    0.08    3.21    3.04    44.50969    25.96044    51.46979
   254  O   6.0   -0.32    1.11    1.80    43.47343    27.82882    52.36270
   255  C   4.0    0.05    4.20    4.00    42.97472    23.14480    47.87108
   256  O   6.0   -0.26    2.10    1.84    43.54440    20.95812    49.27179
   257  C   4.0   -0.07    4.08    3.76    43.17338    22.70248    45.02407
   258  H   1.0    0.12    1.06    1.44    48.13440    23.84644    47.74795
   259  H   1.0    0.04    1.06    1.44    43.66829    27.12955    47.73499
   260  H   1.0    0.05    1.04    1.43    41.00458    23.55976    48.36876
   261  H   1.0    0.15    1.06    1.44    45.32458    20.55477    49.07241
   262  H   1.0    0.04    1.00    1.43    42.32123    20.88691    44.59958
   263  H   1.0    0.04    1.00    1.43    42.19037    24.17474    43.98655
   264  H   1.0    0.06    1.01    1.43    45.13379    22.66406    44.41525
   265  N   5.0   -0.23    3.20    1.96    34.87550    41.29837    38.31129
   266  C   4.0    0.03    4.26    4.11    35.66273    39.22591    36.70310
   267  C   4.0    0.06    3.23    3.04    35.01535    39.82222    33.95390
   268  O   6.0   -0.31    1.11    1.80    36.58460    39.82156    32.25390
   269  C   4.0    0.05    4.23    4.05    34.36545    36.74318    37.53956
   270  O   6.0   -0.27    2.11    1.84    35.04884    36.09067    40.02480
   271  C   4.0   -0.07    4.10    3.81    35.13826    34.58215    35.80052
   272  H   1.0    0.07    1.03    1.43    33.90152    40.89725    39.91025
   273  H   1.0    0.04    1.05    1.44    37.71616    38.97717    36.84498
   274  H   1.0    0.03    1.03    1.43    32.30793    37.02168    37.42501
   275  H   1.0    0.10    1.02    1.43    34.32599    37.30746    41.19262
   276  H   1.0    0.04    1.00    1.43    34.34094    32.83451    36.51227
   277  H   1.0    0.04    1.00    1.43    34.44640    34.92426    33.90394
   278  H   1.0    0.04    1.00    1.43    37.17994    34.38421    35.74523
   279  N   5.0   -0.22    3.23    1.96    36.86847    33.04011    15.10779
   280  C   4.0    0.02    4.22    4.04    35.90275    30.51998    14.71178
   281  C   4.0    0.06    3.24    3.04    33.07754    30.41664    15.22367
   282  O   6.0   -0.31    1.13    1.80    32.08329    31.54104    16.98107
   283  C   4.0   -0.04    4.30    4.19    37.16047    28.62785    16.51941
   284  C   4.0   -0.05    4.23    4.06    39.93664    28.19113    15.87396
   285  C   4.0    0.14    3.22    3.04    41.23227    26.75637    17.99801
   286  O   6.0   -0.30    1.21    1.80    40.41625    24.77568    18.85898
   287  N   5.0   -0.20    3.19    1.95    43.32513    27.88816    18.87437
   288  H   1.0    0.08    1.03    1.43    36.78133    33.73778    16.87902
   289  H   1.0    0.02    1.05    1.44    36.30411    30.03375    12.74435
   290  H   1.0    0.05    1.03    1.43    37.01751    29.39286    18.43077
   291  H   1.0    0.04    1.03    1.43    36.16386    26.82586    16.47750
   292  H   1.0    0.03    1.03    1.43    40.08709    27.08633    14.14143
   293  H   1.0    0.03    1.04    1.43    40.89642    29.98383    15.57377
   294  H   1.0    0.07    1.03    1.43    43.95254    29.52234    18.12464
   295  H   1.0    0.09    1.03    1.43    44.30462    27.11297    20.31506
   296  N   5.0   -0.21    3.20    1.96    30.33765    26.12422    17.84768
   297  C   4.0    0.03    4.21    4.02    30.04853    25.20627    20.41755
   298  C   4.0    0.07    3.20    3.04    29.85789    27.32998    22.39744
   299  O   6.0   -0.32    1.17    1.80    28.98949    26.88516    24.49901
   300  C   4.0   -0.05    4.31    4.21    32.18528    23.37661    21.11178
   301  C   4.0   -0.04    4.05    3.72    34.80847    24.59651    21.15367
   302  S   6.0   -0.01    2.59    3.10    36.52593    24.13676    24.10517
   303  C   4.0   -0.06    3.89    3.45    34.61469    26.01390    26.24856
   304  H   1.0    0.07    1.03    1.43    31.70591    25.32677    16.78774
   305  H   1.0    0.03    1.06    1.44    28.26167    24.15324    20.50859
   306  H   1.0    0.05    1.05    1.44    31.74840    22.59191    22.96679
   307  H   1.0    0.03    1.03    1.43    32.15230    21.80355    19.78046
   308  H   1.0    0.06    1.09    1.44    36.08324    23.75865    19.77343
   309  H   1.0    0.05    1.07    1.44    34.72755    26.62564    20.81495
   310  H   1.0    0.05    1.06    1.44    35.68239    26.04706    27.99115
   311  H   1.0    0.05    1.04    1.43    34.42658    27.90913    25.49487
   312  H   1.0    0.06    1.03    1.43    32.76726    25.17279    26.55446
   313  N   5.0   -0.21    3.23    1.96    23.44110    27.34127    23.32859
   314  C   4.0    0.02    4.31    4.22    22.81695    24.96225    24.55246
   315  C   4.0    0.15    3.51    3.12    22.92263    25.29044    27.42845
   316  O   6.0   -0.31    1.25    1.80    21.31151    24.38957    28.82232
   317  C   4.0   -0.05    4.28    4.16    24.63942    22.85668    23.78512
   318  C   4.0   -0.04    4.24    4.09    24.11732    20.40620    25.22807
   319  C   4.0    0.16    3.25    3.04    25.38976    20.37185    27.80949
   320  O   6.0   -0.30    1.21    1.80    27.59586    20.98660    28.10242
   321  N   5.0   -0.19    3.18    1.95    23.97451    19.44067    29.69900
   322  H   1.0    0.08    1.02    1.43    24.55335    27.36217    21.77305
   323  H   1.0    0.03    1.05    1.44    20.87354    24.41599    24.06293
   324  H   1.0    0.02    1.02    1.43    24.44557    22.53177    21.75762
   325  H   1.0    0.07    1.04    1.43    26.56486    23.45747    24.21388
   326  H   1.0    0.03    1.03    1.43    22.09338    20.09230    25.41494
   327  H   1.0    0.03    1.03    1.43    24.93605    18.83032    24.17693
   328  H   1.0    0.08    1.03    1.43    22.08438    19.31034    29.55974
   329  H   1.0    0.09    1.03    1.43    24.73781    19.33169    31.44265
   330  N   5.0   -0.14    3.48    2.06    24.91506    26.57326    28.29840
   331  C   4.0    0.04    4.37    4.33    25.19140    26.88477    31.00371
   332  C   4.0    0.08    3.28    3.05    23.00382    28.47019    32.00044
   333  O   6.0   -0.31    1.11    1.80    21.74698    27.84788    33.85911
   334  C   4.0   -0.05    4.35    4.28    27.70591    28.11010    31.69768
   335  C   4.0   -0.03    4.20    4.00    27.99070    28.41513    34.56825
   336  C   4.0   -0.07    4.12    3.84    27.65248    25.89284    35.93106
   337  C   4.0   -0.09    4.11    3.82    30.55326    29.58936    35.15595
   338  H   1.0    0.11    1.09    1.44    26.35911    27.05507    27.13760
   339  H   1.0    0.06    1.06    1.44    25.02567    25.02547    31.89597
   340  H   1.0    0.05    1.03    1.43    29.23350    26.92846    30.97441
   341  H   1.0    0.04    1.03    1.43    27.83096    29.94660    30.76617
   342  H   1.0    0.04    1.06    1.44    26.52965    29.70151    35.24686
   343  H   1.0    0.04    1.00    1.43    28.07331    26.06528    37.93366
   344  H   1.0    0.05    1.00    1.43    25.71225    25.22729    35.79720
   345  H   1.0    0.06    1.00    1.43    28.88981    24.45177    35.14784
   346  H   1.0    0.03    1.00    1.43    30.78044    29.82176    37.17932
   347  H   1.0    0.04    1.01    1.43    32.05721    28.38577    34.45756
   348  H   1.0    0.03    1.00    1.43    30.73105    31.41969    34.24970
   349  H   1.0    0.08    1.07    1.44    26.99263    25.50648    49.72405
   350  H   1.0    0.04    1.05    1.44    55.85420    17.78388    21.86517
   351  H   1.0    0.08    1.07    1.44    58.05893    25.67447    18.53803
   352  H   1.0    0.05    1.05    1.44    59.91394    28.66317    27.28523
   353  H   1.0    0.08    1.07    1.44    55.63075    22.39497    40.12737
   354  H   1.0    0.04    1.05    1.44    52.23129    20.60629    48.47831
   355  H   1.0    0.10    1.08    1.44    47.19888    25.99081    46.14112
   356  H   1.0    0.06    1.05    1.44    45.34515    24.73976    52.64581
   357  H   1.0    0.08    1.07    1.44    36.24446    42.15656    38.84232
   358  H   1.0    0.04    1.05    1.44    33.23656    40.23924    33.47112
   359  H   1.0    0.08    1.08    1.44    38.51391    33.09118    14.68063
   360  H   1.0    0.03    1.05    1.44    31.95031    29.39806    14.09988
   361  H   1.0    0.08    1.07    1.44    28.89200    25.87090    16.98833
   362  H   1.0    0.06    1.04    1.43    30.44284    29.07536    21.97020
   363  H   1.0    0.08    1.07    1.44    22.01212    28.10836    22.81659
   364  H   1.0    0.04    1.05    1.44    22.53900    30.08662    31.13895

  Z AO/shell   Hii/eV     exponent
  1     Wed Apr 25 08:07:45 CEST 2018   EN: 2.200 GM2: 0.406  GM3: 0.0800  RAES: 1.40
     1s    -10.707211    1.230000
  6     Wed Apr 25 08:07:45 CEST 2018   EN: 2.550 GM2: 0.538  GM3: 0.1500  RAES: 3.00
     2s    -13.970922    2.096432
     2p    -10.063292    1.800000
  7     Wed Apr 25 08:07:45 CEST 2018   EN: 3.040 GM2: 0.461  GM3:-0.0640  RAES: 1.90
     2s    -16.686243    2.339881
     2p    -12.523956    2.014332
  8     Wed Apr 25 08:07:45 CEST 2018   EN: 3.440 GM2: 0.452  GM3:-0.0517  RAES: 1.80
     2s    -20.229985    2.439742
     2p    -15.503117    2.137023
 16     Tue Apr 24 11:44:34 CEST 2018   EN: 2.580 GM2: 0.340  GM3:-0.0502  RAES: 3.10
     3s    -20.029654    1.981333
     3p    -11.377694    2.025643
     3d     -0.420282    1.702555
 no old-style atom pair restraining (fixing) potential

molecular fragmentation (1/2 indicates fragments):
111111111111111111111111111111111111111111111111111111111111111111111111
111111111111111111111111111111111111111111111111111111111111111111111111
111111111111111111111111111111111111111111122222222222222222222222222222
222222222222222222222222222222222222222222222222222222222222222222222222
222222222222222222222222222222222222222222222222222222222222112222222222
2222
# atoms in fragment 1/2:   189   175
 fragment masses (1/2) :     1325.48     1142.44
CMA distance (Bohr)    :   8.467
constraining FC (au)   :  0.0500
           ------------------------------------------------- 
          |        Self-Consistent Charge Iterations        |
           ------------------------------------------------- 

 Ncao       : 883
 Nao        : 882
 Nshell     : 536
 Nel        : 982
 T(el)      :   500.0
 intcut     :    35.0
 scfconv/Eh :  0.100E-06
   qconv/e  :  0.100E-04
 intneglect :  0.100E-08
 broydamp   :      0.400
 iter      E             dE          RMSdq      gap      omega  full diag
   1   -562.9388190 -0.562939E+03  0.472E+00    3.47       0.0  T
   2   -564.4825262 -0.154371E+01  0.216E+00    1.85       1.0  T
   3   -564.5890111 -0.106485E+00  0.127E+00    1.94       1.0  T
   4   -564.6830274 -0.940163E-01  0.255E-01    1.08       1.0  T
   5   -564.6882831 -0.525577E-02  0.131E-01    1.26       1.0  T
   6   -564.6891132 -0.830060E-03  0.531E-02    1.26       1.0  T
   7   -564.6893252 -0.211970E-03  0.238E-02    1.28       1.0  T
   8   -564.6893518 -0.266323E-04  0.105E-02    1.28       1.0  T
   9   -564.6893593 -0.753268E-05  0.493E-03    1.29       1.1  T
  10   -564.6893603 -0.101962E-05  0.201E-03    1.28       2.6  T
  11   -564.6893607 -0.347127E-06  0.100E-03    1.28       5.2  T
  12   -564.6893607 -0.449763E-07  0.448E-04    1.28      11.7  T
  13   -564.6893608 -0.974705E-08  0.233E-04    1.28      22.5  T
  14   -564.6893608 -0.249327E-08  0.887E-05    1.28      59.1  T
  15   -564.6893608 -0.423938E-09  0.418E-05    1.28     125.4  T
speedup  1.00
cpu  time for SCC    4.49 s
wall time for SCC    4.49 s

   *** convergence criteria satisfied after 15 iterations ***

          eigenvalues
 #    :         479        480        481        482        483        484        485        486
 occ. :        2.000      2.000      2.000      2.000      2.000      2.000      2.000      2.000
 eps  :       -10.167    -10.166    -10.161    -10.158    -10.039    -10.037     -9.970     -9.883
 #    :         487        488        489        490        491        492        493        494
 occ. :        2.000      2.000      2.000      2.000      2.000      0.000      0.000      0.000
 eps  :        -9.858     -9.794     -9.723     -9.683     -9.456     -8.173     -7.914     -7.864
 #    :         495        496        497        498        499        500        501        502
 occ. :        0.000      0.000      0.000      0.000      0.000      0.000      0.000      0.000
 eps  :        -7.814     -7.720     -7.636     -7.515     -7.443     -6.813     -6.643     -6.615


   #   Z            q   n(s)   n(p)   n(d)      C6AA      α(0)
   1   7 N     -0.407  1.318  4.088  0.000    30.556     8.210
   2   6 C      0.025  1.059  2.916  0.000    20.164     6.396
   3   6 C      0.266  1.052  2.682  0.000    22.513     7.770
   4   8 O     -0.510  1.764  4.746  0.000    24.016     6.570
   5   6 C     -0.084  1.061  3.024  0.000    22.101     6.693
   6   6 C     -0.085  1.049  3.036  0.000    22.122     6.696
   7   6 C     -0.025  1.052  2.973  0.000    21.096     6.554
   8   7 N     -0.141  1.210  3.932  0.000    24.062     7.285
   9   6 C      0.234  1.017  2.749  0.000    23.102     7.869
  10   7 N     -0.245  1.228  4.017  0.000    26.388     7.629
  11   7 N     -0.258  1.234  4.024  0.000    26.703     7.675
  12   1 H      0.189  0.811  0.000  0.000     1.163     1.690
  13   1 H      0.051  0.949  0.000  0.000     2.306     2.375
  14   1 H      0.063  0.937  0.000  0.000     2.169     2.303
  15   1 H      0.090  0.910  0.000  0.000     1.883     2.146
  16   1 H      0.064  0.936  0.000  0.000     2.148     2.292
  17   1 H      0.042  0.958  0.000  0.000     2.427     2.436
  18   1 H      0.094  0.906  0.000  0.000     1.841     2.122
  19   1 H      0.083  0.917  0.000  0.000     1.952     2.185
  20   1 H      0.225  0.775  0.000  0.000     0.985     1.555
  21   1 H      0.242  0.758  0.000  0.000     0.915     1.499
  22   1 H      0.261  0.739  0.000  0.000     0.844     1.439
  23   1 H      0.248  0.752  0.000  0.000     0.889     1.477
  24   1 H      0.261  0.739  0.000  0.000     0.841     1.437
  25   7 N     -0.190  1.259  3.931  0.000    25.127     7.445
  26   6 C      0.038  1.055  2.907  0.000    19.935     6.357
  27   6 C      0.287  1.044  2.670  0.000    22.141     7.706
  28   8 O     -0.533  1.772  4.761  0.000    24.517     6.639
  29   6 C     -0.111  1.076  3.036  0.000    22.629     6.773
  30   6 C      0.374  1.021  2.605  0.000    20.662     7.439
  31   8 O     -0.647  1.781  4.866  0.000    27.295     7.005
  32   8 O     -0.650  1.775  4.874  0.000    27.368     7.014
  33   1 H      0.231  0.769  0.000  0.000     0.959     1.534
  34   1 H      0.064  0.936  0.000  0.000     2.157     2.297
  35   1 H      0.063  0.937  0.000  0.000     2.160     2.298
  36   1 H      0.052  0.948  0.000  0.000     2.300     2.372
  37   7 N     -0.198  1.254  3.944  0.000    25.289     7.469
  38   6 C      0.036  1.054  2.910  0.000    19.977     6.365
  39   6 C      0.284  1.043  2.673  0.000    22.199     7.716
  40   8 O     -0.508  1.758  4.750  0.000    23.970     6.564
  41   6 C     -0.136  1.045  3.091  0.000    23.163     6.862
  42   1 H      0.231  0.769  0.000  0.000     0.960     1.535
  43   1 H      0.049  0.951  0.000  0.000     2.335     2.390
  44   1 H      0.073  0.927  0.000  0.000     2.053     2.241
  45   1 H      0.085  0.915  0.000  0.000     1.932     2.173
  46   1 H      0.087  0.913  0.000  0.000     1.904     2.158
  47   7 N     -0.183  1.241  3.942  0.000    24.970     7.422
  48   6 C      0.029  1.059  2.912  0.000    20.083     6.380
  49   6 C      0.278  1.047  2.674  0.000    22.292     7.732
  50   8 O     -0.499  1.747  4.753  0.000    23.766     6.536
  51   6 C     -0.021  1.063  2.958  0.000    20.918     6.505
  52   6 C     -0.068  1.052  3.016  0.000    21.797     6.647
  53   6 C     -0.121  1.039  3.082  0.000    22.881     6.820
  54   6 C     -0.119  1.038  3.082  0.000    22.849     6.817
  55   1 H      0.203  0.797  0.000  0.000     1.093     1.637
  56   1 H      0.079  0.921  0.000  0.000     1.987     2.204
  57   1 H      0.047  0.953  0.000  0.000     2.355     2.400
  58   1 H      0.035  0.965  0.000  0.000     2.519     2.482
  59   1 H      0.072  0.928  0.000  0.000     2.066     2.248
  60   1 H      0.077  0.923  0.000  0.000     2.012     2.218
  61   1 H      0.031  0.969  0.000  0.000     2.566     2.505
  62   1 H      0.057  0.943  0.000  0.000     2.234     2.337
  63   1 H      0.062  0.938  0.000  0.000     2.171     2.304
  64   1 H      0.059  0.941  0.000  0.000     2.211     2.325
  65   1 H      0.029  0.971  0.000  0.000     2.601     2.522
  66   7 N     -0.193  1.260  3.934  0.000    25.191     7.454
  67   6 C      0.044  1.054  2.902  0.000    19.837     6.341
  68   6 C      0.295  1.041  2.663  0.000    21.993     7.680
  69   8 O     -0.511  1.751  4.760  0.000    24.022     6.571
  70   6 C     -0.066  1.056  3.011  0.000    21.760     6.640
  71   6 C      0.007  1.049  2.944  0.000    20.434     6.430
  72   6 C     -0.111  1.040  3.071  0.000    22.669     6.788
  73   6 C     -0.109  1.042  3.067  0.000    22.641     6.784
  74   1 H      0.214  0.786  0.000  0.000     1.036     1.595
  75   1 H      0.067  0.933  0.000  0.000     2.118     2.276
  76   1 H      0.067  0.933  0.000  0.000     2.117     2.275
  77   1 H      0.039  0.961  0.000  0.000     2.465     2.455
  78   1 H     -0.025  1.025  0.000  0.000     3.535     2.940
  79   1 H      0.055  0.945  0.000  0.000     2.264     2.353
  80   1 H      0.020  0.980  0.000  0.000     2.732     2.585
  81   1 H      0.070  0.930  0.000  0.000     2.085     2.258
  82   1 H      0.045  0.955  0.000  0.000     2.379     2.412
  83   1 H      0.067  0.933  0.000  0.000     2.122     2.278
  84   1 H      0.021  0.979  0.000  0.000     2.712     2.575
  85   7 N     -0.196  1.256  3.940  0.000    25.254     7.464
  86   6 C      0.071  1.042  2.888  0.000    19.400     6.271
  87   6 C      0.281  1.045  2.674  0.000    22.249     7.725
  88   8 O     -0.532  1.745  4.786  0.000    24.496     6.636
  89   6 C     -0.092  1.071  3.021  0.000    22.254     6.715
  90   6 C      0.379  1.019  2.602  0.000    20.589     7.426
  91   8 O     -0.647  1.777  4.870  0.000    27.303     7.006
  92   8 O     -0.621  1.764  4.858  0.000    26.653     6.922
  93   1 H      0.193  0.807  0.000  0.000     1.145     1.676
  94   1 H      0.025  0.975  0.000  0.000     2.654     2.548
  95   1 H      0.047  0.953  0.000  0.000     2.361     2.403
  96   1 H      0.026  0.974  0.000  0.000     2.639     2.540
  97   7 N     -0.182  1.253  3.929  0.000    24.950     7.419
  98   6 C      0.038  1.054  2.908  0.000    19.929     6.356
  99   6 C      0.274  1.042  2.683  0.000    22.363     7.744
 100   8 O     -0.484  1.740  4.744  0.000    23.427     6.489
 101   6 C     -0.128  1.042  3.086  0.000    22.999     6.836
 102   1 H      0.213  0.787  0.000  0.000     1.043     1.600
 103   1 H      0.068  0.932  0.000  0.000     2.111     2.272
 104   1 H      0.076  0.924  0.000  0.000     2.016     2.221
 105   1 H      0.078  0.922  0.000  0.000     2.005     2.214
 106   1 H      0.078  0.922  0.000  0.000     1.995     2.209
 107   7 N     -0.183  1.245  3.938  0.000    24.973     7.422
 108   6 C      0.034  1.056  2.910  0.000    20.003     6.368
 109   6 C      0.282  1.047  2.671  0.000    22.226     7.720
 110   8 O     -0.488  1.745  4.744  0.000    23.530     6.504
 111   6 C     -0.055  1.051  3.004  0.000    21.563     6.611
 112   6 C     -0.007  1.059  2.948  0.000    20.675     6.468
 113   6 C     -0.114  1.040  3.073  0.000    22.733     6.799
 114   6 C     -0.109  1.039  3.070  0.000    22.646     6.785
 115   1 H      0.203  0.797  0.000  0.000     1.093     1.638
 116   1 H      0.087  0.913  0.000  0.000     1.910     2.161
 117   1 H      0.024  0.976  0.000  0.000     2.667     2.554
 118   1 H      0.051  0.949  0.000  0.000     2.304     2.374
 119   1 H      0.044  0.956  0.000  0.000     2.397     2.421
 120   1 H      0.066  0.934  0.000  0.000     2.125     2.280
 121   1 H      0.035  0.965  0.000  0.000     2.510     2.478
 122   1 H      0.035  0.965  0.000  0.000     2.513     2.479
 123   1 H      0.059  0.941  0.000  0.000     2.212     2.326
 124   1 H      0.039  0.961  0.000  0.000     2.458     2.452
 125   1 H      0.026  0.974  0.000  0.000     2.642     2.542
 126   7 N     -0.207  1.252  3.955  0.000    25.501     7.500
 127   6 C      0.050  1.050  2.900  0.000    19.749     6.328
 128   6 C      0.271  1.046  2.683  0.000    22.421     7.754
 129   8 O     -0.478  1.740  4.738  0.000    23.311     6.473
 130   6 C     -0.041  1.050  2.991  0.000    21.295     6.569
 131   6 C     -0.074  1.060  3.014  0.000    21.913     6.665
 132   6 C      0.372  1.024  2.604  0.000    20.691     7.444
 133   8 O     -0.641  1.764  4.876  0.000    27.143     6.985
 134   8 O     -0.632  1.766  4.867  0.000    26.922     6.957
 135   1 H      0.196  0.804  0.000  0.000     1.124     1.661
 136   1 H      0.052  0.948  0.000  0.000     2.293     2.368
 137   1 H      0.027  0.973  0.000  0.000     2.629     2.536
 138   1 H      0.042  0.958  0.000  0.000     2.418     2.432
 139   1 H      0.003  0.997  0.000  0.000     3.012     2.714
 140   1 H     -0.003  1.003  0.000  0.000     3.119     2.762
 141   7 N     -0.186  1.241  3.944  0.000    25.023     7.429
 142   6 C      0.031  1.059  2.910  0.000    20.049     6.375
 143   6 C      0.278  1.041  2.681  0.000    22.299     7.733
 144   8 O     -0.459  1.726  4.732  0.000    22.885     6.414
 145   6 C     -0.107  1.061  3.046  0.000    22.537     6.757
 146   6 C      0.295  1.035  2.670  0.000    21.997     7.679
 147   8 O     -0.484  1.744  4.740  0.000    23.433     6.490
 148   7 N     -0.260  1.256  4.004  0.000    26.757     7.682
 149   1 H      0.191  0.809  0.000  0.000     1.154     1.683
 150   1 H      0.091  0.909  0.000  0.000     1.871     2.139
 151   1 H      0.080  0.920  0.000  0.000     1.984     2.203
 152   1 H      0.112  0.888  0.000  0.000     1.680     2.027
 153   1 H      0.211  0.789  0.000  0.000     1.053     1.608
 154   1 H      0.203  0.797  0.000  0.000     1.089     1.634
 155   7 N     -0.158  1.228  3.930  0.000    24.421     7.339
 156   6 C      0.019  1.062  2.919  0.000    20.263     6.410
 157   6 C      0.278  1.045  2.677  0.000    22.294     7.732
 158   8 O     -0.491  1.759  4.731  0.000    23.579     6.510
 159   6 C     -0.071  1.059  3.011  0.000    21.842     6.653
 160   6 C      0.007  1.050  2.944  0.000    20.434     6.430
 161   6 C     -0.097  1.035  3.061  0.000    22.401     6.748
 162   6 C     -0.107  1.039  3.068  0.000    22.598     6.777
 163   1 H      0.170  0.830  0.000  0.000     1.276     1.769
 164   1 H      0.096  0.904  0.000  0.000     1.818     2.109
 165   1 H      0.058  0.942  0.000  0.000     2.219     2.330
 166   1 H      0.056  0.944  0.000  0.000     2.241     2.341
 167   1 H     -0.003  1.003  0.000  0.000     3.117     2.761
 168   1 H      0.028  0.972  0.000  0.000     2.610     2.526
 169   1 H      0.021  0.979  0.000  0.000     2.725     2.581
 170   1 H      0.058  0.942  0.000  0.000     2.224     2.332
 171   1 H      0.038  0.962  0.000  0.000     2.472     2.459
 172   1 H      0.051  0.949  0.000  0.000     2.306     2.375
 173   1 H      0.030  0.970  0.000  0.000     2.588     2.516
 174   7 N     -0.165  1.238  3.927  0.000    24.580     7.363
 175   6 C      0.019  1.060  2.921  0.000    20.254     6.408
 176   6 C      0.203  1.085  2.713  0.000    23.693     7.972
 177   8 O     -0.351  1.750  4.602  0.000    20.736     6.105
 178   6 C      0.112  1.051  2.836  0.000    18.835     6.196
 179   8 O     -0.491  1.735  4.756  0.000    22.699     6.432
 180   6 C     -0.145  1.045  3.099  0.000    23.350     6.891
 181   1 H      0.209  0.791  0.000  0.000     1.059     1.612
 182   1 H      0.096  0.904  0.000  0.000     1.824     2.112
 183   1 H      0.058  0.942  0.000  0.000     2.224     2.332
 184   1 H      0.354  0.646  0.000  0.000     0.579     1.195
 185   1 H      0.086  0.914  0.000  0.000     1.919     2.166
 186   1 H      0.064  0.936  0.000  0.000     2.153     2.294
 187   1 H      0.064  0.936  0.000  0.000     2.151     2.294
 188   7 N     -0.407  1.317  4.090  0.000    30.566     8.211
 189   6 C      0.045  1.056  2.899  0.000    19.837     6.344
 190   6 C      0.292  1.046  2.662  0.000    22.047     7.689
 191   8 O     -0.528  1.760  4.768  0.000    24.414     6.625
 192   6 C     -0.055  1.054  3.001  0.000    21.568     6.611
 193   6 C     -0.095  1.070  3.025  0.000    22.310     6.725
 194   6 C      0.373  1.025  2.602  0.000    20.676     7.441
 195   8 O     -0.632  1.769  4.863  0.000    26.907     6.955
 196   8 O     -0.657  1.773  4.884  0.000    27.574     7.040
 197   1 H      0.178  0.822  0.000  0.000     1.224     1.733
 198   1 H      0.019  0.981  0.000  0.000     2.752     2.594
 199   1 H      0.042  0.958  0.000  0.000     2.426     2.436
 200   1 H      0.040  0.960  0.000  0.000     2.449     2.447
 201   1 H      0.020  0.980  0.000  0.000     2.739     2.588
 202   1 H      0.014  0.986  0.000  0.000     2.830     2.631
 203   7 N     -0.177  1.251  3.926  0.000    24.827     7.400
 204   6 C      0.042  1.056  2.902  0.000    19.882     6.350
 205   6 C      0.222  1.080  2.698  0.000    23.322     7.909
 206   8 O     -0.393  1.755  4.638  0.000    21.534     6.222
 207   6 C     -0.074  1.063  3.010  0.000    21.907     6.663
 208   6 C     -0.011  1.059  2.952  0.000    20.740     6.478
 209   6 C     -0.123  1.043  3.080  0.000    22.909     6.825
 210   6 C     -0.105  1.037  3.069  0.000    22.572     6.775
 211   1 H      0.222  0.778  0.000  0.000     1.000     1.566
 212   1 H      0.067  0.933  0.000  0.000     2.116     2.275
 213   1 H      0.048  0.952  0.000  0.000     2.348     2.396
 214   1 H      0.068  0.932  0.000  0.000     2.109     2.271
 215   1 H      0.044  0.956  0.000  0.000     2.392     2.419
 216   1 H      0.059  0.941  0.000  0.000     2.212     2.326
 217   1 H      0.048  0.952  0.000  0.000     2.346     2.395
 218   1 H      0.043  0.957  0.000  0.000     2.415     2.430
 219   1 H      0.044  0.956  0.000  0.000     2.391     2.418
 220   1 H      0.040  0.960  0.000  0.000     2.449     2.447
 221   1 H      0.017  0.983  0.000  0.000     2.780     2.607
 222   7 N     -0.390  1.306  4.084  0.000    30.093     8.147
 223   6 C      0.039  1.055  2.906  0.000    19.943     6.361
 224   6 C      0.268  1.053  2.680  0.000    22.480     7.764
 225   8 O     -0.493  1.745  4.749  0.000    23.638     6.519
 226   6 C     -0.105  1.037  3.069  0.000    22.566     6.773
 227   1 H      0.169  0.831  0.000  0.000     1.280     1.772
 228   1 H      0.034  0.966  0.000  0.000     2.536     2.491
 229   1 H      0.023  0.977  0.000  0.000     2.686     2.563
 230   1 H      0.048  0.952  0.000  0.000     2.344     2.394
 231   1 H      0.044  0.956  0.000  0.000     2.392     2.419
 232   7 N     -0.167  1.239  3.928  0.000    24.617     7.369
 233   6 C      0.033  1.055  2.912  0.000    20.023     6.372
 234   6 C      0.200  1.091  2.710  0.000    23.746     7.981
 235   8 O     -0.356  1.749  4.607  0.000    20.831     6.119
 236   6 C     -0.081  1.062  3.019  0.000    22.029     6.680
 237   6 C     -0.009  1.058  2.951  0.000    20.698     6.471
 238   6 C     -0.122  1.043  3.079  0.000    22.889     6.821
 239   6 C     -0.106  1.035  3.071  0.000    22.585     6.776
 240   1 H      0.217  0.783  0.000  0.000     1.022     1.584
 241   1 H      0.069  0.931  0.000  0.000     2.092     2.262
 242   1 H      0.078  0.922  0.000  0.000     2.004     2.214
 243   1 H      0.077  0.923  0.000  0.000     2.007     2.216
 244   1 H      0.041  0.959  0.000  0.000     2.433     2.439
 245   1 H      0.045  0.955  0.000  0.000     2.379     2.412
 246   1 H      0.063  0.937  0.000  0.000     2.164     2.301
 247   1 H      0.050  0.950  0.000  0.000     2.325     2.384
 248   1 H      0.024  0.976  0.000  0.000     2.666     2.553
 249   1 H      0.041  0.959  0.000  0.000     2.441     2.443
 250   1 H      0.021  0.979  0.000  0.000     2.715     2.577
 251   7 N     -0.381  1.302  4.079  0.000    29.859     8.115
 252   6 C      0.023  1.062  2.915  0.000    20.209     6.404
 253   6 C      0.207  1.090  2.703  0.000    23.612     7.958
 254   8 O     -0.361  1.745  4.616  0.000    20.911     6.131
 255   6 C      0.115  1.047  2.838  0.000    18.793     6.190
 256   8 O     -0.487  1.717  4.769  0.000    22.610     6.419
 257   6 C     -0.121  1.038  3.083  0.000    22.881     6.821
 258   1 H      0.165  0.835  0.000  0.000     1.300     1.786
 259   1 H      0.058  0.942  0.000  0.000     2.226     2.333
 260   1 H      0.033  0.967  0.000  0.000     2.548     2.496
 261   1 H      0.328  0.672  0.000  0.000     0.642     1.259
 262   1 H      0.030  0.970  0.000  0.000     2.593     2.518
 263   1 H      0.031  0.969  0.000  0.000     2.571     2.508
 264   1 H      0.059  0.941  0.000  0.000     2.216     2.328
 265   7 N     -0.387  1.309  4.077  0.000    30.002     8.135
 266   6 C      0.025  1.062  2.914  0.000    20.180     6.399
 267   6 C      0.199  1.091  2.710  0.000    23.762     7.983
 268   8 O     -0.382  1.764  4.618  0.000    21.330     6.192
 269   6 C      0.116  1.048  2.836  0.000    18.784     6.188
 270   8 O     -0.470  1.728  4.742  0.000    22.255     6.368
 271   6 C     -0.125  1.040  3.085  0.000    22.963     6.833
 272   1 H      0.174  0.826  0.000  0.000     1.246     1.749
 273   1 H      0.047  0.953  0.000  0.000     2.360     2.403
 274   1 H      0.036  0.964  0.000  0.000     2.501     2.473
 275   1 H      0.337  0.663  0.000  0.000     0.619     1.236
 276   1 H      0.065  0.935  0.000  0.000     2.141     2.288
 277   1 H      0.040  0.960  0.000  0.000     2.450     2.448
 278   1 H      0.052  0.948  0.000  0.000     2.291     2.367
 279   7 N     -0.377  1.309  4.068  0.000    29.731     8.098
 280   6 C      0.033  1.056  2.911  0.000    20.037     6.376
 281   6 C      0.198  1.086  2.716  0.000    23.784     7.987
 282   8 O     -0.358  1.753  4.605  0.000    20.864     6.124
 283   6 C     -0.056  1.053  3.003  0.000    21.579     6.612
 284   6 C     -0.099  1.059  3.040  0.000    22.378     6.734
 285   6 C      0.290  1.036  2.673  0.000    22.078     7.694
 286   8 O     -0.495  1.761  4.734  0.000    23.671     6.523
 287   7 N     -0.280  1.260  4.020  0.000    27.239     7.751
 288   1 H      0.161  0.839  0.000  0.000     1.330     1.806
 289   1 H      0.071  0.929  0.000  0.000     2.070     2.250
 290   1 H      0.042  0.958  0.000  0.000     2.417     2.431
 291   1 H      0.049  0.951  0.000  0.000     2.327     2.386
 292   1 H      0.084  0.916  0.000  0.000     1.940     2.178
 293   1 H      0.063  0.937  0.000  0.000     2.159     2.298
 294   1 H      0.226  0.774  0.000  0.000     0.981     1.552
 295   1 H      0.185  0.815  0.000  0.000     1.187     1.707
 296   7 N     -0.382  1.307  4.075  0.000    29.885     8.119
 297   6 C      0.035  1.057  2.908  0.000    20.002     6.371
 298   6 C      0.198  1.093  2.709  0.000    23.782     7.986
 299   8 O     -0.364  1.749  4.615  0.000    20.979     6.141
 300   6 C     -0.067  1.057  3.011  0.000    21.770     6.640
 301   6 C     -0.016  1.065  2.951  0.000    20.875     6.506
 302  16 S     -0.254  1.938  4.249  0.068   151.962    20.748
 303   6 C     -0.054  1.050  3.004  0.000    21.622     6.633
 304   1 H      0.157  0.843  0.000  0.000     1.358     1.825
 305   1 H      0.062  0.938  0.000  0.000     2.172     2.305
 306   1 H      0.052  0.948  0.000  0.000     2.291     2.367
 307   1 H      0.060  0.940  0.000  0.000     2.194     2.316
 308   1 H      0.075  0.925  0.000  0.000     2.036     2.231
 309   1 H      0.064  0.936  0.000  0.000     2.150     2.293
 310   1 H      0.051  0.949  0.000  0.000     2.305     2.374
 311   1 H      0.066  0.934  0.000  0.000     2.128     2.281
 312   1 H      0.054  0.946  0.000  0.000     2.266     2.354
 313   7 N     -0.393  1.311  4.082  0.000    30.177     8.159
 314   6 C      0.031  1.060  2.909  0.000    20.065     6.380
 315   6 C      0.271  1.048  2.681  0.000    22.426     7.756
 316   8 O     -0.511  1.750  4.761  0.000    24.033     6.573
 317   6 C     -0.071  1.056  3.015  0.000    21.846     6.654
 318   6 C     -0.101  1.060  3.041  0.000    22.424     6.741
 319   6 C      0.291  1.041  2.669  0.000    22.073     7.693
 320   8 O     -0.510  1.756  4.754  0.000    23.999     6.568
 321   7 N     -0.291  1.271  4.020  0.000    27.503     7.789
 322   1 H      0.158  0.842  0.000  0.000     1.347     1.818
 323   1 H      0.039  0.961  0.000  0.000     2.462     2.454
 324   1 H      0.058  0.942  0.000  0.000     2.228     2.334
 325   1 H      0.072  0.928  0.000  0.000     2.066     2.248
 326   1 H      0.065  0.935  0.000  0.000     2.145     2.290
 327   1 H      0.076  0.924  0.000  0.000     2.017     2.221
 328   1 H      0.232  0.768  0.000  0.000     0.957     1.533
 329   1 H      0.202  0.798  0.000  0.000     1.093     1.638
 330   7 N     -0.176  1.249  3.927  0.000    24.814     7.398
 331   6 C      0.036  1.053  2.911  0.000    19.966     6.362
 332   6 C      0.207  1.087  2.706  0.000    23.600     7.956
 333   8 O     -0.368  1.756  4.612  0.000    21.052     6.152
 334   6 C     -0.077  1.060  3.017  0.000    21.963     6.671
 335   6 C     -0.012  1.056  2.956  0.000    20.756     6.480
 336   6 C     -0.104  1.036  3.067  0.000    22.542     6.770
 337   6 C     -0.124  1.041  3.083  0.000    22.928     6.827
 338   1 H      0.234  0.766  0.000  0.000     0.950     1.527
 339   1 H      0.064  0.936  0.000  0.000     2.149     2.293
 340   1 H      0.052  0.948  0.000  0.000     2.293     2.368
 341   1 H      0.072  0.928  0.000  0.000     2.066     2.248
 342   1 H      0.049  0.951  0.000  0.000     2.335     2.390
 343   1 H      0.037  0.963  0.000  0.000     2.495     2.470
 344   1 H      0.034  0.966  0.000  0.000     2.529     2.487
 345   1 H      0.023  0.977  0.000  0.000     2.692     2.566
 346   1 H      0.056  0.944  0.000  0.000     2.247     2.344
 347   1 H      0.030  0.970  0.000  0.000     2.584     2.514
 348   1 H      0.059  0.941  0.000  0.000     2.208     2.324
 349   1 H      0.186  0.814  0.000  0.000     1.183     1.703
 350   1 H      0.090  0.910  0.000  0.000     1.874     2.141
 351   1 H      0.191  0.809  0.000  0.000     1.152     1.681
 352   1 H      0.072  0.928  0.000  0.000     2.063     2.246
 353   1 H      0.186  0.814  0.000  0.000     1.178     1.700
 354   1 H      0.097  0.903  0.000  0.000     1.816     2.107
 355   1 H      0.180  0.820  0.000  0.000     1.211     1.724
 356   1 H      0.086  0.914  0.000  0.000     1.916     2.164
 357   1 H      0.191  0.809  0.000  0.000     1.152     1.681
 358   1 H      0.081  0.919  0.000  0.000     1.969     2.194
 359   1 H      0.183  0.817  0.000  0.000     1.194     1.712
 360   1 H      0.077  0.923  0.000  0.000     2.006     2.215
 361   1 H      0.193  0.807  0.000  0.000     1.141     1.673
 362   1 H      0.085  0.915  0.000  0.000     1.926     2.170
 363   1 H      0.193  0.807  0.000  0.000     1.142     1.674
 364   1 H      0.084  0.916  0.000  0.000     1.936     2.176

 Mol. C6AA /au·bohr⁶  :    1195937.678792
 Mol. C8AA /au·bohr⁸  :   26369905.049932
 Mol. α(0) /au        :       1627.229763

 
 Wiberg/Mayer (AO) data. WBOs > 0.1 written file <wbo>
 largest (>0.05) Wiberg bond orders for each atom
           total WBO             WBO to atom ...
     1  N   2.992    C    2 1.022    H  349 0.955    H   12 0.943
     2  C   3.982    N    1 1.022    C    5 0.966    H   13 0.955    C    3 0.936    O    4 0.052
     3  C   3.921    O    4 1.624    N   25 1.274    C    2 0.936
     4  O   1.951    C    3 1.624    N   25 0.184    C    2 0.052
     5  C   3.987    C    6 1.006    H   14 0.976    C    2 0.966    H   15 0.964
     6  C   3.991    C    7 1.007    C    5 1.006    H   17 0.977    H   16 0.965
     7  C   3.960    C    6 1.007    N    8 0.985    H   19 0.962    H   18 0.959
     8  N   3.464    C    9 1.310    C    7 0.985    H   20 0.913    N   11 0.101    N   10 0.100
     9  C   3.977    N   10 1.324    N   11 1.314    N    8 1.310
    10  N   3.399    C    9 1.324    H   21 0.917    H   22 0.913    N   11 0.103    N    8 0.100
    11  N   3.389    C    9 1.314    H   23 0.919    H   24 0.912    N   10 0.103    N    8 0.101
    12  H   0.964    N    1 0.943
    13  H   0.997    C    2 0.955
    14  H   0.996    C    5 0.976
    15  H   0.992    C    5 0.964
    16  H   0.995    C    6 0.965
    17  H   0.998    C    6 0.977
    18  H   0.991    C    7 0.959
    19  H   0.993    C    7 0.962
    20  H   0.949    N    8 0.913
    21  H   0.941    N   10 0.917
    22  H   0.932    N   10 0.913
    23  H   0.938    N   11 0.919
    24  H   0.931    N   11 0.912
    25  N   3.444    C    3 1.274    C   26 0.985    H   33 0.905    O    4 0.184
    26  C   3.974    N   25 0.985    C   29 0.981    H   34 0.954    C   27 0.933
    27  C   3.926    O   28 1.599    N   37 1.301    C   26 0.933
    28  O   1.951    C   27 1.599    N   37 0.184
    29  C   3.984    C   26 0.981    H   36 0.976    H   35 0.968    C   30 0.895    O   31 0.059    O   32 0.056
    30  C   3.928    O   31 1.515    O   32 1.499    C   29 0.895
    31  O   1.811    C   30 1.515    O   32 0.219    C   29 0.059
    32  O   1.794    C   30 1.499    O   31 0.219    C   29 0.056
    33  H   0.946    N   25 0.905
    34  H   0.996    C   26 0.954
    35  H   0.996    C   29 0.968
    36  H   0.997    C   29 0.976
    37  N   3.452    C   27 1.301    C   38 0.973    H   42 0.912    O   28 0.184
    38  C   3.959    C   41 0.990    N   37 0.973    H   43 0.952    C   39 0.936
    39  C   3.943    O   40 1.635    N   47 1.286    C   38 0.936
    40  O   1.949    C   39 1.635    N   47 0.187
    41  C   3.976    C   38 0.990    H   46 0.980    H   44 0.979    H   45 0.978
    42  H   0.946    N   37 0.912
    43  H   0.997    C   38 0.952
    44  H   0.994    C   41 0.979
    45  H   0.992    C   41 0.978
    46  H   0.992    C   41 0.980
    47  N   3.449    C   39 1.286    C   48 0.977    H   55 0.906    O   40 0.187
    48  C   3.952    N   47 0.977    C   51 0.951    H   56 0.946    C   49 0.943    O   50 0.051
    49  C   3.932    O   50 1.602    N   66 1.294    C   48 0.943
    50  O   1.949    C   49 1.602    N   66 0.180    C   48 0.051
    51  C   3.976    C   53 1.008    C   52 0.989    H   57 0.964    C   48 0.951
    52  C   3.992    C   54 1.019    C   51 0.989    H   59 0.971    H   58 0.966
    53  C   3.989    C   51 1.008    H   61 0.985    H   62 0.981    H   60 0.981
    54  C   3.993    C   52 1.019    H   64 0.984    H   63 0.983    H   65 0.974
    55  H   0.959    N   47 0.906
    56  H   0.993    C   48 0.946
    57  H   0.998    C   51 0.964
    58  H   0.999    C   52 0.966
    59  H   0.994    C   52 0.971
    60  H   0.994    C   53 0.981
    61  H   0.999    C   53 0.985
    62  H   0.997    C   53 0.981
    63  H   0.996    C   54 0.983
    64  H   0.996    C   54 0.984
    65  H   0.999    C   54 0.974
    66  N   3.445    C   49 1.294    C   67 0.977    H   74 0.894    O   50 0.180
    67  C   3.970    C   70 0.982    N   66 0.977    H   75 0.948    C   68 0.940
    68  C   3.929    O   69 1.609    N   85 1.289    C   67 0.940
    69  O   1.944    C   68 1.609    N   85 0.182
    70  C   3.987    C   71 0.994    C   67 0.982    H   76 0.968    H   77 0.964
    71  C   3.991    C   72 1.008    C   73 1.006    C   70 0.994    H   78 0.969
    72  C   3.993    C   71 1.008    H   80 0.985    H   81 0.982    H   79 0.976
    73  C   3.994    C   71 1.006    H   84 0.987    H   82 0.986    H   83 0.984
    74  H   0.954    N   66 0.894
    75  H   0.995    C   67 0.948
    76  H   0.995    C   70 0.968
    77  H   0.998    C   70 0.964
    78  H   0.999    C   71 0.969
    79  H   0.997    C   72 0.976
    80  H   1.000    C   72 0.985
    81  H   0.995    C   72 0.982
    82  H   0.998    C   73 0.986
    83  H   0.995    C   73 0.984
    84  H   1.000    C   73 0.987
    85  N   3.450    C   68 1.289    C   86 0.977    H   93 0.919    O   69 0.182
    86  C   3.967    N   85 0.977    C   89 0.973    C   87 0.954    H   94 0.944
    87  C   3.951    O   88 1.566    N   97 1.326    C   86 0.954
    88  O   1.899    C   87 1.566    N   97 0.181
    89  C   3.979    H   95 0.975    C   86 0.973    H   96 0.969    C   90 0.892    O   91 0.054    O   92 0.053
    90  C   3.936    O   92 1.514    O   91 1.504    C   89 0.892
    91  O   1.804    C   90 1.504    O   92 0.221    C   89 0.054
    92  O   1.815    C   90 1.514    O   91 0.221    C   89 0.053
    93  H   0.963    N   85 0.919
    94  H   0.999    C   86 0.944
    95  H   0.998    C   89 0.975
    96  H   0.999    C   89 0.969
    97  N   3.470    C   87 1.326    C   98 0.969    H  102 0.896    O   88 0.181
    98  C   3.954    C  101 0.989    N   97 0.969    H  103 0.949    C   99 0.935    O  100 0.052
    99  C   3.947    O  100 1.629    N  107 1.294    C   98 0.935
   100  O   1.953    C   99 1.629    N  107 0.193    C   98 0.052
   101  C   3.977    C   98 0.989    H  104 0.978    H  106 0.971    H  105 0.963
   102  H   0.955    N   97 0.896
   103  H   0.995    C   98 0.949
   104  H   0.993    C  101 0.978
   105  H   0.994    C  101 0.963
   106  H   0.994    C  101 0.971
   107  N   3.475    C   99 1.294    C  108 0.991    H  115 0.904    O  100 0.193
   108  C   3.961    N  107 0.991    C  111 0.978    C  109 0.928    H  116 0.927    O  110 0.056
   109  C   3.935    O  110 1.645    N  126 1.274    C  108 0.928
   110  O   1.958    C  109 1.645    N  126 0.184    C  108 0.056
   111  C   3.982    C  112 0.988    C  108 0.978    H  117 0.973    H  118 0.968
   112  C   3.991    C  113 1.010    C  114 1.009    C  111 0.988    H  119 0.965
   113  C   3.994    C  112 1.010    H  122 0.984    H  121 0.983    H  120 0.982
   114  C   3.995    C  112 1.009    H  123 0.985    H  125 0.985    H  124 0.981
   115  H   0.959    N  107 0.904
   116  H   0.992    C  108 0.927
   117  H   0.999    C  111 0.973
   118  H   0.997    C  111 0.968
   119  H   0.997    C  112 0.965
   120  H   0.995    C  113 0.982
   121  H   0.999    C  113 0.983
   122  H   0.999    C  113 0.984
   123  H   0.996    C  114 0.985
   124  H   0.998    C  114 0.981
   125  H   0.999    C  114 0.985
   126  N   3.441    C  109 1.274    C  127 0.986    H  135 0.900    O  110 0.184
   127  C   3.969    N  126 0.986    C  130 0.970    H  136 0.952    C  128 0.939    O  129 0.050
   128  C   3.953    O  129 1.648    N  141 1.280    C  127 0.939
   129  O   1.958    C  128 1.648    N  141 0.195    C  127 0.050
   130  C   3.994    C  131 1.001    H  138 0.975    H  137 0.972    C  127 0.970
   131  C   3.982    C  130 1.001    H  139 0.973    H  140 0.971    C  132 0.908    O  133 0.051    O  134 0.050
   132  C   3.939    O  134 1.512    O  133 1.498    C  131 0.908
   133  O   1.788    C  132 1.498    O  134 0.220    C  131 0.051
   134  O   1.804    C  132 1.512    O  133 0.220    C  131 0.050
   135  H   0.961    N  126 0.900
   136  H   0.997    C  127 0.952
   137  H   0.999    C  130 0.972
   138  H   0.997    C  130 0.975
   139  H   1.000    C  131 0.973
   140  H   0.999    C  131 0.971
   141  N   3.459    C  128 1.280    C  142 0.975    H  149 0.927    O  129 0.195
   142  C   3.952    N  141 0.975    C  145 0.972    H  150 0.942    C  143 0.926    O  144 0.055
   143  C   3.953    O  144 1.647    N  155 1.301    C  142 0.926
   144  O   1.966    C  143 1.647    N  155 0.198    C  142 0.055
   145  C   3.982    C  142 0.972    C  146 0.963    H  151 0.957    H  152 0.950    O  147 0.054
   146  C   3.945    O  147 1.656    N  148 1.298    C  145 0.963
   147  O   1.956    C  146 1.656    N  148 0.199    C  145 0.054
   148  N   3.401    C  146 1.298    H  154 0.934    H  153 0.933    O  147 0.199
   149  H   0.964    N  141 0.927
   150  H   0.991    C  142 0.942
   151  H   0.994    C  145 0.957
   152  H   0.987    C  145 0.950
   153  H   0.955    N  148 0.933
   154  H   0.959    N  148 0.934
   155  N   3.481    C  143 1.301    C  156 0.982    H  163 0.924    O  144 0.198
   156  C   3.958    N  155 0.982    C  159 0.975    H  164 0.940    C  157 0.938    O  158 0.051
   157  C   3.947    O  158 1.660    N  174 1.265    C  156 0.938
   158  O   1.970    C  157 1.660    N  174 0.190    C  156 0.051
   159  C   3.989    C  160 0.996    C  156 0.975    H  166 0.966    H  165 0.964
   160  C   3.996    C  161 1.010    C  162 1.005    C  159 0.996    H  167 0.959
   161  C   3.996    C  160 1.010    H  168 0.985    H  169 0.983    H  170 0.980
   162  C   3.993    C  160 1.005    H  173 0.986    H  172 0.978    H  171 0.976
   163  H   0.971    N  155 0.924
   164  H   0.990    C  156 0.940
   165  H   0.996    C  159 0.964
   166  H   0.997    C  159 0.966
   167  H   1.000    C  160 0.959
   168  H   0.999    C  161 0.985
   169  H   1.000    C  161 0.983
   170  H   0.997    C  161 0.980
   171  H   0.998    C  162 0.976
   172  H   0.997    C  162 0.978
   173  H   0.999    C  162 0.986
   174  N   3.440    C  157 1.265    C  175 0.990    H  181 0.918    O  158 0.190
   175  C   3.963    N  174 0.990    C  176 0.975    C  178 0.939    H  182 0.937    O  177 0.061
   176  C   3.900    O  177 1.899    C  175 0.975    H  350 0.950
   177  O   2.064    C  176 1.899    C  175 0.061
   178  C   3.951    C  180 1.005    O  179 0.983    H  183 0.957    C  175 0.939
   179  O   1.934    C  178 0.983    H  184 0.856
   180  C   3.985    C  178 1.005    H  187 0.982    H  186 0.981    H  185 0.976
   181  H   0.956    N  174 0.918
   182  H   0.991    C  175 0.937
   183  H   0.996    C  178 0.957
   184  H   0.875    O  179 0.856
   185  H   0.991    C  180 0.976
   186  H   0.996    C  180 0.981
   187  H   0.996    C  180 0.982
   188  N   2.986    C  189 1.016    H  351 0.954    H  197 0.935
   189  C   3.985    N  188 1.016    C  192 0.983    H  198 0.965    C  190 0.931
   190  C   3.931    O  191 1.609    N  203 1.309    C  189 0.931
   191  O   1.944    C  190 1.609    N  203 0.183
   192  C   3.996    C  193 1.010    C  189 0.983    H  199 0.969    H  200 0.964
   193  C   3.989    C  192 1.010    H  201 0.979    H  202 0.961    C  194 0.909    O  195 0.056    O  196 0.054
   194  C   3.930    O  195 1.499    O  196 1.497    C  193 0.909
   195  O   1.818    C  194 1.499    O  196 0.211    C  193 0.056
   196  O   1.785    C  194 1.497    O  195 0.211    C  193 0.054
   197  H   0.968    N  188 0.935
   198  H   0.999    C  189 0.965
   199  H   0.998    C  192 0.969
   200  H   0.998    C  192 0.964
   201  H   0.999    C  193 0.979
   202  H   1.000    C  193 0.961
   203  N   3.452    C  190 1.309    C  204 0.968    H  211 0.905    O  191 0.183
   204  C   3.964    C  205 0.986    N  203 0.968    C  207 0.962    H  212 0.945    O  206 0.054
   205  C   3.901    O  206 1.859    C  204 0.986    H  352 0.954
   206  O   2.015    C  205 1.859    C  204 0.054
   207  C   3.983    C  208 0.994    H  214 0.971    H  213 0.970    C  204 0.962
   208  C   3.992    C  210 1.009    C  209 1.008    C  207 0.994    H  215 0.967
   209  C   3.994    C  208 1.008    H  216 0.985    H  217 0.984    H  218 0.983
   210  C   3.995    C  208 1.009    H  221 0.986    H  219 0.985    H  220 0.984
   211  H   0.951    N  203 0.905
   212  H   0.995    C  204 0.945
   213  H   0.998    C  207 0.970
   214  H   0.995    C  207 0.971
   215  H   0.998    C  208 0.967
   216  H   0.996    C  209 0.985
   217  H   0.998    C  209 0.984
   218  H   0.998    C  209 0.983
   219  H   0.998    C  210 0.985
   220  H   0.998    C  210 0.984
   221  H   1.000    C  210 0.986
   222  N   2.987    C  223 1.013    H  353 0.955    H  227 0.953
   223  C   3.986    N  222 1.013    C  226 0.994    H  228 0.964    C  224 0.937
   224  C   3.944    O  225 1.629    N  232 1.299    C  223 0.937
   225  O   1.956    C  224 1.629    N  232 0.193
   226  C   3.991    C  223 0.994    H  231 0.983    H  229 0.981    H  230 0.980
   227  H   0.971    N  222 0.953
   228  H   0.998    C  223 0.964
   229  H   0.999    C  226 0.981
   230  H   0.997    C  226 0.980
   231  H   0.998    C  226 0.983
   232  N   3.468    C  224 1.299    C  233 0.977    H  240 0.914    O  225 0.193
   233  C   3.966    C  234 0.982    N  232 0.977    C  236 0.958    H  241 0.948    O  235 0.054
   234  C   3.897    O  235 1.850    C  233 0.982    H  354 0.951
   235  O   2.066    C  234 1.850    C  233 0.054
   236  C   3.980    C  237 0.988    H  242 0.970    H  243 0.970    C  233 0.958
   237  C   3.994    C  239 1.009    C  238 1.004    C  236 0.988    H  244 0.962
   238  C   3.990    C  237 1.004    H  247 0.985    H  245 0.985    H  246 0.984
   239  C   3.993    C  237 1.009    H  248 0.986    H  250 0.983    H  249 0.978
   240  H   0.953    N  232 0.914
   241  H   0.995    C  233 0.948
   242  H   0.994    C  236 0.970
   243  H   0.993    C  236 0.970
   244  H   0.998    C  237 0.962
   245  H   0.996    C  238 0.985
   246  H   0.996    C  238 0.984
   247  H   0.997    C  238 0.985
   248  H   0.999    C  239 0.986
   249  H   0.998    C  239 0.978
   250  H   1.000    C  239 0.983
   251  N   3.009    C  252 1.013    H  355 0.949    H  258 0.929
   252  C   3.984    N  251 1.013    C  253 0.980    H  259 0.963    C  255 0.934    O  254 0.052
   253  C   3.897    O  254 1.902    C  252 0.980    H  356 0.952
   254  O   2.033    C  253 1.902    C  252 0.052
   255  C   3.963    O  256 1.004    C  257 0.994    H  260 0.963    C  252 0.934
   256  O   1.942    C  255 1.004    H  261 0.839
   257  C   3.993    C  255 0.994    H  263 0.986    H  262 0.976    H  264 0.973
   258  H   0.973    N  251 0.929
   259  H   0.997    C  252 0.963
   260  H   0.999    C  255 0.963
   261  H   0.892    O  256 0.839
   262  H   0.998    C  257 0.976
   263  H   0.999    C  257 0.986
   264  H   0.997    C  257 0.973
   265  N   2.997    C  266 1.011    H  357 0.953    H  272 0.944
   266  C   3.985    N  265 1.011    C  267 0.975    H  273 0.962    C  269 0.938    O  268 0.055
   267  C   3.891    O  268 1.892    C  266 0.975    H  358 0.952
   268  O   2.031    C  267 1.892    C  266 0.055
   269  C   3.959    C  271 1.007    O  270 1.001    H  274 0.960    C  266 0.938
   270  O   1.955    C  269 1.001    H  275 0.864
   271  C   3.992    C  269 1.007    H  278 0.984    H  277 0.981    H  276 0.978
   272  H   0.970    N  265 0.944
   273  H   0.998    C  266 0.962
   274  H   0.999    C  269 0.960
   275  H   0.886    O  270 0.864
   276  H   0.996    C  271 0.978
   277  H   0.998    C  271 0.981
   278  H   0.997    C  271 0.984
   279  N   3.002    C  280 1.024    H  288 0.956    H  359 0.949
   280  C   3.987    N  279 1.024    C  281 0.982    H  289 0.957    C  283 0.947    O  282 0.057
   281  C   3.903    O  282 1.904    C  280 0.982    H  360 0.952
   282  O   2.042    C  281 1.904    C  280 0.057
   283  C   3.992    C  284 0.993    H  290 0.972    H  291 0.970    C  280 0.947
   284  C   3.993    C  283 0.993    H  293 0.967    C  285 0.963    H  292 0.956    O  286 0.056
   285  C   3.934    O  286 1.657    N  287 1.286    C  284 0.963
   286  O   1.963    C  285 1.657    N  287 0.197    C  284 0.056
   287  N   3.389    C  285 1.286    H  295 0.934    H  294 0.927    O  286 0.197
   288  H   0.974    N  279 0.956
   289  H   0.995    C  280 0.957
   290  H   0.998    C  283 0.972
   291  H   0.998    C  283 0.970
   292  H   0.993    C  284 0.956
   293  H   0.996    C  284 0.967
   294  H   0.949    N  287 0.927
   295  H   0.965    N  287 0.934
   296  N   2.997    C  297 1.021    H  304 0.955    H  361 0.953
   297  C   3.988    N  296 1.021    C  298 0.976    C  300 0.966    H  305 0.936    O  299 0.059
   298  C   3.892    O  299 1.873    C  297 0.976    H  362 0.952
   299  O   2.062    C  298 1.873    C  297 0.059
   300  C   3.991    C  301 1.005    H  307 0.971    H  306 0.970    C  297 0.966
   301  C   3.971    C  300 1.005    S  302 0.989    H  309 0.967    H  308 0.965
   302  S   2.121    C  303 1.005    C  301 0.989
   303  C   3.977    S  302 1.005    H  311 0.980    H  312 0.979    H  310 0.975
   304  H   0.975    N  296 0.955
   305  H   0.996    C  297 0.936
   306  H   0.997    C  300 0.970
   307  H   0.996    C  300 0.971
   308  H   0.994    C  301 0.965
   309  H   0.996    C  301 0.967
   310  H   0.997    C  303 0.975
   311  H   0.995    C  303 0.980
   312  H   0.997    C  303 0.979
   313  N   2.990    C  314 1.015    H  322 0.954    H  363 0.952
   314  C   3.986    N  313 1.015    C  317 0.982    H  323 0.961    C  315 0.934
   315  C   3.941    O  316 1.619    N  330 1.310    C  314 0.934
   316  O   1.936    C  315 1.619    N  330 0.195
   317  C   3.990    C  318 0.998    C  314 0.982    H  324 0.970    H  325 0.958
   318  C   3.994    C  317 0.998    H  326 0.972    C  319 0.968    H  327 0.952    O  320 0.056
   319  C   3.934    O  320 1.645    N  321 1.291    C  318 0.968
   320  O   1.943    C  319 1.645    N  321 0.191    C  318 0.056
   321  N   3.381    C  319 1.291    H  329 0.937    H  328 0.925    O  320 0.191
   322  H   0.975    N  313 0.954
   323  H   0.998    C  314 0.961
   324  H   0.996    C  317 0.970
   325  H   0.995    C  317 0.958
   326  H   0.996    C  318 0.972
   327  H   0.994    C  318 0.952
   328  H   0.946    N  321 0.925
   329  H   0.959    N  321 0.937
   330  N   3.472    C  315 1.310    C  331 0.978    H  338 0.893    O  316 0.195
   331  C   3.970    N  330 0.978    C  332 0.977    C  334 0.968    H  339 0.946    O  333 0.052
   332  C   3.900    O  333 1.894    C  331 0.977    H  364 0.952
   333  O   2.034    C  332 1.894    C  331 0.052
   334  C   3.985    C  335 0.993    H  341 0.971    H  340 0.970    C  331 0.968
   335  C   3.994    C  336 1.009    C  337 1.008    C  334 0.993    H  342 0.966
   336  C   3.995    C  335 1.009    H  345 0.984    H  344 0.980    H  343 0.973
   337  C   3.992    C  335 1.008    H  348 0.982    H  346 0.976    H  347 0.971
   338  H   0.945    N  330 0.893
   339  H   0.996    C  331 0.946
   340  H   0.997    C  334 0.970
   341  H   0.995    C  334 0.971
   342  H   0.997    C  335 0.966
   343  H   0.999    C  336 0.973
   344  H   0.999    C  336 0.980
   345  H   0.999    C  336 0.984
   346  H   0.997    C  337 0.976
   347  H   0.999    C  337 0.971
   348  H   0.996    C  337 0.982
   349  H   0.966    N    1 0.955
   350  H   0.991    C  176 0.950
   351  H   0.963    N  188 0.954
   352  H   0.995    C  205 0.954
   353  H   0.965    N  222 0.955
   354  H   0.991    C  234 0.951
   355  H   0.967    N  251 0.949
   356  H   0.993    C  253 0.952
   357  H   0.963    N  265 0.953
   358  H   0.993    C  267 0.952
   359  H   0.966    N  279 0.949
   360  H   0.994    C  281 0.952
   361  H   0.963    N  296 0.953
   362  H   0.993    C  298 0.952
   363  H   0.963    N  313 0.952
   364  H   0.993    C  332 0.952
 MOs/occ written to file <molden.input>
 
molecular dipole:
                 x           y           z       tot (Debye)
 q only:     -125.355     -43.188     -76.714
   full:     -126.552     -45.127     -77.368     394.082
molecular quadrupole (traceless):
                xx          xy          yy          xz          yz          zz
 q only:    -4444.138   -3219.006    2434.587   -4836.818   -1102.808    2009.551
  q+dip:    -4464.984   -3354.127    2423.970   -4959.894   -1227.753    2041.014
   full:    -4465.393   -3354.695    2424.744   -4958.247   -1229.478    2040.649
speedup  0.91
cpu  time for grad    6.92 s
wall time for grad    7.63 s

SCC energy    :    -564.7019697
rep           :       6.6201828
ES            :       2.5167623
AES           :      -0.0829762
AXC           :       0.1768026
disp          :      -0.4609005
XB            :       0.0000000
fix           :       0.0000000
Gborn         :       0.0000000
Gsasa         :       0.0000000
Ghb           :       0.0000000
Gshift        :       0.0000000
Gsolv         :      -0.9729194     -610.52
Etot ala COSMO:    -564.7019697
grad norm     :       0.6290052
total E       :    -558.0448662
atomizationE  :     100.5053461    63068.06
(atE without considering molecular charge,
 total energy contains solvation terms)
H-L gap (eV)  :          1.2831

------------------------------------------------------------------------
 * finished run on 2019/03/14 at 16:03:25.054     
------------------------------------------------------------------------
 total:
 * wall-time:     0 d,  0 h,  0 min,  8.175 sec
 *  cpu-time:     0 d,  0 h,  0 min,  7.343 sec
 * ratio c/w:     0.898 speedup
 SCF:
 * wall-time:     0 d,  0 h,  0 min,  7.992 sec
 *  cpu-time:     0 d,  0 h,  0 min,  7.277 sec
 * ratio c/w:     0.910 speedup

