      -----------------------------------------------------------      
     |                   =====================                   |     
     |                           x T B                           |     
     |                   =====================                   |     
     |                         S. Grimme                         |     
     |          Mulliken Center for Theoretical Chemistry        |     
     |                    University of Bonn                     |     
     |                 Version 6.0.1 (SAW181210)                 |     
      -----------------------------------------------------------      

   This program is distributed in the hope that it will be useful,
   but WITHOUT ANY WARRANTY; without even the implied warranty of
   MERCHANTABILITY or FITNESS FOR A PARTICULAR PURPOSE.
   
   FOR NON-COMMERCIAL, ACADEMIA USE ONLY.
   
   Cite this work as:
   S. Grimme, C. Bannwarth, P. Shushkov, J. Comput. Theory Chem., 2017,
   13, 1989-2009.
   C. Bannwarth, S. Ehlert and S. Grimme., ChemRxiv, 2018, preprint.
   http://doi.org/10.26434/chemrxiv.7246238.v1
   
   for sTDA-xTB:
   S. Grimme and C. Bannwarth, J. Chem. Phys., 2016, 145, 054103.
   
   in the mass-spec context:
   V. Asgeirsson, C. Bauer and S. Grimme, Chem. Sci., 2017, 8, 4879.
   
   if GBSA is used:
   P. Shushkov, F. März and S. Grimme, unpublished.
   
   for ANC optimizer:
   S. Grimme, unpublished.
   Rational Function algorithm used in ANCopt:
   F. Eckert, P. Pulay, H.-J. Werner, J. Comput. Chem., 1997, 18, 1473.
   
   with help from (in alphabetical order)
   C. Bannwarth, F. Bohle, G. Brandenburg, E. Caldeweyher, M. Checinski,
   S. Dohm, S. Ehlert, S. Ehrlich, F. März, H. Neugebauer, J. Pisarek,
   P. Pracht, P. Shushkov, and S. Spicher.
   
 * started run on 2019/03/07 at 11:37:44.768     
========================================================================
 # omp threads = 1
========================================================================
number of atoms            : 271
number of electrons        : 726
charge                     : 0
spin                       : .0
first test random number   : .8122
           ------------------------------------------------- 
          |                 G F N 2 - x T B                 |
          | Geometry, Frequencies, Noncovalent interactions |
          |            JCTC 2018 parametrisation            |
           ------------------------------------------------- 
 
      method parameters     
 k(s)        :  1.8500
 k(p)        :  2.2300
 k(d)        :  2.2300
 k(f)        :  2.0000
 kEN (H0ij)  : -2.0000
 D4 a1       :  0.5200
 D4 a2       :  5.0000
 D4 s6       :  1.0000
 D4 s8       :  2.7000
 D4 s9       :  5.0000
 alphaj      :  2.0000

 Solvent             : h2o
 Using internal parameter file: .param_gbsa2_h2o
 Gsolv ref. state (COSMO-RS): gsolv [1 M gas/solution]
 temperature (mdtemp)       :    298.150000000000     
 dielectric constant        :    80.2000000000000     
 rho                        :    1.00000000000000     
 mass                       :    18.0000000000000     
 surface tension            :    15.5689454083859     
 probe radius               :   0.975313790000000     
 vdW radii scaling          :    1.00000000000000     
 Gshift (Eh)                :   1.857443126794793E-003
 c1                         :    1.55243817000000     
 soset                      :   0.130326360000000     
 HB correction              :  T

            Z     q(EN)     CN     RAES       Cart. coordinates
     1  N   5.0   -0.24    3.21    1.96   236.03433   116.14823   266.84820
     2  C   4.0    0.02    4.32    4.24   236.04945   118.66156   265.59720
     3  C   4.0    0.08    3.24    3.04   238.52310   119.95602   266.35498
     4  O   6.0   -0.30    1.14    1.80   239.57946   121.37899   264.92824
     5  C   4.0   -0.03    4.40    4.37   233.78934   120.39444   266.41167
     6  C   4.0   -0.06    4.30    4.19   231.25332   119.14533   265.76539
     7  C   4.0   -0.08    4.24    4.07   233.98587   123.00604   265.15123
     8  C   4.0   -0.09    4.15    3.90   228.98565   120.79506   266.42301
     9  H   1.0    0.10    1.08    1.44   234.85136   115.98004   267.94991
    10  H   1.0    0.04    1.12    1.45   235.89071   118.40834   263.78873
    11  H   1.0    0.04    1.12    1.45   233.87437   120.62310   268.22770
    12  H   1.0    0.04    1.09    1.44   231.21364   118.75416   263.97582
    13  H   1.0    0.04    1.09    1.44   231.12104   117.55418   266.66490
    14  H   1.0    0.04    1.06    1.44   232.57235   124.04728   265.67846
    15  H   1.0    0.06    1.06    1.44   235.55623   123.80918   265.65012
    16  H   1.0    0.04    1.05    1.44   233.95374   122.80951   263.32953
    17  H   1.0    0.04    1.05    1.44   227.43986   119.91634   265.97704
    18  H   1.0    0.04    1.05    1.44   228.98754   121.15033   268.22203
    19  H   1.0    0.04    1.06    1.44   229.08392   122.36920   265.48949
    20  N   5.0   -0.23    3.22    1.96   242.99230   117.36899   262.64923
    21  C   4.0    0.04    4.30    4.19   242.25531   118.29684   260.14156
    22  C   4.0    0.09    3.23    3.04   242.93183   121.05206   259.71449
    23  O   6.0   -0.29    1.12    1.80   243.07167   121.84008   257.51673
    24  C   4.0   -0.05    4.50    4.53   239.40182   118.05307   259.73905
    25  C   4.0   -0.03    4.30    4.20   238.22830   115.47548   259.27418
    26  C   4.0   -0.09    4.22    4.03   235.35025   115.74193   259.15702
    27  C   4.0   -0.08    4.24    4.07   239.29222   114.40779   256.82698
    28  H   1.0    0.11    1.09    1.44   241.74130   117.31230   263.68480
    29  H   1.0    0.05    1.13    1.45   243.18883   117.25561   258.95671
    30  H   1.0    0.05    1.11    1.45   238.58168   118.76739   261.21493
    31  H   1.0    0.05    1.11    1.45   238.95963   119.11699   258.31231
    32  H   1.0    0.04    1.12    1.45   238.63081   114.31897   260.63856
    33  H   1.0    0.04    1.05    1.44   234.59436   114.09787   258.86033
    34  H   1.0    0.04    1.06    1.44   234.73420   116.41846   260.74439
    35  H   1.0    0.04    1.06    1.44   234.89671   116.87766   257.79263
    36  H   1.0    0.05    1.06    1.44   238.55711   112.75995   256.50762
    37  H   1.0    0.05    1.06    1.44   238.88782   115.53595   255.43993
    38  H   1.0    0.05    1.06    1.44   241.11202   114.24716   256.97060
    39  N   5.0   -0.24    3.25    1.97   247.33678   109.24506   249.16604
    40  C   4.0    0.03    4.37    4.33   245.20328   110.96849   249.23407
    41  C   4.0    0.08    3.25    3.04   242.91293   109.86678   250.56632
    42  O   6.0   -0.31    1.13    1.80   241.31611   111.21415   251.47339
    43  C   4.0   -0.03    4.38    4.34   244.39070   111.79241   246.52987
    44  C   4.0   -0.09    4.22    4.04   246.59601   113.05285   245.12958
    45  C   4.0   -0.09    4.26    4.13   243.49308   109.50395   245.06911
    46  H   1.0    0.10    1.08    1.44   247.03820   107.82398   248.43471
    47  H   1.0    0.05    1.13    1.45   245.79099   112.41980   250.18649
    48  H   1.0    0.05    1.12    1.45   243.02821   113.00939   246.66971
    49  H   1.0    0.04    1.05    1.44   246.04988   113.55174   243.45150
    50  H   1.0    0.04    1.05    1.44   247.14403   114.53440   246.05933
    51  H   1.0    0.04    1.06    1.44   247.98874   111.86989   244.99163
    52  H   1.0    0.04    1.06    1.44   242.98663   110.01418   243.38347
    53  H   1.0    0.04    1.06    1.44   244.85368   108.27941   244.95384
    54  H   1.0    0.05    1.06    1.44   242.06445   108.74806   245.93271
    55  N   5.0   -0.24    3.26    1.97   235.81890   118.61999   238.44940
    56  C   4.0    0.02    4.31    4.21   236.02299   117.48993   240.95140
    57  C   4.0    0.15    3.42    3.09   235.44663   119.49682   242.96207
    58  O   6.0   -0.32    1.28    1.80   234.07279   118.99415   244.72896
    59  C   4.0   -0.09    4.18    3.96   238.72719   116.39011   241.36903
    60  H   1.0    0.10    1.08    1.44   237.14738   118.46881   237.52532
    61  H   1.0    0.04    1.12    1.45   234.81357   116.11988   241.08935
    62  H   1.0    0.04    1.05    1.44   238.83301   115.64556   243.04143
    63  H   1.0    0.04    1.05    1.44   239.06734   115.10510   240.10669
    64  H   1.0    0.04    1.05    1.44   239.96496   117.73371   241.21974
    65  N   5.0   -0.17    3.49    2.07   236.36881   121.80418   242.50475
    66  C   4.0    0.03    4.49    4.53   235.97764   123.92634   244.23007
    67  C   4.0    0.16    3.44    3.09   233.11848   124.62554   244.37180
    68  O   6.0   -0.31    1.28    1.80   232.16606   125.01860   246.44294
    69  C   4.0   -0.03    4.40    4.39   237.51965   126.38298   243.49308
    70  C   4.0   -0.06    4.35    4.29   240.33724   125.90110   243.59890
    71  C   4.0   -0.08    4.26    4.12   236.89982   128.53916   245.31288
    72  C   4.0   -0.09    4.17    3.94   241.95295   128.06106   242.79010
    73  H   1.0    0.09    1.13    1.45   237.23809   122.17834   241.18383
    74  H   1.0    0.06    1.12    1.45   236.59747   123.35186   245.85713
    75  H   1.0    0.04    1.12    1.45   237.04155   126.83841   241.78288
    76  H   1.0    0.04    1.10    1.44   240.78888   125.44568   245.31666
    77  H   1.0    0.04    1.10    1.44   240.72274   124.45546   242.54066
    78  H   1.0    0.04    1.06    1.44   237.85414   130.03015   244.84234
    79  H   1.0    0.06    1.06    1.44   235.10647   128.91144   245.23163
    80  H   1.0    0.05    1.06    1.44   237.34391   128.04405   247.02120
    81  H   1.0    0.04    1.06    1.44   243.71796   127.58674   242.91860
    82  H   1.0    0.04    1.06    1.44   241.56367   128.49947   241.05344
    83  H   1.0    0.04    1.06    1.44   241.62981   129.50481   243.87102
    84  N   5.0   -0.17    3.51    2.09   231.90717   124.73703   242.14759
    85  C   4.0    0.03    4.50    4.53   229.21431   125.33040   241.91705
    86  C   4.0    0.16    3.46    3.10   227.65151   123.15911   242.95640
    87  O   6.0   -0.31    1.26    1.80   225.59926   123.57107   243.93149
    88  C   4.0    0.05    4.31    4.22   228.47543   125.86142   239.10891
    89  O   6.0   -0.28    2.14    1.85   229.89839   127.94579   238.16216
    90  C   4.0   -0.07    4.18    3.97   225.66918   126.40566   238.75176
    91  H   1.0    0.09    1.13    1.45   232.64038   124.46680   240.72274
    92  H   1.0    0.06    1.12    1.45   228.87227   126.84785   242.88648
    93  H   1.0    0.04    1.11    1.45   228.85904   124.33074   238.17728
    94  H   1.0    0.14    1.08    1.44   231.40450   127.49792   237.92973
    95  H   1.0    0.05    1.05    1.44   225.32714   126.71935   236.97919
    96  H   1.0    0.05    1.06    1.44   224.69031   124.96380   239.31678
    97  H   1.0    0.06    1.06    1.44   225.20242   127.88153   239.73252
    98  N   5.0   -0.16    3.54    2.11   228.70219   120.85742   242.77876
    99  C   4.0    0.04    4.48    4.51   227.47954   118.51794   243.64804
   100  C   4.0    0.17    3.51    3.12   227.47576   118.67857   246.52987
   101  O   6.0   -0.29    1.24    1.80   225.45564   119.03951   247.71284
   102  C   4.0   -0.04    4.45    4.47   229.05935   116.23326   242.86002
   103  C   4.0    0.16    3.30    3.05   227.65529   114.50794   241.05155
   104  O   6.0   -0.28    1.20    1.80   226.48743   112.65790   241.84146
   105  N   5.0   -0.24    3.23    1.96   227.75733   115.11833   238.62136
   106  H   1.0    0.10    1.15    1.45   230.17429   120.61176   242.13626
   107  H   1.0    0.06    1.12    1.45   225.79768   118.33653   242.94317
   108  H   1.0    0.05    1.10    1.44   230.60893   116.81152   242.06822
   109  H   1.0    0.06    1.11    1.45   229.54123   115.28462   244.35290
   110  H   1.0    0.12    1.09    1.44   226.98632   114.20370   237.52154
   111  H   1.0    0.10    1.09    1.44   228.59448   116.42791   238.14704
   112  N   5.0   -0.16    3.57    2.13   229.73020   118.44802   247.59000
   113  C   4.0    0.03    4.53    4.58   230.10437   118.59164   250.34522
   114  C   4.0    0.17    3.56    3.14   229.00266   120.98214   251.38079
   115  O   6.0   -0.33    1.40    1.80   227.82725   120.98026   253.34233
   116  C   4.0   -0.05    4.50    4.54   232.94085   118.48204   250.99718
   117  C   4.0   -0.03    4.37    4.32   234.29578   116.07831   250.22050
   118  C   4.0   -0.08    4.24    4.08   237.07935   116.21059   250.79687
   119  C   4.0   -0.09    4.29    4.18   233.00699   113.91835   251.46016
   120  H   1.0    0.12    1.17    1.46   231.09837   118.20425   246.74719
   121  H   1.0    0.06    1.14    1.45   229.25021   117.15734   251.10300
   122  H   1.0    0.06    1.10    1.44   233.77611   119.90500   250.19783
   123  H   1.0    0.04    1.10    1.44   233.12982   118.69747   252.80754
   124  H   1.0    0.06    1.14    1.45   234.20508   115.85154   248.40448
   125  H   1.0    0.06    1.06    1.44   237.88626   114.64778   250.27908
   126  H   1.0    0.05    1.06    1.44   237.82579   117.61465   249.88602
   127  H   1.0    0.04    1.06    1.44   237.32123   116.45436   252.59778
   128  H   1.0    0.05    1.06    1.44   233.84225   112.35555   250.98962
   129  H   1.0    0.04    1.06    1.44   233.07880   114.12622   253.27997
   130  H   1.0    0.05    1.07    1.44   231.25521   113.85977   250.92159
   131  N   5.0   -0.15    3.54    2.10   229.38627   123.05139   250.02586
   132  C   4.0    0.02    4.38    4.34   228.40929   125.45891   250.84600
   133  C   4.0    0.17    3.45    3.09   225.55958   125.27560   251.11812
   134  O   6.0   -0.28    1.25    1.80   224.53157   126.05039   253.07399
   135  H   1.0    0.13    1.17    1.46   230.21019   123.09108   248.62557
   136  H   1.0    0.06    1.09    1.44   229.16707   125.93701   252.44471
   137  H   1.0    0.06    1.09    1.44   228.84581   126.76282   249.63469
   138  N   5.0   -0.15    3.54    2.10   224.30102   124.17578   249.24351
   139  C   4.0    0.05    4.51    4.55   221.54202   123.96980   249.33800
   140  C   4.0    0.17    3.49    3.11   220.77290   122.50148   251.69260
   141  O   6.0   -0.28    1.22    1.80   219.13262   123.35375   253.13635
   142  C   4.0   -0.03    4.40    4.38   220.52724   122.68101   246.95506
   143  C   4.0    0.17    3.29    3.05   219.06459   124.48759   245.26942
   144  O   6.0   -0.27    1.20    1.80   217.06337   125.38521   245.95539
   145  N   5.0   -0.23    3.23    1.96   220.17008   125.07907   243.06411
   146  H   1.0    0.13    1.15    1.45   224.99077   123.54272   247.91504
   147  H   1.0    0.07    1.13    1.45   220.81826   125.65166   249.41548
   148  H   1.0    0.07    1.11    1.44   221.92564   121.96858   246.01019
   149  H   1.0    0.06    1.10    1.44   219.43876   121.28639   247.43694
   150  H   1.0    0.12    1.08    1.44   219.46143   126.14110   242.05878
   151  H   1.0    0.12    1.10    1.44   221.58738   124.39688   242.65782
   152  N   5.0   -0.15    3.52    2.09   222.04091   120.36798   252.11590
   153  C   4.0    0.03    4.47    4.49   221.57226   118.72959   254.29097
   154  C   4.0    0.16    3.44    3.09   221.94831   120.17712   256.78352
   155  O   6.0   -0.31    1.31    1.80   220.28535   120.18468   258.39735
   156  C   4.0    0.05    4.26    4.12   223.21254   116.24082   254.25696
   157  O   6.0   -0.27    2.18    1.85   225.48021   116.63200   252.77163
   158  C   4.0   -0.08    4.16    3.91   221.75178   113.98071   253.21383
   159  H   1.0    0.13    1.15    1.45   223.21443   119.82374   251.13324
   160  H   1.0    0.05    1.13    1.45   219.82048   118.20236   254.17003
   161  H   1.0    0.04    1.11    1.45   223.65663   115.86099   255.99362
   162  H   1.0    0.16    1.12    1.45   226.35137   117.78473   253.42926
   163  H   1.0    0.05    1.05    1.44   222.82893   112.49728   253.22706
   164  H   1.0    0.04    1.05    1.44   220.27591   113.67269   254.25507
   165  H   1.0    0.06    1.05    1.44   221.22266   114.33409   251.49418
   166  N   5.0   -0.16    3.49    2.07   223.99867   121.61142   256.95549
   167  C   4.0    0.03    4.50    4.54   224.65440   123.10620   259.20804
   168  C   4.0    0.17    3.48    3.11   222.43019   124.61420   260.30408
   169  O   6.0   -0.31    1.24    1.80   221.93886   124.48003   262.58687
   170  C   4.0   -0.02    4.35    4.29   226.91640   124.96758   258.66380
   171  C   4.0   -0.08    4.23    4.05   227.37183   126.69479   260.96359
   172  C   4.0   -0.08    4.23    4.06   229.30313   123.53894   258.01562
   173  H   1.0    0.13    1.16    1.46   225.07770   121.75504   255.74984
   174  H   1.0    0.05    1.13    1.45   225.15140   121.86654   260.46282
   175  H   1.0    0.07    1.12    1.45   226.46476   125.99937   257.21816
   176  H   1.0    0.05    1.05    1.44   228.76644   127.83051   260.60833
   177  H   1.0    0.06    1.06    1.44   225.85816   127.67177   261.30375
   178  H   1.0    0.04    1.05    1.44   227.77812   125.66867   262.42813
   179  H   1.0    0.05    1.06    1.44   230.65995   124.72947   257.69059
   180  H   1.0    0.04    1.06    1.44   229.76611   122.45424   259.41780
   181  H   1.0    0.07    1.08    1.44   229.01778   122.51660   256.52085
   182  N   5.0   -0.14    3.48    2.07   221.17164   126.09007   258.69403
   183  C   4.0    0.05    4.46    4.48   218.94365   127.59997   259.43670
   184  C   4.0    0.17    3.45    3.09   216.89330   125.87654   260.60644
   185  O   6.0   -0.30    1.30    1.80   215.92954   126.37731   262.67191
   186  C   4.0   -0.04    4.38    4.34   217.88729   129.07584   257.18603
   187  C   4.0    0.17    3.30    3.05   219.79214   130.89376   256.03519
   188  O   6.0   -0.28    1.22    1.80   221.71777   131.50603   257.23706
   189  N   5.0   -0.23    3.22    1.96   219.33293   131.75547   253.73728
   190  H   1.0    0.12    1.13    1.45   221.57982   126.25259   257.12934
   191  H   1.0    0.07    1.12    1.45   219.47088   128.81695   260.70092
   192  H   1.0    0.06    1.09    1.44   217.33171   127.89476   255.89913
   193  H   1.0    0.05    1.09    1.44   216.40953   130.01692   257.72460
   194  H   1.0    0.13    1.09    1.44   220.38173   132.77403   253.02675
   195  H   1.0    0.11    1.09    1.44   217.98556   131.29816   252.95305
   196  N   5.0   -0.15    3.51    2.09   216.24701   123.79973   259.31386
   197  C   4.0    0.04    4.52    4.56   214.32705   122.06685   260.26818
   198  C   4.0    0.17    3.49    3.11   215.13585   120.88955   262.73616
   199  O   6.0   -0.32    1.34    1.80   213.64297   120.60798   264.45770
   200  C   4.0   -0.04    4.38    4.34   213.69021   120.03728   258.27074
   201  C   4.0    0.16    3.28    3.05   211.98946   121.03506   256.17314
   202  O   6.0   -0.27    1.19    1.80   209.79360   121.70780   256.57376
   203  N   5.0   -0.23    3.23    1.96   213.01180   121.06907   253.86578
   204  H   1.0    0.12    1.13    1.45   216.89897   123.37076   257.88901
   205  H   1.0    0.07    1.14    1.45   212.80204   123.02683   260.59888
   206  H   1.0    0.05    1.10    1.44   215.24545   119.40422   257.53752
   207  H   1.0    0.06    1.09    1.44   212.86818   118.61999   259.09088
   208  H   1.0    0.13    1.09    1.44   212.13308   121.57363   252.59400
   209  H   1.0    0.12    1.09    1.44   214.54815   120.58719   253.65036
   210  N   5.0   -0.16    3.55    2.11   217.52257   120.10342   262.79474
   211  C   4.0    0.03    4.50    4.53   218.59405   118.90534   265.03028
   212  C   4.0    0.16    3.50    3.11   218.35783   120.48704   267.41512
   213  O   6.0   -0.28    1.24    1.80   217.32037   119.61020   269.31051
   214  C   4.0   -0.05    4.46    4.48   221.36061   118.18913   264.53329
   215  C   4.0   -0.03    4.33    4.25   221.80091   115.93469   262.74939
   216  C   4.0   -0.09    4.23    4.06   224.44086   115.98382   261.66468
   217  C   4.0   -0.09    4.24    4.09   221.26423   113.50450   264.10621
   218  H   1.0    0.13    1.17    1.46   218.55625   120.24893   261.54941
   219  H   1.0    0.05    1.14    1.45   217.60761   117.39356   265.34209
   220  H   1.0    0.06    1.10    1.44   222.21854   119.65178   263.83598
   221  H   1.0    0.04    1.10    1.44   222.15807   117.81685   266.14144
   222  H   1.0    0.05    1.14    1.45   220.64062   116.06319   261.33587
   223  H   1.0    0.04    1.06    1.44   224.67141   114.54763   260.54974
   224  H   1.0    0.05    1.06    1.44   224.68464   117.53528   260.71982
   225  H   1.0    0.04    1.06    1.44   225.66351   115.90067   263.02718
   226  H   1.0    0.04    1.06    1.44   221.54580   112.09476   262.97048
   227  H   1.0    0.04    1.06    1.44   222.37728   113.35332   265.55374
   228  H   1.0    0.05    1.06    1.44   219.52190   113.49316   264.67313
   229  N   5.0   -0.16    3.59    2.15   219.29892   122.81707   267.23748
   230  C   4.0    0.03    4.52    4.57   219.24600   124.57640   269.34453
   231  C   4.0    0.17    3.53    3.13   216.51157   124.65199   270.27994
   232  O   6.0   -0.26    1.22    1.80   215.91253   124.35909   272.52494
   233  C   4.0    0.05    4.34    4.28   219.98111   127.29572   268.45258
   234  O   6.0   -0.25    2.20    1.86   218.81515   127.81539   266.04129
   235  C   4.0   -0.07    4.19    3.98   222.76278   127.69823   268.28439
   236  H   1.0    0.12    1.16    1.45   219.98300   123.41233   265.89011
   237  H   1.0    0.05    1.11    1.45   220.42519   124.04350   270.64277
   238  H   1.0    0.05    1.12    1.45   219.36317   128.45979   269.72625
   239  H   1.0    0.17    1.14    1.45   218.30492   126.45857   265.39500
   240  H   1.0    0.06    1.06    1.44   223.10105   129.41032   267.72503
   241  H   1.0    0.04    1.06    1.44   223.52056   127.43556   269.93223
   242  H   1.0    0.06    1.06    1.44   223.48088   126.51148   267.08631
   243  N   5.0   -0.15    3.55    2.12   214.80704   124.95813   268.47715
   244  C   4.0    0.05    4.46    4.48   212.09339   125.01293   269.00627
   245  C   4.0    0.18    3.47    3.10   211.17121   122.58841   270.23837
   246  O   6.0   -0.24    1.24    1.80   210.25280   122.62621   272.37565
   247  C   4.0    0.03    4.24    4.09   210.62319   125.46269   266.53073
   248  O   6.0   -0.25    2.06    1.83   207.92466   125.62520   266.96158
   249  H   1.0    0.12    1.15    1.45   215.18120   125.14143   266.90678
   250  H   1.0    0.07    1.13    1.45   211.79293   126.38298   270.18735
   251  H   1.0    0.06    1.07    1.44   211.21089   127.01037   265.74460
   252  H   1.0    0.07    1.07    1.44   210.97278   124.10019   265.35721
   253  H   1.0    0.15    1.07    1.44   207.18199   125.87276   265.58020
   254  N   5.0   -0.15    3.52    2.09   211.60206   120.47381   268.95336
   255  C   4.0    0.05    4.32    4.23   210.90097   117.91890   269.78861
   256  C   4.0    0.11    3.26    3.05   211.39230   117.52395   272.59297
   257  O   6.0   -0.25    1.12    1.80   209.64431   117.06096   274.03483
   258  C   4.0   -0.07    4.22    4.03   212.31638   115.94792   268.23526
   259  H   1.0    0.13    1.20    1.46   212.34284   120.47948   267.50772
   260  H   1.0    0.07    1.13    1.45   209.09818   117.72615   269.52027
   261  H   1.0    0.05    1.06    1.44   211.84206   114.26984   268.79840
   262  H   1.0    0.06    1.06    1.44   211.88741   116.14067   266.46459
   263  H   1.0    0.06    1.06    1.44   214.12107   116.17846   268.45447
   264  H   1.0    0.09    1.07    1.44   235.81670   114.93307   265.67833
   265  H   1.0    0.06    1.05    1.44   239.28151   119.62391   268.05368
   266  H   1.0    0.10    1.07    1.44   243.62663   115.79719   262.50914
   267  H   1.0    0.07    1.04    1.43   243.25300   122.18606   261.19163
   268  H   1.0    0.09    1.08    1.44   248.62522   109.96953   248.32484
   269  H   1.0    0.05    1.05    1.44   242.70983   107.99296   250.70275
   270  H   1.0    0.10    1.08    1.44   234.54237   117.88675   237.59769
   271  H   1.0    0.07    1.05    1.44   213.15279   117.64197   273.26959

  Z AO/shell   Hii/eV     exponent
  1     Wed Apr 25 08:07:45 CEST 2018   EN: 2.200 GM2: 0.406  GM3: 0.0800  RAES: 1.40
     1s    -10.707211    1.230000
  6     Wed Apr 25 08:07:45 CEST 2018   EN: 2.550 GM2: 0.538  GM3: 0.1500  RAES: 3.00
     2s    -13.970922    2.096432
     2p    -10.063292    1.800000
  7     Wed Apr 25 08:07:45 CEST 2018   EN: 3.040 GM2: 0.461  GM3:-0.0640  RAES: 1.90
     2s    -16.686243    2.339881
     2p    -12.523956    2.014332
  8     Wed Apr 25 08:07:45 CEST 2018   EN: 3.440 GM2: 0.452  GM3:-0.0517  RAES: 1.80
     2s    -20.229985    2.439742
     2p    -15.503117    2.137023
 no old-style atom pair restraining (fixing) potential

molecular fragmentation (1/2 indicates fragments):
111111111111111111122222222222222222222222222222222222222222222222222222
222222222222222222222222222222222222222222222222222222222222222222222222
222222222222222222222222222222222222222222222222222222222222222222222222
2222222222222222222222222222222222222222222222211222222
# atoms in fragment 1/2:    21   250
 fragment masses (1/2) :      115.17     1702.96
CMA distance (Bohr)    :  14.517
constraining FC (au)   :  0.0500
           ------------------------------------------------- 
          |        Self-Consistent Charge Iterations        |
           ------------------------------------------------- 

 Ncao       : 652
 Nao        : 652
 Nshell     : 398
 Nel        : 726
 T(el)      :   500.0
 intcut     :    35.0
 scfconv/Eh :  0.100E-06
   qconv/e  :  0.100E-04
 intneglect :  0.100E-08
 broydamp   :      0.400
 iter      E             dE          RMSdq      gap      omega  full diag
   1   -418.6877514 -0.418688E+03  0.464E+00    3.08       0.0  T
   2   -419.7341959 -0.104644E+01  0.214E+00    2.14       1.0  T
   3   -419.7863448 -0.521490E-01  0.122E+00    2.46       1.0  T
   4   -419.8413139 -0.549691E-01  0.223E-01    2.18       1.0  T
   5   -419.8455653 -0.425139E-02  0.947E-02    2.36       1.0  T
   6   -419.8458435 -0.278164E-03  0.363E-02    2.33       1.0  T
   7   -419.8459097 -0.662432E-04  0.140E-02    2.34       1.0  T
   8   -419.8459160 -0.624140E-05  0.655E-03    2.33       1.0  T
   9   -419.8459182 -0.224066E-05  0.220E-03    2.33       2.8  T
  10   -419.8459184 -0.181021E-06  0.791E-04    2.33       7.7  T
  11   -419.8459184 -0.329283E-07  0.328E-04    2.33      18.5  T
  12   -419.8459184 -0.355828E-08  0.126E-04    2.33      48.3  T
  13   -419.8459184 -0.567070E-09  0.480E-05    2.33     126.7  T
  14   -419.8459184 -0.102602E-09  0.200E-05    2.33     304.3  T
speedup  1.00
cpu  time for SCC    2.56 s
wall time for SCC    2.56 s

   *** convergence criteria satisfied after 14 iterations ***

          eigenvalues
 #    :         351        352        353        354        355        356        357        358
 occ. :        2.000      2.000      2.000      2.000      2.000      2.000      2.000      2.000
 eps  :       -11.158    -11.129    -11.121    -11.117    -11.102    -11.030    -10.942    -10.810
 #    :         359        360        361        362        363        364        365        366
 occ. :        2.000      2.000      2.000      2.000      2.000      0.000      0.000      0.000
 eps  :       -10.710    -10.616    -10.124    -10.086     -9.933     -7.600     -7.559     -7.513
 #    :         367        368        369        370        371        372        373        374
 occ. :        0.000      0.000      0.000      0.000      0.000      0.000      0.000      0.000
 eps  :        -7.454     -7.158     -6.929     -6.867     -6.815     -6.732     -6.614     -6.594


   #   Z            q   n(s)   n(p)   n(d)      C6AA      α(0)
   1   7 N     -0.424  1.297  4.127  0.000    31.048     8.276
   2   6 C      0.014  1.048  2.938  0.000    20.358     6.427
   3   6 C      0.200  1.087  2.713  0.000    23.742     7.980
   4   8 O     -0.369  1.747  4.622  0.000    21.062     6.153
   5   6 C     -0.037  1.049  2.988  0.000    21.195     6.548
   6   6 C     -0.083  1.004  3.080  0.000    22.081     6.688
   7   6 C     -0.151  0.978  3.173  0.000    23.458     6.903
   8   6 C     -0.149  0.976  3.173  0.000    23.410     6.896
   9   1 H      0.186  0.814  0.000  0.000     1.182     1.703
  10   1 H      0.073  0.927  0.000  0.000     2.052     2.240
  11   1 H      0.053  0.947  0.000  0.000     2.281     2.362
  12   1 H      0.054  0.946  0.000  0.000     2.265     2.353
  13   1 H      0.051  0.949  0.000  0.000     2.310     2.377
  14   1 H      0.067  0.933  0.000  0.000     2.119     2.276
  15   1 H      0.047  0.953  0.000  0.000     2.356     2.400
  16   1 H      0.062  0.938  0.000  0.000     2.180     2.309
  17   1 H      0.053  0.947  0.000  0.000     2.279     2.360
  18   1 H      0.052  0.948  0.000  0.000     2.298     2.370
  19   1 H      0.055  0.945  0.000  0.000     2.254     2.348
  20   7 N     -0.425  1.292  4.133  0.000    31.079     8.280
  21   6 C      0.029  1.034  2.936  0.000    20.093     6.384
  22   6 C      0.200  1.094  2.706  0.000    23.738     7.979
  23   8 O     -0.395  1.762  4.634  0.000    21.588     6.229
  24   6 C     -0.092  1.011  3.081  0.000    22.230     6.708
  25   6 C     -0.026  1.032  2.994  0.000    20.993     6.516
  26   6 C     -0.149  0.979  3.171  0.000    23.418     6.896
  27   6 C     -0.153  0.979  3.174  0.000    23.492     6.906
  28   1 H      0.175  0.825  0.000  0.000     1.242     1.746
  29   1 H      0.081  0.919  0.000  0.000     1.968     2.194
  30   1 H      0.061  0.939  0.000  0.000     2.189     2.313
  31   1 H      0.062  0.938  0.000  0.000     2.179     2.308
  32   1 H      0.044  0.956  0.000  0.000     2.389     2.417
  33   1 H      0.062  0.938  0.000  0.000     2.177     2.307
  34   1 H      0.046  0.954  0.000  0.000     2.364     2.404
  35   1 H      0.054  0.946  0.000  0.000     2.265     2.353
  36   1 H      0.058  0.942  0.000  0.000     2.217     2.328
  37   1 H      0.061  0.939  0.000  0.000     2.187     2.312
  38   1 H      0.046  0.954  0.000  0.000     2.364     2.404
  39   7 N     -0.423  1.291  4.132  0.000    31.011     8.271
  40   6 C      0.017  1.040  2.944  0.000    20.305     6.417
  41   6 C      0.201  1.081  2.718  0.000    23.719     7.976
  42   8 O     -0.373  1.746  4.627  0.000    21.140     6.164
  43   6 C     -0.029  1.041  2.987  0.000    21.050     6.525
  44   6 C     -0.151  0.979  3.172  0.000    23.457     6.902
  45   6 C     -0.147  0.974  3.173  0.000    23.367     6.888
  46   1 H      0.180  0.820  0.000  0.000     1.211     1.724
  47   1 H      0.084  0.916  0.000  0.000     1.942     2.179
  48   1 H      0.055  0.945  0.000  0.000     2.263     2.352
  49   1 H      0.065  0.935  0.000  0.000     2.136     2.285
  50   1 H      0.056  0.944  0.000  0.000     2.250     2.346
  51   1 H      0.056  0.944  0.000  0.000     2.248     2.344
  52   1 H      0.063  0.937  0.000  0.000     2.165     2.301
  53   1 H      0.057  0.943  0.000  0.000     2.234     2.337
  54   1 H      0.045  0.955  0.000  0.000     2.386     2.416
  55   7 N     -0.425  1.281  4.145  0.000    31.081     8.280
  56   6 C      0.012  1.041  2.947  0.000    20.384     6.431
  57   6 C      0.259  1.050  2.691  0.000    22.635     7.791
  58   8 O     -0.494  1.738  4.757  0.000    23.658     6.521
  59   6 C     -0.155  0.984  3.171  0.000    23.546     6.916
  60   1 H      0.194  0.806  0.000  0.000     1.138     1.671
  61   1 H      0.060  0.940  0.000  0.000     2.201     2.320
  62   1 H      0.063  0.937  0.000  0.000     2.159     2.297
  63   1 H      0.072  0.928  0.000  0.000     2.060     2.244
  64   1 H      0.069  0.931  0.000  0.000     2.099     2.265
  65   7 N     -0.191  1.210  3.981  0.000    25.134     7.446
  66   6 C     -0.009  1.059  2.951  0.000    20.753     6.488
  67   6 C      0.271  1.048  2.681  0.000    22.420     7.753
  68   8 O     -0.475  1.747  4.728  0.000    23.249     6.465
  69   6 C     -0.041  1.049  2.992  0.000    21.275     6.560
  70   6 C     -0.088  0.999  3.089  0.000    22.155     6.698
  71   6 C     -0.151  0.977  3.174  0.000    23.451     6.900
  72   6 C     -0.150  0.972  3.177  0.000    23.428     6.898
  73   1 H      0.225  0.775  0.000  0.000     0.988     1.557
  74   1 H      0.097  0.903  0.000  0.000     1.813     2.105
  75   1 H      0.067  0.933  0.000  0.000     2.120     2.277
  76   1 H      0.057  0.943  0.000  0.000     2.232     2.336
  77   1 H      0.056  0.944  0.000  0.000     2.247     2.344
  78   1 H      0.074  0.926  0.000  0.000     2.045     2.236
  79   1 H      0.051  0.949  0.000  0.000     2.306     2.375
  80   1 H      0.062  0.938  0.000  0.000     2.175     2.306
  81   1 H      0.057  0.943  0.000  0.000     2.228     2.334
  82   1 H      0.057  0.943  0.000  0.000     2.233     2.336
  83   1 H      0.056  0.944  0.000  0.000     2.243     2.342
  84   7 N     -0.200  1.206  3.993  0.000    25.334     7.475
  85   6 C     -0.013  1.052  2.961  0.000    20.817     6.497
  86   6 C      0.263  1.043  2.694  0.000    22.568     7.779
  87   8 O     -0.475  1.741  4.734  0.000    23.243     6.464
  88   6 C      0.102  1.028  2.870  0.000    18.994     6.222
  89   8 O     -0.486  1.689  4.796  0.000    22.581     6.415
  90   6 C     -0.166  0.982  3.185  0.000    23.774     6.949
  91   1 H      0.221  0.779  0.000  0.000     1.006     1.571
  92   1 H      0.110  0.890  0.000  0.000     1.696     2.036
  93   1 H      0.061  0.939  0.000  0.000     2.190     2.314
  94   1 H      0.341  0.659  0.000  0.000     0.609     1.225
  95   1 H      0.094  0.906  0.000  0.000     1.842     2.122
  96   1 H      0.069  0.931  0.000  0.000     2.094     2.263
  97   1 H      0.082  0.918  0.000  0.000     1.960     2.189
  98   7 N     -0.195  1.211  3.983  0.000    25.224     7.459
  99   6 C      0.014  1.043  2.943  0.000    20.345     6.422
 100   6 C      0.262  1.043  2.695  0.000    22.593     7.784
 101   8 O     -0.498  1.760  4.738  0.000    23.740     6.532
 102   6 C     -0.134  1.018  3.116  0.000    23.058     6.833
 103   6 C      0.283  1.031  2.685  0.000    22.198     7.714
 104   8 O     -0.496  1.764  4.732  0.000    23.701     6.527
 105   7 N     -0.295  1.196  4.099  0.000    27.615     7.805
 106   1 H      0.216  0.784  0.000  0.000     1.025     1.586
 107   1 H      0.102  0.898  0.000  0.000     1.770     2.080
 108   1 H      0.094  0.906  0.000  0.000     1.841     2.122
 109   1 H      0.101  0.899  0.000  0.000     1.773     2.082
 110   1 H      0.246  0.754  0.000  0.000     0.901     1.486
 111   1 H      0.240  0.760  0.000  0.000     0.923     1.505
 112   7 N     -0.186  1.215  3.970  0.000    25.022     7.429
 113   6 C     -0.003  1.045  2.958  0.000    20.640     6.468
 114   6 C      0.279  1.031  2.689  0.000    22.277     7.730
 115   8 O     -0.496  1.730  4.766  0.000    23.691     6.526
 116   6 C     -0.101  1.014  3.087  0.000    22.406     6.735
 117   6 C     -0.025  1.022  3.003  0.000    20.985     6.515
 118   6 C     -0.152  0.977  3.175  0.000    23.466     6.902
 119   6 C     -0.161  0.975  3.185  0.000    23.633     6.925
 120   1 H      0.245  0.755  0.000  0.000     0.902     1.488
 121   1 H      0.114  0.886  0.000  0.000     1.662     2.016
 122   1 H      0.070  0.930  0.000  0.000     2.084     2.257
 123   1 H      0.076  0.924  0.000  0.000     2.019     2.222
 124   1 H      0.058  0.942  0.000  0.000     2.225     2.332
 125   1 H      0.065  0.935  0.000  0.000     2.144     2.290
 126   1 H      0.051  0.949  0.000  0.000     2.307     2.375
 127   1 H      0.058  0.942  0.000  0.000     2.227     2.334
 128   1 H      0.059  0.941  0.000  0.000     2.205     2.322
 129   1 H      0.061  0.939  0.000  0.000     2.186     2.312
 130   1 H      0.052  0.948  0.000  0.000     2.291     2.367
 131   7 N     -0.180  1.203  3.977  0.000    24.907     7.412
 132   6 C     -0.045  1.006  3.038  0.000    21.418     6.597
 133   6 C      0.272  1.039  2.688  0.000    22.395     7.750
 134   8 O     -0.503  1.755  4.748  0.000    23.856     6.548
 135   1 H      0.230  0.770  0.000  0.000     0.963     1.537
 136   1 H      0.108  0.892  0.000  0.000     1.713     2.046
 137   1 H      0.109  0.891  0.000  0.000     1.703     2.040
 138   7 N     -0.186  1.211  3.975  0.000    25.034     7.431
 139   6 C      0.024  1.038  2.939  0.000    20.172     6.394
 140   6 C      0.271  1.044  2.685  0.000    22.426     7.755
 141   8 O     -0.504  1.751  4.753  0.000    23.871     6.551
 142   6 C     -0.134  1.018  3.117  0.000    23.061     6.834
 143   6 C      0.287  1.034  2.679  0.000    22.139     7.704
 144   8 O     -0.490  1.750  4.739  0.000    23.563     6.508
 145   7 N     -0.297  1.197  4.100  0.000    27.663     7.811
 146   1 H      0.228  0.772  0.000  0.000     0.973     1.545
 147   1 H      0.095  0.905  0.000  0.000     1.827     2.114
 148   1 H      0.109  0.891  0.000  0.000     1.703     2.041
 149   1 H      0.095  0.905  0.000  0.000     1.829     2.115
 150   1 H      0.242  0.758  0.000  0.000     0.913     1.497
 151   1 H      0.233  0.767  0.000  0.000     0.950     1.527
 152   7 N     -0.183  1.208  3.974  0.000    24.959     7.420
 153   6 C     -0.011  1.053  2.957  0.000    20.778     6.492
 154   6 C      0.266  1.044  2.690  0.000    22.504     7.768
 155   8 O     -0.499  1.737  4.762  0.000    23.753     6.534
 156   6 C      0.096  1.036  2.868  0.000    19.096     6.241
 157   8 O     -0.491  1.683  4.808  0.000    22.693     6.431
 158   6 C     -0.171  0.985  3.186  0.000    23.861     6.962
 159   1 H      0.237  0.763  0.000  0.000     0.934     1.514
 160   1 H      0.094  0.906  0.000  0.000     1.838     2.120
 161   1 H      0.064  0.936  0.000  0.000     2.155     2.296
 162   1 H      0.327  0.673  0.000  0.000     0.643     1.259
 163   1 H      0.092  0.908  0.000  0.000     1.861     2.133
 164   1 H      0.078  0.922  0.000  0.000     2.001     2.212
 165   1 H      0.079  0.921  0.000  0.000     1.987     2.204
 166   7 N     -0.188  1.216  3.971  0.000    25.070     7.436
 167   6 C      0.003  1.053  2.944  0.000    20.533     6.453
 168   6 C      0.276  1.045  2.679  0.000    22.324     7.737
 169   8 O     -0.500  1.744  4.757  0.000    23.794     6.540
 170   6 C     -0.033  1.045  2.988  0.000    21.129     6.538
 171   6 C     -0.152  0.980  3.172  0.000    23.474     6.905
 172   6 C     -0.166  0.979  3.186  0.000    23.750     6.945
 173   1 H      0.234  0.766  0.000  0.000     0.948     1.525
 174   1 H      0.094  0.906  0.000  0.000     1.845     2.124
 175   1 H      0.068  0.932  0.000  0.000     2.112     2.273
 176   1 H      0.073  0.927  0.000  0.000     2.052     2.240
 177   1 H      0.047  0.953  0.000  0.000     2.362     2.403
 178   1 H      0.064  0.936  0.000  0.000     2.151     2.293
 179   1 H      0.067  0.933  0.000  0.000     2.114     2.274
 180   1 H      0.067  0.933  0.000  0.000     2.121     2.278
 181   1 H      0.079  0.921  0.000  0.000     1.992     2.207
 182   7 N     -0.179  1.209  3.970  0.000    24.870     7.407
 183   6 C      0.019  1.041  2.940  0.000    20.266     6.411
 184   6 C      0.267  1.049  2.684  0.000    22.489     7.765
 185   8 O     -0.493  1.752  4.741  0.000    23.625     6.517
 186   6 C     -0.131  1.016  3.115  0.000    22.990     6.824
 187   6 C      0.283  1.035  2.682  0.000    22.210     7.717
 188   8 O     -0.505  1.761  4.743  0.000    23.885     6.552
 189   7 N     -0.294  1.196  4.099  0.000    27.587     7.801
 190   1 H      0.217  0.783  0.000  0.000     1.023     1.584
 191   1 H      0.111  0.889  0.000  0.000     1.683     2.029
 192   1 H      0.096  0.904  0.000  0.000     1.826     2.113
 193   1 H      0.108  0.892  0.000  0.000     1.715     2.048
 194   1 H      0.249  0.751  0.000  0.000     0.885     1.474
 195   1 H      0.241  0.759  0.000  0.000     0.920     1.502
 196   7 N     -0.182  1.209  3.974  0.000    24.947     7.418
 197   6 C      0.015  1.038  2.947  0.000    20.312     6.416
 198   6 C      0.273  1.034  2.693  0.000    22.386     7.748
 199   8 O     -0.491  1.736  4.755  0.000    23.579     6.510
 200   6 C     -0.131  1.019  3.111  0.000    22.991     6.824
 201   6 C      0.283  1.036  2.681  0.000    22.200     7.715
 202   8 O     -0.493  1.759  4.734  0.000    23.639     6.519
 203   7 N     -0.290  1.196  4.094  0.000    27.475     7.785
 204   1 H      0.225  0.775  0.000  0.000     0.986     1.555
 205   1 H      0.100  0.900  0.000  0.000     1.784     2.089
 206   1 H      0.096  0.904  0.000  0.000     1.821     2.110
 207   1 H      0.112  0.888  0.000  0.000     1.682     2.028
 208   1 H      0.246  0.754  0.000  0.000     0.897     1.483
 209   1 H      0.228  0.772  0.000  0.000     0.973     1.545
 210   7 N     -0.192  1.218  3.975  0.000    25.171     7.451
 211   6 C      0.006  1.040  2.954  0.000    20.480     6.443
 212   6 C      0.272  1.040  2.688  0.000    22.409     7.752
 213   8 O     -0.487  1.761  4.726  0.000    23.503     6.500
 214   6 C     -0.105  1.015  3.091  0.000    22.493     6.749
 215   6 C     -0.030  1.029  3.001  0.000    21.071     6.528
 216   6 C     -0.151  0.976  3.175  0.000    23.455     6.901
 217   6 C     -0.161  0.978  3.183  0.000    23.639     6.927
 218   1 H      0.243  0.757  0.000  0.000     0.911     1.495
 219   1 H      0.097  0.903  0.000  0.000     1.815     2.106
 220   1 H      0.073  0.927  0.000  0.000     2.056     2.242
 221   1 H      0.074  0.926  0.000  0.000     2.038     2.232
 222   1 H      0.056  0.944  0.000  0.000     2.247     2.344
 223   1 H      0.065  0.935  0.000  0.000     2.136     2.285
 224   1 H      0.044  0.956  0.000  0.000     2.394     2.419
 225   1 H      0.064  0.936  0.000  0.000     2.157     2.296
 226   1 H      0.068  0.932  0.000  0.000     2.112     2.273
 227   1 H      0.060  0.940  0.000  0.000     2.196     2.317
 228   1 H      0.051  0.949  0.000  0.000     2.303     2.373
 229   7 N     -0.201  1.210  3.991  0.000    25.373     7.481
 230   6 C     -0.005  1.050  2.955  0.000    20.668     6.473
 231   6 C      0.281  1.038  2.681  0.000    22.243     7.723
 232   8 O     -0.502  1.763  4.739  0.000    23.825     6.544
 233   6 C      0.096  1.029  2.876  0.000    19.092     6.237
 234   8 O     -0.488  1.681  4.806  0.000    22.630     6.422
 235   6 C     -0.170  0.980  3.191  0.000    23.852     6.960
 236   1 H      0.235  0.765  0.000  0.000     0.944     1.522
 237   1 H      0.099  0.901  0.000  0.000     1.790     2.092
 238   1 H      0.065  0.935  0.000  0.000     2.139     2.287
 239   1 H      0.318  0.682  0.000  0.000     0.668     1.283
 240   1 H      0.089  0.911  0.000  0.000     1.885     2.147
 241   1 H      0.078  0.922  0.000  0.000     2.002     2.213
 242   1 H      0.081  0.919  0.000  0.000     1.966     2.193
 243   7 N     -0.190  1.207  3.983  0.000    25.124     7.444
 244   6 C      0.013  1.041  2.946  0.000    20.361     6.425
 245   6 C      0.286  1.035  2.679  0.000    22.158     7.708
 246   8 O     -0.504  1.757  4.747  0.000    23.866     6.550
 247   6 C      0.049  1.001  2.950  0.000    19.944     6.393
 248   8 O     -0.513  1.697  4.816  0.000    23.172     6.498
 249   1 H      0.220  0.780  0.000  0.000     1.010     1.574
 250   1 H      0.097  0.903  0.000  0.000     1.812     2.105
 251   1 H      0.074  0.926  0.000  0.000     2.045     2.236
 252   1 H      0.070  0.930  0.000  0.000     2.082     2.256
 253   1 H      0.358  0.642  0.000  0.000     0.569     1.184
 254   7 N     -0.191  1.219  3.973  0.000    25.152     7.448
 255   6 C      0.022  1.037  2.942  0.000    20.220     6.404
 256   6 C      0.215  1.081  2.705  0.000    23.459     7.932
 257   8 O     -0.368  1.753  4.615  0.000    21.053     6.152
 258   6 C     -0.164  0.982  3.182  0.000    23.716     6.940
 259   1 H      0.248  0.752  0.000  0.000     0.889     1.477
 260   1 H      0.098  0.902  0.000  0.000     1.801     2.098
 261   1 H      0.089  0.911  0.000  0.000     1.887     2.148
 262   1 H      0.093  0.907  0.000  0.000     1.849     2.126
 263   1 H      0.085  0.915  0.000  0.000     1.931     2.173
 264   1 H      0.181  0.819  0.000  0.000     1.208     1.722
 265   1 H      0.067  0.933  0.000  0.000     2.120     2.277
 266   1 H      0.184  0.816  0.000  0.000     1.192     1.710
 267   1 H      0.074  0.926  0.000  0.000     2.044     2.235
 268   1 H      0.186  0.814  0.000  0.000     1.181     1.702
 269   1 H      0.059  0.941  0.000  0.000     2.212     2.326
 270   1 H      0.179  0.821  0.000  0.000     1.221     1.731
 271   1 H      0.069  0.931  0.000  0.000     2.096     2.264

 Mol. C6AA /au·bohr⁶  :     638266.388487
 Mol. C8AA /au·bohr⁸  :   14036330.191290
 Mol. α(0) /au        :       1186.329164

 
molecular dipole:
                 x           y           z       tot (Debye)
 q only:       16.354      -4.068     -22.992
   full:       18.286      -4.604     -26.451      82.570
molecular quadrupole (traceless):
                xx          xy          yy          xz          yz          zz
 q only:    13643.149    1575.840    1263.376   -1417.123   -5791.845  -14906.525
  q+dip:    15436.094    1729.758    1591.669   -1845.714   -6613.967  -17027.763
   full:    15438.305    1728.769    1592.836   -1845.917   -6613.258  -17031.141
speedup  1.00
cpu  time for grad    3.32 s
wall time for grad    3.32 s

SCC energy    :    -419.8581376
rep           :       8.8738750
ES            :       1.1500599
AES           :      -0.0094612
AXC           :       0.0490632
disp          :      -0.3403214
XB            :       0.0000000
fix           :       0.0000000
Gborn         :       0.0000000
Gsasa         :       0.0000000
Ghb           :       0.0000000
Gshift        :       0.0000000
Gsolv         :      -0.1918035     -120.36
Etot ala COSMO:    -419.8581376
grad norm     :       2.1270289
total E       :    -410.9583559
atomizationE  :      72.5038661    45496.86
(atE without considering molecular charge,
 total energy contains solvation terms)
H-L gap (eV)  :          2.3332

------------------------------------------------------------------------
 * finished run on 2019/03/07 at 11:37:48.452     
------------------------------------------------------------------------
 total:
 * wall-time:     0 d,  0 h,  0 min,  3.683 sec
 *  cpu-time:     0 d,  0 h,  0 min,  3.611 sec
 * ratio c/w:     0.980 speedup
 SCF:
 * wall-time:     0 d,  0 h,  0 min,  3.534 sec
 *  cpu-time:     0 d,  0 h,  0 min,  3.531 sec
 * ratio c/w:     0.999 speedup

