      -----------------------------------------------------------      
     |                   =====================                   |     
     |                           x T B                           |     
     |                   =====================                   |     
     |                         S. Grimme                         |     
     |          Mulliken Center for Theoretical Chemistry        |     
     |                    University of Bonn                     |     
     |                Version 6.1 RC1 (SAW190329)                |     
      -----------------------------------------------------------      

   This program is distributed in the hope that it will be useful,
   but WITHOUT ANY WARRANTY; without even the implied warranty of
   MERCHANTABILITY or FITNESS FOR A PARTICULAR PURPOSE.
   
   FOR NON-COMMERCIAL, ACADEMIA USE ONLY.
   
   Cite this work as:
   S. Grimme, C. Bannwarth, P. Shushkov, J. Comput. Theory Chem., 2017,
   13, 1989-2009. DOI: 10.1021/acs.jctc.7b00118
   C. Bannwarth, S. Ehlert and S. Grimme., J. Comput. Theory Chem., 2019,
   just accepted. DOI: 10.1021/acs.jctc.8b01176
   
   for sTDA-xTB:
   S. Grimme and C. Bannwarth, J. Chem. Phys., 2016, 145, 054103.
   DOI: 10.1063/1.4959605
   
   in the mass-spec context:
   V. Asgeirsson, C. Bauer and S. Grimme, Chem. Sci., 2017, 8, 4879.
   DOI: 10.1039/c7sc00601b
   
   for metadynamics refer to:
   S. Grimme, ChemRxiv, Preprint. DOI: 10.26434/chemrxiv.7660532.v1
   
   with help from (in alphabetical order)
   C. Bannwarth, F. Bohle, G. Brandenburg, E. Caldeweyher, M. Checinski,
   S. Dohm, S. Ehlert, S. Ehrlich, F. März, H. Neugebauer, J. Pisarek,
   P. Pracht, P. Shushkov, and S. Spicher.
   
 * started run on 2019/05/31 at 05:35:27.641     

           -------------------------------------------------
          |                Calculation Setup                |
           -------------------------------------------------

          program call               : /home/lum/install/xtb/xtb-190329/bin/xtb xtb_tmp.xyz --chrg 0 --grad --gfn 2 --etemp 500 --acc 0.1 --gbsa h2o --parallel 2
          hostname                   : cpu02
          coordinate file            : xtb_tmp.xyz
          omp threads                :                     2
          number of atoms            :                    71
          number of electrons        :                   190
          charge                     :                     0
          spin                       :                   0.0
          first test random number   :      0.98679853178462


molecular fragmentation (1/2 indicates fragments):
11111111111122222222222222222222222222222222222222222222222222222221122
# atoms in fragment 1/2:    14    57
 fragment masses (1/2) :      116.10      358.46
CMA distance (Bohr)    :  15.906
constraining FC (au)   :  0.0500

########################################################################
# WARNING! Please study the warnings concerning your input carefully
#  - XTBPATH is not set, using XTBHOME instead
#  - Process number higher than OMP_NUM_THREADS, I hope you know what you are doing.
########################################################################

           ------------------------------------------------- 
          |                 G F N 2 - x T B                 |
          | Geometry, Frequencies, Noncovalent interactions |
          |            JCTC 2018 parametrisation            |
           ------------------------------------------------- 
 
             k(s)              :                1.8500
             k(p)              :                2.2300
             k(d)              :                2.2300
             k(f)              :                2.0000
             kEN (H0ij)        :               -2.0000
             D4 a1             :                0.5200
             D4 a2             :                5.0000
             D4 s6             :                1.0000
             D4 s8             :                2.7000
             D4 s9             :                5.0000
             alphaj            :                2.0000

  Z AO/shell   Hii/eV     exponent
  1     Wed Apr 25 08:07:45 CEST 2018   EN: 2.200 GM2: 0.406  GM3: 0.0800  RAES: 1.40
     1s    -10.707211    1.230000
  6     Wed Apr 25 08:07:45 CEST 2018   EN: 2.550 GM2: 0.538  GM3: 0.1500  RAES: 3.00
     2s    -13.970922    2.096432
     2p    -10.063292    1.800000
  7     Wed Apr 25 08:07:45 CEST 2018   EN: 3.040 GM2: 0.461  GM3:-0.0640  RAES: 1.90
     2s    -16.686243    2.339881
     2p    -12.523956    2.014332
  8     Wed Apr 25 08:07:45 CEST 2018   EN: 3.440 GM2: 0.452  GM3:-0.0517  RAES: 1.80
     2s    -20.229985    2.439742
     2p    -15.503117    2.137023

 Solvent             : h2o
 Using internal parameter file: .param_gbsa2_h2o
 Gsolv ref. state (COSMO-RS): gsolv [1 M gas/solution]
 temperature (mdtemp)       :    298.150000000000     
 dielectric constant        :    80.2000000000000     
 rho                        :    1.00000000000000     
 mass                       :    18.0000000000000     
 surface tension            :    15.5689454083859     
 probe radius               :   0.975313790000000     
 vdW radii scaling          :    1.00000000000000     
 Gshift (Eh)                :   1.857443126794793E-003
 c1                         :    1.55243817000000     
 soset                      :   0.130326360000000     
 HB correction              :  T
 Number of grid points      :          230

            Z     q(EN)     CN     RAES       Cart. coordinates
     1  N   5.0   -0.68    3.00    1.93   327.29920   104.63112   226.61064
     2  C   4.0    0.08    3.98    3.59   325.70729   102.83479   225.25575
     3  C   4.0    0.10    3.00    3.02   324.86849   100.87910   227.20656
     4  O   6.0   -0.35    1.00    1.80   323.64171   101.61009   229.05328
     5  C   4.0   -0.12    3.97    3.58   326.80170   101.76412   222.83563
     6  C   4.0    0.30    2.99    3.02   324.63576   100.41576   221.29670
     7  O   6.0   -0.38    1.00    1.80   322.62125    99.99566   222.45586
     8  O   6.0   -0.40    1.00    1.80   325.11855    99.95267   219.04386
     9  H   1.0    0.27    1.00    1.43   328.60597   103.86715   227.78025
    10  H   1.0    0.16    0.99    1.43   323.98487   103.85478   224.72164
    11  H   1.0    0.10    0.99    1.43   327.52842   103.27031   221.63261
    12  H   1.0    0.11    0.99    1.43   328.28219   100.36449   223.12462
    13  N   5.0   -0.69    3.00    1.93   330.39846   105.06008   208.58605
    14  C   4.0    0.07    3.99    3.60   330.16567   104.23436   211.18839
    15  C   4.0    0.29    3.02    3.02   328.95685   101.60922   211.07742
    16  O   6.0   -0.42    1.00    1.80   326.90625   101.26481   210.06682
    17  C   4.0   -0.09    3.98    3.58   328.53087   106.06052   212.77570
    18  C   4.0   -0.16    3.98    3.59   329.63542   108.73578   212.63490
    19  C   4.0   -0.22    3.98    3.59   328.34590   105.10948   215.49256
    20  C   4.0   -0.23    3.98    3.58   328.14392   110.68786   214.14300
    21  H   1.0    0.33    1.00    1.43   328.87369   104.77621   207.45709
    22  H   1.0    0.11    0.99    1.43   332.07648   104.15837   211.97392
    23  H   1.0    0.13    0.99    1.43   326.64646   106.08007   211.92721
    24  H   1.0    0.11    0.99    1.43   331.58641   108.70284   213.30206
    25  H   1.0    0.10    0.99    1.43   329.67111   109.31366   210.65261
    26  H   1.0    0.11    0.99    1.43   327.10090   106.32371   216.58493
    27  H   1.0    0.14    0.99    1.43   327.57304   103.20588   215.57441
    28  H   1.0    0.10    0.99    1.43   330.19278   105.11119   216.38884
    29  H   1.0    0.11    0.99    1.43   328.81630   112.57893   213.69756
    30  H   1.0    0.11    0.99    1.43   326.14245   110.59314   213.69287
    31  H   1.0    0.10    0.99    1.43   328.35671   110.40743   216.16500
    32  N   5.0   -0.49    3.01    1.93   330.30128    99.72340   212.09736
    33  C   4.0    0.02    3.99    3.61   329.43617    97.12571   211.95488
    34  C   4.0    0.29    3.01    3.02   329.40920    96.31102   209.17027
    35  O   6.0   -0.38    1.00    1.80   331.35973    95.92752   208.00341
    36  H   1.0    0.24    1.00    1.43   332.04503   100.06151   212.77087
    37  H   1.0    0.12    0.99    1.43   330.75553    95.93928   212.99659
    38  H   1.0    0.13    0.99    1.43   327.55808    96.99512   212.80581
    39  N   5.0   -0.49    3.00    1.93   327.09859    96.10065   208.14887
    40  C   4.0    0.03    3.99    3.60   326.69893    95.48173   205.52456
    41  C   4.0    0.26    3.00    3.02   325.10455    97.35941   204.01951
    42  O   6.0   -0.41    1.00    1.80   324.19940    96.74086   201.98362
    43  H   1.0    0.25    1.00    1.43   325.58604    96.55653   209.21769
    44  H   1.0    0.16    0.99    1.43   328.56140    95.36323   204.63159
    45  H   1.0    0.12    0.99    1.43   325.79801    93.62667   205.34360
    46  N   5.0   -0.46    3.01    1.93   324.69585    99.60641   205.10456
    47  C   4.0    0.07    3.99    3.60   323.14515   101.52313   203.92600
    48  C   4.0    0.07    3.00    3.02   324.62904   103.95156   203.44506
    49  O   6.0   -0.41    1.00    1.80   326.52214   104.49366   204.66851
    50  C   4.0   -0.14    3.99    3.60   320.85516   102.11863   205.60599
    51  C   4.0   -0.15    3.98    3.59   318.92173    99.97818   205.57170
    52  C   4.0   -0.16    3.98    3.59   316.51925   100.73804   206.98642
    53  C   4.0   -0.06    3.98    3.58   314.55865    98.63568   207.06736
    54  N   5.0   -0.73    3.98    2.82   315.35274    96.57971   208.82794
    55  H   1.0    0.31    1.00    1.43   325.64710   100.09217   206.69639
    56  H   1.0    0.14    0.99    1.43   322.51249   100.77854   202.10045
    57  H   1.0    0.13    0.99    1.43   321.53174   102.44958   207.52512
    58  H   1.0    0.10    0.99    1.43   319.96914   103.85125   204.92943
    59  H   1.0    0.11    0.99    1.43   318.45503    99.55026   203.60525
    60  H   1.0    0.13    0.99    1.43   319.80547    98.30534   206.39034
    61  H   1.0    0.11    0.99    1.43   316.97690   101.38707   208.88712
    62  H   1.0    0.10    0.99    1.43   315.68067   102.34688   206.00964
    63  H   1.0    0.11    0.99    1.43   312.75771    99.40643   207.70209
    64  H   1.0    0.11    0.99    1.43   314.32399    97.84906   205.17743
    65  H   1.0    0.24    1.00    1.43   313.98894    95.19361   208.92017
    66  H   1.0    0.24    1.00    1.43   317.01726    95.79207   208.19363
    67  H   1.0    0.24    1.00    1.43   315.64313    97.31902   210.60921
    68  H   1.0    0.29    1.00    1.43   328.15965   105.58218   225.49364
    69  H   1.0    0.14    1.00    1.43   325.31459    99.05796   226.97091
    70  H   1.0    0.29    1.00    1.43   330.69954   106.73350   208.54618
    71  H   1.0    0.12    1.00    1.43   324.06445   105.15324   202.10034

           ------------------------------------------------- 
          |        Self-Consistent Charge Iterations        |
           ------------------------------------------------- 

          ...................................................
          :                      SETUP                      :
          :.................................................:
          :  # basis functions                 170          :
          :  # atomic orbitals                 170          :
          :  # shells                          104          :
          :  # electrons                       190          :
          :  max. iterations                   250          :
          :  Hamiltonian                  GFN2-xTB          :
          :  restarted?                      false          :
          :  GBSA solvation                   true          :
          :  PC potential                    false          :
          :  electronic temp.          500.0000000     K    :
          :  accuracy                    0.1000000          :
          :  -> integral cutoff          0.3500000E+02      :
          :  -> integral neglect         0.1000000E-08      :
          :  -> SCF convergence          0.1000000E-06 Eh   :
          :  -> wf. convergence          0.1000000E-04 e    :
          :  Broyden damping             0.4000000          :
          ...................................................

 iter      E             dE          RMSdq      gap      omega  full diag
   1   -109.0828280 -0.109083E+03  0.447E+00    2.15       0.0  T
   2   -109.4473236 -0.364496E+00  0.222E+00    1.80       1.0  T
   3   -109.4620847 -0.147611E-01  0.126E+00    2.18       1.0  T
   4   -109.4670051 -0.492040E-02  0.345E-01    1.51       1.0  T
   5   -109.4708851 -0.387994E-02  0.131E-01    1.66       1.0  T
   6   -109.4710218 -0.136730E-03  0.609E-02    1.71       1.0  T
   7   -109.4710350 -0.132174E-04  0.186E-02    1.76       1.0  T
   8   -109.4710419 -0.685665E-05  0.741E-03    1.77       1.6  T
   9   -109.4710423 -0.432200E-06  0.277E-03    1.77       4.3  T
  10   -109.4710424 -0.558180E-07  0.104E-03    1.77      11.4  T
  11   -109.4710424 -0.181067E-07  0.397E-04    1.77      29.9  T
  12   -109.4710424 -0.196883E-08  0.155E-04    1.77      76.6  T
  13   -109.4710424 -0.197886E-09  0.642E-05    1.77     184.7  T
  14   -109.4710424 -0.336797E-10  0.210E-05    1.77     565.4  T

   *** convergence criteria satisfied after 14 iterations ***

         #    Occupation            Energy/Eh            Energy/eV
      -------------------------------------------------------------
         1        2.0000           -0.7343766             -19.9834
       ...           ...                  ...                  ...
        89        2.0000           -0.4018362             -10.9345
        90        2.0000           -0.4010473             -10.9131
        91        2.0000           -0.3982166             -10.8360
        92        2.0000           -0.3826997             -10.4138
        93        2.0000           -0.3802068             -10.3460
        94        2.0000           -0.3623746              -9.8607
        95        2.0000           -0.3574335              -9.7263 (HOMO)
        96                         -0.2924439              -7.9578 (LUMO)
        97                         -0.2836382              -7.7182
        98                         -0.2316155              -6.3026
        99                         -0.2228563              -6.0642
       100                         -0.2192174              -5.9652
       ...                                ...                  ...
       170                          0.6380753              17.3629
      -------------------------------------------------------------
                  HL-Gap            0.0649896 Eh            1.7685 eV
             Fermi-level           -0.3249075 Eh           -8.8412 eV

 SCC (total)                   0 d,  0 h,  0 min,  0.119 sec
 SCC setup                      ...        0 min,  0.004 sec (  3.301%)
 Dispersion                     ...        0 min,  0.001 sec (  1.132%)
 integral evaluation            ...        0 min,  0.011 sec (  8.985%)
 zeroth order Hamiltonian       ...        0 min,  0.000 sec (  0.263%)
 iterations                     ...        0 min,  0.076 sec ( 63.984%)
 molecular gradient             ...        0 min,  0.025 sec ( 21.477%)
 printout                       ...        0 min,  0.001 sec (  0.812%)

         :::::::::::::::::::::::::::::::::::::::::::::::::::::
         ::                     SUMMARY                     ::
         :::::::::::::::::::::::::::::::::::::::::::::::::::::
         :: total energy             -108.178486487328 Eh   ::
         :: total w/o Gsasa/hb       -108.157665965470 Eh   ::
         :: gradient norm               0.323672663636 Eh/α ::
         :: HOMO-LUMO gap               1.768457422896 eV   ::
         ::.................................................::
         :: SCC energy               -109.473623070960 Eh   ::
         :: -> isotropic ES             0.485624326314 Eh   ::
         :: -> anisotropic ES          -0.017246378437 Eh   ::
         :: -> anisotropic XC           0.038632223384 Eh   ::
         :: -> dispersion              -0.062805974931 Eh   ::
         :: -> Gsolv                   -0.175546474388 Eh   ::
         ::    -> Gborn                -0.154725952530 Eh   ::
         ::    -> Gsasa                -0.004438123477 Eh   ::
         ::    -> Ghb                  -0.018239841507 Eh   ::
         ::    -> Gshift                0.001857443127 Eh   ::
         :: repulsion energy            1.293714706937 Eh   ::
         :: add. restraining            0.000000000000 Eh   ::
         :::::::::::::::::::::::::::::::::::::::::::::::::::::

           -------------------------------------------------
          |                Property Printout                |
           -------------------------------------------------

    * Orbital Energies and Occupations

         #    Occupation            Energy/Eh            Energy/eV
      -------------------------------------------------------------
         1        2.0000           -0.7343766             -19.9834
       ...           ...                  ...                  ...
        83        2.0000           -0.4341416             -11.8136
        84        2.0000           -0.4326799             -11.7738
        85        2.0000           -0.4293517             -11.6833
        86        2.0000           -0.4081171             -11.1054
        87        2.0000           -0.4078971             -11.0994
        88        2.0000           -0.4057297             -11.0405
        89        2.0000           -0.4018362             -10.9345
        90        2.0000           -0.4010473             -10.9131
        91        2.0000           -0.3982166             -10.8360
        92        2.0000           -0.3826997             -10.4138
        93        2.0000           -0.3802068             -10.3460
        94        2.0000           -0.3623746              -9.8607
        95        2.0000           -0.3574335              -9.7263 (HOMO)
        96                         -0.2924439              -7.9578 (LUMO)
        97                         -0.2836382              -7.7182
        98                         -0.2316155              -6.3026
        99                         -0.2228563              -6.0642
       100                         -0.2192174              -5.9652
       101                         -0.1714062              -4.6642
       102                         -0.0711493              -1.9361
       103                         -0.0200872              -0.5466
       104                         -0.0083292              -0.2266
       105                          0.0005125               0.0139
       106                          0.0269268               0.7327
       ...                                ...                  ...
       170                          0.6380753              17.3629
      -------------------------------------------------------------
                  HL-Gap            0.0649896 Eh            1.7685 eV
             Fermi-level           -0.3249075 Eh           -8.8412 eV

   #   Z        covCN         q      C6AA      α(0)
   1   7 N      2.638    -0.387    30.009     8.136
   2   6 C      3.785     0.050    19.759     6.331
   3   6 C      2.769     0.214    23.471     7.934
   4   8 O      0.856    -0.377    21.234     6.178
   5   6 C      3.797    -0.111    22.625     6.773
   6   6 C      2.682     0.367    20.769     7.458
   7   8 O      0.856    -0.645    27.251     6.999
   8   8 O      0.856    -0.627    26.796     6.940
   9   1 H      0.860     0.157     1.354     1.823
  10   1 H      0.924     0.061     2.189     2.314
  11   1 H      0.925     0.031     2.568     2.506
  12   1 H      0.925     0.021     2.713     2.576
  13   7 N      2.640    -0.406    30.537     8.207
  14   6 C      3.789     0.031    20.063     6.379
  15   6 C      2.762     0.273    22.388     7.749
  16   8 O      0.859    -0.480    23.349     6.479
  17   6 C      3.852    -0.020    20.889     6.501
  18   6 C      3.803    -0.057    21.599     6.617
  19   6 C      3.755    -0.105    22.559     6.772
  20   6 C      3.751    -0.108    22.618     6.782
  21   1 H      0.860     0.179     1.221     1.731
  22   1 H      0.924     0.026     2.651     2.546
  23   1 H      0.924     0.036     2.501     2.473
  24   1 H      0.924     0.033     2.548     2.496
  25   1 H      0.924     0.036     2.506     2.476
  26   1 H      0.925     0.039     2.466     2.456
  27   1 H      0.925     0.028     2.621     2.532
  28   1 H      0.925     0.032     2.561     2.503
  29   1 H      0.925     0.043     2.404     2.425
  30   1 H      0.925     0.039     2.465     2.455
  31   1 H      0.925     0.035     2.512     2.478
  32   7 N      2.688    -0.173    24.748     7.388
  33   6 C      3.746    -0.029    21.166     6.562
  34   6 C      2.753     0.280    22.260     7.726
  35   8 O      0.858    -0.484    23.435     6.490
  36   1 H      0.860     0.207     1.071     1.621
  37   1 H      0.925     0.087     1.906     2.159
  38   1 H      0.924     0.077     2.007     2.215
  39   7 N      2.685    -0.167    24.607     7.367
  40   6 C      3.744    -0.040    21.364     6.594
  41   6 C      2.752     0.272    22.399     7.750
  42   8 O      0.859    -0.489    23.547     6.506
  43   1 H      0.860     0.221     1.003     1.569
  44   1 H      0.924     0.098     1.805     2.101
  45   1 H      0.924     0.101     1.773     2.082
  46   7 N      2.689    -0.161    24.484     7.349
  47   6 C      3.793     0.021    20.232     6.405
  48   6 C      2.766     0.196    23.815     7.992
  49   8 O      0.856    -0.373    21.152     6.166
  50   6 C      3.808    -0.075    21.923     6.665
  51   6 C      3.802    -0.080    22.018     6.681
  52   6 C      3.804    -0.093    22.279     6.720
  53   6 C      3.731    -0.052    21.600     6.634
  54   7 N      3.482    -0.145    24.124     7.295
  55   1 H      0.860     0.217     1.023     1.584
  56   1 H      0.924     0.106     1.734     2.059
  57   1 H      0.924     0.067     2.116     2.275
  58   1 H      0.924     0.068     2.108     2.270
  59   1 H      0.924     0.070     2.085     2.258
  60   1 H      0.924     0.056     2.243     2.342
  61   1 H      0.925     0.075     2.030     2.228
  62   1 H      0.924     0.087     1.911     2.162
  63   1 H      0.925     0.123     1.589     1.971
  64   1 H      0.924     0.125     1.576     1.963
  65   1 H      0.859     0.304     0.702     1.313
  66   1 H      0.859     0.289     0.746     1.353
  67   1 H      0.859     0.293     0.734     1.342
  68   1 H      0.862     0.191     1.155     1.683
  69   1 H      0.930     0.055     2.254     2.347
  70   1 H      0.862     0.181     1.210     1.723
  71   1 H      0.930     0.085     1.925     2.170

 Mol. C6AA /au·bohr⁶  :      43788.933995
 Mol. C8AA /au·bohr⁸  :     954155.976219
 Mol. α(0) /au        :        311.107923


Wiberg/Mayer (AO) data.
largest (>0.10) Wiberg bond orders for each atom
          total WBO             WBO to atom ...
     1  N   2.989        C    2 0.995    H    9 0.960    H   68 0.950
     2  C   3.982        C    5 0.998    N    1 0.995    C    3 0.982    H   10 0.937
     3  C   3.897        O    4 1.887    C    2 0.982    H   69 0.957
     4  O   2.025        C    3 1.887
     5  C   3.989        C    2 0.998    H   11 0.971    H   12 0.969    C    6 0.900
     6  C   3.935        O    8 1.515    O    7 1.496    C    5 0.900
     7  O   1.811        C    6 1.496    O    8 0.216
     8  O   1.808        C    6 1.515    O    7 0.216
     9  H   0.975        N    1 0.960
    10  H   0.996        C    2 0.937
    11  H   0.999        C    5 0.971
    12  H   1.000        C    5 0.969
    13  N   2.988        C   14 1.015    H   70 0.942    H   21 0.931
    14  C   3.987        N   13 1.015    H   22 0.961    C   17 0.955    C   15 0.947
    15  C   3.942        O   16 1.622    N   32 1.297    C   14 0.947
    16  O   1.951        C   15 1.622    N   32 0.188
    17  C   3.993        C   19 1.009    C   18 0.996    H   23 0.967    C   14 0.955
    18  C   3.997        C   20 1.018    C   17 0.996    H   24 0.977    H   25 0.967
    19  C   3.996        C   17 1.009    H   28 0.987    H   27 0.984    H   26 0.983
    20  C   3.995        C   18 1.018    H   30 0.987    H   31 0.986    H   29 0.986
    21  H   0.968        N   13 0.931
    22  H   0.999        C   14 0.961
    23  H   0.999        C   17 0.967
    24  H   0.999        C   18 0.977
    25  H   0.999        C   18 0.967
    26  H   0.998        C   19 0.983
    27  H   0.999        C   19 0.984
    28  H   0.999        C   19 0.987
    29  H   0.998        C   20 0.986
    30  H   0.998        C   20 0.987
    31  H   0.999        C   20 0.986
    32  N   3.469        C   15 1.297    C   33 0.986    H   36 0.929    O   16 0.188
    33  C   3.962        N   32 0.986    H   37 0.965    H   38 0.963    C   34 0.939
    34  C   3.952        O   35 1.652    N   39 1.296    C   33 0.939
    35  O   1.969        C   34 1.652    N   39 0.203
    36  H   0.957        N   32 0.929
    37  H   0.992        C   33 0.965
    38  H   0.994        C   33 0.963
    39  N   3.475        C   34 1.296    C   40 0.997    H   43 0.918    O   35 0.203
    40  C   3.957        N   39 0.997    C   41 0.954    H   45 0.947    H   44 0.943
    41  C   3.957        O   42 1.629    N   46 1.306    C   40 0.954
    42  O   1.950        C   41 1.629    N   46 0.200
    43  H   0.951        N   39 0.918
    44  H   0.990        C   40 0.943
    45  H   0.989        C   40 0.947
    46  N   3.481        C   41 1.306    C   47 0.989    H   55 0.898    O   42 0.200
    47  C   3.964        N   46 0.989    C   48 0.986    C   50 0.946    H   56 0.935
    48  C   3.894        O   49 1.880    C   47 0.986    H   71 0.952
    49  O   2.052        C   48 1.880
    50  C   3.980        C   51 1.002    H   57 0.972    H   58 0.969    C   47 0.946
    51  C   3.990        C   52 1.006    C   50 1.002    H   59 0.972    H   60 0.971
    52  C   3.985        C   53 1.014    C   51 1.006    H   61 0.969    H   62 0.964
    53  C   3.910        C   52 1.014    H   63 0.964    H   64 0.962    N   54 0.951
    54  N   3.666        C   53 0.951    H   67 0.899    H   66 0.897    H   65 0.895
    55  H   0.953        N   46 0.898
    56  H   0.988        C   47 0.935
    57  H   0.995        C   50 0.972
    58  H   0.995        C   50 0.969
    59  H   0.995        C   51 0.972
    60  H   0.997        C   51 0.971
    61  H   0.994        C   52 0.969
    62  H   0.992        C   52 0.964
    63  H   0.984        C   53 0.964
    64  H   0.984        C   53 0.962
    65  H   0.908        N   54 0.895
    66  H   0.916        N   54 0.897
    67  H   0.914        N   54 0.899
    68  H   0.964        N    1 0.950
    69  H   0.997        C    3 0.957
    70  H   0.967        N   13 0.942
    71  H   0.992        C   48 0.952
 
molecular dipole:
                 x           y           z       tot (Debye)
 q only:       -9.323      -2.457     -11.360
   full:       -8.621      -2.406     -10.867      35.783
molecular quadrupole (traceless):
                xx          xy          yy          xz          yz          zz
 q only:    -3263.035   -2546.449    4974.916   -8386.429   -2494.932   -1711.882
  q+dip:    -2912.145   -2414.401    4659.063   -7912.770   -2416.577   -1746.918
   full:    -2912.784   -2413.978    4659.584   -7913.773   -2416.742   -1746.800


           -------------------------------------------------
          | TOTAL ENERGY             -108.178486487328 Eh   |
          | GRADIENT NORM               0.323672663636 Eh/α |
          | HOMO-LUMO GAP               1.768457422896 eV   |
           -------------------------------------------------

------------------------------------------------------------------------
 * finished run on 2019/05/31 at 05:35:28.021     
------------------------------------------------------------------------
 total:
 * wall-time:     0 d,  0 h,  0 min,  0.380 sec
 *  cpu-time:     0 d,  0 h,  0 min,  0.492 sec
 * ratio c/w:     1.296 speedup
 SCF:
 * wall-time:     0 d,  0 h,  0 min,  0.119 sec
 *  cpu-time:     0 d,  0 h,  0 min,  0.237 sec
 * ratio c/w:     1.997 speedup

