      -----------------------------------------------------------      
     |                   =====================                   |     
     |                           x T B                           |     
     |                   =====================                   |     
     |                         S. Grimme                         |     
     |          Mulliken Center for Theoretical Chemistry        |     
     |                    University of Bonn                     |     
     |                 Version 6.0.1 (SAW181210)                 |     
      -----------------------------------------------------------      

   This program is distributed in the hope that it will be useful,
   but WITHOUT ANY WARRANTY; without even the implied warranty of
   MERCHANTABILITY or FITNESS FOR A PARTICULAR PURPOSE.
   
   FOR NON-COMMERCIAL, ACADEMIA USE ONLY.
   
   Cite this work as:
   S. Grimme, C. Bannwarth, P. Shushkov, J. Comput. Theory Chem., 2017,
   13, 1989-2009.
   C. Bannwarth, S. Ehlert and S. Grimme., ChemRxiv, 2018, preprint.
   http://doi.org/10.26434/chemrxiv.7246238.v1
   
   for sTDA-xTB:
   S. Grimme and C. Bannwarth, J. Chem. Phys., 2016, 145, 054103.
   
   in the mass-spec context:
   V. Asgeirsson, C. Bauer and S. Grimme, Chem. Sci., 2017, 8, 4879.
   
   if GBSA is used:
   P. Shushkov, F. März and S. Grimme, unpublished.
   
   for ANC optimizer:
   S. Grimme, unpublished.
   Rational Function algorithm used in ANCopt:
   F. Eckert, P. Pulay, H.-J. Werner, J. Comput. Chem., 1997, 18, 1473.
   
   with help from (in alphabetical order)
   C. Bannwarth, F. Bohle, G. Brandenburg, E. Caldeweyher, M. Checinski,
   S. Dohm, S. Ehlert, S. Ehrlich, F. März, H. Neugebauer, J. Pisarek,
   P. Pracht, P. Shushkov, and S. Spicher.
   
 * started run on 2019/03/07 at 11:37:45.324     
========================================================================
 # omp threads = 1
========================================================================
number of atoms            : 192
number of electrons        : 498
charge                     : 1
spin                       : .0
first test random number   : .9373
           ------------------------------------------------- 
          |                 G F N 2 - x T B                 |
          | Geometry, Frequencies, Noncovalent interactions |
          |            JCTC 2018 parametrisation            |
           ------------------------------------------------- 
 
      method parameters     
 k(s)        :  1.8500
 k(p)        :  2.2300
 k(d)        :  2.2300
 k(f)        :  2.0000
 kEN (H0ij)  : -2.0000
 D4 a1       :  0.5200
 D4 a2       :  5.0000
 D4 s6       :  1.0000
 D4 s8       :  2.7000
 D4 s9       :  5.0000
 alphaj      :  2.0000

 Solvent             : h2o
 Using internal parameter file: .param_gbsa2_h2o
 Gsolv ref. state (COSMO-RS): gsolv [1 M gas/solution]
 temperature (mdtemp)       :    298.150000000000     
 dielectric constant        :    80.2000000000000     
 rho                        :    1.00000000000000     
 mass                       :    18.0000000000000     
 surface tension            :    15.5689454083859     
 probe radius               :   0.975313790000000     
 vdW radii scaling          :    1.00000000000000     
 Gshift (Eh)                :   1.857443126794793E-003
 c1                         :    1.55243817000000     
 soset                      :   0.130326360000000     
 HB correction              :  T

            Z     q(EN)     CN     RAES       Cart. coordinates
     1  N   5.0   -0.21    3.30    1.98   356.19822   131.18100   174.72406
     2  C   4.0    0.03    4.47    4.50   358.64731   132.17499   174.00786
     3  C   4.0    0.16    3.46    3.10   360.39719   131.76870   176.25663
     4  O   6.0   -0.30    1.29    1.80   359.68477   132.37908   178.40336
     5  C   4.0    0.05    4.39    4.37   358.47723   134.96045   173.36913
     6  O   6.0   -0.27    2.17    1.85   356.89364   136.25680   175.17760
     7  C   4.0   -0.08    4.26    4.12   357.44922   135.36107   170.82745
     8  H   1.0    0.14    1.09    1.44   355.69367   131.69311   176.18104
     9  H   1.0    0.04    1.13    1.45   359.27848   131.32084   172.51308
    10  H   1.0    0.06    1.12    1.45   360.17988   135.63697   173.42960
    11  H   1.0    0.14    1.09    1.44   355.39698   136.28704   174.64658
    12  H   1.0    0.06    1.06    1.44   357.36418   137.15820   170.47785
    13  H   1.0    0.05    1.06    1.44   358.53392   134.55038   169.59346
    14  H   1.0    0.05    1.07    1.44   355.76737   134.64108   170.72729
    15  N   5.0   -0.16    3.45    2.05   362.67998   130.79171   175.84845
    16  C   4.0    0.04    4.46    4.47   364.54136   130.28905   177.88935
    17  C   4.0    0.17    3.50    3.12   365.30292   132.67199   179.20649
    18  O   6.0   -0.28    1.28    1.80   366.62951   134.20645   178.15580
    19  C   4.0   -0.07    4.27    4.15   366.82415   129.04561   176.78008
    20  H   1.0    0.10    1.13    1.45   363.21856   130.39109   174.36879
    21  H   1.0    0.05    1.14    1.45   363.75713   129.18734   179.12712
    22  H   1.0    0.06    1.06    1.44   368.04492   128.71301   178.10667
    23  H   1.0    0.05    1.06    1.44   366.33660   127.46579   175.99018
    24  H   1.0    0.07    1.06    1.44   367.57248   130.15110   175.52342
    25  N   5.0   -0.15    3.49    2.07   364.59995   132.94222   181.57243
    26  C   4.0    0.04    4.43    4.42   365.14986   135.24391   182.99728
    27  C   4.0    0.16    3.42    3.08   367.51012   134.92643   184.66969
    28  O   6.0   -0.31    1.25    1.80   367.25879   133.98535   186.79563
    29  C   4.0   -0.07    4.20    4.00   362.85951   136.09806   184.56764
    30  H   1.0    0.12    1.15    1.45   363.79114   131.81027   182.41336
    31  H   1.0    0.06    1.14    1.45   365.50890   136.56294   181.77652
    32  H   1.0    0.05    1.05    1.44   363.28470   137.62496   185.48794
    33  H   1.0    0.05    1.05    1.44   361.44410   136.43065   183.45271
    34  H   1.0    0.05    1.05    1.44   362.40408   134.77714   185.75439
    35  N   5.0   -0.16    3.45    2.05   369.68898   135.70500   183.70782
    36  C   4.0    0.04    4.52    4.57   372.04736   135.49146   185.13267
    37  C   4.0    0.16    3.43    3.09   372.33270   137.53992   187.17925
    38  O   6.0   -0.27    1.22    1.80   373.59693   139.47311   186.73138
    39  C   4.0    0.06    4.33    4.25   374.36227   135.46500   183.32987
    40  O   6.0   -0.25    2.15    1.85   374.16196   137.27536   181.37212
    41  C   4.0   -0.07    4.18    3.96   374.68541   132.80238   182.24139
    42  H   1.0    0.12    1.13    1.45   369.84960   136.36451   182.23194
    43  H   1.0    0.05    1.14    1.45   371.97744   133.88897   186.01895
    44  H   1.0    0.06    1.11    1.45   375.84570   135.92610   184.30308
    45  H   1.0    0.15    1.08    1.44   375.44886   137.19977   180.44615
    46  H   1.0    0.06    1.05    1.44   376.12916   132.77403   181.11322
    47  H   1.0    0.05    1.05    1.44   374.95564   131.61185   183.60766
    48  H   1.0    0.06    1.05    1.44   373.17552   132.33373   181.31354
    49  N   5.0   -0.15    3.52    2.09   371.07037   137.09395   189.27306
    50  C   4.0    0.04    4.55    4.61   371.08171   138.74746   191.45381
    51  C   4.0    0.16    3.49    3.11   373.78023   139.07438   192.42890
    52  O   6.0   -0.27    1.24    1.80   375.16540   137.22245   192.68969
    53  C   4.0   -0.02    4.37    4.33   369.42064   137.65142   193.61376
    54  C   4.0   -0.07    4.22    4.05   369.43197   139.44099   195.88710
    55  C   4.0   -0.08    4.22    4.04   366.71266   137.26213   192.63488
    56  H   1.0    0.11    1.16    1.45   370.14818   135.77114   189.47526
    57  H   1.0    0.05    1.13    1.45   370.39762   140.36695   190.93602
    58  H   1.0    0.06    1.12    1.45   370.10283   136.03759   194.15233
    59  H   1.0    0.06    1.05    1.44   368.39074   138.73990   197.22314
    60  H   1.0    0.06    1.06    1.44   371.14974   139.64697   196.49559
    61  H   1.0    0.06    1.06    1.44   368.76301   141.07182   195.38444
    62  H   1.0    0.04    1.05    1.44   365.66953   136.57805   193.97848
    63  H   1.0    0.05    1.05    1.44   366.02291   138.87029   192.08497
    64  H   1.0    0.06    1.06    1.44   366.73534   136.09239   191.22326
    65  N   5.0   -0.15    3.50    2.08   374.53612   141.41197   192.93535
    66  C   4.0    0.05    4.55    4.60   377.08536   141.99590   193.82730
    67  C   4.0    0.16    3.42    3.09   377.12883   142.83872   196.58630
    68  O   6.0   -0.26    1.25    1.80   376.23121   144.83994   197.22125
    69  C   4.0    0.06    4.36    4.31   378.19652   144.04625   192.12466
    70  O   6.0   -0.25    2.17    1.85   376.25011   145.85472   191.54829
    71  C   4.0   -0.07    4.21    4.01   379.18674   142.87840   189.71715
    72  H   1.0    0.12    1.14    1.45   373.57992   142.71588   192.77094
    73  H   1.0    0.06    1.14    1.45   378.09448   140.46900   193.74226
    74  H   1.0    0.06    1.11    1.45   379.58358   144.88151   192.98259
    75  H   1.0    0.15    1.08    1.44   376.84348   146.99233   190.61477
    76  H   1.0    0.06    1.06    1.44   379.88972   144.18987   188.64567
    77  H   1.0    0.06    1.06    1.44   380.49254   141.65575   190.12155
    78  H   1.0    0.07    1.06    1.44   377.81669   142.03936   188.83653
    79  N   5.0   -0.15    3.41    2.02   378.09259   141.21355   198.26627
    80  C   4.0    0.02    4.26    4.11   378.21731   141.82582   200.94590
    81  C   4.0    0.09    3.15    3.03   379.29256   139.68476   202.49736
    82  O   6.0   -0.25    1.14    1.80   379.29445   137.51536   201.72258
    83  H   1.0    0.12    1.13    1.45   378.68218   139.74901   197.88076
    84  H   1.0    0.06    1.09    1.44   379.24910   143.32249   201.18022
    85  H   1.0    0.06    1.09    1.44   376.53734   142.23211   201.55439
    86  N   5.0   -0.22    3.26    1.97   363.85161   124.63310   188.23749
    87  C   4.0    0.03    4.48    4.51   362.49479   126.99525   188.74583
    88  C   4.0    0.15    3.49    3.11   361.65008   128.08185   186.25895
    89  O   6.0   -0.30    1.28    1.80   363.20911   128.58073   184.61678
    90  C   4.0   -0.02    4.40    4.38   364.16153   128.93033   190.17824
    91  C   4.0   -0.08    4.24    4.07   362.76124   131.38320   190.67902
    92  C   4.0   -0.08    4.25    4.09   365.12718   127.79272   192.60465
    93  H   1.0    0.11    1.08    1.44   365.44843   124.82396   188.00883
    94  H   1.0    0.04    1.13    1.45   361.05482   126.63432   189.82108
    95  H   1.0    0.07    1.13    1.45   365.59205   129.33851   189.10866
    96  H   1.0    0.05    1.06    1.44   363.86106   132.54349   191.57475
    97  H   1.0    0.05    1.06    1.44   362.25102   132.13342   189.08598
    98  H   1.0    0.04    1.06    1.44   361.27403   131.04305   191.69569
    99  H   1.0    0.05    1.06    1.44   366.16653   129.01915   193.48526
   100  H   1.0    0.05    1.06    1.44   363.70988   127.32218   193.66667
   101  H   1.0    0.05    1.06    1.44   366.12684   126.30361   192.22670
   102  N   5.0   -0.17    3.51    2.08   359.17454   128.40877   185.96037
   103  C   4.0    0.04    4.60    4.66   358.19944   129.45757   183.60199
   104  C   4.0    0.14    3.47    3.10   356.27759   131.51737   184.11222
   105  O   6.0   -0.30    1.23    1.80   354.92833   131.40965   186.03974
   106  C   4.0   -0.02    4.39    4.36   356.98813   127.40721   181.90313
   107  C   4.0   -0.07    4.24    4.09   358.92132   125.43434   181.20582
   108  C   4.0   -0.07    4.25    4.09   354.72991   126.19212   183.23917
   109  H   1.0    0.10    1.13    1.45   358.04827   128.04405   187.07531
   110  H   1.0    0.06    1.15    1.45   359.63752   130.16810   182.71382
   111  H   1.0    0.06    1.13    1.45   356.38720   128.20090   180.36489
   112  H   1.0    0.05    1.06    1.44   358.14086   124.16066   180.14191
   113  H   1.0    0.06    1.06    1.44   360.30271   126.22613   180.29686
   114  H   1.0    0.06    1.06    1.44   359.56572   124.64443   182.72894
   115  H   1.0    0.05    1.05    1.44   353.99102   124.91277   182.15257
   116  H   1.0    0.06    1.06    1.44   355.28927   125.41544   184.80197
   117  H   1.0    0.07    1.06    1.44   353.47513   127.47524   183.60955
   118  N   5.0   -0.16    3.52    2.09   356.14153   133.31450   182.36989
   119  C   4.0    0.04    4.39    4.36   354.29905   135.34784   182.55887
   120  C   4.0    0.08    3.25    3.04   352.05972   134.56927   180.92425
   121  O   6.0   -0.28    1.13    1.80   352.44334   133.73213   178.74351
   122  C   4.0   -0.05    4.38    4.35   355.45934   137.83472   181.60455
   123  C   4.0   -0.06    4.29    4.18   353.80394   140.18743   181.97872
   124  C   4.0   -0.05    4.32    4.24   352.11453   140.68821   179.73372
   125  C   4.0   -0.03    4.30    4.20   353.61308   141.04914   177.32054
   126  N   5.0   -0.16    4.13    3.23   351.80083   141.17954   175.15303
   127  H   1.0    0.12    1.15    1.45   357.10151   133.39009   181.06031
   128  H   1.0    0.05    1.12    1.45   353.77559   135.62374   184.29363
   129  H   1.0    0.05    1.09    1.44   357.05805   138.10117   182.46249
   130  H   1.0    0.06    1.11    1.44   355.83162   137.65898   179.81876
   131  H   1.0    0.05    1.09    1.44   352.77215   139.97200   183.47916
   132  H   1.0    0.05    1.09    1.44   354.87731   141.64441   182.26974
   133  H   1.0    0.05    1.10    1.44   350.94856   139.28981   179.52397
   134  H   1.0    0.05    1.09    1.44   351.10352   142.18298   180.05309
   135  H   1.0    0.05    1.08    1.44   354.60896   142.58549   177.41314
   136  H   1.0    0.06    1.09    1.44   354.78849   139.66209   177.08622
   137  H   1.0    0.08    1.08    1.44   352.65499   141.14363   173.70361
   138  H   1.0    0.08    1.09    1.44   350.75203   139.86618   175.21728
   139  H   1.0    0.08    1.09    1.44   350.91644   142.60628   175.24563
   140  N   5.0   -0.20    3.26    1.97   350.94479   136.80293   191.50861
   141  C   4.0    0.03    4.28    4.15   352.91388   134.85462   191.32719
   142  C   4.0    0.09    3.20    3.04   351.59674   132.28271   191.68057
   143  O   6.0   -0.25    1.13    1.80   349.59174   132.11452   192.92023
   144  C   4.0   -0.05    4.44    4.45   354.93967   135.27414   193.37755
   145  C   4.0   -0.03    4.29    4.19   356.49302   137.71000   193.15456
   146  C   4.0   -0.09    4.20    4.00   358.55282   137.79504   195.22003
   147  C   4.0   -0.09    4.25    4.11   357.72323   137.73079   190.56752
   148  H   1.0    0.11    1.08    1.44   350.68022   137.31505   193.02795
   149  H   1.0    0.05    1.12    1.45   353.76426   134.92265   189.70392
   150  H   1.0    0.05    1.09    1.44   354.11386   135.26280   195.01405
   151  H   1.0    0.04    1.09    1.44   356.09240   133.84929   193.34920
   152  H   1.0    0.05    1.12    1.45   355.40454   139.16887   193.36999
   153  H   1.0    0.05    1.05    1.44   359.52036   139.34461   195.05751
   154  H   1.0    0.04    1.05    1.44   357.76292   137.74023   196.87354
   155  H   1.0    0.04    1.05    1.44   359.67154   136.35507   195.02917
   156  H   1.0    0.05    1.06    1.44   358.72101   139.25768   190.37666
   157  H   1.0    0.04    1.06    1.44   358.81171   136.26625   190.39556
   158  H   1.0    0.04    1.06    1.44   356.42688   137.68354   189.27306
   159  N   5.0   -0.20    3.24    1.97   356.78782   138.98934   202.82051
   160  C   4.0    0.03    4.28    4.15   359.39753   139.62807   203.48947
   161  C   4.0    0.09    3.21    3.04   359.37296   141.02836   206.04816
   162  O   6.0   -0.25    1.12    1.80   357.71567   142.60061   206.52248
   163  C   4.0   -0.05    4.39    4.35   360.60506   141.28914   201.45423
   164  C   4.0   -0.04    4.34    4.27   363.45477   141.48378   201.62431
   165  C   4.0    0.16    3.33    3.06   364.39585   143.93665   200.56039
   166  O   6.0   -0.28    1.21    1.80   364.66609   144.25223   198.26060
   167  N   5.0   -0.23    3.25    1.97   364.81915   145.75456   202.18367
   168  H   1.0    0.11    1.08    1.44   355.96390   140.17987   202.08162
   169  H   1.0    0.05    1.12    1.45   360.39153   138.09361   203.61608
   170  H   1.0    0.05    1.09    1.44   360.15531   140.62396   199.80639
   171  H   1.0    0.07    1.10    1.44   359.89075   142.97289   201.56573
   172  H   1.0    0.05    1.10    1.44   363.97634   141.33449   203.37609
   173  H   1.0    0.06    1.09    1.44   364.22011   140.08727   200.71535
   174  H   1.0    0.11    1.10    1.44   364.61695   145.48811   203.77482
   175  H   1.0    0.13    1.09    1.44   365.29914   147.21721   201.66021
   176  N   5.0   -0.22    3.15    1.95   369.89307   142.95588   207.65254
   177  C   4.0    0.01    4.15    3.91   370.20676   141.77858   205.20156
   178  C   4.0    0.08    3.14    3.03   369.40930   139.04604   205.07495
   179  O   6.0   -0.28    1.11    1.80   369.05403   137.98212   203.00003
   180  H   1.0    0.11    1.08    1.44   368.45688   142.67998   208.36118
   181  H   1.0    0.06    1.09    1.44   369.24300   142.72911   203.96568
   182  H   1.0    0.06    1.09    1.44   371.96988   141.89952   204.71401
   183  H   1.0    0.11    1.08    1.44   355.03356   131.66415   173.58271
   184  H   1.0    0.07    1.05    1.44   380.02611   140.03038   204.20427
   185  H   1.0    0.10    1.08    1.44   363.65692   123.57226   189.55251
   186  H   1.0    0.06    1.04    1.43   350.30005   134.72843   181.59453
   187  H   1.0    0.10    1.07    1.44   351.39967   138.15746   190.58617
   188  H   1.0    0.07    1.04    1.43   352.34434   130.72517   190.91490
   189  H   1.0    0.10    1.08    1.44   356.78269   137.65885   201.76111
   190  H   1.0    0.06    1.04    1.43   360.70630   140.66489   207.33702
   191  H   1.0    0.11    1.08    1.44   371.08495   142.37539   208.71791
   192  H   1.0    0.06    1.04    1.44   369.15786   138.06037   206.66753

  Z AO/shell   Hii/eV     exponent
  1     Wed Apr 25 08:07:45 CEST 2018   EN: 2.200 GM2: 0.406  GM3: 0.0800  RAES: 1.40
     1s    -10.707211    1.230000
  6     Wed Apr 25 08:07:45 CEST 2018   EN: 2.550 GM2: 0.538  GM3: 0.1500  RAES: 3.00
     2s    -13.970922    2.096432
     2p    -10.063292    1.800000
  7     Wed Apr 25 08:07:45 CEST 2018   EN: 3.040 GM2: 0.461  GM3:-0.0640  RAES: 1.90
     2s    -16.686243    2.339881
     2p    -12.523956    2.014332
  8     Wed Apr 25 08:07:45 CEST 2018   EN: 3.440 GM2: 0.452  GM3:-0.0517  RAES: 1.80
     2s    -20.229985    2.439742
     2p    -15.503117    2.137023
 no old-style atom pair restraining (fixing) potential

molecular fragmentation (1/2 indicates fragments):
111111111111111111111111111111111111111111111111111111111111111111111111
111111111111122222222222222222222222222222222222222222222222222222222222
222222222222222222222222222222222222221122222222
# atoms in fragment 1/2:    87   105
 fragment masses (1/2) :      603.67      633.85
CMA distance (Bohr)    :  11.901
constraining FC (au)   :  0.0500
           ------------------------------------------------- 
          |        Self-Consistent Charge Iterations        |
           ------------------------------------------------- 

 Ncao       : 450
 Nao        : 450
 Nshell     : 278
 Nel        : 498
 T(el)      :   500.0
 intcut     :    35.0
 scfconv/Eh :  0.100E-06
   qconv/e  :  0.100E-04
 intneglect :  0.100E-08
 broydamp   :      0.400
 iter      E             dE          RMSdq      gap      omega  full diag
   1   -286.3561014 -0.286356E+03  0.462E+00    3.53       0.0  T
   2   -287.0737325 -0.717631E+00  0.213E+00    1.87       1.0  T
   3   -287.1162427 -0.425102E-01  0.126E+00    2.01       1.0  T
   4   -287.1622317 -0.459891E-01  0.262E-01    1.39       1.0  T
   5   -287.1658006 -0.356891E-02  0.116E-01    1.60       1.0  T
   6   -287.1662667 -0.466061E-03  0.482E-02    1.59       1.0  T
   7   -287.1663571 -0.904003E-04  0.179E-02    1.60       1.0  T
   8   -287.1663635 -0.642813E-05  0.815E-03    1.60       1.0  T
   9   -287.1663660 -0.243965E-05  0.308E-03    1.60       2.3  T
  10   -287.1663663 -0.344013E-06  0.119E-03    1.60       6.1  T
  11   -287.1663664 -0.547599E-07  0.486E-04    1.60      14.9  T
  12   -287.1663664 -0.511352E-08  0.194E-04    1.60      37.3  T
  13   -287.1663664 -0.134872E-08  0.820E-05    1.60      88.0  T
  14   -287.1663664 -0.252498E-09  0.344E-05    1.60     209.6  T
speedup  1.00
cpu  time for SCC    1.05 s
wall time for SCC    1.05 s

   *** convergence criteria satisfied after 14 iterations ***

          eigenvalues
 #    :         237        238        239        240        241        242        243        244
 occ. :        2.000      2.000      2.000      2.000      2.000      2.000      2.000      2.000
 eps  :       -11.008    -10.947    -10.932    -10.895    -10.878    -10.832    -10.815    -10.812
 #    :         245        246        247        248        249        250        251        252
 occ. :        2.000      2.000      2.000      2.000      2.000      0.000      0.000      0.000
 eps  :       -10.373    -10.156     -9.954     -9.950     -9.828     -8.226     -8.009     -7.990
 #    :         253        254        255        256        257        258        259        260
 occ. :        0.000      0.000      0.000      0.000      0.000      0.000      0.000      0.000
 eps  :        -7.917     -7.656     -6.428     -6.326     -6.276     -6.184     -6.159     -6.003


   #   Z            q   n(s)   n(p)   n(d)      C6AA      α(0)
   1   7 N     -0.413  1.287  4.126  0.000    30.731     8.233
   2   6 C      0.014  1.033  2.953  0.000    20.345     6.422
   3   6 C      0.262  1.052  2.687  0.000    22.587     7.783
   4   8 O     -0.498  1.742  4.756  0.000    23.748     6.534
   5   6 C      0.100  1.018  2.881  0.000    19.002     6.220
   6   8 O     -0.495  1.682  4.813  0.000    22.775     6.442
   7   6 C     -0.166  0.976  3.191  0.000    23.759     6.945
   8   1 H      0.192  0.808  0.000  0.000     1.146     1.677
   9   1 H      0.055  0.945  0.000  0.000     2.262     2.352
  10   1 H      0.047  0.953  0.000  0.000     2.358     2.401
  11   1 H      0.333  0.667  0.000  0.000     0.629     1.245
  12   1 H      0.083  0.917  0.000  0.000     1.944     2.180
  13   1 H      0.060  0.940  0.000  0.000     2.199     2.319
  14   1 H      0.070  0.930  0.000  0.000     2.085     2.258
  15   7 N     -0.200  1.223  3.977  0.000    25.343     7.477
  16   6 C      0.020  1.031  2.948  0.000    20.230     6.404
  17   6 C      0.281  1.029  2.690  0.000    22.236     7.723
  18   8 O     -0.496  1.735  4.761  0.000    23.693     6.526
  19   6 C     -0.157  0.977  3.181  0.000    23.571     6.916
  20   1 H      0.221  0.779  0.000  0.000     1.005     1.570
  21   1 H      0.075  0.925  0.000  0.000     2.032     2.229
  22   1 H      0.073  0.927  0.000  0.000     2.056     2.242
  23   1 H      0.082  0.918  0.000  0.000     1.954     2.186
  24   1 H      0.083  0.917  0.000  0.000     1.952     2.184
  25   7 N     -0.180  1.211  3.968  0.000    24.889     7.409
  26   6 C      0.011  1.038  2.951  0.000    20.387     6.429
  27   6 C      0.260  1.047  2.694  0.000    22.628     7.790
  28   8 O     -0.485  1.746  4.738  0.000    23.449     6.492
  29   6 C     -0.154  0.980  3.174  0.000    23.524     6.912
  30   1 H      0.220  0.780  0.000  0.000     1.008     1.573
  31   1 H      0.087  0.913  0.000  0.000     1.912     2.162
  32   1 H      0.084  0.916  0.000  0.000     1.941     2.178
  33   1 H      0.084  0.916  0.000  0.000     1.939     2.178
  34   1 H      0.071  0.929  0.000  0.000     2.075     2.253
  35   7 N     -0.173  1.209  3.963  0.000    24.734     7.386
  36   6 C      0.001  1.046  2.953  0.000    20.557     6.455
  37   6 C      0.264  1.042  2.693  0.000    22.539     7.774
  38   8 O     -0.500  1.758  4.741  0.000    23.778     6.538
  39   6 C      0.110  1.022  2.867  0.000    18.860     6.199
  40   8 O     -0.498  1.678  4.820  0.000    22.857     6.454
  41   6 C     -0.172  0.984  3.187  0.000    23.882     6.965
  42   1 H      0.228  0.772  0.000  0.000     0.973     1.545
  43   1 H      0.086  0.914  0.000  0.000     1.921     2.167
  44   1 H      0.053  0.947  0.000  0.000     2.281     2.362
  45   1 H      0.347  0.653  0.000  0.000     0.595     1.211
  46   1 H      0.076  0.924  0.000  0.000     2.023     2.224
  47   1 H      0.066  0.934  0.000  0.000     2.129     2.282
  48   1 H      0.071  0.929  0.000  0.000     2.071     2.250
  49   7 N     -0.167  1.205  3.961  0.000    24.605     7.367
  50   6 C      0.007  1.042  2.951  0.000    20.467     6.441
  51   6 C      0.277  1.041  2.682  0.000    22.319     7.736
  52   8 O     -0.505  1.751  4.754  0.000    23.888     6.553
  53   6 C     -0.033  1.043  2.989  0.000    21.115     6.535
  54   6 C     -0.151  0.978  3.173  0.000    23.452     6.901
  55   6 C     -0.161  0.982  3.179  0.000    23.654     6.931
  56   1 H      0.232  0.768  0.000  0.000     0.958     1.533
  57   1 H      0.081  0.919  0.000  0.000     1.966     2.192
  58   1 H      0.064  0.936  0.000  0.000     2.156     2.296
  59   1 H      0.075  0.925  0.000  0.000     2.029     2.227
  60   1 H      0.043  0.957  0.000  0.000     2.407     2.426
  61   1 H      0.066  0.934  0.000  0.000     2.124     2.279
  62   1 H      0.073  0.927  0.000  0.000     2.051     2.240
  63   1 H      0.070  0.930  0.000  0.000     2.090     2.261
  64   1 H      0.066  0.934  0.000  0.000     2.126     2.280
  65   7 N     -0.167  1.205  3.962  0.000    24.617     7.369
  66   6 C      0.003  1.039  2.958  0.000    20.527     6.450
  67   6 C      0.265  1.040  2.695  0.000    22.523     7.772
  68   8 O     -0.457  1.736  4.721  0.000    22.858     6.410
  69   6 C      0.110  1.022  2.868  0.000    18.851     6.196
  70   8 O     -0.501  1.687  4.814  0.000    22.906     6.461
  71   6 C     -0.167  0.981  3.186  0.000    23.782     6.949
  72   1 H      0.227  0.773  0.000  0.000     0.980     1.550
  73   1 H      0.086  0.914  0.000  0.000     1.914     2.163
  74   1 H      0.054  0.946  0.000  0.000     2.273     2.357
  75   1 H      0.343  0.657  0.000  0.000     0.605     1.221
  76   1 H      0.075  0.925  0.000  0.000     2.031     2.228
  77   1 H      0.066  0.934  0.000  0.000     2.133     2.283
  78   1 H      0.073  0.927  0.000  0.000     2.056     2.242
  79   7 N     -0.180  1.201  3.979  0.000    24.903     7.412
  80   6 C     -0.043  1.006  3.037  0.000    21.406     6.597
  81   6 C      0.197  1.078  2.726  0.000    23.804     7.990
  82   8 O     -0.367  1.757  4.610  0.000    21.030     6.148
  83   1 H      0.218  0.782  0.000  0.000     1.019     1.581
  84   1 H      0.127  0.873  0.000  0.000     1.555     1.950
  85   1 H      0.133  0.867  0.000  0.000     1.509     1.921
  86   7 N     -0.418  1.290  4.128  0.000    30.870     8.252
  87   6 C      0.016  1.037  2.947  0.000    20.308     6.417
  88   6 C      0.275  1.043  2.682  0.000    22.358     7.744
  89   8 O     -0.502  1.744  4.759  0.000    23.834     6.546
  90   6 C     -0.031  1.036  2.995  0.000    21.083     6.530
  91   6 C     -0.147  0.976  3.171  0.000    23.365     6.888
  92   6 C     -0.147  0.975  3.173  0.000    23.373     6.889
  93   1 H      0.181  0.819  0.000  0.000     1.209     1.722
  94   1 H      0.047  0.953  0.000  0.000     2.356     2.400
  95   1 H      0.053  0.947  0.000  0.000     2.283     2.363
  96   1 H      0.067  0.933  0.000  0.000     2.124     2.279
  97   1 H      0.044  0.956  0.000  0.000     2.395     2.420
  98   1 H      0.051  0.949  0.000  0.000     2.302     2.372
  99   1 H      0.058  0.942  0.000  0.000     2.227     2.334
 100   1 H      0.053  0.947  0.000  0.000     2.281     2.362
 101   1 H      0.048  0.952  0.000  0.000     2.347     2.396
 102   7 N     -0.184  1.208  3.976  0.000    24.985     7.424
 103   6 C      0.005  1.041  2.954  0.000    20.483     6.442
 104   6 C      0.260  1.044  2.696  0.000    22.621     7.789
 105   8 O     -0.509  1.757  4.752  0.000    23.985     6.566
 106   6 C     -0.026  1.037  2.988  0.000    20.992     6.516
 107   6 C     -0.148  0.975  3.173  0.000    23.382     6.890
 108   6 C     -0.151  0.976  3.175  0.000    23.459     6.902
 109   1 H      0.210  0.790  0.000  0.000     1.054     1.608
 110   1 H      0.090  0.910  0.000  0.000     1.876     2.142
 111   1 H      0.064  0.936  0.000  0.000     2.155     2.295
 112   1 H      0.066  0.934  0.000  0.000     2.125     2.280
 113   1 H      0.052  0.948  0.000  0.000     2.293     2.368
 114   1 H      0.056  0.944  0.000  0.000     2.248     2.344
 115   1 H      0.062  0.938  0.000  0.000     2.170     2.303
 116   1 H      0.056  0.944  0.000  0.000     2.249     2.345
 117   1 H      0.053  0.947  0.000  0.000     2.276     2.359
 118   7 N     -0.169  1.208  3.961  0.000    24.657     7.375
 119   6 C      0.016  1.036  2.949  0.000    20.317     6.418
 120   6 C      0.189  1.093  2.718  0.000    23.960     8.017
 121   8 O     -0.363  1.762  4.601  0.000    20.956     6.138
 122   6 C     -0.112  1.017  3.095  0.000    22.622     6.769
 123   6 C     -0.106  1.007  3.099  0.000    22.509     6.753
 124   6 C     -0.120  1.008  3.113  0.000    22.791     6.794
 125   6 C     -0.079  1.021  3.058  0.000    22.092     6.705
 126   7 N     -0.140  1.145  3.996  0.000    24.027     7.280
 127   1 H      0.236  0.764  0.000  0.000     0.939     1.518
 128   1 H      0.096  0.904  0.000  0.000     1.820     2.110
 129   1 H      0.083  0.917  0.000  0.000     1.944     2.180
 130   1 H      0.101  0.899  0.000  0.000     1.779     2.086
 131   1 H      0.080  0.920  0.000  0.000     1.976     2.198
 132   1 H      0.092  0.908  0.000  0.000     1.860     2.133
 133   1 H      0.084  0.916  0.000  0.000     1.942     2.179
 134   1 H      0.102  0.898  0.000  0.000     1.768     2.079
 135   1 H      0.138  0.862  0.000  0.000     1.474     1.899
 136   1 H      0.130  0.870  0.000  0.000     1.535     1.937
 137   1 H      0.290  0.710  0.000  0.000     0.745     1.352
 138   1 H      0.286  0.714  0.000  0.000     0.756     1.362
 139   1 H      0.294  0.706  0.000  0.000     0.731     1.339
 140   7 N     -0.412  1.290  4.121  0.000    30.698     8.229
 141   6 C      0.027  1.040  2.934  0.000    20.138     6.392
 142   6 C      0.194  1.096  2.710  0.000    23.859     7.999
 143   8 O     -0.389  1.775  4.614  0.000    21.469     6.212
 144   6 C     -0.091  1.013  3.078  0.000    22.226     6.709
 145   6 C     -0.025  1.035  2.991  0.000    20.990     6.516
 146   6 C     -0.149  0.980  3.170  0.000    23.421     6.897
 147   6 C     -0.156  0.977  3.179  0.000    23.551     6.914
 148   1 H      0.181  0.819  0.000  0.000     1.205     1.719
 149   1 H      0.085  0.915  0.000  0.000     1.926     2.170
 150   1 H      0.050  0.950  0.000  0.000     2.325     2.384
 151   1 H      0.054  0.946  0.000  0.000     2.265     2.353
 152   1 H      0.052  0.948  0.000  0.000     2.294     2.368
 153   1 H      0.059  0.941  0.000  0.000     2.210     2.325
 154   1 H      0.043  0.957  0.000  0.000     2.413     2.429
 155   1 H      0.054  0.946  0.000  0.000     2.265     2.353
 156   1 H      0.062  0.938  0.000  0.000     2.179     2.308
 157   1 H      0.054  0.946  0.000  0.000     2.270     2.356
 158   1 H      0.057  0.943  0.000  0.000     2.233     2.336
 159   7 N     -0.406  1.288  4.119  0.000    30.549     8.209
 160   6 C      0.023  1.037  2.939  0.000    20.194     6.401
 161   6 C      0.194  1.092  2.714  0.000    23.864     8.000
 162   8 O     -0.366  1.766  4.600  0.000    21.007     6.145
 163   6 C     -0.081  1.008  3.073  0.000    22.034     6.680
 164   6 C     -0.119  1.007  3.113  0.000    22.767     6.790
 165   6 C      0.284  1.033  2.684  0.000    22.197     7.715
 166   8 O     -0.517  1.759  4.758  0.000    24.157     6.590
 167   7 N     -0.295  1.196  4.099  0.000    27.602     7.803
 168   1 H      0.189  0.811  0.000  0.000     1.164     1.690
 169   1 H      0.077  0.923  0.000  0.000     2.005     2.214
 170   1 H      0.081  0.919  0.000  0.000     1.964     2.191
 171   1 H      0.062  0.938  0.000  0.000     2.175     2.306
 172   1 H      0.062  0.938  0.000  0.000     2.180     2.309
 173   1 H      0.087  0.913  0.000  0.000     1.911     2.162
 174   1 H      0.232  0.768  0.000  0.000     0.958     1.533
 175   1 H      0.240  0.760  0.000  0.000     0.923     1.505
 176   7 N     -0.410  1.287  4.124  0.000    30.655     8.223
 177   6 C     -0.031  1.002  3.029  0.000    21.205     6.569
 178   6 C      0.182  1.093  2.725  0.000    24.096     8.039
 179   8 O     -0.401  1.776  4.624  0.000    21.692     6.244
 180   1 H      0.188  0.812  0.000  0.000     1.166     1.692
 181   1 H      0.104  0.896  0.000  0.000     1.747     2.067
 182   1 H      0.107  0.893  0.000  0.000     1.721     2.051
 183   1 H      0.190  0.810  0.000  0.000     1.158     1.685
 184   1 H      0.095  0.905  0.000  0.000     1.827     2.114
 185   1 H      0.182  0.818  0.000  0.000     1.202     1.717
 186   1 H      0.086  0.914  0.000  0.000     1.913     2.163
 187   1 H      0.185  0.815  0.000  0.000     1.187     1.706
 188   1 H      0.067  0.933  0.000  0.000     2.120     2.277
 189   1 H      0.183  0.817  0.000  0.000     1.196     1.713
 190   1 H      0.071  0.929  0.000  0.000     2.078     2.254
 191   1 H      0.186  0.814  0.000  0.000     1.177     1.699
 192   1 H      0.074  0.926  0.000  0.000     2.046     2.236

 Mol. C6AA /au·bohr⁶  :     304494.917627
 Mol. C8AA /au·bohr⁸  :    6640618.450335
 Mol. α(0) /au        :        819.872418

 
molecular dipole:
                 x           y           z       tot (Debye)
 q only:      354.244     142.720     176.849
   full:      355.057     142.108     176.780    1070.913
molecular quadrupole (traceless):
                xx          xy          yy          xz          yz          zz
 q only:    99636.983   75843.407  -58110.841   94125.474   37934.965  -41526.142
  q+dip:   100317.058   75673.392  -58571.307   94330.391   37735.877  -41745.751
   full:   100318.760   75672.228  -58572.172   94330.445   37735.263  -41746.587
speedup  1.00
cpu  time for grad    1.65 s
wall time for grad    1.65 s

SCC energy    :    -287.1763570
rep           :       6.2391145
ES            :       0.8546390
AES           :      -0.0000163
AXC           :       0.0465917
disp          :      -0.1993297
XB            :       0.0000000
fix           :       0.0000000
Gborn         :       0.0000000
Gsasa         :       0.0000000
Ghb           :       0.0000000
Gshift        :       0.0000000
Gsolv         :      -0.2206525     -138.46
Etot ala COSMO:    -287.1763570
grad norm     :       1.7832878
total E       :    -280.9268427
atomizationE  :      49.6035547    31126.70
(atE without considering molecular charge,
 total energy contains solvation terms)
H-L gap (eV)  :          1.6016

------------------------------------------------------------------------
 * finished run on 2019/03/07 at 11:37:47.293     
------------------------------------------------------------------------
 total:
 * wall-time:     0 d,  0 h,  0 min,  1.967 sec
 *  cpu-time:     0 d,  0 h,  0 min,  1.835 sec
 * ratio c/w:     0.933 speedup
 SCF:
 * wall-time:     0 d,  0 h,  0 min,  1.795 sec
 *  cpu-time:     0 d,  0 h,  0 min,  1.794 sec
 * ratio c/w:     0.999 speedup

