      -----------------------------------------------------------      
     |                   =====================                   |     
     |                           x T B                           |     
     |                   =====================                   |     
     |                         S. Grimme                         |     
     |          Mulliken Center for Theoretical Chemistry        |     
     |                    University of Bonn                     |     
     |                Version 6.1 RC1 (SAW190329)                |     
      -----------------------------------------------------------      

   This program is distributed in the hope that it will be useful,
   but WITHOUT ANY WARRANTY; without even the implied warranty of
   MERCHANTABILITY or FITNESS FOR A PARTICULAR PURPOSE.
   
   FOR NON-COMMERCIAL, ACADEMIA USE ONLY.
   
   Cite this work as:
   S. Grimme, C. Bannwarth, P. Shushkov, J. Comput. Theory Chem., 2017,
   13, 1989-2009. DOI: 10.1021/acs.jctc.7b00118
   C. Bannwarth, S. Ehlert and S. Grimme., J. Comput. Theory Chem., 2019,
   just accepted. DOI: 10.1021/acs.jctc.8b01176
   
   for sTDA-xTB:
   S. Grimme and C. Bannwarth, J. Chem. Phys., 2016, 145, 054103.
   DOI: 10.1063/1.4959605
   
   in the mass-spec context:
   V. Asgeirsson, C. Bauer and S. Grimme, Chem. Sci., 2017, 8, 4879.
   DOI: 10.1039/c7sc00601b
   
   for metadynamics refer to:
   S. Grimme, ChemRxiv, Preprint. DOI: 10.26434/chemrxiv.7660532.v1
   
   with help from (in alphabetical order)
   C. Bannwarth, F. Bohle, G. Brandenburg, E. Caldeweyher, M. Checinski,
   S. Dohm, S. Ehlert, S. Ehrlich, F. März, H. Neugebauer, J. Pisarek,
   P. Pracht, P. Shushkov, and S. Spicher.
   
 * started run on 2019/05/31 at 05:35:12.078     

           -------------------------------------------------
          |                Calculation Setup                |
           -------------------------------------------------

          program call               : /home/lum/install/xtb/xtb-190329/bin/xtb xtb_tmp.xyz --chrg 1 --grad --gfn 2 --etemp 500 --acc 0.1 --gbsa h2o --parallel 2
          hostname                   : cpu02
          coordinate file            : xtb_tmp.xyz
          omp threads                :                     2
          number of atoms            :                   244
          number of electrons        :                   684
          charge                     :                     1
          spin                       :                   0.0
          first test random number   :      0.19764512768008


molecular fragmentation (1/2 indicates fragments):
111111111111111111111111111122222222222222222222222222222222222222222222
222222222222222222222222222222222222222222222222222222222222222222222222
222222222222222222222222222222222222222222222222222222222222222222222222
2222222222222222222211222222
# atoms in fragment 1/2:    30   214
 fragment masses (1/2) :      217.22     1520.68
CMA distance (Bohr)    :  14.562
constraining FC (au)   :  0.0500

########################################################################
# WARNING! Please study the warnings concerning your input carefully
#  - XTBPATH is not set, using XTBHOME instead
#  - Process number higher than OMP_NUM_THREADS, I hope you know what you are doing.
########################################################################

           ------------------------------------------------- 
          |                 G F N 2 - x T B                 |
          | Geometry, Frequencies, Noncovalent interactions |
          |            JCTC 2018 parametrisation            |
           ------------------------------------------------- 
 
             k(s)              :                1.8500
             k(p)              :                2.2300
             k(d)              :                2.2300
             k(f)              :                2.0000
             kEN (H0ij)        :               -2.0000
             D4 a1             :                0.5200
             D4 a2             :                5.0000
             D4 s6             :                1.0000
             D4 s8             :                2.7000
             D4 s9             :                5.0000
             alphaj            :                2.0000

  Z AO/shell   Hii/eV     exponent
  1     Wed Apr 25 08:07:45 CEST 2018   EN: 2.200 GM2: 0.406  GM3: 0.0800  RAES: 1.40
     1s    -10.707211    1.230000
  6     Wed Apr 25 08:07:45 CEST 2018   EN: 2.550 GM2: 0.538  GM3: 0.1500  RAES: 3.00
     2s    -13.970922    2.096432
     2p    -10.063292    1.800000
  7     Wed Apr 25 08:07:45 CEST 2018   EN: 3.040 GM2: 0.461  GM3:-0.0640  RAES: 1.90
     2s    -16.686243    2.339881
     2p    -12.523956    2.014332
  8     Wed Apr 25 08:07:45 CEST 2018   EN: 3.440 GM2: 0.452  GM3:-0.0517  RAES: 1.80
     2s    -20.229985    2.439742
     2p    -15.503117    2.137023

 Solvent             : h2o
 Using internal parameter file: .param_gbsa2_h2o
 Gsolv ref. state (COSMO-RS): gsolv [1 M gas/solution]
 temperature (mdtemp)       :    298.150000000000     
 dielectric constant        :    80.2000000000000     
 rho                        :    1.00000000000000     
 mass                       :    18.0000000000000     
 surface tension            :    15.5689454083859     
 probe radius               :   0.975313790000000     
 vdW radii scaling          :    1.00000000000000     
 Gshift (Eh)                :   1.857443126794793E-003
 c1                         :    1.55243817000000     
 soset                      :   0.130326360000000     
 HB correction              :  T
 Number of grid points      :          230

            Z     q(EN)     CN     RAES       Cart. coordinates
     1  N   5.0   -0.65    3.00    1.93   310.68198   143.09575   166.14138
     2  C   4.0    0.08    3.98    3.58   313.19171   142.02054   165.97539
     3  C   4.0    0.28    3.02    3.02   313.78170   140.64439   168.45482
     4  O   6.0   -0.33    1.00    1.80   312.24495   140.56394   170.18517
     5  C   4.0   -0.01    3.98    3.58   315.14994   144.02966   165.20685
     6  O   6.0   -0.45    1.99    1.82   315.58196   145.91515   167.01756
     7  H   1.0    0.29    1.00    1.43   310.45963   144.84758   166.95049
     8  H   1.0    0.11    0.99    1.43   313.11465   140.56782   164.49273
     9  H   1.0    0.13    0.99    1.43   316.91553   143.09032   164.65251
    10  H   1.0    0.14    0.99    1.43   314.39075   145.02917   163.56858
    11  H   1.0    0.28    0.99    1.43   316.34244   145.23160   168.53144
    12  N   5.0   -0.51    3.00    1.93   316.03242   139.46913   168.66398
    13  C   4.0    0.07    4.00    3.62   316.40641   137.82419   170.82460
    14  C   4.0    0.10    3.00    3.02   316.31585   139.29300   173.32167
    15  O   6.0   -0.36    1.00    1.80   315.26692   138.38809   175.16595
    16  C   4.0   -0.15    3.98    3.59   318.81554   136.26899   170.55559
    17  C   4.0   -0.11    3.99    3.60   318.37949   134.17028   168.61471
    18  C   4.0    0.29    3.00    3.02   320.80332   132.77185   168.00655
    19  O   6.0   -0.44    1.00    1.80   322.12050   133.37361   166.20243
    20  N   5.0   -0.65    3.00    1.93   321.37806   130.86184   169.53745
    21  H   1.0    0.23    1.00    1.43   317.31531   139.44978   167.25645
    22  H   1.0    0.15    0.99    1.43   314.78037   136.53255   170.94196
    23  H   1.0    0.12    0.99    1.43   320.38259   137.48303   169.97767
    24  H   1.0    0.13    0.99    1.43   319.29742   135.46093   172.39195
    25  H   1.0    0.12    0.99    1.43   316.97765   132.84885   169.33842
    26  H   1.0    0.13    0.99    1.43   317.67099   134.97096   166.85364
    27  H   1.0    0.30    1.00    1.43   320.41838   130.50768   171.14838
    28  H   1.0    0.29    1.00    1.43   322.85896   129.72170   169.12999
    29  N   5.0   -0.67    3.00    1.93   314.48527   127.51040   174.32016
    30  C   4.0    0.06    3.98    3.58   316.00352   126.06186   172.56499
    31  C   4.0    0.07    3.00    3.02   318.77302   126.46181   173.32823
    32  O   6.0   -0.43    1.00    1.80   319.47353   128.51503   174.16014
    33  C   4.0   -0.13    3.98    3.59   315.63405   127.00024   169.84274
    34  C   4.0   -0.11    3.98    3.59   312.87690   126.88974   169.00470
    35  C   4.0    0.28    3.00    3.02   312.43735   128.44745   166.63315
    36  O   6.0   -0.42    1.00    1.80   314.02060   129.86986   165.73233
    37  N   5.0   -0.64    3.00    1.93   310.15459   128.12720   165.58236
    38  H   1.0    0.31    1.00    1.43   315.28214   129.14741   174.90041
    39  H   1.0    0.13    0.99    1.43   315.41882   124.08944   172.75369
    40  H   1.0    0.14    0.99    1.43   316.27551   128.95671   169.73255
    41  H   1.0    0.13    0.99    1.43   316.81992   125.90303   168.56505
    42  H   1.0    0.12    0.99    1.43   312.28841   124.94395   168.68005
    43  H   1.0    0.11    0.99    1.43   311.67481   127.67886   170.48841
    44  H   1.0    0.27    1.00    1.43   308.80648   127.10603   166.44987
    45  H   1.0    0.30    1.00    1.43   309.67753   129.19257   164.07788
    46  N   5.0   -0.67    3.00    1.93   326.14909   127.76696   173.40705
    47  C   4.0    0.08    3.98    3.59   328.18905   129.00479   172.07622
    48  C   4.0    0.29    3.01    3.02   330.00219   126.98943   171.04162
    49  O   6.0   -0.36    1.00    1.80   330.35571   124.98479   172.13740
    50  C   4.0   -0.12    3.99    3.60   329.72386   130.70330   173.86272
    51  C   4.0   -0.04    3.03    3.02   328.57357   133.28083   174.16971
    52  C   4.0   -0.09    3.03    3.02   326.78128   133.76819   176.02832
    53  C   4.0   -0.10    3.03    3.02   329.29327   135.23944   172.57936
    54  C   4.0   -0.07    3.03    3.02   325.74341   136.14867   176.30648
    55  C   4.0   -0.10    3.03    3.02   328.30865   137.63982   172.86739
    56  C   4.0    0.10    3.03    3.02   326.52258   138.11242   174.73571
    57  O   6.0   -0.46    1.99    1.83   325.53824   140.45389   175.09563
    58  H   1.0    0.28    1.00    1.43   326.29357   127.68659   175.31799
    59  H   1.0    0.12    0.99    1.43   327.42924   130.11484   170.50015
    60  H   1.0    0.12    0.99    1.43   329.84629   129.76135   175.69308
    61  H   1.0    0.13    0.99    1.43   331.62592   130.89003   173.07898
    62  H   1.0    0.13    0.99    1.43   326.20135   132.25715   177.27231
    63  H   1.0    0.14    1.00    1.43   330.65744   134.89903   171.10015
    64  H   1.0    0.14    0.99    1.43   324.29256   136.53151   177.69122
    65  H   1.0    0.13    0.99    1.43   328.92832   139.15002   171.63563
    66  H   1.0    0.26    0.99    1.43   326.18271   141.58244   173.80900
    67  N   5.0   -0.48    3.01    1.93   331.18310   127.63730   168.90243
    68  C   4.0    0.07    3.99    3.60   333.42985   126.29610   168.07424
    69  C   4.0    0.08    3.00    3.02   335.58920   127.19515   169.79540
    70  O   6.0   -0.44    1.00    1.80   335.73520   129.41329   170.45790
    71  C   4.0   -0.14    3.98    3.59   333.90681   126.87033   165.28610
    72  C   4.0   -0.17    3.98    3.59   336.19158   125.47400   164.20982
    73  C   4.0   -0.15    3.98    3.59   336.49321   126.06877   161.39717
    74  C   4.0   -0.05    3.98    3.58   338.75483   124.66926   160.28729
    75  N   5.0   -0.73    3.98    2.82   339.03650   125.27667   157.55367
    76  H   1.0    0.28    1.00    1.43   330.93757   129.39341   168.17298
    77  H   1.0    0.14    0.99    1.43   333.09734   124.27737   168.37993
    78  H   1.0    0.13    0.99    1.43   332.20201   126.34949   164.24998
    79  H   1.0    0.13    0.99    1.43   334.14163   128.91159   165.09579
    80  H   1.0    0.12    0.99    1.43   337.89122   126.03169   165.23642
    81  H   1.0    0.11    0.99    1.43   335.92470   123.44663   164.46375
    82  H   1.0    0.12    0.99    1.43   334.75974   125.51790   160.42753
    83  H   1.0    0.11    0.99    1.43   336.72622   128.10505   161.17823
    84  H   1.0    0.12    0.99    1.43   340.47411   125.21639   161.28331
    85  H   1.0    0.12    0.99    1.43   338.48837   122.63730   160.49881
    86  H   1.0    0.25    1.00    1.43   340.55059   124.32195   156.78724
    87  H   1.0    0.25    1.00    1.43   337.41664   124.77699   156.59130
    88  H   1.0    0.25    1.00    1.43   339.31624   127.19106   157.32177
    89  N   5.0   -0.68    3.00    1.93   345.52549   134.73956   176.40403
    90  C   4.0    0.10    3.98    3.59   344.06634   136.26317   174.66360
    91  C   4.0    0.28    3.01    3.02   341.73797   134.74911   173.84651
    92  O   6.0   -0.38    1.00    1.80   341.90225   132.49684   173.31165
    93  C   4.0   -0.01    3.98    3.58   345.55993   136.97111   172.27273
    94  O   6.0   -0.46    1.99    1.82   347.52528   138.66740   172.88483
    95  H   1.0    0.30    1.00    1.43   345.61818   132.85629   176.02741
    96  H   1.0    0.16    0.99    1.43   343.50214   137.99452   175.64543
    97  H   1.0    0.13    0.99    1.43   346.32767   135.24712   171.41832
    98  H   1.0    0.12    0.99    1.43   344.23578   137.85749   170.94411
    99  H   1.0    0.27    0.99    1.43   348.31596   139.16478   171.31593
   100  N   5.0   -0.48    3.01    1.93   339.61326   136.07679   173.68551
   101  C   4.0    0.08    4.00    3.61   337.20689   134.94360   173.04873
   102  C   4.0    0.28    3.01    3.02   336.14630   136.26336   170.70475
   103  O   6.0   -0.46    1.00    1.80   336.11622   138.57741   170.54884
   104  C   4.0   -0.12    3.99    3.60   335.37198   135.26992   175.28430
   105  C   4.0   -0.02    3.03    3.02   336.47498   134.14523   177.64363
   106  C   4.0   -0.08    3.03    3.02   337.83447   135.62750   179.32822
   107  C   4.0   -0.08    3.03    3.02   336.21595   131.58108   178.14993
   108  C   4.0   -0.08    3.03    3.02   338.87195   134.58220   181.48540
   109  C   4.0   -0.05    3.03    3.02   337.25859   130.51161   180.29083
   110  C   4.0    0.12    3.03    3.02   338.58993   132.02068   181.98601
   111  O   6.0   -0.43    1.99    1.83   339.57723   130.93575   184.09837
   112  H   1.0    0.29    1.00    1.43   339.57742   137.91737   174.23369
   113  H   1.0    0.17    0.99    1.43   337.54492   132.94367   172.65879
   114  H   1.0    0.12    0.99    1.43   335.03927   137.28646   175.54351
   115  H   1.0    0.11    0.99    1.43   333.58256   134.36882   174.81590
   116  H   1.0    0.14    1.00    1.43   338.09358   137.61903   178.96330
   117  H   1.0    0.13    1.00    1.43   335.16154   130.41958   176.84474
   118  H   1.0    0.13    1.00    1.43   339.89942   135.77504   182.78454
   119  H   1.0    0.15    1.00    1.43   337.03956   128.52455   180.69568
   120  H   1.0    0.27    0.99    1.43   340.25448   132.23416   185.19120
   121  N   5.0   -0.48    3.01    1.93   335.27400   134.73336   168.90383
   122  C   4.0    0.10    4.00    3.61   334.33313   135.64820   166.50396
   123  C   4.0    0.26    3.01    3.02   331.59122   134.81261   166.15333
   124  O   6.0   -0.45    1.00    1.80   330.95472   132.61151   166.51776
   125  C   4.0    0.04    3.98    3.58   335.95052   134.61891   164.31439
   126  O   6.0   -0.46    1.99    1.82   338.48585   135.25090   164.84905
   127  C   4.0   -0.21    3.98    3.59   335.06067   135.71283   161.79696
   128  H   1.0    0.29    1.00    1.43   335.33076   132.83510   169.17624
   129  H   1.0    0.17    0.99    1.43   334.45026   137.70811   166.53163
   130  H   1.0    0.12    0.99    1.43   335.74532   132.54577   164.30246
   131  H   1.0    0.25    0.99    1.43   339.54211   134.64050   163.48826
   132  H   1.0    0.11    0.99    1.43   336.22171   135.01345   160.25446
   133  H   1.0    0.14    0.99    1.43   333.09948   135.21460   161.43912
   134  H   1.0    0.14    0.99    1.43   335.20563   137.76395   161.84007
   135  N   5.0   -0.48    3.01    1.93   329.99238   136.63293   165.48345
   136  C   4.0    0.09    4.00    3.62   327.33842   136.15854   165.06007
   137  C   4.0    0.30    3.00    3.02   326.74332   135.91692   162.23800
   138  O   6.0   -0.41    1.00    1.80   328.34906   136.15968   160.57986
   139  C   4.0   -0.09    3.98    3.59   325.74527   138.22254   166.29254
   140  C   4.0    0.32    2.99    3.02   326.29527   140.87504   165.14689
   141  O   6.0   -0.45    1.00    1.80   326.56277   140.99158   162.79575
   142  O   6.0   -0.42    1.00    1.80   326.38607   142.67261   166.64268
   143  H   1.0    0.29    1.00    1.43   330.64730   138.40014   165.13916
   144  H   1.0    0.15    0.99    1.43   326.89706   134.32760   165.92778
   145  H   1.0    0.12    0.99    1.43   323.74713   137.81174   166.00915
   146  H   1.0    0.12    0.99    1.43   326.12153   138.27540   168.31806
   147  N   5.0   -0.49    3.01    1.93   324.31160   135.37327   161.80474
   148  C   4.0    0.09    3.99    3.60   323.23210   134.85409   159.34792
   149  C   4.0    0.29    3.01    3.02   323.71570   136.95710   157.42830
   150  O   6.0   -0.38    1.00    1.80   323.53662   136.56721   155.15501
   151  C   4.0   -0.09    4.00    3.61   320.35556   134.66834   159.59910
   152  C   4.0    0.29    2.99    3.02   319.50320   132.37913   161.14762
   153  O   6.0   -0.35    1.00    1.80   320.81828   130.51620   161.46706
   154  N   5.0   -0.64    3.00    1.93   317.14517   132.61033   162.03514
   155  H   1.0    0.29    1.00    1.43   323.27297   134.75977   163.29709
   156  H   1.0    0.16    0.99    1.43   323.97805   133.07722   158.57708
   157  H   1.0    0.13    0.99    1.43   319.65080   136.41725   160.43605
   158  H   1.0    0.13    0.99    1.43   319.55383   134.47909   157.70609
   159  H   1.0    0.34    1.00    1.43   316.34431   131.25411   163.12333
   160  H   1.0    0.27    1.00    1.43   316.12423   134.16754   161.66271
   161  N   5.0   -0.46    3.01    1.93   324.09053   139.23696   158.43628
   162  C   4.0    0.09    4.00    3.61   324.40618   141.49150   156.95865
   163  C   4.0    0.28    3.01    3.02   327.19198   142.13597   156.45447
   164  O   6.0   -0.39    1.00    1.80   327.76685   144.01005   155.22921
   165  C   4.0   -0.09    3.99    3.60   323.12769   143.69574   158.35125
   166  C   4.0    0.29    3.00    3.02   320.32192   143.13229   158.61093
   167  O   6.0   -0.40    1.00    1.80   319.45950   141.83955   160.32069
   168  N   5.0   -0.64    3.00    1.93   318.87318   144.12875   156.78996
   169  H   1.0    0.30    1.00    1.43   324.50286   139.44377   160.30497
   170  H   1.0    0.16    0.99    1.43   323.52075   141.16965   155.10975
   171  H   1.0    0.15    0.99    1.43   323.96957   143.81402   160.23121
   172  H   1.0    0.12    0.99    1.43   323.47237   145.44069   157.31944
   173  H   1.0    0.29    1.00    1.43   317.00723   143.74755   156.75790
   174  H   1.0    0.27    1.00    1.43   319.63045   145.11917   155.35570
   175  N   5.0   -0.47    3.00    1.93   328.86514   140.49087   157.38138
   176  C   4.0    0.04    3.99    3.61   331.54160   140.85286   157.12265
   177  C   4.0    0.28    3.01    3.02   332.75291   142.44437   159.19668
   178  O   6.0   -0.41    1.00    1.80   335.04917   142.75518   159.23835
   179  H   1.0    0.31    1.00    1.43   328.30309   139.04374   158.50909
   180  H   1.0    0.12    0.99    1.43   332.48064   139.01808   157.06935
   181  H   1.0    0.15    0.99    1.43   331.90097   141.84691   155.34183
   182  N   5.0   -0.46    3.01    1.93   331.19327   143.59170   160.82730
   183  C   4.0    0.08    4.00    3.63   332.31427   145.16438   162.77292
   184  C   4.0    0.29    3.01    3.02   333.80184   143.46758   164.58452
   185  O   6.0   -0.43    1.00    1.80   333.00971   141.39952   165.26290
   186  C   4.0   -0.14    3.98    3.59   330.28962   146.69762   164.14439
   187  C   4.0   -0.16    3.98    3.59   331.42350   148.56620   166.03043
   188  C   4.0   -0.15    3.98    3.59   329.34094   150.06852   167.35443
   189  C   4.0   -0.06    3.98    3.58   330.45978   151.84352   169.33163
   190  N   5.0   -0.73    3.98    2.82   328.42541   153.30423   170.61257
   191  H   1.0    0.30    1.00    1.43   329.43757   142.88084   161.16199
   192  H   1.0    0.13    0.99    1.43   333.64854   146.42936   161.81451
   193  H   1.0    0.12    0.99    1.43   329.20590   147.70795   162.70882
   194  H   1.0    0.16    0.99    1.43   329.00624   145.39813   165.10790
   195  H   1.0    0.13    0.99    1.43   332.52992   147.52905   167.42802
   196  H   1.0    0.11    0.99    1.43   332.69546   149.84825   165.03514
   197  H   1.0    0.12    0.99    1.43   328.30238   151.13301   165.92969
   198  H   1.0    0.12    0.99    1.43   328.04497   148.72330   168.22708
   199  H   1.0    0.11    0.99    1.43   331.48813   150.74790   170.74141
   200  H   1.0    0.12    0.99    1.43   331.76897   153.15500   168.43072
   201  H   1.0    0.25    1.00    1.43   329.17185   154.47577   171.97784
   202  H   1.0    0.25    1.00    1.43   327.45397   154.38980   169.30813
   203  H   1.0    0.25    1.00    1.43   327.16015   152.08045   171.44779
   204  N   5.0   -0.49    3.01    1.93   335.98002   144.46975   165.38367
   205  C   4.0    0.08    3.99    3.60   337.80274   143.19061   166.96701
   206  C   4.0    0.26    3.01    3.02   338.22054   144.76977   169.34979
   207  O   6.0   -0.43    1.00    1.80   339.01749   146.94710   169.20089
   208  C   4.0    0.05    3.98    3.59   340.35892   143.01487   165.54397
   209  O   6.0   -0.45    1.99    1.82   341.10310   145.41895   164.68921
   210  C   4.0   -0.18    3.98    3.59   340.16263   141.22968   163.29635
   211  H   1.0    0.26    1.00    1.43   336.66382   146.04108   164.53570
   212  H   1.0    0.15    0.99    1.43   337.08924   141.31463   167.43666
   213  H   1.0    0.12    0.99    1.43   341.77125   142.26921   166.89048
   214  H   1.0    0.30    0.99    1.43   340.93482   146.60115   166.09352
   215  H   1.0    0.13    0.99    1.43   341.96274   141.17786   162.31452
   216  H   1.0    0.13    0.99    1.43   339.67688   139.35221   163.96645
   217  H   1.0    0.16    0.99    1.43   338.72339   141.88726   161.98259
   218  N   5.0   -0.48    3.01    1.93   337.67766   143.62122   171.52051
   219  C   4.0    0.07    3.99    3.61   338.10762   144.82518   173.93649
   220  C   4.0    0.07    3.00    3.02   340.05306   143.33180   175.46027
   221  O   6.0   -0.46    1.00    1.80   339.93476   141.02551   175.74226
   222  C   4.0   -0.08    3.98    3.58   335.62170   145.17262   175.43834
   223  C   4.0   -0.14    3.98    3.58   334.28532   142.63943   175.86443
   224  C   4.0   -0.21    3.98    3.59   333.93713   147.06176   174.04928
   225  C   4.0   -0.23    3.98    3.58   332.05284   142.82205   177.67671
   226  H   1.0    0.29    1.00    1.43   337.10290   141.78857   171.51846
   227  H   1.0    0.14    0.99    1.43   338.91329   146.68730   173.52189
   228  H   1.0    0.11    0.99    1.43   336.16199   145.95283   177.27927
   229  H   1.0    0.13    0.99    1.43   333.64202   141.88392   174.05353
   230  H   1.0    0.13    0.99    1.43   335.66439   141.32052   176.64360
   231  H   1.0    0.10    0.99    1.43   332.32057   147.54126   175.21598
   232  H   1.0    0.11    0.99    1.43   335.00824   148.76576   173.63487
   233  H   1.0    0.12    0.99    1.43   333.28654   146.23453   172.28143
   234  H   1.0    0.12    0.99    1.43   331.25976   140.95194   177.98828
   235  H   1.0    0.11    0.99    1.43   332.66322   143.59389   179.47973
   236  H   1.0    0.11    0.99    1.43   330.57399   144.01533   176.90630
   237  H   1.0    0.30    1.00    1.43   310.03137   143.26266   164.57888
   238  H   1.0    0.15    1.00    1.43   317.11828   140.99954   173.44370
   239  H   1.0    0.30    1.00    1.43   313.00434   127.91634   173.58899
   240  H   1.0    0.14    1.00    1.43   320.01572   125.04940   173.14973
   241  H   1.0    0.31    1.00    1.43   324.68845   128.57752   173.08755
   242  H   1.0    0.13    1.00    1.43   336.89741   125.96769   170.38952
   243  H   1.0    0.33    1.00    1.43   347.13536   135.28764   176.42625
   244  H   1.0    0.13    1.00    1.43   341.50072   144.22771   176.28044

           ------------------------------------------------- 
          |        Self-Consistent Charge Iterations        |
           ------------------------------------------------- 

          ...................................................
          :                      SETUP                      :
          :.................................................:
          :  # basis functions                 610          :
          :  # atomic orbitals                 610          :
          :  # shells                          366          :
          :  # electrons                       684          :
          :  max. iterations                   250          :
          :  Hamiltonian                  GFN2-xTB          :
          :  restarted?                      false          :
          :  GBSA solvation                   true          :
          :  PC potential                    false          :
          :  electronic temp.          500.0000000     K    :
          :  accuracy                    0.1000000          :
          :  -> integral cutoff          0.3500000E+02      :
          :  -> integral neglect         0.1000000E-08      :
          :  -> SCF convergence          0.1000000E-06 Eh   :
          :  -> wf. convergence          0.1000000E-04 e    :
          :  Broyden damping             0.4000000          :
          ...................................................

 iter      E             dE          RMSdq      gap      omega  full diag
   1   -395.2198360 -0.395220E+03  0.446E+00    2.32       0.0  T
   2   -396.3417451 -0.112191E+01  0.231E+00    1.69       1.0  T
   3   -396.3776472 -0.359022E-01  0.123E+00    1.91       1.0  T
   4   -396.3872364 -0.958914E-02  0.310E-01    1.37       1.0  T
   5   -396.3998896 -0.126532E-01  0.113E-01    1.56       1.0  T
   6   -396.4003681 -0.478474E-03  0.529E-02    1.56       1.0  T
   7   -396.4004113 -0.431946E-04  0.248E-02    1.58       1.0  T
   8   -396.4004553 -0.440625E-04  0.872E-03    1.59       1.0  T
   9   -396.4004589 -0.356012E-05  0.459E-03    1.58       1.4  T
  10   -396.4004599 -0.975919E-06  0.194E-03    1.59       3.3  T
  11   -396.4004600 -0.174722E-06  0.850E-04    1.59       7.5  T
  12   -396.4004601 -0.382475E-07  0.396E-04    1.59      16.2  T
  13   -396.4004601 -0.113471E-07  0.197E-04    1.59      32.4  T
  14   -396.4004601 -0.212884E-08  0.773E-05    1.59      82.8  T
  15   -396.4004601 -0.447983E-09  0.314E-05    1.59     203.6  T

   *** convergence criteria satisfied after 15 iterations ***

         #    Occupation            Energy/Eh            Energy/eV
      -------------------------------------------------------------
         1        2.0000           -0.7445062             -20.2590
       ...           ...                  ...                  ...
       336        2.0000           -0.3906884             -10.6312
       337        2.0000           -0.3787617             -10.3066
       338        2.0000           -0.3779450             -10.2844
       339        2.0000           -0.3738161             -10.1721
       340        2.0000           -0.3689852             -10.0406
       341        2.0000           -0.3686098             -10.0304
       342        2.0000           -0.3658617              -9.9556 (HOMO)
       343                         -0.3075438              -8.3687 (LUMO)
       344                         -0.3033470              -8.2545
       345                         -0.2991487              -8.1403
       346                         -0.2927936              -7.9673
       347                         -0.2408381              -6.5535
       ...                                ...                  ...
       610                          0.6636889              18.0599
      -------------------------------------------------------------
                  HL-Gap            0.0583179 Eh            1.5869 eV
             Fermi-level           -0.3365391 Eh           -9.1577 eV

 SCC (total)                   0 d,  0 h,  0 min,  2.332 sec
 SCC setup                      ...        0 min,  0.030 sec (  1.277%)
 Dispersion                     ...        0 min,  0.024 sec (  1.034%)
 integral evaluation            ...        0 min,  0.093 sec (  3.968%)
 zeroth order Hamiltonian       ...        0 min,  0.002 sec (  0.079%)
 iterations                     ...        0 min,  1.861 sec ( 79.802%)
 molecular gradient             ...        0 min,  0.312 sec ( 13.399%)
 printout                       ...        0 min,  0.010 sec (  0.437%)

         :::::::::::::::::::::::::::::::::::::::::::::::::::::
         ::                     SUMMARY                     ::
         :::::::::::::::::::::::::::::::::::::::::::::::::::::
         :: total energy             -391.759013670899 Eh   ::
         :: total w/o Gsasa/hb       -391.688279733627 Eh   ::
         :: gradient norm               0.443842524134 Eh/α ::
         :: HOMO-LUMO gap               1.586910675341 eV   ::
         ::.................................................::
         :: SCC energy               -396.410693849415 Eh   ::
         :: -> isotropic ES             1.342718230059 Eh   ::
         :: -> anisotropic ES          -0.057292143172 Eh   ::
         :: -> anisotropic XC           0.108077421264 Eh   ::
         :: -> dispersion              -0.303086642291 Eh   ::
         :: -> Gsolv                   -0.357305533257 Eh   ::
         ::    -> Gborn                -0.286571595985 Eh   ::
         ::    -> Gsasa                -0.012091209685 Eh   ::
         ::    -> Ghb                  -0.060500170714 Eh   ::
         ::    -> Gshift                0.001857443127 Eh   ::
         :: repulsion energy            4.626754360723 Eh   ::
         :: add. restraining            0.000000000000 Eh   ::
         :::::::::::::::::::::::::::::::::::::::::::::::::::::

           -------------------------------------------------
          |                Property Printout                |
           -------------------------------------------------

    * Orbital Energies and Occupations

         #    Occupation            Energy/Eh            Energy/eV
      -------------------------------------------------------------
         1        2.0000           -0.7445062             -20.2590
       ...           ...                  ...                  ...
       330        2.0000           -0.4029407             -10.9646
       331        2.0000           -0.4027071             -10.9582
       332        2.0000           -0.4006177             -10.9014
       333        2.0000           -0.3996692             -10.8756
       334        2.0000           -0.3985082             -10.8440
       335        2.0000           -0.3980122             -10.8305
       336        2.0000           -0.3906884             -10.6312
       337        2.0000           -0.3787617             -10.3066
       338        2.0000           -0.3779450             -10.2844
       339        2.0000           -0.3738161             -10.1721
       340        2.0000           -0.3689852             -10.0406
       341        2.0000           -0.3686098             -10.0304
       342        2.0000           -0.3658617              -9.9556 (HOMO)
       343                         -0.3075438              -8.3687 (LUMO)
       344                         -0.3033470              -8.2545
       345                         -0.2991487              -8.1403
       346                         -0.2927936              -7.9673
       347                         -0.2408381              -6.5535
       348                         -0.2368050              -6.4438
       349                         -0.2343530              -6.3771
       350                         -0.2336187              -6.3571
       351                         -0.2333940              -6.3510
       352                         -0.2324742              -6.3259
       353                         -0.2316481              -6.3035
       ...                                ...                  ...
       610                          0.6636889              18.0599
      -------------------------------------------------------------
                  HL-Gap            0.0583179 Eh            1.5869 eV
             Fermi-level           -0.3365391 Eh           -9.1577 eV

   #   Z        covCN         q      C6AA      α(0)
   1   7 N      2.635    -0.379    29.791     8.106
   2   6 C      3.781     0.017    20.311     6.420
   3   6 C      2.763     0.269    22.455     7.760
   4   8 O      0.859    -0.468    23.082     6.441
   5   6 C      3.675     0.068    19.656     6.353
   6   8 O      1.655    -0.469    22.227     6.364
   7   1 H      0.859     0.164     1.308     1.791
   8   1 H      0.923     0.059     2.212     2.326
   9   1 H      0.923     0.027     2.623     2.533
  10   1 H      0.924     0.063     2.165     2.301
  11   1 H      0.805     0.323     0.656     1.272
  12   7 N      2.688    -0.186    25.021     7.429
  13   6 C      3.803     0.028    20.104     6.383
  14   6 C      2.763     0.209    23.572     7.951
  15   8 O      0.856    -0.356    20.815     6.117
  16   6 C      3.806    -0.063    21.710     6.633
  17   6 C      3.810    -0.100    22.390     6.735
  18   6 C      2.744     0.294    22.008     7.681
  19   8 O      0.859    -0.500    23.773     6.537
  20   7 N      2.639    -0.268    26.942     7.709
  21   1 H      0.860     0.201     1.099     1.642
  22   1 H      0.923     0.094     1.841     2.122
  23   1 H      0.924     0.062     2.179     2.308
  24   1 H      0.924     0.073     2.057     2.243
  25   1 H      0.925     0.075     2.031     2.229
  26   1 H      0.924     0.075     2.033     2.230
  27   1 H      0.860     0.224     0.993     1.561
  28   1 H      0.860     0.213     1.041     1.598
  29   7 N      2.639    -0.389    30.080     8.145
  30   6 C      3.782     0.031    20.074     6.382
  31   6 C      2.770     0.196    23.809     7.991
  32   8 O      0.856    -0.374    21.176     6.170
  33   6 C      3.807    -0.062    21.676     6.628
  34   6 C      3.807    -0.101    22.419     6.740
  35   6 C      2.744     0.288    22.126     7.702
  36   8 O      0.859    -0.498    23.743     6.533
  37   7 N      2.639    -0.292    27.524     7.792
  38   1 H      0.860     0.166     1.296     1.783
  39   1 H      0.924     0.073     2.052     2.240
  40   1 H      0.924     0.053     2.285     2.364
  41   1 H      0.925     0.053     2.279     2.361
  42   1 H      0.925     0.080     1.975     2.198
  43   1 H      0.924     0.075     2.033     2.230
  44   1 H      0.860     0.231     0.960     1.534
  45   1 H      0.860     0.233     0.950     1.527
  46   7 N      2.636    -0.376    29.714     8.096
  47   6 C      3.787     0.037    19.968     6.365
  48   6 C      2.761     0.269    22.453     7.760
  49   8 O      0.858    -0.488    23.514     6.501
  50   6 C      3.814    -0.063    21.695     6.629
  51   6 C      2.968    -0.004    28.113     8.697
  52   6 C      2.924    -0.041    29.020     8.834
  53   6 C      2.926    -0.040    29.004     8.832
  54   6 C      2.917    -0.062    29.537     8.912
  55   6 C      2.917    -0.073    29.813     8.954
  56   6 C      2.847     0.143    24.881     8.175
  57   8 O      1.659    -0.420    21.231     6.220
  58   1 H      0.860     0.165     1.306     1.790
  59   1 H      0.924     0.027     2.634     2.538
  60   1 H      0.924     0.050     2.322     2.383
  61   1 H      0.924     0.031     2.573     2.508
  62   1 H      0.926     0.047     2.358     2.402
  63   1 H      0.926     0.016     2.788     2.611
  64   1 H      0.926     0.058     2.228     2.334
  65   1 H      0.925     0.032     2.557     2.500
  66   1 H      0.805     0.343     0.604     1.221
  67   7 N      2.695    -0.189    25.106     7.442
  68   6 C      3.794     0.026    20.149     6.392
  69   6 C      2.768     0.204    23.662     7.966
  70   8 O      0.856    -0.374    21.170     6.169
  71   6 C      3.807    -0.075    21.921     6.665
  72   6 C      3.803    -0.079    22.000     6.678
  73   6 C      3.804    -0.093    22.280     6.720
  74   6 C      3.732    -0.052    21.606     6.635
  75   7 N      3.483    -0.148    24.185     7.304
  76   1 H      0.860     0.221     1.005     1.571
  77   1 H      0.924     0.094     1.844     2.124
  78   1 H      0.924     0.079     1.994     2.208
  79   1 H      0.924     0.057     2.233     2.337
  80   1 H      0.924     0.055     2.256     2.349
  81   1 H      0.924     0.071     2.072     2.251
  82   1 H      0.924     0.082     1.960     2.189
  83   1 H      0.924     0.071     2.077     2.254
  84   1 H      0.924     0.121     1.607     1.983
  85   1 H      0.924     0.124     1.579     1.965
  86   1 H      0.859     0.306     0.695     1.306
  87   1 H      0.859     0.299     0.716     1.326
  88   1 H      0.859     0.297     0.724     1.333
  89   7 N      2.636    -0.388    30.041     8.140
  90   6 C      3.786     0.024    20.180     6.399
  91   6 C      2.760     0.269    22.461     7.761
  92   8 O      0.858    -0.500    23.794     6.540
  93   6 C      3.678     0.081    19.440     6.316
  94   8 O      1.655    -0.488    22.635     6.423
  95   1 H      0.860     0.160     1.333     1.809
  96   1 H      0.924     0.059     2.211     2.326
  97   1 H      0.924     0.029     2.606     2.524
  98   1 H      0.924     0.011     2.869     2.649
  99   1 H      0.805     0.348     0.594     1.210
 100   7 N      2.693    -0.181    24.919     7.414
 101   6 C      3.799     0.023    20.193     6.398
 102   6 C      2.757     0.273    22.384     7.748
 103   8 O      0.858    -0.484    23.441     6.491
 104   6 C      3.813    -0.072    21.867     6.656
 105   6 C      2.970     0.001    27.994     8.679
 106   6 C      2.924    -0.041    29.026     8.835
 107   6 C      2.926    -0.039    28.960     8.825
 108   6 C      2.918    -0.075    29.864     8.962
 109   6 C      2.917    -0.059    29.478     8.903
 110   6 C      2.846     0.144    24.853     8.170
 111   8 O      1.659    -0.439    21.623     6.277
 112   1 H      0.860     0.228     0.975     1.546
 113   1 H      0.924     0.079     1.987     2.205
 114   1 H      0.925     0.063     2.168     2.303
 115   1 H      0.925     0.051     2.307     2.375
 116   1 H      0.926     0.048     2.345     2.395
 117   1 H      0.926     0.032     2.561     2.502
 118   1 H      0.926     0.048     2.345     2.395
 119   1 H      0.926     0.046     2.375     2.410
 120   1 H      0.805     0.351     0.585     1.202
 121   7 N      2.691    -0.169    24.650     7.374
 122   6 C      3.798     0.016    20.302     6.416
 123   6 C      2.759     0.270    22.438     7.757
 124   8 O      0.858    -0.487    23.497     6.499
 125   6 C      3.727     0.120    18.716     6.176
 126   8 O      1.656    -0.489    22.657     6.426
 127   6 C      3.752    -0.135    23.150     6.861
 128   1 H      0.860     0.223     0.997     1.564
 129   1 H      0.924     0.088     1.896     2.154
 130   1 H      0.923     0.033     2.550     2.497
 131   1 H      0.805     0.353     0.580     1.197
 132   1 H      0.925     0.077     2.010     2.217
 133   1 H      0.925     0.047     2.355     2.400
 134   1 H      0.925     0.044     2.393     2.419
 135   7 N      2.691    -0.164    24.550     7.359
 136   6 C      3.801     0.038    19.937     6.357
 137   6 C      2.751     0.283    22.209     7.717
 138   8 O      0.858    -0.504    23.884     6.552
 139   6 C      3.803    -0.104    22.487     6.751
 140   6 C      2.684     0.371    20.715     7.448
 141   8 O      0.856    -0.622    26.671     6.924
 142   8 O      0.856    -0.590    25.869     6.819
 143   1 H      0.860     0.213     1.040     1.598
 144   1 H      0.924     0.071     2.070     2.250
 145   1 H      0.925     0.045     2.383     2.414
 146   1 H      0.924     0.042     2.418     2.432
 147   7 N      2.692    -0.201    25.360     7.479
 148   6 C      3.794     0.035    19.999     6.368
 149   6 C      2.761     0.277    22.312     7.735
 150   8 O      0.858    -0.500    23.780     6.538
 151   6 C      3.819    -0.107    22.528     6.755
 152   6 C      2.742     0.293    22.025     7.684
 153   8 O      0.858    -0.488    23.517     6.502
 154   7 N      2.640    -0.284    27.335     7.765
 155   1 H      0.860     0.237     0.937     1.516
 156   1 H      0.923     0.074     2.046     2.237
 157   1 H      0.924     0.073     2.057     2.243
 158   1 H      0.924     0.088     1.898     2.155
 159   1 H      0.860     0.243     0.909     1.494
 160   1 H      0.860     0.220     1.008     1.573
 161   7 N      2.692    -0.185    25.015     7.428
 162   6 C      3.798     0.029    20.083     6.381
 163   6 C      2.756     0.271    22.418     7.753
 164   8 O      0.858    -0.488    23.518     6.502
 165   6 C      3.812    -0.104    22.468     6.747
 166   6 C      2.746     0.290    22.088     7.695
 167   8 O      0.859    -0.498    23.739     6.532
 168   7 N      2.639    -0.286    27.386     7.772
 169   1 H      0.860     0.223     0.994     1.562
 170   1 H      0.923     0.079     1.987     2.204
 171   1 H      0.924     0.078     1.997     2.210
 172   1 H      0.925     0.084     1.935     2.175
 173   1 H      0.860     0.240     0.924     1.506
 174   1 H      0.860     0.234     0.950     1.527
 175   7 N      2.686    -0.178    24.856     7.405
 176   6 C      3.747    -0.030    21.168     6.563
 177   6 C      2.761     0.277    22.314     7.736
 178   8 O      0.859    -0.498    23.747     6.534
 179   1 H      0.860     0.218     1.017     1.580
 180   1 H      0.924     0.091     1.872     2.140
 181   1 H      0.924     0.101     1.772     2.082
 182   7 N      2.690    -0.183    24.962     7.420
 183   6 C      3.807     0.028    20.099     6.382
 184   6 C      2.753     0.283    22.204     7.716
 185   8 O      0.858    -0.500    23.786     6.539
 186   6 C      3.806    -0.078    21.975     6.673
 187   6 C      3.804    -0.072    21.870     6.658
 188   6 C      3.804    -0.092    22.245     6.715
 189   6 C      3.732    -0.051    21.575     6.630
 190   7 N      3.483    -0.148    24.201     7.307
 191   1 H      0.860     0.210     1.058     1.611
 192   1 H      0.924     0.061     2.189     2.314
 193   1 H      0.924     0.058     2.224     2.332
 194   1 H      0.924     0.071     2.077     2.254
 195   1 H      0.924     0.042     2.424     2.435
 196   1 H      0.924     0.059     2.211     2.326
 197   1 H      0.925     0.080     1.980     2.201
 198   1 H      0.924     0.075     2.028     2.227
 199   1 H      0.924     0.115     1.652     2.010
 200   1 H      0.924     0.125     1.577     1.964
 201   1 H      0.859     0.309     0.686     1.297
 202   1 H      0.859     0.300     0.713     1.322
 203   1 H      0.859     0.298     0.720     1.329
 204   7 N      2.693    -0.166    24.594     7.365
 205   6 C      3.793     0.002    20.560     6.457
 206   6 C      2.761     0.263    22.566     7.779
 207   8 O      0.858    -0.482    23.393     6.485
 208   6 C      3.728     0.125    18.633     6.163
 209   8 O      1.655    -0.483    22.521     6.406
 210   6 C      3.753    -0.133    23.110     6.855
 211   1 H      0.860     0.219     1.016     1.579
 212   1 H      0.924     0.078     2.003     2.213
 213   1 H      0.922     0.008     2.922     2.673
 214   1 H      0.804     0.338     0.616     1.233
 215   1 H      0.925     0.066     2.126     2.280
 216   1 H      0.925     0.062     2.173     2.305
 217   1 H      0.925     0.059     2.213     2.327
 218   7 N      2.689    -0.164    24.544     7.358
 219   6 C      3.796     0.017    20.299     6.415
 220   6 C      2.765     0.194    23.855     7.999
 221   8 O      0.856    -0.364    20.966     6.139
 222   6 C      3.851    -0.020    20.901     6.503
 223   6 C      3.802    -0.060    21.650     6.625
 224   6 C      3.755    -0.128    23.009     6.840
 225   6 C      3.752    -0.112    22.711     6.796
 226   1 H      0.860     0.229     0.971     1.544
 227   1 H      0.924     0.099     1.797     2.096
 228   1 H      0.924     0.059     2.210     2.325
 229   1 H      0.924     0.037     2.485     2.465
 230   1 H      0.924     0.034     2.525     2.485
 231   1 H      0.925     0.077     2.013     2.219
 232   1 H      0.925     0.063     2.166     2.302
 233   1 H      0.925     0.046     2.375     2.410
 234   1 H      0.925     0.034     2.533     2.489
 235   1 H      0.925     0.046     2.374     2.410
 236   1 H      0.925     0.054     2.275     2.359
 237   1 H      0.862     0.185     1.185     1.705
 238   1 H      0.930     0.078     1.996     2.209
 239   1 H      0.862     0.185     1.183     1.704
 240   1 H      0.930     0.078     1.999     2.211
 241   1 H      0.862     0.173     1.253     1.753
 242   1 H      0.930     0.085     1.926     2.170
 243   1 H      0.862     0.192     1.148     1.678
 244   1 H      0.930     0.090     1.883     2.146

 Mol. C6AA /au·bohr⁶  :     557989.157581
 Mol. C8AA /au·bohr⁸  :   12441492.162059
 Mol. α(0) /au        :       1119.101940


Wiberg/Mayer (AO) data.
largest (>0.10) Wiberg bond orders for each atom
          total WBO             WBO to atom ...
     1  N   3.000        C    2 1.030    H    7 0.955    H  237 0.954
     2  C   3.987        N    1 1.030    C    5 0.958    H    8 0.946    C    3 0.944
     3  C   3.943        O    4 1.664    N   12 1.260    C    2 0.944
     4  O   1.988        C    3 1.664    N   12 0.191
     5  C   3.956        O    6 1.008    H   10 0.968    H    9 0.966    C    2 0.958
     6  O   1.951        C    5 1.008    H   11 0.881
     7  H   0.973        N    1 0.955
     8  H   0.996        C    2 0.946
     9  H   0.999        C    5 0.966
    10  H   0.996        C    5 0.968
    11  H   0.896        O    6 0.881
    12  N   3.437        C    3 1.260    C   13 0.980    H   21 0.926    O    4 0.191
    13  C   3.966        N   12 0.980    C   16 0.973    C   14 0.967    H   22 0.942
    14  C   3.902        O   15 1.907    C   13 0.967    H  238 0.952
    15  O   2.048        C   14 1.907
    16  C   3.988        C   17 0.988    C   13 0.973    H   23 0.971    H   24 0.971
    17  C   3.991        C   16 0.988    C   18 0.967    H   26 0.966    H   25 0.960
    18  C   3.940        O   19 1.613    N   20 1.325    C   17 0.967
    19  O   1.964        C   18 1.613    N   20 0.196
    20  N   3.414        C   18 1.325    H   28 0.929    H   27 0.908    O   19 0.196
    21  H   0.959        N   12 0.926
    22  H   0.991        C   13 0.942
    23  H   0.996        C   16 0.971
    24  H   0.994        C   16 0.971
    25  H   0.994        C   17 0.960
    26  H   0.994        C   17 0.966
    27  H   0.950        N   20 0.908
    28  H   0.954        N   20 0.929
    29  N   2.997        C   30 1.021    H   38 0.950    H  239 0.938
    30  C   3.985        N   29 1.021    C   31 0.988    H   39 0.952    C   33 0.945
    31  C   3.889        O   32 1.862    C   30 0.988    H  240 0.955
    32  O   2.041        C   31 1.862
    33  C   3.991        C   34 1.007    H   41 0.975    H   40 0.964    C   30 0.945
    34  C   3.995        C   33 1.007    C   35 0.969    H   42 0.960    H   43 0.939
    35  C   3.943        O   36 1.630    N   37 1.309    C   34 0.969
    36  O   1.956        C   35 1.630    N   37 0.195
    37  N   3.392        C   35 1.309    H   44 0.928    H   45 0.924    O   36 0.195
    38  H   0.972        N   29 0.950
    39  H   0.994        C   30 0.952
    40  H   0.997        C   33 0.964
    41  H   0.997        C   33 0.975
    42  H   0.993        C   34 0.960
    43  H   0.994        C   34 0.939
    44  H   0.946        N   37 0.928
    45  H   0.945        N   37 0.924
    46  N   3.005        C   47 1.025    H  241 0.957    H   58 0.953
    47  C   3.986        N   46 1.025    H   59 0.961    C   50 0.952    C   48 0.933
    48  C   3.946        O   49 1.650    N   67 1.287    C   47 0.933
    49  O   1.953        C   48 1.650    N   67 0.192
    50  C   3.995        C   51 1.011    H   60 0.968    H   61 0.965    C   47 0.952
    51  C   3.988        C   53 1.406    C   52 1.401    C   50 1.011
    52  C   3.989        C   54 1.460    C   51 1.401    H   62 0.967    C   55 0.104
    53  C   3.992        C   55 1.449    C   51 1.406    H   63 0.965    C   54 0.107
    54  C   3.987        C   52 1.460    C   56 1.362    H   64 0.967    C   53 0.107
    55  C   3.987        C   53 1.449    C   56 1.370    H   65 0.963    C   52 0.104
    56  C   3.942        C   55 1.370    C   54 1.362    O   57 1.080
    57  O   2.102        C   56 1.080    H   66 0.861
    58  H   0.973        N   46 0.953
    59  H   0.999        C   47 0.961
    60  H   0.997        C   50 0.968
    61  H   0.999        C   50 0.965
    62  H   0.998        C   52 0.967
    63  H   1.000        C   53 0.965
    64  H   0.996        C   54 0.967
    65  H   0.999        C   55 0.963
    66  H   0.882        O   57 0.861
    67  N   3.448        C   48 1.287    C   68 0.974    H   76 0.896    O   49 0.192
    68  C   3.960        N   67 0.974    C   69 0.973    C   71 0.961    H   77 0.948
    69  C   3.883        O   70 1.876    C   68 0.973    H  242 0.952
    70  O   2.059        C   69 1.876
    71  C   3.978        C   72 1.005    H   78 0.967    H   79 0.964    C   68 0.961
    72  C   3.989        C   71 1.005    C   73 1.004    H   80 0.974    H   81 0.973
    73  C   3.987        C   74 1.012    C   72 1.004    H   83 0.971    H   82 0.970
    74  C   3.913        C   73 1.012    H   84 0.963    H   85 0.963    N   75 0.958
    75  N   3.663        C   74 0.958    H   88 0.897    H   87 0.896    H   86 0.893
    76  H   0.951        N   67 0.896
    77  H   0.991        C   68 0.948
    78  H   0.994        C   71 0.967
    79  H   0.997        C   71 0.964
    80  H   0.997        C   72 0.974
    81  H   0.995        C   72 0.973
    82  H   0.993        C   73 0.970
    83  H   0.995        C   73 0.971
    84  H   0.985        C   74 0.963
    85  H   0.985        C   74 0.963
    86  H   0.906        N   75 0.893
    87  H   0.911        N   75 0.896
    88  H   0.912        N   75 0.897
    89  N   2.992        C   90 1.025    H   95 0.954    H  243 0.949
    90  C   3.986        N   89 1.025    C   93 0.964    H   96 0.954    C   91 0.940
    91  C   3.948        O   92 1.624    N  100 1.316    C   90 0.940
    92  O   1.941        C   91 1.624    N  100 0.198
    93  C   3.961        O   94 0.998    H   98 0.971    H   97 0.970    C   90 0.964
    94  O   1.920        C   93 0.998    H   99 0.866
    95  H   0.974        N   89 0.954
    96  H   0.996        C   90 0.954
    97  H   0.999        C   93 0.970
    98  H   1.000        C   93 0.971
    99  H   0.879        O   94 0.866
   100  N   3.477        C   91 1.316    C  101 0.983    H  112 0.882    O   92 0.198
   101  C   3.963        N  100 0.983    C  104 0.952    H  113 0.952    C  102 0.938
   102  C   3.946        O  103 1.599    N  121 1.322    C  101 0.938
   103  O   1.966        C  102 1.599    N  121 0.194
   104  C   3.988        C  105 1.009    H  114 0.965    H  115 0.961    C  101 0.952
   105  C   3.987        C  106 1.411    C  107 1.402    C  104 1.009
   106  C   3.989        C  108 1.449    C  105 1.411    H  116 0.965    C  109 0.107
   107  C   3.991        C  109 1.462    C  105 1.402    H  117 0.969    C  108 0.105
   108  C   3.986        C  106 1.449    C  110 1.374    H  118 0.965    C  107 0.105
   109  C   3.989        C  107 1.462    C  110 1.363    H  119 0.969    C  106 0.107
   110  C   3.939        C  108 1.374    C  109 1.363    O  111 1.072
   111  O   2.086        C  110 1.072    H  120 0.856
   112  H   0.948        N  100 0.882
   113  H   0.993        C  101 0.952
   114  H   0.996        C  104 0.965
   115  H   0.996        C  104 0.961
   116  H   0.998        C  106 0.965
   117  H   0.999        C  107 0.969
   118  H   0.997        C  108 0.965
   119  H   0.998        C  109 0.969
   120  H   0.877        O  111 0.856
   121  N   3.489        C  102 1.322    C  122 0.984    H  128 0.893    O  103 0.194
   122  C   3.962        N  121 0.984    C  125 0.953    H  129 0.943    C  123 0.936
   123  C   3.948        O  124 1.597    N  135 1.331    C  122 0.936
   124  O   1.951        C  123 1.597    N  135 0.199
   125  C   3.957        C  127 1.001    O  126 0.992    C  122 0.953    H  130 0.951
   126  O   1.934        C  125 0.992    H  131 0.858
   127  C   3.989        C  125 1.001    H  134 0.983    H  133 0.980    H  132 0.980
   128  H   0.950        N  121 0.893
   129  H   0.992        C  122 0.943
   130  H   0.999        C  125 0.951
   131  H   0.875        O  126 0.858
   132  H   0.993        C  127 0.980
   133  H   0.998        C  127 0.980
   134  H   0.998        C  127 0.983
   135  N   3.502        C  123 1.331    C  136 0.988    H  143 0.904    O  124 0.199
   136  C   3.966        N  135 0.988    C  139 0.976    H  144 0.940    C  137 0.937
   137  C   3.946        O  138 1.595    N  147 1.306    C  136 0.937
   138  O   1.942        C  137 1.595    N  147 0.183
   139  C   3.979        C  136 0.976    H  146 0.971    H  145 0.957    C  140 0.916
   140  C   3.939        O  142 1.540    O  141 1.451    C  139 0.916
   141  O   1.847        C  140 1.451    O  142 0.211
   142  O   1.850        C  140 1.540    O  141 0.211
   143  H   0.954        N  135 0.904
   144  H   0.995        C  136 0.940
   145  H   0.997        C  139 0.957
   146  H   0.998        C  139 0.971
   147  N   3.453        C  137 1.306    C  148 0.984    H  155 0.874    O  138 0.183
   148  C   3.968        N  147 0.984    C  151 0.978    H  156 0.946    C  149 0.940
   149  C   3.952        O  150 1.623    N  161 1.305    C  148 0.940
   150  O   1.937        C  149 1.623    N  161 0.195
   151  C   3.988        C  148 0.978    H  157 0.965    C  152 0.954    H  158 0.951
   152  C   3.951        O  153 1.653    N  154 1.315    C  151 0.954
   153  O   1.963        C  152 1.653    N  154 0.204
   154  N   3.399        C  152 1.315    H  160 0.933    H  159 0.900    O  153 0.204
   155  H   0.944        N  147 0.874
   156  H   0.994        C  148 0.946
   157  H   0.995        C  151 0.965
   158  H   0.992        C  151 0.951
   159  H   0.940        N  154 0.900
   160  H   0.951        N  154 0.933
   161  N   3.476        C  149 1.305    C  162 0.995    H  169 0.876    O  150 0.195
   162  C   3.969        N  161 0.995    C  165 0.962    H  170 0.944    C  163 0.927
   163  C   3.953        O  164 1.629    N  175 1.311    C  162 0.927
   164  O   1.948        C  163 1.629    N  175 0.199
   165  C   3.986        H  172 0.966    C  166 0.965    H  171 0.963    C  162 0.962
   166  C   3.949        O  167 1.641    N  168 1.316    C  165 0.965
   167  O   1.943        C  166 1.641    N  168 0.203
   168  N   3.400        C  166 1.316    H  174 0.927    H  173 0.921    O  167 0.203
   169  H   0.950        N  161 0.876
   170  H   0.993        C  162 0.944
   171  H   0.994        C  165 0.963
   172  H   0.992        C  165 0.966
   173  H   0.942        N  168 0.921
   174  H   0.945        N  168 0.927
   175  N   3.481        C  163 1.311    C  176 1.003    H  179 0.883    O  164 0.199
   176  C   3.963        N  175 1.003    H  180 0.954    C  177 0.953    H  181 0.943
   177  C   3.952        O  178 1.621    N  182 1.304    C  176 0.953
   178  O   1.935        C  177 1.621    N  182 0.190
   179  H   0.952        N  175 0.883
   180  H   0.991        C  176 0.954
   181  H   0.989        C  176 0.943
   182  N   3.456        C  177 1.304    C  183 0.977    H  191 0.894    O  178 0.190
   183  C   3.960        N  182 0.977    C  186 0.976    H  192 0.954    C  184 0.934
   184  C   3.943        O  185 1.615    N  204 1.304    C  183 0.934
   185  O   1.963        C  184 1.615    N  204 0.191
   186  C   3.980        C  187 1.005    C  183 0.976    H  193 0.971    H  194 0.960
   187  C   3.992        C  186 1.005    C  188 1.003    H  196 0.975    H  195 0.974
   188  C   3.986        C  189 1.011    C  187 1.003    H  198 0.971    H  197 0.971
   189  C   3.916        C  188 1.011    H  199 0.963    H  200 0.963    N  190 0.960
   190  N   3.663        C  189 0.960    H  203 0.896    H  202 0.895    H  201 0.892
   191  H   0.956        N  182 0.894
   192  H   0.996        C  183 0.954
   193  H   0.996        C  186 0.971
   194  H   0.995        C  186 0.960
   195  H   0.998        C  187 0.974
   196  H   0.996        C  187 0.975
   197  H   0.993        C  188 0.971
   198  H   0.994        C  188 0.971
   199  H   0.987        C  189 0.963
   200  H   0.984        C  189 0.963
   201  H   0.904        N  190 0.892
   202  H   0.910        N  190 0.895
   203  H   0.911        N  190 0.896
   204  N   3.475        C  184 1.304    C  205 0.982    H  211 0.914    O  185 0.191
   205  C   3.962        N  204 0.982    H  212 0.950    C  208 0.941    C  206 0.937
   206  C   3.957        O  207 1.603    N  218 1.332    C  205 0.937
   207  O   1.960        C  206 1.603    N  218 0.202
   208  C   3.960        O  209 1.004    C  210 1.004    H  213 0.958    C  205 0.941
   209  O   1.942        C  208 1.004    H  214 0.841
   210  C   3.988        C  208 1.004    H  215 0.982    H  217 0.981    H  216 0.976
   211  H   0.952        N  204 0.914
   212  H   0.994        C  205 0.950
   213  H   0.999        C  208 0.958
   214  H   0.885        O  209 0.841
   215  H   0.995        C  210 0.982
   216  H   0.996        C  210 0.976
   217  H   0.997        C  210 0.981
   218  N   3.498        C  206 1.332    C  219 0.979    H  226 0.883    O  207 0.202
   219  C   3.957        C  220 0.983    N  218 0.979    H  227 0.949    C  222 0.929
   220  C   3.890        O  221 1.866    C  219 0.983    H  244 0.953
   221  O   2.067        C  220 1.866
   222  C   3.980        C  224 1.003    C  223 0.998    H  228 0.962    C  219 0.929
   223  C   3.995        C  225 1.016    C  222 0.998    H  229 0.974    H  230 0.967
   224  C   3.990        C  222 1.003    H  233 0.985    H  232 0.982    H  231 0.977
   225  C   3.994        C  223 1.016    H  235 0.987    H  234 0.986    H  236 0.984
   226  H   0.948        N  218 0.883
   227  H   0.990        C  219 0.949
   228  H   0.996        C  222 0.962
   229  H   0.999        C  223 0.974
   230  H   0.999        C  223 0.967
   231  H   0.993        C  224 0.977
   232  H   0.996        C  224 0.982
   233  H   0.998        C  224 0.985
   234  H   0.999        C  225 0.986
   235  H   0.998        C  225 0.987
   236  H   0.997        C  225 0.984
   237  H   0.965        N    1 0.954
   238  H   0.994        C   14 0.952
   239  H   0.966        N   29 0.938
   240  H   0.994        C   31 0.955
   241  H   0.970        N   46 0.957
   242  H   0.993        C   69 0.952
   243  H   0.963        N   89 0.949
   244  H   0.991        C  220 0.953
 
molecular dipole:
                 x           y           z       tot (Debye)
 q only:      334.007     138.476     163.700
   full:      333.989     138.523     162.982    1008.106
molecular quadrupole (traceless):
                xx          xy          yy          xz          yz          zz
 q only:    88478.871   69272.064  -49678.050   81944.098   34313.527  -38800.821
  q+dip:    88594.073   69289.553  -49544.139   81600.195   34181.741  -39049.934
   full:    88597.932   69287.671  -49550.870   81598.861   34185.623  -39047.063


           -------------------------------------------------
          | TOTAL ENERGY             -391.759013670899 Eh   |
          | GRADIENT NORM               0.443842524134 Eh/α |
          | HOMO-LUMO GAP               1.586910675341 eV   |
           -------------------------------------------------

------------------------------------------------------------------------
 * finished run on 2019/05/31 at 05:35:14.820     
------------------------------------------------------------------------
 total:
 * wall-time:     0 d,  0 h,  0 min,  2.741 sec
 *  cpu-time:     0 d,  0 h,  0 min,  4.907 sec
 * ratio c/w:     1.790 speedup
 SCF:
 * wall-time:     0 d,  0 h,  0 min,  2.333 sec
 *  cpu-time:     0 d,  0 h,  0 min,  4.431 sec
 * ratio c/w:     1.900 speedup

