      -----------------------------------------------------------      
     |                   =====================                   |     
     |                           x T B                           |     
     |                   =====================                   |     
     |                         S. Grimme                         |     
     |          Mulliken Center for Theoretical Chemistry        |     
     |                    University of Bonn                     |     
     |                 Version 6.0.1 (SAW181210)                 |     
      -----------------------------------------------------------      

   This program is distributed in the hope that it will be useful,
   but WITHOUT ANY WARRANTY; without even the implied warranty of
   MERCHANTABILITY or FITNESS FOR A PARTICULAR PURPOSE.
   
   FOR NON-COMMERCIAL, ACADEMIA USE ONLY.
   
   Cite this work as:
   S. Grimme, C. Bannwarth, P. Shushkov, J. Comput. Theory Chem., 2017,
   13, 1989-2009.
   C. Bannwarth, S. Ehlert and S. Grimme., ChemRxiv, 2018, preprint.
   http://doi.org/10.26434/chemrxiv.7246238.v1
   
   for sTDA-xTB:
   S. Grimme and C. Bannwarth, J. Chem. Phys., 2016, 145, 054103.
   
   in the mass-spec context:
   V. Asgeirsson, C. Bauer and S. Grimme, Chem. Sci., 2017, 8, 4879.
   
   if GBSA is used:
   P. Shushkov, F. März and S. Grimme, unpublished.
   
   for ANC optimizer:
   S. Grimme, unpublished.
   Rational Function algorithm used in ANCopt:
   F. Eckert, P. Pulay, H.-J. Werner, J. Comput. Chem., 1997, 18, 1473.
   
   with help from (in alphabetical order)
   C. Bannwarth, F. Bohle, G. Brandenburg, E. Caldeweyher, M. Checinski,
   S. Dohm, S. Ehlert, S. Ehrlich, F. März, H. Neugebauer, J. Pisarek,
   P. Pracht, P. Shushkov, and S. Spicher.
   
 * started run on 2019/02/13 at 00:17:34.577     
========================================================================
 # omp threads = 16
========================================================================
number of atoms            : 579
number of electrons        : 1518
charge                     : 0
spin                       : .0
first test random number   : .8483

########################################################################
# WARNING! Please study the warnings concerning your input carefully
#  - Process number higher than OMP_NUM_THREADS, I hope you know what you are doing.
########################################################################

           ------------------------------------------------- 
          |                 G F N 2 - x T B                 |
          | Geometry, Frequencies, Noncovalent interactions |
          |            JCTC 2018 parametrisation            |
           ------------------------------------------------- 
 
      method parameters     
 k(s)        :  1.8500
 k(p)        :  2.2300
 k(d)        :  2.2300
 k(f)        :  2.0000
 kEN (H0ij)  : -2.0000
 D4 a1       :  0.5200
 D4 a2       :  5.0000
 D4 s6       :  1.0000
 D4 s8       :  2.7000
 D4 s9       :  5.0000
 alphaj      :  2.0000

 Solvent             : h2o
 Using internal parameter file: .param_gbsa2_h2o
 Gsolv ref. state (COSMO-RS): gsolv [1 M gas/solution]
 temperature (mdtemp)       :    298.150000000000     
 dielectric constant        :    80.2000000000000     
 rho                        :    1.00000000000000     
 mass                       :    18.0000000000000     
 surface tension            :    15.5689454083859     
 probe radius               :   0.975313790000000     
 vdW radii scaling          :    1.00000000000000     
 Gshift (Eh)                :   1.857443126794793E-003
 c1                         :    1.55243817000000     
 soset                      :   0.130326360000000     
 HB correction              :  T

            Z     q(EN)     CN     RAES       Cart. coordinates
     1  N   5.0   -0.21    3.21    1.96   279.70419   133.97661   210.58692
     2  C   4.0    0.03    4.31    4.21   280.97168   132.17684   208.95000
     3  C   4.0    0.08    3.23    3.04   279.83491   132.34534   206.29107
     4  O   6.0   -0.32    1.16    1.80   281.17414   132.55077   204.41334
     5  C   4.0   -0.03    4.32    4.24   280.80141   129.50656   210.08085
     6  C   4.0   -0.05    4.19    3.98   282.53259   129.37660   212.40355
     7  C   4.0   -0.08    4.13    3.86   281.49055   127.52243   208.10237
     8  C   4.0   -0.08    4.01    3.63   282.13318   127.02905   214.01759
     9  H   1.0    0.08    1.02    1.43   278.86144   133.33722   212.19151
    10  H   1.0    0.04    1.05    1.44   282.96566   132.73001   208.76103
    11  H   1.0    0.04    1.06    1.44   278.84116   129.21224   210.66910
    12  H   1.0    0.04    1.03    1.43   284.49716   129.44802   211.77798
    13  H   1.0    0.04    1.03    1.43   282.18660   131.03402   213.58182
    14  H   1.0    0.03    1.00    1.43   281.40348   125.64307   208.91841
    15  H   1.0    0.04    1.01    1.43   280.18278   127.60054   206.52133
    16  H   1.0    0.04    1.00    1.43   283.38583   127.84865   207.38475
    17  H   1.0    0.05    1.00    1.43   283.49047   127.01534   215.55838
    18  H   1.0    0.04    1.00    1.43   280.24103   127.03198   214.81791
    19  H   1.0    0.04    1.00    1.43   282.39186   125.30878   212.93033
    20  N   5.0   -0.21    3.21    1.96   282.74409   133.68490   199.28891
    21  C   4.0    0.03    4.22    4.05   282.39471   132.03926   197.12712
    22  C   4.0    0.07    3.19    3.03   281.17644   133.39388   194.87184
    23  O   6.0   -0.30    1.12    1.80   281.72011   132.79316   192.69644
    24  C   4.0   -0.04    4.35    4.29   280.82332   129.73380   197.88107
    25  C   4.0   -0.02    4.18    3.96   282.13458   128.04265   199.84153
    26  C   4.0   -0.08    4.10    3.81   280.30082   126.01197   200.76586
    27  C   4.0   -0.08    4.11    3.82   284.48798   126.79264   198.74232
    28  H   1.0    0.11    1.06    1.44   281.80254   133.26669   200.91057
    29  H   1.0    0.04    1.06    1.44   284.26057   131.43949   196.45268
    30  H   1.0    0.05    1.03    1.43   279.03276   130.42266   198.63519
    31  H   1.0    0.05    1.03    1.43   280.43226   128.63794   196.17911
    32  H   1.0    0.05    1.06    1.44   282.67755   129.20254   201.46304
    33  H   1.0    0.03    1.00    1.43   281.16503   124.89133   202.25421
    34  H   1.0    0.04    1.00    1.43   278.58817   126.86513   201.51264
    35  H   1.0    0.04    1.00    1.43   279.77375   124.75074   199.23087
    36  H   1.0    0.03    1.00    1.43   285.29866   125.49884   200.11423
    37  H   1.0    0.04    1.00    1.43   283.99649   125.74015   197.04903
    38  H   1.0    0.03    1.00    1.43   285.92294   128.17782   198.25930
    39  N   5.0   -0.20    3.21    1.96   286.15499   136.53863   191.79787
    40  C   4.0    0.03    4.31    4.21   287.54145   134.64325   190.38987
    41  C   4.0    0.08    3.23    3.04   286.30568   134.28943   187.79936
    42  O   6.0   -0.32    1.16    1.80   287.60126   134.23627   185.87297
    43  C   4.0   -0.02    4.25    4.10   287.79948   132.15932   191.86403
    44  C   4.0   -0.08    4.14    3.88   289.03819   130.15889   190.19800
    45  C   4.0   -0.08    4.11    3.83   289.39999   132.55959   194.23581
    46  H   1.0    0.09    1.02    1.43   285.63064   136.16753   193.60368
    47  H   1.0    0.04    1.06    1.44   289.44371   135.37185   189.97962
    48  H   1.0    0.06    1.06    1.44   285.89828   131.54280   192.38599
    49  H   1.0    0.03    1.00    1.43   289.26244   128.41347   191.25170
    50  H   1.0    0.04    1.01    1.43   287.90915   129.79406   188.52852
    51  H   1.0    0.04    1.00    1.43   290.89484   130.79608   189.59096
    52  H   1.0    0.03    1.00    1.43   289.59108   130.78815   195.25706
    53  H   1.0    0.03    1.00    1.43   291.28428   133.20253   193.72412
    54  H   1.0    0.04    1.00    1.43   288.56882   133.94880   195.49632
    55  N   5.0   -0.20    3.21    1.96   290.34713   134.61917   181.13532
    56  C   4.0    0.03    4.14    3.87   290.33433   132.56396   179.31496
    57  C   4.0    0.08    3.20    3.04   289.64405   133.60645   176.70747
    58  O   6.0   -0.28    1.11    1.80   290.99334   133.28225   174.84251
    59  C   4.0   -0.07    4.10    3.81   288.45770   130.54940   180.15203
    60  H   1.0    0.11    1.06    1.44   289.26967   134.42768   182.71455
    61  H   1.0    0.05    1.05    1.44   292.24557   131.77059   179.15341
    62  H   1.0    0.04    1.00    1.43   288.36250   129.06420   178.74006
    63  H   1.0    0.04    1.00    1.43   289.07336   129.74370   181.93653
    64  H   1.0    0.05    1.00    1.43   286.59959   131.39013   180.39323
    65  N   5.0   -0.21    3.20    1.96   305.36616   137.20252   185.32730
    66  C   4.0    0.03    4.25    4.10   305.85160   135.18642   187.09990
    67  C   4.0    0.08    3.24    3.04   306.29322   136.20188   189.75031
    68  O   6.0   -0.33    1.24    1.80   305.26637   135.19087   191.58735
    69  C   4.0   -0.04    4.29    4.19   308.15493   133.63794   186.29243
    70  C   4.0   -0.03    4.24    4.08   308.62430   131.43414   188.10268
    71  C   4.0    0.15    3.24    3.04   306.45228   129.56019   188.01848
    72  O   6.0   -0.33    1.29    1.80   305.25336   129.20060   186.06100
    73  N   5.0   -0.18    3.18    1.95   305.97181   128.28830   190.13561
    74  H   1.0    0.08    1.03    1.43   306.54575   137.36448   183.82898
    75  H   1.0    0.05    1.05    1.44   304.18220   133.95252   187.19612
    76  H   1.0    0.05    1.03    1.43   307.80160   132.91694   184.39233
    77  H   1.0    0.04    1.03    1.43   309.80417   134.87205   186.21466
    78  H   1.0    0.05    1.03    1.43   310.32997   130.42880   187.51336
    79  H   1.0    0.05    1.03    1.43   308.92796   132.09884   190.02670
    80  H   1.0    0.10    1.03    1.43   306.84101   128.71967   191.77455
    81  H   1.0    0.12    1.05    1.44   304.60681   126.92701   190.14632
    82  N   5.0   -0.20    3.24    1.96   300.03303   137.39864   192.54344
    83  C   4.0    0.02    4.40    4.38   298.80589   135.00679   193.11885
    84  C   4.0    0.15    3.48    3.11   299.81768   133.97504   195.62614
    85  O   6.0   -0.33    1.28    1.80   298.43805   133.15430   197.29042
    86  C   4.0   -0.02    4.34    4.27   299.23871   133.03221   191.02135
    87  C   4.0   -0.05    4.18    3.96   297.90086   133.83449   188.57735
    88  C   4.0   -0.07    4.15    3.90   298.33213   130.43563   191.90286
    89  C   4.0   -0.08    4.02    3.65   298.35364   132.00606   186.39439
    90  H   1.0    0.09    1.02    1.43   300.86605   137.62830   190.83347
    91  H   1.0    0.04    1.05    1.44   296.77203   135.33471   193.37499
    92  H   1.0    0.06    1.06    1.44   301.27628   132.94161   190.66920
    93  H   1.0    0.04    1.03    1.43   295.87384   133.97623   188.92518
    94  H   1.0    0.04    1.03    1.43   298.58988   135.69651   188.02052
    95  H   1.0    0.04    1.00    1.43   298.79644   129.01470   190.49956
    96  H   1.0    0.05    1.01    1.43   299.24494   129.89111   193.65875
    97  H   1.0    0.04    1.00    1.43   296.30058   130.45702   192.20395
    98  H   1.0    0.04    1.00    1.43   297.65554   132.81538   184.63944
    99  H   1.0    0.05    1.00    1.43   300.36214   131.62201   186.16611
   100  H   1.0    0.04    1.00    1.43   297.38936   130.22198   186.70251
   101  N   5.0   -0.14    3.51    2.09   302.33274   133.92989   195.76505
   102  C   4.0    0.04    4.37    4.33   303.65076   132.79745   197.87102
   103  C   4.0    0.09    3.26    3.05   302.89091   134.11934   200.31705
   104  O   6.0   -0.30    1.17    1.80   302.27302   132.93101   202.20597
   105  C   4.0    0.05    4.22    4.05   306.53483   132.89384   197.44087
   106  O   6.0   -0.26    2.13    1.84   307.17526   131.78338   195.09843
   107  C   4.0   -0.06    4.09    3.78   307.90844   131.44097   199.51273
   108  H   1.0    0.11    1.13    1.45   303.35164   134.70249   194.34754
   109  H   1.0    0.06    1.05    1.44   303.06656   130.81207   198.04999
   110  H   1.0    0.04    1.03    1.43   307.11128   134.89222   197.45347
   111  H   1.0    0.15    1.07    1.44   306.54960   132.86700   193.75476
   112  H   1.0    0.05    1.00    1.43   309.92773   131.77324   199.37249
   113  H   1.0    0.06    1.00    1.43   307.23047   132.01058   201.36296
   114  H   1.0    0.06    1.00    1.43   307.55696   129.43226   199.27454
   115  N   5.0   -0.19    3.25    1.97   297.74415   136.90619   201.48207
   116  C   4.0    0.03    4.32    4.23   295.17556   136.12393   202.03613
   117  C   4.0    0.15    3.43    3.09   295.20412   133.63341   203.51826
   118  O   6.0   -0.32    1.27    1.80   293.91531   133.32719   205.42129
   119  C   4.0   -0.05    4.27    4.14   293.66637   135.76276   199.59276
   120  C   4.0   -0.05    4.16    3.93   293.25706   138.20772   198.10488
   121  C   4.0   -0.01    4.19    3.97   291.32423   139.99045   199.34757
   122  N   5.0   -0.14    3.40    2.02   292.18111   142.58904   199.32770
   123  C   4.0    0.09    3.36    3.07   293.27908   143.81885   201.23937
   124  N   5.0   -0.19    3.24    1.96   293.19190   142.98458   203.61064
   125  N   5.0   -0.18    3.24    1.96   294.33928   146.03461   200.72092
   126  H   1.0    0.09    1.03    1.43   298.18440   137.34567   199.66827
   127  H   1.0    0.05    1.05    1.44   294.27902   137.52649   203.27381
   128  H   1.0    0.06    1.04    1.43   294.69137   134.41973   198.41532
   129  H   1.0    0.04    1.03    1.43   291.83876   134.94580   200.07759
   130  H   1.0    0.04    1.03    1.43   295.05240   139.19815   197.89788
   131  H   1.0    0.03    1.03    1.43   292.60526   137.70964   196.21588
   132  H   1.0    0.04    1.02    1.43   289.53359   139.90830   198.32910
   133  H   1.0    0.04    1.03    1.43   290.95900   139.40626   201.28420
   134  H   1.0    0.07    1.08    1.44   292.63227   143.31839   197.60481
   135  H   1.0    0.08    1.03    1.43   292.09030   141.52812   204.16548
   136  H   1.0    0.08    1.04    1.43   294.11315   143.98629   204.94127
   137  H   1.0    0.08    1.02    1.43   294.77422   146.33876   198.82853
   138  H   1.0    0.08    1.03    1.43   295.48456   146.78871   202.05289
   139  N   5.0   -0.14    3.52    2.09   296.62342   131.82940   202.47887
   140  C   4.0    0.04    4.42    4.42   296.75721   129.30649   203.53269
   141  C   4.0    0.17    3.48    3.11   297.66447   129.44284   206.27475
   142  O   6.0   -0.29    1.28    1.80   296.56177   128.44525   208.04800
   143  C   4.0   -0.04    4.36    4.32   298.55070   127.61844   202.02733
   144  C   4.0   -0.02    4.17    3.95   297.72255   127.12545   199.29345
   145  C   4.0   -0.06    4.11    3.81   299.78423   125.62212   197.94281
   146  C   4.0   -0.07    4.10    3.81   295.22135   125.69294   199.18429
   147  H   1.0    0.11    1.09    1.44   297.64104   132.24178   200.90774
   148  H   1.0    0.05    1.05    1.44   294.86287   128.46543   203.58933
   149  H   1.0    0.06    1.03    1.43   300.42527   128.48057   202.03270
   150  H   1.0    0.06    1.03    1.43   298.68503   125.81533   203.02630
   151  H   1.0    0.05    1.06    1.44   297.49630   128.93771   198.32276
   152  H   1.0    0.05    1.00    1.43   299.27848   125.27761   195.98263
   153  H   1.0    0.05    1.00    1.43   301.58448   126.61158   197.99894
   154  H   1.0    0.06    1.00    1.43   300.05277   123.78963   198.83890
   155  H   1.0    0.04    1.00    1.43   294.90656   124.96193   197.29183
   156  H   1.0    0.05    1.00    1.43   295.26239   124.09611   200.48240
   157  H   1.0    0.04    1.00    1.43   293.64371   126.90056   199.70123
   158  N   5.0   -0.13    3.52    2.09   299.74384   130.84549   206.57194
   159  C   4.0    0.05    4.35    4.29   300.92665   131.08840   209.02100
   160  C   4.0    0.10    3.27    3.05   298.96634   132.00042   210.94105
   161  O   6.0   -0.28    1.12    1.80   298.80714   131.08441   213.06965
   162  C   4.0   -0.03    4.31    4.22   303.10247   132.97725   208.87666
   163  C   4.0    0.16    3.22    3.04   305.31554   131.94704   207.33443
   164  O   6.0   -0.28    1.22    1.80   305.27015   129.93789   206.21778
   165  N   5.0   -0.18    3.18    1.95   307.32799   133.50051   207.28672
   166  H   1.0    0.12    1.11    1.44   300.73902   131.44836   205.04870
   167  H   1.0    0.07    1.05    1.44   301.61179   129.23173   209.66002
   168  H   1.0    0.05    1.03    1.43   302.40221   134.70865   207.99678
   169  H   1.0    0.05    1.03    1.43   303.74916   133.40668   210.78636
   170  H   1.0    0.10    1.03    1.43   308.91889   132.89192   206.43110
   171  H   1.0    0.08    1.03    1.43   307.40675   135.04780   208.39046
   172  N   5.0   -0.19    3.25    1.97   292.65431   131.85444   210.59284
   173  C   4.0    0.03    4.41    4.39   290.83342   129.87121   211.09129
   174  C   4.0    0.15    3.47    3.10   291.77085   128.25166   213.29035
   175  O   6.0   -0.32    1.28    1.80   290.38323   127.67734   215.06269
   176  C   4.0   -0.02    4.33    4.26   290.35258   128.25434   208.72469
   177  C   4.0   -0.05    4.18    3.97   288.85808   129.81439   206.79049
   178  C   4.0   -0.07    4.14    3.88   288.99856   125.80916   209.44938
   179  C   4.0   -0.08    4.01    3.64   288.46183   128.45513   204.28225
   180  H   1.0    0.12    1.05    1.44   293.28163   132.10431   208.79872
   181  H   1.0    0.04    1.05    1.44   289.04968   130.73314   211.73172
   182  H   1.0    0.07    1.06    1.44   292.19744   127.75975   207.92732
   183  H   1.0    0.04    1.03    1.43   287.02817   130.31449   207.60423
   184  H   1.0    0.06    1.03    1.43   289.88714   131.56665   206.44066
   185  H   1.0    0.04    1.00    1.43   288.56988   124.70030   207.77816
   186  H   1.0    0.06    1.01    1.43   290.20249   124.66163   210.66230
   187  H   1.0    0.04    1.00    1.43   287.25652   126.20680   210.46402
   188  H   1.0    0.04    1.00    1.43   287.63992   129.74518   202.91302
   189  H   1.0    0.04    1.00    1.43   290.25840   127.76994   203.55769
   190  H   1.0    0.03    1.00    1.43   287.20067   126.85028   204.49258
   191  N   5.0   -0.13    3.51    2.08   294.16632   127.49754   213.12223
   192  C   4.0    0.05    4.38    4.34   295.23918   125.77068   214.95252
   193  C   4.0    0.09    3.22    3.04   295.43705   126.97457   217.55429
   194  O   6.0   -0.28    1.13    1.80   294.88741   125.80213   219.48703
   195  C   4.0   -0.02    4.27    4.15   297.78686   124.84953   213.99035
   196  C   4.0    0.25    3.16    3.03   297.27799   123.26462   211.57381
   197  O   6.0   -0.33    1.32    1.80   295.38082   121.86504   211.65667
   198  O   6.0   -0.30    1.24    1.80   298.74540   123.49505   209.75323
   199  H   1.0    0.12    1.10    1.44   295.17906   127.87592   211.54371
   200  H   1.0    0.07    1.06    1.44   293.97805   124.12583   215.14686
   201  H   1.0    0.07    1.03    1.43   299.01716   126.43654   213.53548
   202  H   1.0    0.06    1.02    1.43   298.68898   123.64220   215.39654
   203  N   5.0   -0.19    3.21    1.96   289.17457   126.63331   220.21088
   204  C   4.0    0.04    4.18    3.96   288.62756   124.02863   220.82927
   205  C   4.0    0.10    3.21    3.04   289.41112   123.37218   223.53672
   206  O   6.0   -0.27    1.11    1.80   288.00399   122.28550   225.00434
   207  C   4.0    0.05    4.17    3.94   290.06683   122.27452   219.01018
   208  O   6.0   -0.24    2.06    1.83   289.74197   119.71413   219.60809
   209  H   1.0    0.12    1.07    1.44   289.83239   126.99842   218.44480
   210  H   1.0    0.05    1.05    1.44   286.59050   123.66164   220.65534
   211  H   1.0    0.06    1.01    1.43   289.43571   122.67338   217.07667
   212  H   1.0    0.07    1.02    1.43   292.09025   122.66686   219.14450
   213  H   1.0    0.14    1.05    1.44   288.06369   119.22792   219.05174
   214  N   5.0   -0.20    3.20    1.96   281.07797   110.00074   220.08078
   215  C   4.0    0.03    4.33    4.25   283.52481   111.07313   219.44478
   216  C   4.0    0.14    3.43    3.09   283.36036   112.26412   216.79886
   217  O   6.0   -0.32    1.28    1.80   283.16915   110.94445   214.89429
   218  C   4.0   -0.04    4.27    4.15   285.61871   109.08928   219.45767
   219  C   4.0   -0.04    4.25    4.11   288.16122   110.39163   218.98479
   220  C   4.0    0.15    3.22    3.04   290.38378   108.57054   218.96212
   221  O   6.0   -0.31    1.24    1.80   291.73512   108.30375   217.09300
   222  N   5.0   -0.18    3.19    1.95   290.78646   107.35343   221.12483
   223  H   1.0    0.09    1.02    1.43   280.78314   108.13074   219.79313
   224  H   1.0    0.04    1.06    1.44   283.92833   112.56645   220.81774
   225  H   1.0    0.04    1.03    1.43   285.62365   108.12068   221.27302
   226  H   1.0    0.06    1.03    1.43   285.22552   107.70129   217.98145
   227  H   1.0    0.06    1.03    1.43   288.08829   111.36020   217.16749
   228  H   1.0    0.04    1.03    1.43   288.47071   111.77557   220.48179
   229  H   1.0    0.08    1.03    1.43   289.85132   107.88059   222.70539
   230  H   1.0    0.10    1.03    1.43   292.26510   106.16151   221.25817
   231  N   5.0   -0.15    3.46    2.05   283.48021   114.77264   216.75583
   232  C   4.0    0.03    4.51    4.55   283.37392   116.24555   214.44358
   233  C   4.0    0.14    3.45    3.09   285.83485   117.74483   214.26660
   234  O   6.0   -0.32    1.28    1.80   286.28977   119.49332   215.70746
   235  C   4.0   -0.02    4.33    4.26   281.11211   118.07125   214.41075
   236  C   4.0   -0.05    4.18    3.96   278.61061   116.65721   214.78031
   237  C   4.0   -0.08    4.13    3.86   281.14728   119.59505   211.95788
   238  C   4.0   -0.07    4.02    3.66   278.10975   114.59231   212.83097
   239  H   1.0    0.08    1.06    1.44   283.62652   115.72778   218.41787
   240  H   1.0    0.05    1.07    1.44   283.22548   114.93728   212.85860
   241  H   1.0    0.05    1.06    1.44   281.35238   119.37638   215.99966
   242  H   1.0    0.05    1.03    1.43   278.58791   115.81945   216.66812
   243  H   1.0    0.04    1.03    1.43   277.07984   118.03541   214.69083
   244  H   1.0    0.03    1.00    1.43   279.48827   120.80136   211.86667
   245  H   1.0    0.04    1.00    1.43   282.82681   120.77485   211.87646
   246  H   1.0    0.04    1.00    1.43   281.15891   118.34875   210.32661
   247  H   1.0    0.05    1.00    1.43   276.22076   113.83576   213.09049
   248  H   1.0    0.04    1.00    1.43   278.24228   115.31718   210.91590
   249  H   1.0    0.06    1.00    1.43   279.42955   113.03118   213.02808
   250  N   5.0   -0.14    3.49    2.07   287.44842   116.99581   212.47275
   251  C   4.0    0.04    4.44    4.45   289.77128   118.34828   211.97218
   252  C   4.0    0.15    3.51    3.12   290.53202   117.83099   209.24009
   253  O   6.0   -0.31    1.35    1.80   289.30923   116.39019   207.89131
   254  C   4.0   -0.02    4.31    4.22   291.85823   117.63163   213.86375
   255  C   4.0    0.16    3.26    3.05   292.44687   114.84432   213.67816
   256  O   6.0   -0.31    1.31    1.80   292.90066   113.81700   211.63784
   257  N   5.0   -0.18    3.20    1.95   292.43598   113.58004   215.85067
   258  H   1.0    0.11    1.09    1.44   287.05302   115.54346   211.27699
   259  H   1.0    0.05    1.06    1.44   289.41216   120.38169   212.16972
   260  H   1.0    0.07    1.04    1.43   293.54673   118.72957   213.41737
   261  H   1.0    0.06    1.03    1.43   291.24188   118.13280   215.76427
   262  H   1.0    0.12    1.05    1.44   292.64317   111.66560   215.89430
   263  H   1.0    0.09    1.03    1.43   292.09376   114.49824   217.48177
   264  N   5.0   -0.15    3.49    2.07   292.53875   119.10402   208.40990
   265  C   4.0    0.04    4.42    4.41   293.25878   118.89891   205.79216
   266  C   4.0    0.16    3.49    3.11   293.31048   116.15689   204.89260
   267  O   6.0   -0.32    1.27    1.80   292.61981   115.59757   202.75083
   268  C   4.0    0.04    4.16    3.93   295.90327   120.02651   205.32560
   269  O   6.0   -0.25    2.04    1.83   295.94809   122.65366   205.56139
   270  H   1.0    0.12    1.13    1.45   293.59557   120.28136   209.55546
   271  H   1.0    0.05    1.05    1.44   291.90168   119.92686   204.59958
   272  H   1.0    0.05    1.01    1.43   297.25315   119.12162   206.60955
   273  H   1.0    0.05    1.02    1.43   296.42401   119.54801   203.37603
   274  H   1.0    0.17    1.09    1.44   296.87224   123.10546   207.11787
   275  N   5.0   -0.14    3.51    2.09   294.40070   114.54672   206.50249
   276  C   4.0    0.04    4.40    4.38   294.79420   111.89483   205.93139
   277  C   4.0    0.16    3.50    3.12   292.29164   110.45892   205.71414
   278  O   6.0   -0.27    1.26    1.80   291.82819   109.19090   203.83294
   279  C   4.0   -0.05    4.27    4.14   296.54630   110.76909   207.94389
   280  C   4.0   -0.03    4.23    4.06   296.54435   107.87038   207.98585
   281  C   4.0    0.16    3.23    3.04   294.50686   106.77490   209.70566
   282  O   6.0   -0.28    1.20    1.80   292.84620   105.36228   208.94669
   283  N   5.0   -0.18    3.20    1.96   294.77013   107.40070   212.14840
   284  H   1.0    0.11    1.11    1.44   294.39400   114.99603   208.36775
   285  H   1.0    0.07    1.06    1.44   295.65318   111.76687   204.04449
   286  H   1.0    0.04    1.03    1.43   298.45331   111.45854   207.56738
   287  H   1.0    0.06    1.04    1.43   295.93793   111.50467   209.77138
   288  H   1.0    0.07    1.03    1.43   296.25660   107.13828   206.08045
   289  H   1.0    0.05    1.03    1.43   298.36547   107.19568   208.67658
   290  H   1.0    0.09    1.03    1.43   296.11802   108.62045   212.69621
   291  H   1.0    0.11    1.03    1.43   293.44434   106.91479   213.43249
   292  N   5.0   -0.13    3.50    2.08   290.67949   110.68071   207.64502
   293  C   4.0    0.05    4.51    4.55   288.36549   109.23666   207.50232
   294  C   4.0    0.17    3.48    3.11   286.78803   110.03304   205.20930
   295  O   6.0   -0.26    1.23    1.80   285.61218   108.46944   203.97377
   296  C   4.0    0.06    4.23    4.07   286.75570   109.28131   209.90637
   297  O   6.0   -0.25    2.13    1.84   285.96398   111.76456   210.49552
   298  C   4.0   -0.05    4.08    3.76   288.16242   108.11158   212.13225
   299  H   1.0    0.12    1.08    1.44   291.05995   111.80545   209.14576
   300  H   1.0    0.08    1.06    1.44   288.89049   107.25637   207.15131
   301  H   1.0    0.06    1.04    1.43   285.08042   108.12433   209.46025
   302  H   1.0    0.14    1.07    1.44   284.84637   111.56148   211.96554
   303  H   1.0    0.06    1.00    1.43   286.86298   107.88148   213.70429
   304  H   1.0    0.06    1.00    1.43   288.93262   106.28801   211.59786
   305  H   1.0    0.07    1.00    1.43   289.69837   109.34990   212.70022
   306  N   5.0   -0.13    3.52    2.09   286.78033   112.50234   204.70306
   307  C   4.0    0.04    4.44    4.44   285.41375   113.47795   202.54022
   308  C   4.0    0.16    3.44    3.09   286.49166   112.35174   200.10444
   309  O   6.0   -0.29    1.23    1.80   285.13346   111.55065   198.41136
   310  C   4.0   -0.05    4.36    4.31   285.59635   116.35636   202.43247
   311  C   4.0   -0.02    4.18    3.96   284.18959   117.69745   204.58392
   312  C   4.0   -0.08    4.10    3.81   284.92481   120.49050   204.60765
   313  C   4.0   -0.07    4.10    3.81   281.33170   117.42267   204.33406
   314  H   1.0    0.11    1.10    1.44   287.71679   113.72551   205.83354
   315  H   1.0    0.08    1.06    1.44   283.44180   112.84693   202.67031
   316  H   1.0    0.05    1.03    1.43   287.59926   116.86116   202.51042
   317  H   1.0    0.04    1.03    1.43   284.84124   116.98068   200.61739
   318  H   1.0    0.06    1.06    1.44   284.79392   116.84622   206.36960
   319  H   1.0    0.03    1.00    1.43   283.92150   121.48148   206.10093
   320  H   1.0    0.04    1.00    1.43   286.94569   120.69384   204.93862
   321  H   1.0    0.03    1.00    1.43   284.46130   121.35904   202.80376
   322  H   1.0    0.04    1.00    1.43   280.39667   118.38870   205.88498
   323  H   1.0    0.05    1.00    1.43   280.67877   118.24471   202.56864
   324  H   1.0    0.06    1.01    1.43   280.76930   115.44954   204.37355
   325  N   5.0   -0.13    3.43    2.04   289.01451   112.48455   199.93403
   326  C   4.0    0.03    4.24    4.08   290.45442   111.38371   197.90271
   327  C   4.0    0.16    3.31    3.06   291.70506   113.31994   196.16780
   328  O   6.0   -0.29    1.22    1.80   292.19055   112.82480   193.96239
   329  H   1.0    0.11    1.09    1.44   290.00955   113.01868   201.47424
   330  H   1.0    0.08    1.02    1.43   291.95358   110.19446   198.69235
   331  H   1.0    0.07    1.03    1.43   289.19087   110.21134   196.76461
   332  N   5.0   -0.14    3.52    2.09   292.18813   115.57456   197.21172
   333  C   4.0    0.03    4.43    4.42   293.24286   117.64345   195.78579
   334  C   4.0    0.14    3.44    3.09   295.84319   118.49981   196.68879
   335  O   6.0   -0.32    1.28    1.80   296.94317   120.24485   195.64032
   336  C   4.0   -0.05    4.37    4.32   291.46871   119.93356   195.77157
   337  C   4.0   -0.02    4.18    3.97   288.87435   119.39794   194.60358
   338  C   4.0   -0.09    4.11    3.82   287.22637   121.74038   194.93679
   339  C   4.0   -0.07    4.10    3.81   289.06863   118.68698   191.81550
   340  H   1.0    0.10    1.10    1.44   291.87416   115.81978   199.07804
   341  H   1.0    0.06    1.07    1.44   293.49765   116.93361   193.85481
   342  H   1.0    0.04    1.03    1.43   291.22828   120.55509   197.72609
   343  H   1.0    0.04    1.03    1.43   292.41575   121.44109   194.73201
   344  H   1.0    0.05    1.05    1.44   288.01453   117.81573   195.62953
   345  H   1.0    0.04    1.00    1.43   285.34711   121.40108   194.18808
   346  H   1.0    0.03    1.00    1.43   287.05497   122.20392   196.92846
   347  H   1.0    0.03    1.00    1.43   288.06733   123.33763   193.95843
   348  H   1.0    0.05    1.00    1.43   287.18602   118.41643   191.04040
   349  H   1.0    0.03    1.00    1.43   290.02088   120.17380   190.76709
   350  H   1.0    0.05    1.00    1.43   290.10087   116.92558   191.58995
   351  N   5.0   -0.14    3.56    2.12   296.80757   117.22729   198.64757
   352  C   4.0    0.04    4.43    4.43   299.33212   117.64247   199.59847
   353  C   4.0    0.16    3.47    3.10   301.36370   117.72964   197.54204
   354  O   6.0   -0.29    1.23    1.80   303.35804   118.82615   197.90992
   355  C   4.0   -0.03    4.28    4.17   300.01346   115.50194   201.42835
   356  C   4.0    0.25    3.19    3.03   299.50850   112.96353   200.02105
   357  O   6.0   -0.29    1.22    1.80   297.26462   112.24882   199.94049
   358  O   6.0   -0.31    1.23    1.80   301.35298   111.92847   198.99099
   359  H   1.0    0.11    1.13    1.45   295.95712   115.61179   199.25668
   360  H   1.0    0.05    1.05    1.44   299.43304   119.47430   200.58158
   361  H   1.0    0.06    1.02    1.43   301.99675   115.64570   201.96328
   362  H   1.0    0.05    1.02    1.43   298.81199   115.60390   203.10158
   363  N   5.0   -0.13    3.58    2.14   300.78400   116.56362   195.36531
   364  C   4.0    0.04    4.45    4.46   302.66135   116.11259   193.43935
   365  C   4.0    0.15    3.39    3.08   301.92723   117.32980   190.91601
   366  O   6.0   -0.30    1.23    1.80   302.92201   116.71709   188.92101
   367  C   4.0    0.06    4.21    4.03   303.26260   113.24635   193.10237
   368  O   6.0   -0.23    2.12    1.84   301.17032   111.74090   193.76239
   369  C   4.0   -0.06    4.06    3.73   305.61055   112.49671   194.59445
   370  H   1.0    0.10    1.09    1.44   299.21855   115.46492   195.35742
   371  H   1.0    0.06    1.07    1.44   304.38575   117.07166   194.08074
   372  H   1.0    0.06    1.05    1.44   303.57462   112.92279   191.07588
   373  H   1.0    0.16    1.07    1.44   301.15824   111.57273   195.60935
   374  H   1.0    0.05    1.00    1.43   306.01333   110.50372   194.30142
   375  H   1.0    0.05    1.00    1.43   307.25156   113.59286   194.03395
   376  H   1.0    0.06    1.00    1.43   305.26007   112.78773   196.60033
   377  N   5.0   -0.13    3.51    2.08   300.17148   119.13175   191.08574
   378  C   4.0    0.04    4.41    4.40   299.36343   120.65299   188.94430
   379  C   4.0    0.15    3.44    3.09   301.53558   122.41118   188.16161
   380  O   6.0   -0.31    1.26    1.80   302.46740   123.92995   189.64187
   381  C   4.0   -0.04    4.36    4.32   297.03266   122.16014   189.74379
   382  C   4.0   -0.03    4.19    3.98   296.10946   124.07212   187.77752
   383  C   4.0   -0.08    4.11    3.82   295.34820   122.80772   185.30259
   384  C   4.0   -0.09    4.11    3.82   293.86406   125.52532   188.86256
   385  H   1.0    0.11    1.11    1.45   299.48750   119.63289   192.80336
   386  H   1.0    0.05    1.06    1.44   298.95597   119.37279   187.37688
   387  H   1.0    0.04    1.03    1.43   295.52540   120.82700   190.19827
   388  H   1.0    0.06    1.03    1.43   297.51415   123.15819   191.48556
   389  H   1.0    0.04    1.05    1.44   297.65633   125.39506   187.39861
   390  H   1.0    0.03    1.00    1.43   294.59807   124.22333   184.01862
   391  H   1.0    0.05    1.00    1.43   296.96446   121.91301   184.41050
   392  H   1.0    0.04    1.00    1.43   293.89664   121.39838   185.65919
   393  H   1.0    0.03    1.00    1.43   293.26936   127.00088   187.56536
   394  H   1.0    0.03    1.00    1.43   292.28242   124.25057   189.17081
   395  H   1.0    0.03    1.00    1.43   294.36040   126.38197   190.66099
   396  N   5.0   -0.14    3.46    2.05   302.26657   122.19207   185.74748
   397  C   4.0    0.04    4.45    4.46   304.43672   123.53487   184.78782
   398  C   4.0    0.16    3.45    3.09   304.12267   124.17282   181.98894
   399  O   6.0   -0.30    1.27    1.80   303.36235   122.60374   180.46471
   400  C   4.0   -0.02    4.32    4.24   306.83991   121.90889   185.09117
   401  C   4.0    0.16    3.26    3.05   309.10064   123.48125   184.32652
   402  O   6.0   -0.28    1.21    1.80   309.78416   123.62422   182.11518
   403  N   5.0   -0.18    3.18    1.95   310.20432   124.76383   186.19394
   404  H   1.0    0.11    1.11    1.45   301.65593   120.70205   184.69534
   405  H   1.0    0.07    1.08    1.44   304.62681   125.28109   185.87324
   406  H   1.0    0.06    1.03    1.43   306.97820   121.30253   187.05109
   407  H   1.0    0.07    1.03    1.43   306.71080   120.25146   183.86810
   408  H   1.0    0.10    1.02    1.43   311.66257   125.97314   185.84599
   409  H   1.0    0.09    1.03    1.43   309.56717   124.63033   187.97822
   410  N   5.0   -0.14    3.46    2.05   304.82911   126.51882   181.35994
   411  C   4.0    0.04    4.40    4.37   304.48042   127.48978   178.83058
   412  C   4.0    0.09    3.20    3.04   306.91482   128.54146   177.67206
   413  O   6.0   -0.28    1.13    1.80   306.87614   130.21316   176.07427
   414  C   4.0   -0.01    4.27    4.14   302.32545   129.44649   178.69117
   415  C   4.0   -0.07    4.11    3.82   299.82057   128.23984   179.45588
   416  C   4.0   -0.07    4.11    3.83   302.88545   131.77236   180.30657
   417  H   1.0    0.10    1.10    1.44   305.19825   127.78094   182.75527
   418  H   1.0    0.07    1.07    1.44   303.93789   125.85927   177.66387
   419  H   1.0    0.06    1.06    1.44   302.21621   130.02527   176.70842
   420  H   1.0    0.04    1.00    1.43   298.26840   129.47779   178.93877
   421  H   1.0    0.05    1.00    1.43   299.56303   126.44717   178.48642
   422  H   1.0    0.04    1.00    1.43   299.77539   127.90721   181.48299
   423  H   1.0    0.04    1.00    1.43   301.34022   133.11249   180.13694
   424  H   1.0    0.05    1.00    1.43   303.08905   131.26389   182.28590
   425  H   1.0    0.06    1.00    1.43   304.60665   132.69804   179.67210
   426  N   5.0   -0.18    3.22    1.96   308.96589   109.52350   207.05056
   427  C   4.0    0.03    4.14    3.88   309.09501   109.18771   204.33739
   428  C   4.0    0.09    3.20    3.04   311.68641   110.05147   203.35573
   429  O   6.0   -0.27    1.13    1.80   312.90790   111.69580   204.41175
   430  C   4.0   -0.06    4.10    3.81   307.05020   110.74121   203.02825
   431  H   1.0    0.10    1.03    1.43   308.70816   111.30513   207.67665
   432  H   1.0    0.04    1.05    1.44   308.85132   107.16851   203.96628
   433  H   1.0    0.05    1.00    1.43   307.18065   110.53550   200.98898
   434  H   1.0    0.05    1.00    1.43   305.17785   110.13824   203.61843
   435  H   1.0    0.06    1.00    1.43   307.28521   112.73242   203.47708
   436  N   5.0   -0.18    3.22    1.96   302.36484   117.44199   178.82268
   437  C   4.0    0.03    4.26    4.11   300.17528   115.91095   179.42470
   438  C   4.0    0.07    3.22    3.04   298.34906   115.78504   177.17632
   439  O   6.0   -0.29    1.13    1.80   297.51778   117.69068   176.17865
   440  C   4.0    0.06    4.25    4.10   298.72565   117.09924   181.66115
   441  O   6.0   -0.27    2.19    1.86   300.36812   117.73538   183.65165
   442  C   4.0   -0.08    4.07    3.75   296.59539   115.37509   182.55948
   443  H   1.0    0.12    1.05    1.44   302.43012   119.25484   179.45203
   444  H   1.0    0.04    1.04    1.44   300.85647   114.01074   179.89269
   445  H   1.0    0.05    1.04    1.44   297.97055   118.91178   181.00119
   446  H   1.0    0.13    1.02    1.43   301.15214   116.25157   184.37773
   447  H   1.0    0.04    1.00    1.43   295.63691   116.26745   184.14211
   448  H   1.0    0.04    1.00    1.43   295.25274   115.06162   181.03964
   449  H   1.0    0.04    1.00    1.43   297.39292   113.58668   183.18288
   450  N   5.0   -0.16    3.43    2.03   289.81534   118.40022   177.68540
   451  C   4.0    0.02    4.37    4.33   289.63164   119.66145   180.12459
   452  C   4.0    0.07    3.19    3.03   286.88244   120.22855   180.79141
   453  O   6.0   -0.33    1.17    1.80   286.01154   119.73879   182.87395
   454  C   4.0   -0.05    4.32    4.24   291.23149   122.06413   179.83498
   455  C   4.0   -0.04    4.25    4.10   291.44943   122.44879   176.98134
   456  C   4.0   -0.00    4.29    4.18   291.48305   119.74711   175.96689
   457  H   1.0    0.04    1.05    1.44   290.35686   118.42380   181.61652
   458  H   1.0    0.03    1.02    1.43   290.38463   123.67464   180.79161
   459  H   1.0    0.04    1.03    1.43   293.09946   121.72821   180.62389
   460  H   1.0    0.04    1.02    1.43   289.84176   123.50166   176.23685
   461  H   1.0    0.04    1.02    1.43   293.15844   123.46523   176.46995
   462  H   1.0    0.05    1.02    1.43   290.81433   119.62304   174.02396
   463  H   1.0    0.06    1.03    1.43   293.40238   118.97758   176.06536
   464  N   5.0   -0.20    3.27    1.97   282.72034   115.29112   183.79100
   465  C   4.0    0.03    4.33    4.26   283.57714   114.68147   186.32051
   466  C   4.0    0.15    3.41    3.08   282.74624   116.71105   188.20979
   467  O   6.0   -0.31    1.27    1.80   281.95371   116.13931   190.31522
   468  C   4.0   -0.05    4.26    4.13   286.44006   114.31043   186.26227
   469  C   4.0   -0.05    4.21    4.02   287.08871   111.91856   184.77165
   470  C   4.0   -0.05    4.17    3.94   289.85880   111.84595   183.96589
   471  C   4.0   -0.04    4.13    3.87   290.43052   109.34967   182.64687
   472  N   5.0   -0.12    4.01    2.89   292.98057   109.44036   181.47238
   473  H   1.0    0.10    1.03    1.43   284.03645   115.85203   182.51893
   474  H   1.0    0.05    1.05    1.44   282.64049   112.92975   186.91896
   475  H   1.0    0.05    1.03    1.43   287.27732   115.96963   185.36967
   476  H   1.0    0.05    1.03    1.43   287.14588   114.17152   188.19111
   477  H   1.0    0.04    1.03    1.43   286.64385   110.26642   185.91950
   478  H   1.0    0.04    1.04    1.43   285.92232   111.85236   183.07494
   479  H   1.0    0.04    1.03    1.43   290.19663   113.39529   182.64898
   480  H   1.0    0.04    1.02    1.43   291.06878   112.08387   185.61464
   481  H   1.0    0.04    1.02    1.43   290.35193   107.78590   183.98620
   482  H   1.0    0.04    1.02    1.43   289.04142   109.02613   181.16072
   483  H   1.0    0.06    1.02    1.43   293.40478   107.77119   180.57993
   484  H   1.0    0.05    1.01    1.43   293.02946   110.90216   180.13179
   485  H   1.0    0.05    1.02    1.43   294.32709   109.79169   182.82668
   486  N   5.0   -0.15    3.49    2.07   282.98163   119.08909   187.42339
   487  C   4.0    0.03    4.41    4.40   282.09023   121.18907   188.93764
   488  C   4.0    0.09    3.26    3.05   279.24996   120.90860   189.41869
   489  O   6.0   -0.30    1.12    1.80   278.34381   121.17949   191.53807
   490  C   4.0   -0.03    4.33    4.25   282.74847   123.71074   187.65767
   491  C   4.0   -0.05    4.19    3.99   285.63098   124.01935   187.50682
   492  C   4.0   -0.07    4.13    3.86   281.55226   125.89959   189.10857
   493  C   4.0   -0.08    4.01    3.64   286.44437   125.82640   185.41738
   494  H   1.0    0.10    1.10    1.44   283.62972   119.46163   185.65858
   495  H   1.0    0.05    1.05    1.44   282.99928   121.09749   190.80169
   496  H   1.0    0.05    1.06    1.44   281.96326   123.64230   185.74547
   497  H   1.0    0.03    1.03    1.43   286.32226   124.70143   189.32385
   498  H   1.0    0.05    1.04    1.43   286.50001   122.19023   187.13216
   499  H   1.0    0.05    1.00    1.43   282.16476   127.69683   188.33176
   500  H   1.0    0.05    1.00    1.43   279.50263   125.80148   189.01312
   501  H   1.0    0.04    1.00    1.43   282.10920   125.82777   191.08494
   502  H   1.0    0.03    1.00    1.43   288.47964   126.09707   185.47457
   503  H   1.0    0.05    1.00    1.43   285.95218   125.05155   183.57978
   504  H   1.0    0.04    1.00    1.43   285.54105   127.66248   185.60052
   505  N   5.0   -0.19    3.21    1.96   278.24489   116.01789   194.35769
   506  C   4.0    0.04    4.14    3.88   278.96884   116.99077   196.81872
   507  C   4.0    0.08    3.20    3.04   276.81325   118.52978   197.97753
   508  O   6.0   -0.32    1.15    1.80   276.09147   118.19937   200.15591
   509  C   4.0   -0.07    4.11    3.83   281.30481   118.64241   196.51041
   510  H   1.0    0.12    1.06    1.44   279.45276   116.35074   192.89835
   511  H   1.0    0.05    1.05    1.44   279.34045   115.40884   198.11068
   512  H   1.0    0.04    1.00    1.43   281.82494   119.47807   198.31106
   513  H   1.0    0.05    1.00    1.43   282.85590   117.49318   195.80985
   514  H   1.0    0.06    1.01    1.43   280.89515   120.14148   195.16669
   515  N   5.0   -0.20    3.22    1.96   271.19949   114.72785   199.97952
   516  C   4.0    0.03    4.30    4.20   271.72183   113.63547   202.44231
   517  C   4.0    0.15    3.44    3.09   270.91487   115.50532   204.50921
   518  O   6.0   -0.27    1.25    1.80   269.32176   114.99121   206.10970
   519  C   4.0   -0.03    4.32    4.24   274.53158   113.04809   202.73833
   520  C   4.0   -0.03    4.21    4.02   275.50190   110.96145   200.98717
   521  C   4.0    0.16    3.23    3.04   278.38110   110.94497   201.08272
   522  O   6.0   -0.30    1.24    1.80   279.55931   111.48269   202.99209
   523  N   5.0   -0.18    3.18    1.95   279.53445   110.38214   198.89797
   524  H   1.0    0.09    1.02    1.43   272.61344   114.74895   198.68407
   525  H   1.0    0.05    1.05    1.44   270.57211   111.92397   202.69086
   526  H   1.0    0.07    1.05    1.44   275.59776   114.76620   202.34362
   527  H   1.0    0.06    1.03    1.43   274.89381   112.51250   204.69510
   528  H   1.0    0.05    1.02    1.43   274.79724   109.12123   201.59737
   529  H   1.0    0.04    1.03    1.43   274.88344   111.29910   199.05381
   530  H   1.0    0.09    1.03    1.43   278.53456   109.91551   197.35387
   531  H   1.0    0.13    1.04    1.43   281.45026   110.39349   198.80014
   532  N   5.0   -0.15    3.49    2.07   272.16931   117.69343   204.49065
   533  C   4.0    0.04    4.41    4.39   271.65638   119.62022   206.36836
   534  C   4.0    0.10    3.32    3.06   268.81137   119.97093   206.70565
   535  O   6.0   -0.27    1.11    1.80   267.77831   119.93317   208.79254
   536  C   4.0   -0.03    4.26    4.13   272.88843   122.14049   205.59702
   537  C   4.0   -0.07    4.13    3.86   271.91288   124.29342   207.26033
   538  C   4.0   -0.08    4.11    3.82   275.76140   121.92430   205.75026
   539  H   1.0    0.10    1.08    1.44   273.31584   118.12935   203.02118
   540  H   1.0    0.06    1.05    1.44   272.39972   118.98036   208.20071
   541  H   1.0    0.05    1.05    1.44   272.32957   122.50626   203.63940
   542  H   1.0    0.04    1.00    1.43   273.12352   125.93924   207.05786
   543  H   1.0    0.05    1.00    1.43   269.99458   124.79697   206.72128
   544  H   1.0    0.05    1.00    1.43   271.89985   123.70938   209.23003
   545  H   1.0    0.04    1.00    1.43   276.62966   123.70067   205.19855
   546  H   1.0    0.03    1.00    1.43   276.33897   121.47125   207.66873
   547  H   1.0    0.05    1.00    1.43   276.44224   120.45405   204.49040
   548  H   1.0    0.09    1.07    1.44   280.82211   135.14000   211.12482
   549  H   1.0    0.05    1.05    1.44   277.96028   132.28836   206.05958
   550  H   1.0    0.09    1.07    1.44   284.38689   133.70338   199.72872
   551  H   1.0    0.06    1.04    1.43   279.92656   134.78053   195.16525
   552  H   1.0    0.09    1.07    1.44   287.08794   137.95603   191.91254
   553  H   1.0    0.06    1.04    1.44   284.43033   134.09938   187.66514
   554  H   1.0    0.09    1.07    1.44   291.93068   134.86201   181.70627
   555  H   1.0    0.06    1.05    1.44   288.04740   134.59034   176.47565
   556  H   1.0    0.09    1.07    1.44   303.81450   137.00900   184.65838
   557  H   1.0    0.05    1.04    1.44   307.41989   137.69588   190.01420
   558  H   1.0    0.09    1.07    1.44   298.89327   138.65772   192.63403
   559  H   1.0    0.05    1.05    1.44   302.88806   136.00680   200.40954
   560  H   1.0    0.09    1.07    1.44   298.11700   138.30449   202.37554
   561  H   1.0    0.06    1.05    1.44   297.76361   133.38294   210.47936
   562  H   1.0    0.10    1.07    1.44   291.98911   133.35821   211.02730
   563  H   1.0    0.07    1.05    1.44   296.02581   128.76201   217.72601
   564  H   1.0    0.10    1.07    1.44   287.75931   127.56335   220.36780
   565  H   1.0    0.07    1.05    1.44   291.13350   123.83602   224.16068
   566  H   1.0    0.09    1.07    1.44   280.77024   110.23157   221.73746
   567  H   1.0    0.07    1.05    1.44   308.59145   127.86185   178.21804
   568  H   1.0    0.09    1.07    1.44   307.66588   108.62076   207.67311
   569  H   1.0    0.06    1.05    1.44   312.42116   109.25991   201.80504
   570  H   1.0    0.10    1.07    1.44   303.76064   116.71487   179.46734
   571  H   1.0    0.05    1.05    1.44   297.80925   114.10905   176.49021
   572  H   1.0    0.08    1.14    1.45   290.54933   116.87925   177.88657
   573  H   1.0    0.05    1.05    1.44   285.74325   121.02119   179.50882
   574  H   1.0    0.09    1.07    1.44   281.98177   113.92523   183.09715
   575  H   1.0    0.06    1.05    1.44   278.08572   120.49535   187.98871
   576  H   1.0    0.10    1.07    1.44   278.08359   114.32684   194.44073
   577  H   1.0    0.06    1.05    1.44   275.94242   119.85699   196.95222
   578  H   1.0    0.10    1.07    1.44   269.93300   113.87069   199.23530
   579  H   1.0    0.06    1.05    1.44   267.70763   120.24484   205.19641

  Z AO/shell   Hii/eV     exponent
  1     Wed Apr 25 08:07:45 CEST 2018   EN: 2.200 GM2: 0.406  GM3: 0.0800  RAES: 1.40
     1s    -10.707211    1.230000
  6     Wed Apr 25 08:07:45 CEST 2018   EN: 2.550 GM2: 0.538  GM3: 0.1500  RAES: 3.00
     2s    -13.970922    2.096432
     2p    -10.063292    1.800000
  7     Wed Apr 25 08:07:45 CEST 2018   EN: 3.040 GM2: 0.461  GM3:-0.0640  RAES: 1.90
     2s    -16.686243    2.339881
     2p    -12.523956    2.014332
  8     Wed Apr 25 08:07:45 CEST 2018   EN: 3.440 GM2: 0.452  GM3:-0.0517  RAES: 1.80
     2s    -20.229985    2.439742
     2p    -15.503117    2.137023
 no old-style atom pair restraining (fixing) potential

molecular fragmentation (1/2 indicates fragments):
111111111111111111122222222222222222222222222222222222222222222222222222
222222222222222222222222222222222222222222222222222222222222222222222222
222222222222222222222222222222222222222222222222222222222222222222222222
222222222222222222222222222222222222222222222222222222222222222222222222
222222222222222222222222222222222222222222222222222222222222222222222222
222222222222222222222222222222222222222222222222222222222222222222222222
222222222222222222222222222222222222222222222222222222222222222222222222
222222222222222222222222222222222222222222211222222222222222222222222222
222
# atoms in fragment 1/2:    21   558
 fragment masses (1/2) :      115.17     3661.41
CMA distance (Bohr)    :  17.736
constraining FC (au)   :  0.0500
           ------------------------------------------------- 
          |        Self-Consistent Charge Iterations        |
           ------------------------------------------------- 

 Ncao       : 1368
 Nao        : 1368
 Nshell     : 842
 Nel        : 1518
 T(el)      :   500.0
 intcut     :    35.0
 scfconv/Eh :  0.100E-06
   qconv/e  :  0.100E-04
 intneglect :  0.100E-08
 broydamp   :      0.400
 iter      E             dE          RMSdq      gap      omega  full diag
   1   -868.6185682 -0.868619E+03  0.459E+00    3.00       0.0  T
   2   -870.7796188 -0.216105E+01  0.211E+00    1.61       1.0  T
   3   -870.9252042 -0.145585E+00  0.124E+00    1.65       1.0  T
   4   -871.0686775 -0.143473E+00  0.239E-01    1.05       1.0  T
   5   -871.0755980 -0.692043E-02  0.113E-01    1.25       1.0  T
   6   -871.0769340 -0.133609E-02  0.463E-02    1.21       1.0  T
   7   -871.0771706 -0.236505E-03  0.206E-02    1.19       1.0  T
   8   -871.0772102 -0.396174E-04  0.923E-03    1.18       1.0  T
   9   -871.0772223 -0.121327E-04  0.435E-03    1.18       1.0  T
  10   -871.0772245 -0.217780E-05  0.189E-03    1.18       2.2  T
  11   -871.0772250 -0.513463E-06  0.927E-04    1.18       4.5  T
  12   -871.0772251 -0.118125E-06  0.346E-04    1.18      12.0  T
  13   -871.0772251 -0.127352E-07  0.184E-04    1.18      22.5  T
  14   -871.0772251 -0.402088E-08  0.684E-05    1.18      60.8  T
  15   -871.0772251 -0.551836E-09  0.317E-05    1.18     131.0  T
speedup 14.64
cpu  time for SCC    1 m  4.9 s
wall time for SCC    0 m  4.4 s

   *** convergence criteria satisfied after 15 iterations ***

          eigenvalues
 #    :         747        748        749        750        751        752        753        754
 occ. :        2.000      2.000      2.000      2.000      2.000      2.000      2.000      2.000
 eps  :       -10.070    -10.066     -9.919     -9.918     -9.853     -9.798     -9.754     -9.688
 #    :         755        756        757        758        759        760        761        762
 occ. :        2.000      2.000      2.000      2.000      2.000      0.000      0.000      0.000
 eps  :        -9.677     -9.664     -9.641     -9.599     -9.564     -8.385     -8.051     -7.905
 #    :         763        764        765        766        767        768        769        770
 occ. :        0.000      0.000      0.000      0.000      0.000      0.000      0.000      0.000
 eps  :        -7.888     -7.777     -7.742     -7.737     -7.730     -7.676     -7.657     -7.630


   #   Z            q   n(s)   n(p)   n(d)      C6AA      α(0)
   1   7 N     -0.388  1.310  4.078  0.000    30.038     8.140
   2   6 C      0.037  1.060  2.903  0.000    19.968     6.365
   3   6 C      0.200  1.094  2.705  0.000    23.736     7.979
   4   8 O     -0.361  1.744  4.617  0.000    20.917     6.132
   5   6 C     -0.023  1.069  2.954  0.000    20.950     6.510
   6   6 C     -0.054  1.049  3.005  0.000    21.539     6.607
   7   6 C     -0.112  1.037  3.075  0.000    22.703     6.794
   8   6 C     -0.106  1.034  3.071  0.000    22.579     6.776
   9   1 H      0.165  0.835  0.000  0.000     1.305     1.790
  10   1 H      0.043  0.957  0.000  0.000     2.407     2.426
  11   1 H      0.052  0.948  0.000  0.000     2.297     2.370
  12   1 H      0.026  0.974  0.000  0.000     2.649     2.545
  13   1 H      0.038  0.962  0.000  0.000     2.482     2.464
  14   1 H      0.042  0.958  0.000  0.000     2.417     2.431
  15   1 H      0.043  0.957  0.000  0.000     2.414     2.430
  16   1 H      0.043  0.957  0.000  0.000     2.408     2.426
  17   1 H      0.029  0.971  0.000  0.000     2.601     2.522
  18   1 H      0.045  0.955  0.000  0.000     2.389     2.417
  19   1 H      0.034  0.966  0.000  0.000     2.536     2.490
  20   7 N     -0.400  1.308  4.091  0.000    30.366     8.184
  21   6 C      0.038  1.056  2.906  0.000    19.956     6.364
  22   6 C      0.191  1.094  2.715  0.000    23.920     8.010
  23   8 O     -0.367  1.754  4.613  0.000    21.040     6.150
  24   6 C     -0.067  1.059  3.007  0.000    21.771     6.642
  25   6 C     -0.010  1.056  2.954  0.000    20.725     6.475
  26   6 C     -0.112  1.041  3.071  0.000    22.691     6.792
  27   6 C     -0.114  1.040  3.074  0.000    22.727     6.797
  28   1 H      0.181  0.819  0.000  0.000     1.207     1.721
  29   1 H      0.055  0.945  0.000  0.000     2.256     2.349
  30   1 H      0.045  0.955  0.000  0.000     2.380     2.412
  31   1 H      0.042  0.958  0.000  0.000     2.426     2.436
  32   1 H      0.044  0.956  0.000  0.000     2.392     2.419
  33   1 H      0.034  0.966  0.000  0.000     2.527     2.486
  34   1 H      0.035  0.965  0.000  0.000     2.518     2.481
  35   1 H      0.038  0.962  0.000  0.000     2.476     2.461
  36   1 H      0.027  0.973  0.000  0.000     2.623     2.533
  37   1 H      0.046  0.954  0.000  0.000     2.375     2.410
  38   1 H      0.041  0.959  0.000  0.000     2.434     2.440
  39   7 N     -0.386  1.310  4.076  0.000    29.978     8.132
  40   6 C      0.039  1.060  2.902  0.000    19.940     6.360
  41   6 C      0.203  1.096  2.702  0.000    23.691     7.971
  42   8 O     -0.373  1.746  4.627  0.000    21.156     6.167
  43   6 C     -0.020  1.062  2.958  0.000    20.891     6.501
  44   6 C     -0.119  1.040  3.079  0.000    22.827     6.812
  45   6 C     -0.111  1.039  3.072  0.000    22.669     6.788
  46   1 H      0.153  0.847  0.000  0.000     1.379     1.839
  47   1 H      0.048  0.952  0.000  0.000     2.341     2.393
  48   1 H      0.055  0.945  0.000  0.000     2.254     2.348
  49   1 H      0.047  0.953  0.000  0.000     2.359     2.402
  50   1 H      0.043  0.957  0.000  0.000     2.406     2.425
  51   1 H      0.046  0.954  0.000  0.000     2.369     2.407
  52   1 H      0.040  0.960  0.000  0.000     2.443     2.444
  53   1 H      0.045  0.955  0.000  0.000     2.380     2.413
  54   1 H      0.040  0.960  0.000  0.000     2.451     2.448
  55   7 N     -0.405  1.316  4.089  0.000    30.512     8.204
  56   6 C      0.046  1.052  2.901  0.000    19.818     6.342
  57   6 C      0.201  1.095  2.704  0.000    23.728     7.978
  58   8 O     -0.394  1.764  4.630  0.000    21.562     6.226
  59   6 C     -0.122  1.043  3.079  0.000    22.893     6.822
  60   1 H      0.195  0.805  0.000  0.000     1.131     1.666
  61   1 H      0.041  0.959  0.000  0.000     2.436     2.441
  62   1 H      0.048  0.952  0.000  0.000     2.348     2.396
  63   1 H      0.068  0.932  0.000  0.000     2.105     2.269
  64   1 H      0.061  0.939  0.000  0.000     2.184     2.311
  65   7 N     -0.382  1.305  4.077  0.000    29.879     8.118
  66   6 C      0.042  1.050  2.908  0.000    19.882     6.351
  67   6 C      0.197  1.102  2.701  0.000    23.802     7.990
  68   8 O     -0.380  1.740  4.640  0.000    21.282     6.185
  69   6 C     -0.066  1.055  3.011  0.000    21.760     6.640
  70   6 C     -0.106  1.058  3.048  0.000    22.518     6.755
  71   6 C      0.282  1.040  2.678  0.000    22.218     7.718
  72   8 O     -0.505  1.738  4.767  0.000    23.897     6.554
  73   7 N     -0.275  1.265  4.010  0.000    27.121     7.734
  74   1 H      0.170  0.830  0.000  0.000     1.272     1.767
  75   1 H      0.055  0.945  0.000  0.000     2.254     2.348
  76   1 H      0.071  0.929  0.000  0.000     2.076     2.253
  77   1 H      0.065  0.935  0.000  0.000     2.139     2.287
  78   1 H      0.079  0.921  0.000  0.000     1.991     2.206
  79   1 H      0.065  0.935  0.000  0.000     2.143     2.289
  80   1 H      0.223  0.777  0.000  0.000     0.994     1.562
  81   1 H      0.231  0.769  0.000  0.000     0.961     1.535
  82   7 N     -0.391  1.310  4.081  0.000    30.128     8.152
  83   6 C      0.023  1.065  2.911  0.000    20.191     6.399
  84   6 C      0.268  1.048  2.684  0.000    22.482     7.765
  85   8 O     -0.485  1.741  4.744  0.000    23.458     6.494
  86   6 C     -0.026  1.068  2.958  0.000    20.996     6.517
  87   6 C     -0.059  1.050  3.009  0.000    21.627     6.621
  88   6 C     -0.112  1.036  3.075  0.000    22.690     6.792
  89   6 C     -0.108  1.036  3.072  0.000    22.628     6.784
  90   1 H      0.155  0.845  0.000  0.000     1.371     1.834
  91   1 H      0.043  0.957  0.000  0.000     2.413     2.429
  92   1 H      0.042  0.958  0.000  0.000     2.420     2.433
  93   1 H      0.041  0.959  0.000  0.000     2.438     2.442
  94   1 H      0.037  0.963  0.000  0.000     2.491     2.468
  95   1 H      0.047  0.953  0.000  0.000     2.363     2.404
  96   1 H      0.027  0.973  0.000  0.000     2.633     2.538
  97   1 H      0.045  0.955  0.000  0.000     2.384     2.415
  98   1 H      0.042  0.958  0.000  0.000     2.427     2.436
  99   1 H      0.033  0.967  0.000  0.000     2.550     2.497
 100   1 H      0.041  0.959  0.000  0.000     2.429     2.437
 101   7 N     -0.183  1.244  3.939  0.000    24.955     7.419
 102   6 C      0.014  1.063  2.923  0.000    20.347     6.423
 103   6 C      0.198  1.088  2.714  0.000    23.787     7.987
 104   8 O     -0.363  1.752  4.611  0.000    20.957     6.138
 105   6 C      0.114  1.048  2.837  0.000    18.806     6.192
 106   8 O     -0.470  1.721  4.749  0.000    22.257     6.369
 107   6 C     -0.128  1.039  3.089  0.000    23.023     6.842
 108   1 H      0.245  0.755  0.000  0.000     0.902     1.488
 109   1 H      0.072  0.928  0.000  0.000     2.062     2.246
 110   1 H      0.048  0.952  0.000  0.000     2.350     2.397
 111   1 H      0.330  0.670  0.000  0.000     0.637     1.254
 112   1 H      0.073  0.927  0.000  0.000     2.050     2.239
 113   1 H      0.050  0.950  0.000  0.000     2.317     2.381
 114   1 H      0.058  0.942  0.000  0.000     2.226     2.333
 115   7 N     -0.395  1.320  4.074  0.000    30.226     8.165
 116   6 C      0.024  1.061  2.914  0.000    20.177     6.398
 117   6 C      0.265  1.049  2.686  0.000    22.529     7.773
 118   8 O     -0.514  1.750  4.764  0.000    24.101     6.582
 119   6 C     -0.084  1.056  3.028  0.000    22.101     6.692
 120   6 C     -0.080  1.055  3.024  0.000    22.023     6.682
 121   6 C     -0.027  1.053  2.974  0.000    21.140     6.561
 122   7 N     -0.146  1.228  3.918  0.000    24.159     7.300
 123   6 C      0.229  1.019  2.751  0.000    23.184     7.883
 124   7 N     -0.243  1.226  4.017  0.000    26.352     7.624
 125   7 N     -0.262  1.274  3.988  0.000    26.788     7.687
 126   1 H      0.162  0.838  0.000  0.000     1.322     1.801
 127   1 H      0.046  0.954  0.000  0.000     2.375     2.410
 128   1 H      0.077  0.923  0.000  0.000     2.013     2.219
 129   1 H      0.043  0.957  0.000  0.000     2.416     2.431
 130   1 H      0.066  0.934  0.000  0.000     2.129     2.282
 131   1 H      0.065  0.935  0.000  0.000     2.136     2.285
 132   1 H      0.091  0.909  0.000  0.000     1.871     2.139
 133   1 H      0.079  0.921  0.000  0.000     1.993     2.208
 134   1 H      0.237  0.763  0.000  0.000     0.935     1.515
 135   1 H      0.236  0.764  0.000  0.000     0.939     1.518
 136   1 H      0.254  0.746  0.000  0.000     0.869     1.461
 137   1 H      0.255  0.745  0.000  0.000     0.865     1.457
 138   1 H      0.258  0.742  0.000  0.000     0.854     1.447
 139   7 N     -0.176  1.248  3.929  0.000    24.820     7.399
 140   6 C      0.032  1.056  2.912  0.000    20.038     6.374
 141   6 C      0.285  1.041  2.674  0.000    22.174     7.711
 142   8 O     -0.497  1.753  4.744  0.000    23.723     6.530
 143   6 C     -0.071  1.056  3.015  0.000    21.851     6.654
 144   6 C     -0.010  1.057  2.953  0.000    20.721     6.475
 145   6 C     -0.101  1.039  3.062  0.000    22.474     6.759
 146   6 C     -0.110  1.038  3.071  0.000    22.650     6.786
 147   1 H      0.240  0.760  0.000  0.000     0.923     1.505
 148   1 H      0.057  0.943  0.000  0.000     2.238     2.340
 149   1 H      0.055  0.945  0.000  0.000     2.261     2.351
 150   1 H      0.032  0.968  0.000  0.000     2.564     2.504
 151   1 H      0.065  0.935  0.000  0.000     2.147     2.291
 152   1 H      0.051  0.949  0.000  0.000     2.310     2.377
 153   1 H      0.035  0.965  0.000  0.000     2.516     2.480
 154   1 H      0.011  0.989  0.000  0.000     2.880     2.654
 155   1 H      0.053  0.947  0.000  0.000     2.287     2.365
 156   1 H      0.014  0.986  0.000  0.000     2.823     2.627
 157   1 H      0.042  0.958  0.000  0.000     2.421     2.433
 158   7 N     -0.185  1.248  3.938  0.000    25.020     7.429
 159   6 C      0.046  1.049  2.906  0.000    19.810     6.338
 160   6 C      0.205  1.087  2.709  0.000    23.651     7.965
 161   8 O     -0.377  1.759  4.618  0.000    21.227     6.177
 162   6 C     -0.117  1.067  3.050  0.000    22.728     6.786
 163   6 C      0.294  1.032  2.675  0.000    22.021     7.683
 164   8 O     -0.487  1.759  4.728  0.000    23.502     6.500
 165   7 N     -0.290  1.267  4.024  0.000    27.491     7.787
 166   1 H      0.246  0.754  0.000  0.000     0.900     1.486
 167   1 H      0.061  0.939  0.000  0.000     2.184     2.311
 168   1 H      0.112  0.888  0.000  0.000     1.682     2.028
 169   1 H      0.092  0.908  0.000  0.000     1.855     2.130
 170   1 H      0.233  0.767  0.000  0.000     0.952     1.529
 171   1 H      0.242  0.758  0.000  0.000     0.913     1.497
 172   7 N     -0.414  1.321  4.093  0.000    30.779     8.240
 173   6 C      0.042  1.060  2.898  0.000    19.885     6.351
 174   6 C      0.273  1.051  2.676  0.000    22.377     7.747
 175   8 O     -0.511  1.741  4.770  0.000    24.033     6.573
 176   6 C     -0.014  1.063  2.951  0.000    20.785     6.484
 177   6 C     -0.058  1.050  3.008  0.000    21.624     6.620
 178   6 C     -0.099  1.035  3.064  0.000    22.442     6.755
 179   6 C     -0.102  1.035  3.067  0.000    22.508     6.766
 180   1 H      0.183  0.817  0.000  0.000     1.200     1.716
 181   1 H      0.026  0.974  0.000  0.000     2.652     2.547
 182   1 H      0.035  0.965  0.000  0.000     2.517     2.481
 183   1 H      0.034  0.966  0.000  0.000     2.531     2.488
 184   1 H      0.055  0.945  0.000  0.000     2.255     2.349
 185   1 H      0.038  0.962  0.000  0.000     2.482     2.464
 186   1 H     -0.001  1.001  0.000  0.000     3.074     2.742
 187   1 H      0.045  0.955  0.000  0.000     2.387     2.416
 188   1 H      0.057  0.943  0.000  0.000     2.239     2.340
 189   1 H      0.023  0.977  0.000  0.000     2.692     2.566
 190   1 H      0.034  0.966  0.000  0.000     2.527     2.486
 191   7 N     -0.175  1.248  3.927  0.000    24.795     7.395
 192   6 C      0.050  1.049  2.900  0.000    19.734     6.325
 193   6 C      0.198  1.087  2.714  0.000    23.774     7.985
 194   8 O     -0.361  1.752  4.609  0.000    20.920     6.132
 195   6 C     -0.096  1.068  3.027  0.000    22.324     6.726
 196   6 C      0.379  1.019  2.602  0.000    20.575     7.423
 197   8 O     -0.597  1.750  4.847  0.000    26.038     6.841
 198   8 O     -0.594  1.770  4.824  0.000    25.968     6.832
 199   1 H      0.220  0.780  0.000  0.000     1.011     1.575
 200   1 H      0.068  0.932  0.000  0.000     2.113     2.273
 201   1 H      0.059  0.941  0.000  0.000     2.206     2.323
 202   1 H      0.050  0.950  0.000  0.000     2.318     2.381
 203   7 N     -0.402  1.314  4.087  0.000    30.422     8.192
 204   6 C      0.036  1.058  2.906  0.000    19.986     6.369
 205   6 C      0.209  1.091  2.700  0.000    23.572     7.951
 206   8 O     -0.373  1.746  4.627  0.000    21.148     6.166
 207   6 C      0.078  1.040  2.882  0.000    19.478     6.321
 208   8 O     -0.476  1.712  4.764  0.000    22.379     6.386
 209   1 H      0.178  0.822  0.000  0.000     1.225     1.734
 210   1 H      0.039  0.961  0.000  0.000     2.467     2.456
 211   1 H      0.037  0.963  0.000  0.000     2.495     2.470
 212   1 H      0.058  0.942  0.000  0.000     2.219     2.329
 213   1 H      0.327  0.673  0.000  0.000     0.645     1.261
 214   7 N     -0.389  1.315  4.074  0.000    30.070     8.144
 215   6 C      0.029  1.061  2.910  0.000    20.094     6.384
 216   6 C      0.272  1.047  2.681  0.000    22.410     7.752
 217   8 O     -0.491  1.749  4.742  0.000    23.579     6.510
 218   6 C     -0.069  1.055  3.014  0.000    21.822     6.650
 219   6 C     -0.109  1.060  3.049  0.000    22.573     6.763
 220   6 C      0.284  1.039  2.677  0.000    22.180     7.711
 221   8 O     -0.507  1.749  4.758  0.000    23.939     6.560
 222   7 N     -0.275  1.265  4.010  0.000    27.122     7.735
 223   1 H      0.168  0.832  0.000  0.000     1.283     1.774
 224   1 H      0.044  0.956  0.000  0.000     2.396     2.421
 225   1 H      0.066  0.934  0.000  0.000     2.134     2.285
 226   1 H      0.054  0.946  0.000  0.000     2.272     2.357
 227   1 H      0.051  0.949  0.000  0.000     2.307     2.375
 228   1 H      0.073  0.927  0.000  0.000     2.051     2.240
 229   1 H      0.238  0.762  0.000  0.000     0.930     1.511
 230   1 H      0.242  0.758  0.000  0.000     0.916     1.499
 231   7 N     -0.165  1.246  3.919  0.000    24.568     7.362
 232   6 C      0.009  1.065  2.926  0.000    20.430     6.436
 233   6 C      0.271  1.043  2.686  0.000    22.423     7.755
 234   8 O     -0.473  1.735  4.738  0.000    23.203     6.458
 235   6 C     -0.021  1.064  2.957  0.000    20.914     6.504
 236   6 C     -0.065  1.051  3.014  0.000    21.753     6.640
 237   6 C     -0.111  1.037  3.075  0.000    22.683     6.791
 238   6 C     -0.111  1.034  3.078  0.000    22.693     6.794
 239   1 H      0.208  0.792  0.000  0.000     1.066     1.617
 240   1 H      0.078  0.922  0.000  0.000     1.999     2.211
 241   1 H      0.056  0.944  0.000  0.000     2.246     2.344
 242   1 H      0.043  0.957  0.000  0.000     2.411     2.428
 243   1 H      0.055  0.945  0.000  0.000     2.259     2.350
 244   1 H      0.063  0.937  0.000  0.000     2.161     2.299
 245   1 H      0.028  0.972  0.000  0.000     2.611     2.527
 246   1 H      0.045  0.955  0.000  0.000     2.386     2.415
 247   1 H      0.040  0.960  0.000  0.000     2.447     2.446
 248   1 H      0.039  0.961  0.000  0.000     2.457     2.451
 249   1 H      0.036  0.964  0.000  0.000     2.506     2.475
 250   7 N     -0.179  1.244  3.935  0.000    24.872     7.407
 251   6 C      0.042  1.051  2.907  0.000    19.865     6.346
 252   6 C      0.281  1.038  2.681  0.000    22.248     7.725
 253   8 O     -0.495  1.740  4.755  0.000    23.674     6.523
 254   6 C     -0.116  1.062  3.054  0.000    22.705     6.783
 255   6 C      0.288  1.038  2.674  0.000    22.124     7.702
 256   8 O     -0.521  1.744  4.777  0.000    24.254     6.603
 257   7 N     -0.269  1.266  4.003  0.000    26.968     7.713
 258   1 H      0.217  0.783  0.000  0.000     1.021     1.583
 259   1 H      0.070  0.930  0.000  0.000     2.082     2.257
 260   1 H      0.096  0.904  0.000  0.000     1.819     2.109
 261   1 H      0.091  0.909  0.000  0.000     1.867     2.137
 262   1 H      0.244  0.756  0.000  0.000     0.906     1.491
 263   1 H      0.228  0.772  0.000  0.000     0.973     1.545
 264   7 N     -0.210  1.264  3.945  0.000    25.562     7.509
 265   6 C      0.033  1.058  2.910  0.000    20.022     6.370
 266   6 C      0.282  1.042  2.676  0.000    22.229     7.721
 267   8 O     -0.500  1.733  4.767  0.000    23.792     6.540
 268   6 C      0.098  1.028  2.874  0.000    19.164     6.270
 269   8 O     -0.467  1.705  4.762  0.000    22.190     6.359
 270   1 H      0.244  0.756  0.000  0.000     0.906     1.491
 271   1 H      0.063  0.937  0.000  0.000     2.168     2.303
 272   1 H      0.016  0.984  0.000  0.000     2.792     2.613
 273   1 H      0.027  0.973  0.000  0.000     2.636     2.539
 274   1 H      0.329  0.671  0.000  0.000     0.641     1.257
 275   7 N     -0.200  1.264  3.936  0.000    25.356     7.479
 276   6 C      0.032  1.059  2.909  0.000    20.046     6.376
 277   6 C      0.285  1.038  2.677  0.000    22.173     7.712
 278   8 O     -0.506  1.755  4.751  0.000    23.914     6.557
 279   6 C     -0.080  1.059  3.021  0.000    22.023     6.681
 280   6 C     -0.102  1.057  3.044  0.000    22.441     6.744
 281   6 C      0.289  1.037  2.674  0.000    22.105     7.698
 282   8 O     -0.503  1.755  4.748  0.000    23.841     6.547
 283   7 N     -0.276  1.260  4.016  0.000    27.140     7.737
 284   1 H      0.222  0.778  0.000  0.000     1.001     1.567
 285   1 H      0.067  0.933  0.000  0.000     2.124     2.279
 286   1 H      0.060  0.940  0.000  0.000     2.197     2.318
 287   1 H      0.077  0.923  0.000  0.000     2.008     2.216
 288   1 H      0.054  0.946  0.000  0.000     2.267     2.355
 289   1 H      0.085  0.915  0.000  0.000     1.926     2.170
 290   1 H      0.222  0.778  0.000  0.000     1.000     1.566
 291   1 H      0.237  0.763  0.000  0.000     0.936     1.516
 292   7 N     -0.184  1.247  3.936  0.000    24.978     7.423
 293   6 C      0.030  1.058  2.912  0.000    20.058     6.375
 294   6 C      0.285  1.039  2.676  0.000    22.171     7.711
 295   8 O     -0.509  1.749  4.760  0.000    23.979     6.565
 296   6 C      0.123  1.043  2.834  0.000    18.673     6.170
 297   8 O     -0.498  1.726  4.771  0.000    22.847     6.452
 298   6 C     -0.132  1.044  3.088  0.000    23.090     6.852
 299   1 H      0.225  0.775  0.000  0.000     0.986     1.555
 300   1 H      0.066  0.934  0.000  0.000     2.125     2.280
 301   1 H      0.021  0.979  0.000  0.000     2.723     2.581
 302   1 H      0.339  0.661  0.000  0.000     0.614     1.231
 303   1 H      0.069  0.931  0.000  0.000     2.092     2.262
 304   1 H      0.057  0.943  0.000  0.000     2.235     2.338
 305   1 H      0.058  0.942  0.000  0.000     2.217     2.328
 306   7 N     -0.189  1.247  3.941  0.000    25.097     7.440
 307   6 C      0.025  1.060  2.915  0.000    20.156     6.392
 308   6 C      0.279  1.045  2.676  0.000    22.277     7.729
 309   8 O     -0.478  1.730  4.748  0.000    23.311     6.473
 310   6 C     -0.067  1.057  3.010  0.000    21.773     6.642
 311   6 C     -0.008  1.055  2.953  0.000    20.682     6.469
 312   6 C     -0.105  1.040  3.065  0.000    22.565     6.773
 313   6 C     -0.119  1.040  3.079  0.000    22.840     6.814
 314   1 H      0.217  0.783  0.000  0.000     1.023     1.584
 315   1 H      0.094  0.906  0.000  0.000     1.845     2.124
 316   1 H      0.032  0.968  0.000  0.000     2.557     2.500
 317   1 H      0.059  0.941  0.000  0.000     2.214     2.327
 318   1 H      0.028  0.972  0.000  0.000     2.609     2.526
 319   1 H      0.050  0.950  0.000  0.000     2.316     2.380
 320   1 H      0.015  0.985  0.000  0.000     2.807     2.620
 321   1 H      0.051  0.949  0.000  0.000     2.304     2.374
 322   1 H      0.051  0.949  0.000  0.000     2.312     2.378
 323   1 H      0.048  0.952  0.000  0.000     2.348     2.396
 324   1 H      0.047  0.953  0.000  0.000     2.363     2.404
 325   7 N     -0.175  1.238  3.937  0.000    24.779     7.393
 326   6 C     -0.022  1.046  2.977  0.000    21.044     6.544
 327   6 C      0.280  1.041  2.680  0.000    22.266     7.727
 328   8 O     -0.478  1.729  4.749  0.000    23.310     6.473
 329   1 H      0.194  0.806  0.000  0.000     1.136     1.670
 330   1 H      0.070  0.930  0.000  0.000     2.088     2.260
 331   1 H      0.098  0.902  0.000  0.000     1.803     2.100
 332   7 N     -0.184  1.240  3.944  0.000    24.983     7.423
 333   6 C      0.020  1.058  2.922  0.000    20.243     6.406
 334   6 C      0.266  1.046  2.688  0.000    22.504     7.768
 335   8 O     -0.471  1.728  4.743  0.000    23.146     6.450
 336   6 C     -0.072  1.058  3.013  0.000    21.860     6.655
 337   6 C     -0.008  1.054  2.954  0.000    20.682     6.469
 338   6 C     -0.120  1.043  3.077  0.000    22.843     6.814
 339   6 C     -0.119  1.040  3.079  0.000    22.826     6.812
 340   1 H      0.203  0.797  0.000  0.000     1.090     1.635
 341   1 H      0.097  0.903  0.000  0.000     1.813     2.106
 342   1 H      0.036  0.964  0.000  0.000     2.507     2.476
 343   1 H      0.080  0.920  0.000  0.000     1.975     2.198
 344   1 H      0.011  0.989  0.000  0.000     2.869     2.649
 345   1 H      0.050  0.950  0.000  0.000     2.314     2.379
 346   1 H      0.039  0.961  0.000  0.000     2.464     2.455
 347   1 H      0.061  0.939  0.000  0.000     2.188     2.313
 348   1 H      0.050  0.950  0.000  0.000     2.320     2.382
 349   1 H      0.061  0.939  0.000  0.000     2.189     2.313
 350   1 H      0.036  0.964  0.000  0.000     2.504     2.475
 351   7 N     -0.213  1.258  3.955  0.000    25.651     7.522
 352   6 C      0.052  1.052  2.896  0.000    19.704     6.321
 353   6 C      0.285  1.040  2.675  0.000    22.171     7.711
 354   8 O     -0.480  1.739  4.741  0.000    23.352     6.479
 355   6 C     -0.095  1.065  3.030  0.000    22.299     6.722
 356   6 C      0.369  1.021  2.610  0.000    20.737     7.453
 357   8 O     -0.617  1.775  4.842  0.000    26.543     6.907
 358   8 O     -0.604  1.759  4.845  0.000    26.219     6.865
 359   1 H      0.211  0.789  0.000  0.000     1.051     1.606
 360   1 H      0.045  0.955  0.000  0.000     2.381     2.413
 361   1 H      0.036  0.964  0.000  0.000     2.496     2.471
 362   1 H      0.017  0.983  0.000  0.000     2.775     2.605
 363   7 N     -0.172  1.240  3.932  0.000    24.719     7.384
 364   6 C      0.005  1.069  2.926  0.000    20.498     6.447
 365   6 C      0.264  1.043  2.694  0.000    22.554     7.777
 366   8 O     -0.481  1.729  4.752  0.000    23.376     6.482
 367   6 C      0.116  1.047  2.837  0.000    18.784     6.189
 368   8 O     -0.487  1.720  4.767  0.000    22.623     6.421
 369   6 C     -0.131  1.045  3.086  0.000    23.082     6.851
 370   1 H      0.182  0.818  0.000  0.000     1.204     1.719
 371   1 H      0.082  0.918  0.000  0.000     1.958     2.188
 372   1 H      0.069  0.931  0.000  0.000     2.100     2.266
 373   1 H      0.313  0.687  0.000  0.000     0.682     1.298
 374   1 H      0.064  0.936  0.000  0.000     2.150     2.293
 375   1 H      0.057  0.943  0.000  0.000     2.239     2.340
 376   1 H      0.040  0.960  0.000  0.000     2.444     2.445
 377   7 N     -0.173  1.246  3.927  0.000    24.749     7.389
 378   6 C      0.015  1.066  2.919  0.000    20.324     6.420
 379   6 C      0.277  1.045  2.678  0.000    22.313     7.735
 380   8 O     -0.487  1.736  4.751  0.000    23.503     6.500
 381   6 C     -0.073  1.057  3.016  0.000    21.882     6.658
 382   6 C     -0.010  1.055  2.955  0.000    20.717     6.474
 383   6 C     -0.128  1.042  3.086  0.000    23.009     6.839
 384   6 C     -0.119  1.042  3.077  0.000    22.828     6.812
 385   1 H      0.205  0.795  0.000  0.000     1.080     1.628
 386   1 H      0.086  0.914  0.000  0.000     1.915     2.164
 387   1 H      0.054  0.946  0.000  0.000     2.275     2.359
 388   1 H      0.053  0.947  0.000  0.000     2.286     2.364
 389   1 H      0.026  0.974  0.000  0.000     2.640     2.541
 390   1 H      0.060  0.940  0.000  0.000     2.201     2.320
 391   1 H      0.039  0.961  0.000  0.000     2.468     2.457
 392   1 H      0.054  0.946  0.000  0.000     2.272     2.357
 393   1 H      0.057  0.943  0.000  0.000     2.239     2.340
 394   1 H      0.047  0.953  0.000  0.000     2.360     2.402
 395   1 H      0.040  0.960  0.000  0.000     2.449     2.447
 396   7 N     -0.181  1.255  3.926  0.000    24.918     7.414
 397   6 C      0.021  1.058  2.921  0.000    20.226     6.403
 398   6 C      0.276  1.040  2.683  0.000    22.328     7.738
 399   8 O     -0.471  1.737  4.734  0.000    23.156     6.452
 400   6 C     -0.099  1.062  3.037  0.000    22.381     6.734
 401   6 C      0.288  1.035  2.677  0.000    22.122     7.701
 402   8 O     -0.498  1.753  4.746  0.000    23.748     6.534
 403   7 N     -0.277  1.261  4.016  0.000    27.161     7.740
 404   1 H      0.236  0.764  0.000  0.000     0.938     1.517
 405   1 H      0.089  0.911  0.000  0.000     1.892     2.151
 406   1 H      0.060  0.940  0.000  0.000     2.200     2.319
 407   1 H      0.075  0.925  0.000  0.000     2.034     2.230
 408   1 H      0.233  0.767  0.000  0.000     0.953     1.530
 409   1 H      0.220  0.780  0.000  0.000     1.010     1.574
 410   7 N     -0.172  1.249  3.922  0.000    24.716     7.384
 411   6 C      0.019  1.062  2.919  0.000    20.260     6.410
 412   6 C      0.201  1.085  2.714  0.000    23.720     7.976
 413   8 O     -0.366  1.753  4.614  0.000    21.023     6.147
 414   6 C     -0.017  1.060  2.957  0.000    20.845     6.494
 415   6 C     -0.119  1.040  3.079  0.000    22.829     6.813
 416   6 C     -0.119  1.037  3.081  0.000    22.830     6.813
 417   1 H      0.227  0.773  0.000  0.000     0.978     1.549
 418   1 H      0.109  0.891  0.000  0.000     1.706     2.043
 419   1 H      0.060  0.940  0.000  0.000     2.204     2.322
 420   1 H      0.056  0.944  0.000  0.000     2.249     2.345
 421   1 H      0.044  0.956  0.000  0.000     2.392     2.419
 422   1 H      0.047  0.953  0.000  0.000     2.359     2.402
 423   1 H      0.056  0.944  0.000  0.000     2.243     2.342
 424   1 H      0.055  0.945  0.000  0.000     2.255     2.348
 425   1 H      0.037  0.963  0.000  0.000     2.489     2.467
 426   7 N     -0.382  1.312  4.070  0.000    29.879     8.118
 427   6 C      0.040  1.054  2.905  0.000    19.919     6.358
 428   6 C      0.200  1.088  2.712  0.000    23.745     7.980
 429   8 O     -0.361  1.752  4.608  0.000    20.916     6.132
 430   6 C     -0.106  1.038  3.068  0.000    22.576     6.774
 431   1 H      0.160  0.840  0.000  0.000     1.338     1.812
 432   1 H      0.065  0.935  0.000  0.000     2.145     2.290
 433   1 H      0.044  0.956  0.000  0.000     2.400     2.423
 434   1 H      0.045  0.955  0.000  0.000     2.377     2.411
 435   1 H      0.039  0.961  0.000  0.000     2.457     2.451
 436   7 N     -0.393  1.309  4.084  0.000    30.179     8.159
 437   6 C      0.023  1.063  2.915  0.000    20.209     6.404
 438   6 C      0.188  1.090  2.722  0.000    23.968     8.018
 439   8 O     -0.355  1.755  4.600  0.000    20.808     6.116
 440   6 C      0.111  1.048  2.842  0.000    18.854     6.198
 441   8 O     -0.464  1.711  4.753  0.000    22.138     6.352
 442   6 C     -0.151  1.050  3.101  0.000    23.477     6.910
 443   1 H      0.185  0.815  0.000  0.000     1.189     1.708
 444   1 H      0.046  0.954  0.000  0.000     2.368     2.407
 445   1 H      0.060  0.940  0.000  0.000     2.204     2.322
 446   1 H      0.321  0.679  0.000  0.000     0.662     1.278
 447   1 H      0.070  0.930  0.000  0.000     2.085     2.258
 448   1 H      0.062  0.938  0.000  0.000     2.175     2.306
 449   1 H      0.062  0.938  0.000  0.000     2.179     2.308
 450   7 N     -0.292  1.318  3.975  0.000    27.529     7.793
 451   6 C      0.028  1.062  2.910  0.000    20.104     6.383
 452   6 C      0.198  1.092  2.711  0.000    23.788     7.987
 453   8 O     -0.364  1.744  4.620  0.000    20.968     6.139
 454   6 C     -0.065  1.055  3.010  0.000    21.726     6.632
 455   6 C     -0.066  1.050  3.015  0.000    21.735     6.634
 456   6 C      0.003  1.047  2.949  0.000    20.565     6.464
 457   1 H      0.050  0.950  0.000  0.000     2.317     2.381
 458   1 H      0.048  0.952  0.000  0.000     2.341     2.393
 459   1 H      0.061  0.939  0.000  0.000     2.186     2.312
 460   1 H      0.042  0.958  0.000  0.000     2.421     2.433
 461   1 H      0.044  0.956  0.000  0.000     2.399     2.422
 462   1 H      0.041  0.959  0.000  0.000     2.433     2.439
 463   1 H      0.035  0.965  0.000  0.000     2.521     2.483
 464   7 N     -0.397  1.317  4.080  0.000    30.295     8.175
 465   6 C      0.029  1.059  2.912  0.000    20.096     6.385
 466   6 C      0.266  1.049  2.685  0.000    22.512     7.770
 467   8 O     -0.521  1.756  4.765  0.000    24.259     6.604
 468   6 C     -0.077  1.056  3.021  0.000    21.962     6.671
 469   6 C     -0.071  1.051  3.021  0.000    21.862     6.656
 470   6 C     -0.093  1.055  3.038  0.000    22.267     6.718
 471   6 C     -0.054  1.061  2.993  0.000    21.634     6.639
 472   7 N     -0.137  1.229  3.909  0.000    23.965     7.271
 473   1 H      0.172  0.828  0.000  0.000     1.263     1.760
 474   1 H      0.036  0.964  0.000  0.000     2.508     2.477
 475   1 H      0.067  0.933  0.000  0.000     2.117     2.276
 476   1 H      0.032  0.968  0.000  0.000     2.563     2.504
 477   1 H      0.044  0.956  0.000  0.000     2.390     2.418
 478   1 H      0.060  0.940  0.000  0.000     2.198     2.318
 479   1 H      0.076  0.924  0.000  0.000     2.023     2.224
 480   1 H      0.071  0.929  0.000  0.000     2.079     2.255
 481   1 H      0.114  0.886  0.000  0.000     1.661     2.015
 482   1 H      0.125  0.875  0.000  0.000     1.572     1.961
 483   1 H      0.308  0.692  0.000  0.000     0.691     1.302
 484   1 H      0.289  0.711  0.000  0.000     0.746     1.353
 485   1 H      0.285  0.715  0.000  0.000     0.760     1.366
 486   7 N     -0.175  1.248  3.927  0.000    24.797     7.396
 487   6 C      0.025  1.062  2.912  0.000    20.153     6.392
 488   6 C      0.203  1.085  2.711  0.000    23.675     7.968
 489   8 O     -0.364  1.758  4.606  0.000    20.978     6.141
 490   6 C     -0.025  1.069  2.956  0.000    20.981     6.515
 491   6 C     -0.072  1.052  3.020  0.000    21.883     6.660
 492   6 C     -0.112  1.037  3.075  0.000    22.705     6.794
 493   6 C     -0.108  1.037  3.072  0.000    22.635     6.785
 494   1 H      0.247  0.753  0.000  0.000     0.894     1.481
 495   1 H      0.072  0.928  0.000  0.000     2.067     2.248
 496   1 H      0.060  0.940  0.000  0.000     2.201     2.320
 497   1 H      0.052  0.948  0.000  0.000     2.290     2.366
 498   1 H      0.056  0.944  0.000  0.000     2.247     2.344
 499   1 H      0.064  0.936  0.000  0.000     2.154     2.295
 500   1 H      0.032  0.968  0.000  0.000     2.554     2.499
 501   1 H      0.044  0.956  0.000  0.000     2.395     2.420
 502   1 H      0.048  0.952  0.000  0.000     2.346     2.395
 503   1 H      0.040  0.960  0.000  0.000     2.454     2.450
 504   1 H      0.039  0.961  0.000  0.000     2.459     2.452
 505   7 N     -0.394  1.310  4.084  0.000    30.193     8.161
 506   6 C      0.050  1.049  2.901  0.000    19.758     6.332
 507   6 C      0.196  1.099  2.706  0.000    23.820     7.993
 508   8 O     -0.374  1.746  4.628  0.000    21.163     6.168
 509   6 C     -0.109  1.040  3.069  0.000    22.639     6.783
 510   1 H      0.186  0.814  0.000  0.000     1.178     1.700
 511   1 H      0.025  0.975  0.000  0.000     2.660     2.551
 512   1 H      0.039  0.961  0.000  0.000     2.468     2.457
 513   1 H      0.052  0.948  0.000  0.000     2.300     2.371
 514   1 H      0.075  0.925  0.000  0.000     2.030     2.228
 515   7 N     -0.389  1.312  4.077  0.000    30.073     8.145
 516   6 C      0.032  1.060  2.909  0.000    20.057     6.379
 517   6 C      0.272  1.047  2.681  0.000    22.405     7.751
 518   8 O     -0.507  1.757  4.750  0.000    23.934     6.559
 519   6 C     -0.067  1.051  3.016  0.000    21.784     6.644
 520   6 C     -0.094  1.058  3.036  0.000    22.283     6.720
 521   6 C      0.291  1.038  2.671  0.000    22.064     7.691
 522   8 O     -0.504  1.755  4.748  0.000    23.865     6.550
 523   7 N     -0.288  1.267  4.022  0.000    27.437     7.779
 524   1 H      0.159  0.841  0.000  0.000     1.340     1.813
 525   1 H      0.032  0.968  0.000  0.000     2.559     2.502
 526   1 H      0.073  0.927  0.000  0.000     2.053     2.241
 527   1 H      0.042  0.958  0.000  0.000     2.426     2.436
 528   1 H      0.067  0.933  0.000  0.000     2.114     2.274
 529   1 H      0.060  0.940  0.000  0.000     2.198     2.318
 530   1 H      0.220  0.780  0.000  0.000     1.010     1.575
 531   1 H      0.222  0.778  0.000  0.000     1.003     1.568
 532   7 N     -0.171  1.248  3.923  0.000    24.696     7.381
 533   6 C      0.025  1.063  2.912  0.000    20.150     6.392
 534   6 C      0.215  1.082  2.703  0.000    23.457     7.932
 535   8 O     -0.385  1.760  4.624  0.000    21.376     6.199
 536   6 C     -0.020  1.065  2.955  0.000    20.893     6.501
 537   6 C     -0.121  1.041  3.080  0.000    22.877     6.820
 538   6 C     -0.124  1.042  3.082  0.000    22.928     6.827
 539   1 H      0.233  0.767  0.000  0.000     0.953     1.529
 540   1 H      0.075  0.925  0.000  0.000     2.029     2.228
 541   1 H      0.060  0.940  0.000  0.000     2.203     2.321
 542   1 H      0.069  0.931  0.000  0.000     2.094     2.263
 543   1 H      0.041  0.959  0.000  0.000     2.435     2.440
 544   1 H      0.047  0.953  0.000  0.000     2.352     2.398
 545   1 H      0.062  0.938  0.000  0.000     2.171     2.304
 546   1 H      0.047  0.953  0.000  0.000     2.360     2.402
 547   1 H      0.055  0.945  0.000  0.000     2.264     2.353
 548   1 H      0.184  0.816  0.000  0.000     1.192     1.710
 549   1 H      0.076  0.924  0.000  0.000     2.017     2.221
 550   1 H      0.171  0.829  0.000  0.000     1.267     1.763
 551   1 H      0.072  0.928  0.000  0.000     2.066     2.248
 552   1 H      0.188  0.812  0.000  0.000     1.168     1.693
 553   1 H      0.070  0.930  0.000  0.000     2.084     2.257
 554   1 H      0.176  0.824  0.000  0.000     1.237     1.742
 555   1 H      0.070  0.930  0.000  0.000     2.083     2.257
 556   1 H      0.185  0.815  0.000  0.000     1.185     1.705
 557   1 H      0.095  0.905  0.000  0.000     1.826     2.113
 558   1 H      0.190  0.810  0.000  0.000     1.156     1.684
 559   1 H      0.098  0.902  0.000  0.000     1.799     2.097
 560   1 H      0.190  0.810  0.000  0.000     1.159     1.686
 561   1 H      0.088  0.912  0.000  0.000     1.897     2.154
 562   1 H      0.186  0.814  0.000  0.000     1.182     1.703
 563   1 H      0.081  0.919  0.000  0.000     1.963     2.191
 564   1 H      0.185  0.815  0.000  0.000     1.185     1.705
 565   1 H      0.072  0.928  0.000  0.000     2.063     2.246
 566   1 H      0.195  0.805  0.000  0.000     1.131     1.665
 567   1 H      0.072  0.928  0.000  0.000     2.064     2.246
 568   1 H      0.183  0.817  0.000  0.000     1.194     1.711
 569   1 H      0.072  0.928  0.000  0.000     2.058     2.243
 570   1 H      0.171  0.829  0.000  0.000     1.267     1.763
 571   1 H      0.084  0.916  0.000  0.000     1.942     2.179
 572   1 H      0.182  0.818  0.000  0.000     1.200     1.716
 573   1 H      0.076  0.924  0.000  0.000     2.024     2.225
 574   1 H      0.181  0.819  0.000  0.000     1.210     1.723
 575   1 H      0.070  0.930  0.000  0.000     2.084     2.257
 576   1 H      0.165  0.835  0.000  0.000     1.300     1.786
 577   1 H      0.085  0.915  0.000  0.000     1.927     2.171
 578   1 H      0.186  0.814  0.000  0.000     1.181     1.702
 579   1 H      0.068  0.932  0.000  0.000     2.111     2.272

 Mol. C6AA /au·bohr⁶  :    2861455.029542
 Mol. C8AA /au·bohr⁸  :   62168223.428281
 Mol. α(0) /au        :       2516.422030

 
molecular dipole:
                 x           y           z       tot (Debye)
 q only:        2.533      30.085     -24.217
   full:        4.738      27.904     -21.365      90.136
molecular quadrupole (traceless):
                xx          xy          yy          xz          yz          zz
 q only:     2119.615   13809.948   12004.288   -9744.044    4876.269  -14123.903
  q+dip:     3093.788   13285.411   10298.949   -7826.608    4756.420  -13392.737
   full:     3093.516   13283.198   10308.042   -7826.917    4756.921  -13401.558
speedup 14.75
cpu  time for grad    1 m 12.8 s
wall time for grad    0 m  4.9 s

SCC energy    :    -871.1031406
rep           :      10.5506157
ES            :       2.5527548
AES           :      -0.0831195
AXC           :       0.3041225
disp          :      -0.7328000
XB            :       0.0000000
fix           :       0.0000000
Gborn         :       0.0000000
Gsasa         :       0.0000000
Ghb           :       0.0000000
Gshift        :       0.0000000
Gsolv         :      -0.5898307     -370.12
Etot ala COSMO:    -871.1031406
grad norm     :       0.8828205
total E       :    -860.4790458
atomizationE  :     156.1310397    97973.71
(atE without considering molecular charge,
 total energy contains solvation terms)
H-L gap (eV)  :          1.1788

------------------------------------------------------------------------
 * finished run on 2019/02/13 at 00:17:40.179     
------------------------------------------------------------------------
 total:
 * wall-time:     0 d,  0 h,  0 min,  5.601 sec
 *  cpu-time:     0 d,  0 h,  1 min, 21.512 sec
 * ratio c/w:    14.554 speedup
 SCF:
 * wall-time:     0 d,  0 h,  0 min,  5.253 sec
 *  cpu-time:     0 d,  0 h,  1 min, 17.092 sec
 * ratio c/w:    14.677 speedup

