      -----------------------------------------------------------      
     |                   =====================                   |     
     |                           x T B                           |     
     |                   =====================                   |     
     |                         S. Grimme                         |     
     |          Mulliken Center for Theoretical Chemistry        |     
     |                    University of Bonn                     |     
     |                Version 6.1 RC1 (SAW190329)                |     
      -----------------------------------------------------------      

   This program is distributed in the hope that it will be useful,
   but WITHOUT ANY WARRANTY; without even the implied warranty of
   MERCHANTABILITY or FITNESS FOR A PARTICULAR PURPOSE.
   
   FOR NON-COMMERCIAL, ACADEMIA USE ONLY.
   
   Cite this work as:
   S. Grimme, C. Bannwarth, P. Shushkov, J. Comput. Theory Chem., 2017,
   13, 1989-2009. DOI: 10.1021/acs.jctc.7b00118
   C. Bannwarth, S. Ehlert and S. Grimme., J. Comput. Theory Chem., 2019,
   just accepted. DOI: 10.1021/acs.jctc.8b01176
   
   for sTDA-xTB:
   S. Grimme and C. Bannwarth, J. Chem. Phys., 2016, 145, 054103.
   DOI: 10.1063/1.4959605
   
   in the mass-spec context:
   V. Asgeirsson, C. Bauer and S. Grimme, Chem. Sci., 2017, 8, 4879.
   DOI: 10.1039/c7sc00601b
   
   for metadynamics refer to:
   S. Grimme, ChemRxiv, Preprint. DOI: 10.26434/chemrxiv.7660532.v1
   
   with help from (in alphabetical order)
   C. Bannwarth, F. Bohle, G. Brandenburg, E. Caldeweyher, M. Checinski,
   S. Dohm, S. Ehlert, S. Ehrlich, F. März, H. Neugebauer, J. Pisarek,
   P. Pracht, P. Shushkov, and S. Spicher.
   
 * started run on 2019/05/31 at 04:12:49.946     

           -------------------------------------------------
          |                Calculation Setup                |
           -------------------------------------------------

          program call               : /home/lum/install/xtb/xtb-190329/bin/xtb xtb_tmp.xyz --chrg 0 --grad --gfn 2 --etemp 500 --acc 0.1 --gbsa h2o --parallel 1
          hostname                   : cu08
          coordinate file            : xtb_tmp.xyz
          omp threads                :                     1
          number of atoms            :                    69
          number of electrons        :                   198
          charge                     :                     0
          spin                       :                   0.0
          first test random number   :      0.78480460574310


########################################################################
# WARNING! Please study the warnings concerning your input carefully
#  - XTBPATH is not set, using XTBHOME instead
########################################################################

           ------------------------------------------------- 
          |                 G F N 2 - x T B                 |
          | Geometry, Frequencies, Noncovalent interactions |
          |            JCTC 2018 parametrisation            |
           ------------------------------------------------- 
 
             k(s)              :                1.8500
             k(p)              :                2.2300
             k(d)              :                2.2300
             k(f)              :                2.0000
             kEN (H0ij)        :               -2.0000
             D4 a1             :                0.5200
             D4 a2             :                5.0000
             D4 s6             :                1.0000
             D4 s8             :                2.7000
             D4 s9             :                5.0000
             alphaj            :                2.0000

  Z AO/shell   Hii/eV     exponent
  1     Wed Apr 25 08:07:45 CEST 2018   EN: 2.200 GM2: 0.406  GM3: 0.0800  RAES: 1.40
     1s    -10.707211    1.230000
  6     Wed Apr 25 08:07:45 CEST 2018   EN: 2.550 GM2: 0.538  GM3: 0.1500  RAES: 3.00
     2s    -13.970922    2.096432
     2p    -10.063292    1.800000
  7     Wed Apr 25 08:07:45 CEST 2018   EN: 3.040 GM2: 0.461  GM3:-0.0640  RAES: 1.90
     2s    -16.686243    2.339881
     2p    -12.523956    2.014332
  8     Wed Apr 25 08:07:45 CEST 2018   EN: 3.440 GM2: 0.452  GM3:-0.0517  RAES: 1.80
     2s    -20.229985    2.439742
     2p    -15.503117    2.137023

 Solvent             : h2o
 Using internal parameter file: .param_gbsa2_h2o
 Gsolv ref. state (COSMO-RS): gsolv [1 M gas/solution]
 temperature (mdtemp)       :    298.150000000000     
 dielectric constant        :    80.2000000000000     
 rho                        :    1.00000000000000     
 mass                       :    18.0000000000000     
 surface tension            :    15.5689454083859     
 probe radius               :   0.975313790000000     
 vdW radii scaling          :    1.00000000000000     
 Gshift (Eh)                :   1.857443126794793E-003
 c1                         :    1.55243817000000     
 soset                      :   0.130326360000000     
 HB correction              :  T
 Number of grid points      :          230

            Z     q(EN)     CN     RAES       Cart. coordinates
     1  N   5.0   -0.68    3.00    1.93    38.65492    59.68674    47.42489
     2  C   4.0    0.08    3.99    3.60    37.08679    61.28500    48.99649
     3  C   4.0    0.30    3.01    3.02    38.49493    62.18245    51.36803
     4  O   6.0   -0.40    1.00    1.80    39.95877    60.80151    52.53221
     5  C   4.0   -0.14    3.99    3.60    34.75352    59.84339    49.91059
     6  C   4.0   -0.15    3.98    3.59    33.02119    59.03607    47.75015
     7  C   4.0   -0.04    3.99    3.60    30.74671    57.58172    48.77193
     8  N   5.0   -0.48    3.02    1.93    29.20289    56.71710    46.67504
     9  C   4.0    0.37    3.00    3.02    27.52132    54.85237    46.75134
    10  N   5.0   -0.64    3.02    1.93    27.01741    53.64264    48.90308
    11  N   5.0   -0.63    3.02    1.93    26.31722    54.14142    44.67231
    12  H   1.0    0.26    1.00    1.43    38.34054    57.79913    47.48834
    13  H   1.0    0.12    0.99    1.43    36.53608    62.96080    47.91372
    14  H   1.0    0.12    0.99    1.43    35.37869    58.19059    50.97706
    15  H   1.0    0.13    0.99    1.43    33.72727    61.07964    51.20627
    16  H   1.0    0.12    0.99    1.43    32.38688    60.72462    46.75209
    17  H   1.0    0.11    0.99    1.43    34.06216    57.83701    46.43733
    18  H   1.0    0.12    0.99    1.43    31.42168    55.93836    49.82815
    19  H   1.0    0.12    0.99    1.43    29.65751    58.81410    50.02918
    20  H   1.0    0.24    1.00    1.43    29.40326    57.68702    45.04364
    21  H   1.0    0.26    1.00    1.43    27.61719    54.31720    50.57271
    22  H   1.0    0.27    1.00    1.43    25.73828    52.23359    48.83644
    23  H   1.0    0.26    1.00    1.43    26.77220    54.88531    42.98612
    24  H   1.0    0.26    1.00    1.43    25.33094    52.45569    44.69563
    25  N   5.0   -0.48    3.01    1.93    37.93066    64.54163    52.04094
    26  C   4.0    0.08    3.99    3.61    38.55142    65.49128    54.52724
    27  C   4.0    0.28    3.01    3.02    37.90951    63.45690    56.48547
    28  O   6.0   -0.41    1.00    1.80    36.00288    62.16247    56.35024
    29  C   4.0   -0.14    3.98    3.59    37.07317    67.94405    54.99933
    30  C   4.0   -0.10    3.97    3.58    34.21095    67.61891    55.23518
    31  C   4.0    0.32    2.99    3.02    32.64578    67.31977    52.76296
    32  O   6.0   -0.44    1.00    1.80    33.77062    66.98545    50.70119
    33  O   6.0   -0.37    1.00    1.80    30.31389    67.42592    53.02553
    34  H   1.0    0.29    1.00    1.43    36.40669    65.45403    51.21503
    35  H   1.0    0.12    0.99    1.43    40.58873    65.89165    54.60990
    36  H   1.0    0.11    0.99    1.43    37.78323    68.79945    56.73744
    37  H   1.0    0.13    0.99    1.43    37.47426    69.22565    53.43055
    38  H   1.0    0.15    0.99    1.43    33.75217    65.96732    56.38373
    39  H   1.0    0.12    0.99    1.43    33.40855    69.26318    56.19149
    40  N   5.0   -0.50    3.00    1.93    39.57160    63.25107    58.40253
    41  C   4.0    0.03    3.99    3.61    39.27243    61.39274    60.37241
    42  C   4.0    0.27    3.00    3.02    40.89994    59.02529    60.06726
    43  O   6.0   -0.39    1.00    1.80    41.37458    57.67958    61.88818
    44  H   1.0    0.25    1.00    1.43    41.20932    64.22296    58.34562
    45  H   1.0    0.12    0.99    1.43    39.67024    62.22016    62.22056
    46  H   1.0    0.14    0.99    1.43    37.29819    60.77302    60.33491
    47  N   5.0   -0.44    3.01    1.93    41.68782    58.54488    57.72224
    48  C   4.0    0.07    3.99    3.61    43.14665    56.33488    57.07782
    49  C   4.0    0.07    3.00    3.02    45.81437    57.13059    56.26726
    50  O   6.0   -0.35    1.00    1.80    46.39626    59.32587    55.87257
    51  C   4.0   -0.12    3.99    3.60    41.78448    54.87463    54.96121
    52  C   4.0   -0.02    3.03    3.02    39.27469    53.93835    55.90812
    53  C   4.0   -0.10    3.03    3.02    39.04897    51.58409    57.05308
    54  C   4.0   -0.08    3.03    3.02    37.14692    55.46824    55.74882
    55  C   4.0   -0.06    3.03    3.02    36.74446    50.74889    57.94808
    56  C   4.0   -0.09    3.03    3.02    34.83434    54.65123    56.64241
    57  C   4.0    0.11    3.03    3.02    34.61222    52.27331    57.73607
    58  O   6.0   -0.45    1.99    1.83    32.36452    51.36247    58.59083
    59  H   1.0    0.30    1.00    1.43    41.19787    59.68106    56.25952
    60  H   1.0    0.14    0.99    1.43    43.26812    55.18191    58.79598
    61  H   1.0    0.14    0.99    1.43    41.50899    56.18708    53.39117
    62  H   1.0    0.10    0.99    1.43    42.95815    53.29269    54.35986
    63  H   1.0    0.12    0.99    1.43    40.68772    50.38639    57.27197
    64  H   1.0    0.15    1.00    1.43    37.29657    57.33418    54.93490
    65  H   1.0    0.14    1.00    1.43    36.59096    48.94346    58.88590
    66  H   1.0    0.12    0.99    1.43    33.21681    55.89169    56.51822
    67  H   1.0    0.26    0.99    1.43    31.08628    52.66100    58.45923
    68  H   1.0    0.29    1.00    1.43    38.45132    60.12002    45.79290
    69  H   1.0    0.13    1.00    1.43    47.16213    55.82531    56.04177

           ------------------------------------------------- 
          |        Self-Consistent Charge Iterations        |
           ------------------------------------------------- 

          ...................................................
          :                      SETUP                      :
          :.................................................:
          :  # basis functions                 177          :
          :  # atomic orbitals                 177          :
          :  # shells                          105          :
          :  # electrons                       198          :
          :  max. iterations                   250          :
          :  Hamiltonian                  GFN2-xTB          :
          :  restarted?                      false          :
          :  GBSA solvation                   true          :
          :  PC potential                    false          :
          :  electronic temp.          500.0000000     K    :
          :  accuracy                    0.1000000          :
          :  -> integral cutoff          0.3500000E+02      :
          :  -> integral neglect         0.1000000E-08      :
          :  -> SCF convergence          0.1000000E-06 Eh   :
          :  -> wf. convergence          0.1000000E-04 e    :
          :  Broyden damping             0.4000000          :
          ...................................................

 iter      E             dE          RMSdq      gap      omega  full diag
   1   -114.0806883 -0.114081E+03  0.449E+00    2.40       0.0  T
   2   -114.3137742 -0.233086E+00  0.233E+00    1.69       1.0  T
   3   -114.3238287 -0.100545E-01  0.116E+00    2.30       1.0  T
   4   -114.3305629 -0.673414E-02  0.291E-01    1.91       1.0  T
   5   -114.3326505 -0.208765E-02  0.127E-01    2.01       1.0  T
   6   -114.3327603 -0.109766E-03  0.544E-02    2.00       1.0  T
   7   -114.3327964 -0.361628E-04  0.272E-02    2.00       1.0  T
   8   -114.3328057 -0.929997E-05  0.817E-03    2.00       1.5  T
   9   -114.3328065 -0.802394E-06  0.389E-03    2.00       3.1  T
  10   -114.3328067 -0.157347E-06  0.156E-03    2.00       7.7  T
  11   -114.3328067 -0.189922E-07  0.470E-04    2.00      25.6  T
  12   -114.3328067 -0.430086E-08  0.233E-04    2.00      51.6  T
  13   -114.3328067 -0.120207E-08  0.102E-04    2.00     118.4  T
  14   -114.3328067 -0.115918E-09  0.349E-05    2.00     345.0  T
  15   -114.3328067 -0.156888E-10  0.158E-05    2.00     759.6  T

   *** convergence criteria satisfied after 15 iterations ***

         #    Occupation            Energy/Eh            Energy/eV
      -------------------------------------------------------------
         1        2.0000           -0.7342739             -19.9806
       ...           ...                  ...                  ...
        93        2.0000           -0.4026211             -10.9559
        94        2.0000           -0.4009130             -10.9094
        95        2.0000           -0.3947721             -10.7423
        96        2.0000           -0.3840882             -10.4516
        97        2.0000           -0.3789771             -10.3125
        98        2.0000           -0.3672189              -9.9925
        99        2.0000           -0.3600181              -9.7966 (HOMO)
       100                         -0.2863363              -7.7916 (LUMO)
       101                         -0.2311354              -6.2895
       102                         -0.2282871              -6.2120
       103                         -0.2225982              -6.0572
       104                         -0.2192332              -5.9656
       ...                                ...                  ...
       177                          0.6619865              18.0136
      -------------------------------------------------------------
                  HL-Gap            0.0736818 Eh            2.0050 eV
             Fermi-level           -0.3231689 Eh           -8.7939 eV

 SCC (total)                   0 d,  0 h,  0 min,  0.165 sec
 SCC setup                      ...        0 min,  0.005 sec (  2.794%)
 Dispersion                     ...        0 min,  0.002 sec (  1.031%)
 integral evaluation            ...        0 min,  0.028 sec ( 17.068%)
 zeroth order Hamiltonian       ...        0 min,  0.000 sec (  0.236%)
 iterations                     ...        0 min,  0.085 sec ( 51.267%)
 molecular gradient             ...        0 min,  0.045 sec ( 27.051%)
 printout                       ...        0 min,  0.001 sec (  0.538%)

         :::::::::::::::::::::::::::::::::::::::::::::::::::::
         ::                     SUMMARY                     ::
         :::::::::::::::::::::::::::::::::::::::::::::::::::::
         :: total energy             -112.943641457211 Eh   ::
         :: total w/o Gsasa/hb       -112.920386173742 Eh   ::
         :: gradient norm               0.219056991167 Eh/α ::
         :: HOMO-LUMO gap               2.004984738870 eV   ::
         ::.................................................::
         :: SCC energy               -114.336191806745 Eh   ::
         :: -> isotropic ES             0.443260655802 Eh   ::
         :: -> anisotropic ES          -0.015754141716 Eh   ::
         :: -> anisotropic XC           0.035511848678 Eh   ::
         :: -> dispersion              -0.075369928071 Eh   ::
         :: -> Gsolv                   -0.146715787522 Eh   ::
         ::    -> Gborn                -0.123460504054 Eh   ::
         ::    -> Gsasa                -0.005242530199 Eh   ::
         ::    -> Ghb                  -0.019870196397 Eh   ::
         ::    -> Gshift                0.001857443127 Eh   ::
         :: repulsion energy            1.389957192917 Eh   ::
         :: add. restraining            0.000000000000 Eh   ::
         :::::::::::::::::::::::::::::::::::::::::::::::::::::

           -------------------------------------------------
          |                Property Printout                |
           -------------------------------------------------

    * Orbital Energies and Occupations

         #    Occupation            Energy/Eh            Energy/eV
      -------------------------------------------------------------
         1        2.0000           -0.7342739             -19.9806
       ...           ...                  ...                  ...
        87        2.0000           -0.4240661             -11.5394
        88        2.0000           -0.4238258             -11.5329
        89        2.0000           -0.4195167             -11.4156
        90        2.0000           -0.4070226             -11.0756
        91        2.0000           -0.4059034             -11.0452
        92        2.0000           -0.4028950             -10.9633
        93        2.0000           -0.4026211             -10.9559
        94        2.0000           -0.4009130             -10.9094
        95        2.0000           -0.3947721             -10.7423
        96        2.0000           -0.3840882             -10.4516
        97        2.0000           -0.3789771             -10.3125
        98        2.0000           -0.3672189              -9.9925
        99        2.0000           -0.3600181              -9.7966 (HOMO)
       100                         -0.2863363              -7.7916 (LUMO)
       101                         -0.2311354              -6.2895
       102                         -0.2282871              -6.2120
       103                         -0.2225982              -6.0572
       104                         -0.2192332              -5.9656
       105                         -0.2127478              -5.7892
       106                         -0.2096141              -5.7039
       107                         -0.1769285              -4.8145
       108                         -0.0911530              -2.4804
       109                         -0.0617589              -1.6805
       110                         -0.0182584              -0.4968
       ...                                ...                  ...
       177                          0.6619865              18.0136
      -------------------------------------------------------------
                  HL-Gap            0.0736818 Eh            2.0050 eV
             Fermi-level           -0.3231689 Eh           -8.7939 eV

   #   Z        covCN         q      C6AA      α(0)
   1   7 N      2.635    -0.395    30.221     8.165
   2   6 C      3.789     0.038    19.950     6.361
   3   6 C      2.762     0.275    22.352     7.742
   4   8 O      0.858    -0.510    24.017     6.571
   5   6 C      3.812    -0.058    21.609     6.617
   6   6 C      3.804    -0.074    21.920     6.665
   7   6 C      3.739    -0.018    20.971     6.534
   8   7 N      2.700    -0.141    24.062     7.285
   9   6 C      2.736     0.233    23.107     7.870
  10   7 N      2.653    -0.251    26.532     7.650
  11   7 N      2.654    -0.257    26.672     7.670
  12   1 H      0.860     0.173     1.257     1.756
  13   1 H      0.924     0.025     2.655     2.548
  14   1 H      0.924     0.050     2.324     2.384
  15   1 H      0.924     0.023     2.690     2.565
  16   1 H      0.924     0.053     2.280     2.361
  17   1 H      0.924     0.071     2.075     2.253
  18   1 H      0.924     0.085     1.925     2.170
  19   1 H      0.924     0.068     2.113     2.273
  20   1 H      0.860     0.230     0.964     1.538
  21   1 H      0.860     0.242     0.913     1.497
  22   1 H      0.860     0.259     0.849     1.443
  23   1 H      0.860     0.251     0.881     1.470
  24   1 H      0.859     0.263     0.836     1.432
  25   7 N      2.693    -0.225    25.905     7.559
  26   6 C      3.797     0.033    20.019     6.371
  27   6 C      2.756     0.282    22.218     7.719
  28   8 O      0.858    -0.483    23.404     6.486
  29   6 C      3.804    -0.062    21.683     6.629
  30   6 C      3.797    -0.096    22.334     6.729
  31   6 C      2.683     0.372    20.697     7.445
  32   8 O      0.857    -0.613    26.442     6.894
  33   8 O      0.857    -0.632    26.928     6.957
  34   1 H      0.859     0.236     0.941     1.520
  35   1 H      0.923     0.044     2.391     2.418
  36   1 H      0.924     0.049     2.336     2.390
  37   1 H      0.924     0.054     2.267     2.354
  38   1 H      0.924     0.035     2.510     2.478
  39   1 H      0.924     0.029     2.604     2.523
  40   7 N      2.686    -0.184    24.977     7.423
  41   6 C      3.745    -0.033    21.241     6.574
  42   6 C      2.751     0.274    22.364     7.744
  43   8 O      0.858    -0.498    23.742     6.533
  44   1 H      0.860     0.208     1.064     1.616
  45   1 H      0.924     0.092     1.860     2.133
  46   1 H      0.924     0.100     1.787     2.091
  47   7 N      2.692    -0.154    24.331     7.326
  48   6 C      3.794     0.027    20.134     6.390
  49   6 C      2.765     0.198    23.775     7.985
  50   8 O      0.856    -0.368    21.057     6.152
  51   6 C      3.811    -0.077    21.970     6.672
  52   6 C      2.971     0.003    27.947     8.671
  53   6 C      2.924    -0.042    29.048     8.838
  54   6 C      2.925    -0.038    28.939     8.822
  55   6 C      2.918    -0.060    29.489     8.905
  56   6 C      2.917    -0.075    29.872     8.963
  57   6 C      2.846     0.144    24.863     8.172
  58   8 O      1.659    -0.434    21.517     6.262
  59   1 H      0.860     0.211     1.054     1.608
  60   1 H      0.924     0.101     1.774     2.083
  61   1 H      0.924     0.074     2.038     2.232
  62   1 H      0.925     0.075     2.037     2.232
  63   1 H      0.926     0.050     2.321     2.382
  64   1 H      0.926     0.034     2.532     2.488
  65   1 H      0.926     0.054     2.272     2.357
  66   1 H      0.926     0.038     2.471     2.458
  67   1 H      0.805     0.351     0.586     1.202
  68   1 H      0.862     0.185     1.184     1.704
  69   1 H      0.930     0.085     1.925     2.170

 Mol. C6AA /au·bohr⁶  :      48076.378579
 Mol. C8AA /au·bohr⁸  :    1086346.302337
 Mol. α(0) /au        :        331.483925


Wiberg/Mayer (AO) data.
largest (>0.10) Wiberg bond orders for each atom
          total WBO             WBO to atom ...
     1  N   2.996        C    2 1.021    H   68 0.956    H   12 0.952
     2  C   3.987        N    1 1.021    C    5 0.971    H   13 0.963    C    3 0.936
     3  C   3.940        O    4 1.603    N   25 1.317    C    2 0.936
     4  O   1.931        C    3 1.603    N   25 0.188
     5  C   3.993        C    6 1.003    H   15 0.975    H   14 0.971    C    2 0.971
     6  C   3.991        C    7 1.005    C    5 1.003    H   16 0.975    H   17 0.970
     7  C   3.961        C    6 1.005    N    8 0.988    H   19 0.962    H   18 0.962
     8  N   3.469        C    9 1.313    C    7 0.988    H   20 0.914    N   11 0.102
     9  C   3.977        N   11 1.318    N   10 1.316    N    8 1.313
    10  N   3.393        C    9 1.316    H   21 0.919    H   22 0.913    N   11 0.101
    11  N   3.383        C    9 1.318    H   23 0.917    H   24 0.908    N    8 0.102    N   10 0.101
    12  H   0.970        N    1 0.952
    13  H   0.999        C    2 0.963
    14  H   0.998        C    5 0.971
    15  H   0.999        C    5 0.975
    16  H   0.997        C    6 0.975
    17  H   0.995        C    6 0.970
    18  H   0.993        C    7 0.962
    19  H   0.995        C    7 0.962
    20  H   0.947        N    8 0.914
    21  H   0.941        N   10 0.919
    22  H   0.933        N   10 0.913
    23  H   0.937        N   11 0.917
    24  H   0.930        N   11 0.908
    25  N   3.435        C    3 1.317    C   26 0.986    H   34 0.821    O    4 0.188
    26  C   3.977        N   25 0.986    C   29 0.978    H   35 0.955    C   27 0.938
    27  C   3.946        O   28 1.647    N   40 1.273    C   26 0.938
    28  O   1.967        C   27 1.647    N   40 0.191
    29  C   3.993        C   30 1.011    C   26 0.978    H   36 0.975    H   37 0.970
    30  C   3.988        C   29 1.011    H   39 0.970    H   38 0.961    C   31 0.924
    31  C   3.932        O   33 1.527    O   32 1.450    C   30 0.924
    32  O   1.864        C   31 1.450    O   33 0.204
    33  O   1.812        C   31 1.527    O   32 0.204
    34  H   0.944        N   25 0.821
    35  H   0.998        C   26 0.955
    36  H   0.997        C   29 0.975
    37  H   0.997        C   29 0.970
    38  H   0.999        C   30 0.961
    39  H   0.999        C   30 0.970
    40  N   3.454        C   27 1.273    C   41 0.998    H   44 0.927    O   28 0.191
    41  C   3.959        N   40 0.998    H   45 0.957    C   42 0.947    H   46 0.942
    42  C   3.954        O   43 1.622    N   47 1.316    C   41 0.947
    43  O   1.943        C   42 1.622    N   47 0.200
    44  H   0.957        N   40 0.927
    45  H   0.991        C   41 0.957
    46  H   0.990        C   41 0.942
    47  N   3.494        C   42 1.316    C   48 0.991    H   59 0.907    O   43 0.200
    48  C   3.964        N   47 0.991    C   49 0.981    C   51 0.938    H   60 0.931
    49  C   3.900        O   50 1.896    C   48 0.981    H   69 0.951
    50  O   2.040        C   49 1.896
    51  C   3.983        C   52 1.008    H   62 0.967    H   61 0.967    C   48 0.938
    52  C   3.987        C   54 1.408    C   53 1.403    C   51 1.008
    53  C   3.989        C   55 1.461    C   52 1.403    H   63 0.968    C   56 0.104
    54  C   3.990        C   56 1.450    C   52 1.408    H   64 0.964    C   55 0.107
    55  C   3.987        C   53 1.461    C   57 1.363    H   65 0.968    C   54 0.107
    56  C   3.986        C   54 1.450    C   57 1.373    H   66 0.966    C   53 0.104
    57  C   3.940        C   56 1.373    C   55 1.363    O   58 1.075
    58  O   2.089        C   57 1.075    H   67 0.857
    59  H   0.956        N   47 0.907
    60  H   0.990        C   48 0.931
    61  H   0.994        C   51 0.967
    62  H   0.993        C   51 0.967
    63  H   0.997        C   53 0.968
    64  H   0.999        C   54 0.964
    65  H   0.997        C   55 0.968
    66  H   0.998        C   56 0.966
    67  H   0.877        O   58 0.857
    68  H   0.965        N    1 0.956
    69  H   0.992        C   49 0.951
 
molecular dipole:
                 x           y           z       tot (Debye)
 q only:       -5.708     -10.540      -6.747
   full:       -5.955      -9.738      -6.894      33.894
molecular quadrupole (traceless):
                xx          xy          yy          xz          yz          zz
 q only:      610.336    -973.535    -743.591    -748.402   -1369.902     133.255
  q+dip:      549.527    -952.807    -628.122    -775.632   -1316.013      78.595
   full:      548.960    -951.850    -629.241    -775.566   -1313.978      80.282


           -------------------------------------------------
          | TOTAL ENERGY             -112.943641457211 Eh   |
          | GRADIENT NORM               0.219056991167 Eh/α |
          | HOMO-LUMO GAP               2.004984738870 eV   |
           -------------------------------------------------

------------------------------------------------------------------------
 * finished run on 2019/05/31 at 04:12:50.204     
------------------------------------------------------------------------
 total:
 * wall-time:     0 d,  0 h,  0 min,  0.257 sec
 *  cpu-time:     0 d,  0 h,  0 min,  0.200 sec
 * ratio c/w:     0.779 speedup
 SCF:
 * wall-time:     0 d,  0 h,  0 min,  0.165 sec
 *  cpu-time:     0 d,  0 h,  0 min,  0.165 sec
 * ratio c/w:     1.000 speedup

