      -----------------------------------------------------------      
     |                   =====================                   |     
     |                           x T B                           |     
     |                   =====================                   |     
     |                         S. Grimme                         |     
     |          Mulliken Center for Theoretical Chemistry        |     
     |                    University of Bonn                     |     
     |                 Version 6.0.1 (SAW181210)                 |     
      -----------------------------------------------------------      

   This program is distributed in the hope that it will be useful,
   but WITHOUT ANY WARRANTY; without even the implied warranty of
   MERCHANTABILITY or FITNESS FOR A PARTICULAR PURPOSE.
   
   FOR NON-COMMERCIAL, ACADEMIA USE ONLY.
   
   Cite this work as:
   S. Grimme, C. Bannwarth, P. Shushkov, J. Comput. Theory Chem., 2017,
   13, 1989-2009.
   C. Bannwarth, S. Ehlert and S. Grimme., ChemRxiv, 2018, preprint.
   http://doi.org/10.26434/chemrxiv.7246238.v1
   
   for sTDA-xTB:
   S. Grimme and C. Bannwarth, J. Chem. Phys., 2016, 145, 054103.
   
   in the mass-spec context:
   V. Asgeirsson, C. Bauer and S. Grimme, Chem. Sci., 2017, 8, 4879.
   
   if GBSA is used:
   P. Shushkov, F. März and S. Grimme, unpublished.
   
   for ANC optimizer:
   S. Grimme, unpublished.
   Rational Function algorithm used in ANCopt:
   F. Eckert, P. Pulay, H.-J. Werner, J. Comput. Chem., 1997, 18, 1473.
   
   with help from (in alphabetical order)
   C. Bannwarth, F. Bohle, G. Brandenburg, E. Caldeweyher, M. Checinski,
   S. Dohm, S. Ehlert, S. Ehrlich, F. März, H. Neugebauer, J. Pisarek,
   P. Pracht, P. Shushkov, and S. Spicher.
   
 * started run on 2019/02/13 at 00:18:46.550     
========================================================================
 # omp threads = 16
========================================================================
number of atoms            : 176
number of electrons        : 476
charge                     : 0
spin                       : .0
first test random number   : .3672

########################################################################
# WARNING! Please study the warnings concerning your input carefully
#  - Process number higher than OMP_NUM_THREADS, I hope you know what you are doing.
########################################################################

           ------------------------------------------------- 
          |                 G F N 2 - x T B                 |
          | Geometry, Frequencies, Noncovalent interactions |
          |            JCTC 2018 parametrisation            |
           ------------------------------------------------- 
 
      method parameters     
 k(s)        :  1.8500
 k(p)        :  2.2300
 k(d)        :  2.2300
 k(f)        :  2.0000
 kEN (H0ij)  : -2.0000
 D4 a1       :  0.5200
 D4 a2       :  5.0000
 D4 s6       :  1.0000
 D4 s8       :  2.7000
 D4 s9       :  5.0000
 alphaj      :  2.0000

 Solvent             : h2o
 Using internal parameter file: .param_gbsa2_h2o
 Gsolv ref. state (COSMO-RS): gsolv [1 M gas/solution]
 temperature (mdtemp)       :    298.150000000000     
 dielectric constant        :    80.2000000000000     
 rho                        :    1.00000000000000     
 mass                       :    18.0000000000000     
 surface tension            :    15.5689454083859     
 probe radius               :   0.975313790000000     
 vdW radii scaling          :    1.00000000000000     
 Gshift (Eh)                :   1.857443126794793E-003
 c1                         :    1.55243817000000     
 soset                      :   0.130326360000000     
 HB correction              :  T

            Z     q(EN)     CN     RAES       Cart. coordinates
     1  N   5.0   -0.20    3.22    1.96   257.61996   127.27130   245.72819
     2  C   4.0    0.04    4.23    4.06   260.27136   126.80202   245.26832
     3  C   4.0    0.08    3.23    3.04   260.49681   125.48883   242.72114
     4  O   6.0   -0.33    1.21    1.80   262.05634   126.14670   241.13666
     5  C   4.0   -0.03    4.26    4.12   261.41186   125.14528   247.31717
     6  C   4.0    0.25    3.09    3.02   261.42642   126.48564   249.96776
     7  O   6.0   -0.28    1.17    1.80   261.92702   128.77909   249.99616
     8  O   6.0   -0.27    1.16    1.80   260.98147   125.09900   251.81393
     9  H   1.0    0.10    1.02    1.43   256.88386   126.68804   247.40308
    10  H   1.0    0.06    1.05    1.44   261.31342   128.59786   245.17910
    11  H   1.0    0.05    1.02    1.43   260.37954   123.37166   247.47575
    12  H   1.0    0.05    1.03    1.43   263.37668   124.73663   246.83170
    13  N   5.0   -0.20    3.23    1.96   259.41295   129.68273   237.42139
    14  C   4.0    0.03    4.28    4.16   261.64939   131.22705   237.17300
    15  C   4.0    0.16    3.44    3.09   263.80940   129.78934   235.90665
    16  O   6.0   -0.32    1.34    1.80   265.16381   130.82425   234.31560
    17  C   4.0    0.04    4.16    3.93   262.47351   132.13321   239.81214
    18  O   6.0   -0.25    2.04    1.83   264.46173   133.86562   239.73496
    19  H   1.0    0.09    1.03    1.43   258.71456   129.41488   239.18847
    20  H   1.0    0.05    1.05    1.44   261.21646   132.87691   235.97672
    21  H   1.0    0.04    1.01    1.43   260.80978   132.92335   240.76756
    22  H   1.0    0.06    1.02    1.43   263.13869   130.50367   240.89415
    23  H   1.0    0.12    1.02    1.43   263.87481   135.40885   238.94750
    24  N   5.0   -0.14    3.51    2.08   264.15174   127.41926   236.63029
    25  C   4.0    0.04    4.42    4.42   266.02766   125.82483   235.42800
    26  C   4.0    0.09    3.32    3.06   265.48968   125.86929   232.59670
    27  O   6.0   -0.28    1.12    1.80   267.11613   126.44112   231.03849
    28  C   4.0   -0.03    4.32    4.24   265.95921   123.11495   236.47008
    29  C   4.0   -0.04    4.19    3.99   267.02103   123.09170   239.16383
    30  C   4.0   -0.07    4.14    3.88   267.45991   121.35764   234.73743
    31  C   4.0   -0.07    4.01    3.64   266.57970   120.61134   240.55764
    32  H   1.0    0.11    1.13    1.45   263.10583   126.68655   238.06201
    33  H   1.0    0.06    1.05    1.44   267.91835   126.63440   235.71448
    34  H   1.0    0.05    1.05    1.44   263.98024   122.51686   236.50810
    35  H   1.0    0.04    1.03    1.43   269.04246   123.47641   239.08297
    36  H   1.0    0.06    1.03    1.43   266.14379   124.61204   240.24583
    37  H   1.0    0.04    1.00    1.43   267.44442   119.44866   235.48686
    38  H   1.0    0.05    1.01    1.43   266.64784   121.31738   232.85029
    39  H   1.0    0.04    1.00    1.43   269.40713   121.99390   234.58327
    40  H   1.0    0.04    1.00    1.43   267.25960   120.78343   242.48838
    41  H   1.0    0.05    1.00    1.43   264.57265   120.17223   240.62592
    42  H   1.0    0.04    1.00    1.43   267.56884   119.05641   239.65676
    43  N   5.0   -0.19    3.23    1.96   266.85360   132.65151   229.64665
    44  C   4.0    0.04    4.26    4.11   269.50619   133.28703   229.48062
    45  C   4.0    0.10    3.20    3.04   270.77353   131.71119   227.41548
    46  O   6.0   -0.28    1.11    1.80   272.23268   132.66370   225.88623
    47  C   4.0    0.06    4.22    4.04   270.84870   132.91872   232.05492
    48  O   6.0   -0.24    2.11    1.84   270.57708   130.43902   232.96231
    49  C   4.0   -0.07    4.07    3.75   269.91102   134.85683   233.97694
    50  H   1.0    0.12    1.07    1.44   266.16857   131.85683   231.24751
    51  H   1.0    0.05    1.05    1.44   269.69352   135.27057   228.90363
    52  H   1.0    0.06    1.04    1.43   272.87950   133.16582   231.72321
    53  H   1.0    0.15    1.05    1.44   268.83464   130.22372   233.49926
    54  H   1.0    0.05    1.00    1.43   270.98201   134.66678   235.71799
    55  H   1.0    0.04    1.00    1.43   270.13460   136.76180   233.25415
    56  H   1.0    0.06    1.00    1.43   267.92871   134.51511   234.39765
    57  N   5.0   -0.20    3.22    1.96   282.71783   129.21257   234.24902
    58  C   4.0    0.03    4.34    4.26   281.96344   127.77370   236.44274
    59  C   4.0    0.16    3.44    3.09   279.50460   128.77804   237.56630
    60  O   6.0   -0.29    1.25    1.80   278.89055   130.99798   237.40456
    61  C   4.0   -0.04    4.27    4.14   284.05860   127.78161   238.47109
    62  C   4.0   -0.03    4.23    4.06   284.79117   130.41591   239.39938
    63  C   4.0    0.17    3.27    3.05   282.75458   131.69435   240.95475
    64  O   6.0   -0.30    1.30    1.80   281.40880   130.53681   242.45333
    65  N   5.0   -0.18    3.19    1.95   282.63496   134.20364   240.72700
    66  H   1.0    0.10    1.03    1.43   282.35113   131.08330   234.27955
    67  H   1.0    0.06    1.07    1.44   281.69070   125.81928   235.82933
    68  H   1.0    0.06    1.03    1.43   283.42423   126.61175   240.04382
    69  H   1.0    0.04    1.03    1.43   285.72177   126.92977   237.60588
    70  H   1.0    0.04    1.03    1.43   286.43822   130.23571   240.63212
    71  H   1.0    0.04    1.03    1.43   285.33913   131.58506   237.79691
    72  H   1.0    0.08    1.03    1.43   283.65100   135.12800   239.41520
    73  H   1.0    0.10    1.03    1.43   281.29780   135.16371   241.68152
    74  N   5.0   -0.14    3.48    2.06   278.17045   126.99650   238.78183
    75  C   4.0    0.04    4.43    4.42   276.10786   127.55107   240.48414
    76  C   4.0    0.15    3.53    3.13   276.90080   126.47363   243.04277
    77  O   6.0   -0.32    1.34    1.80   277.35166   124.21733   243.29473
    78  C   4.0   -0.03    4.31    4.23   273.60307   126.34020   239.64478
    79  C   4.0   -0.02    3.59    3.16   271.57886   126.98447   241.53350
    80  C   4.0   -0.04    3.46    3.10   270.13348   129.15577   241.24869
    81  C   4.0   -0.04    3.48    3.11   271.18632   125.47170   243.64532
    82  C   4.0   -0.03    3.37    3.07   268.33809   129.80902   243.03518
    83  C   4.0   -0.04    3.37    3.07   269.38523   126.11581   245.42801
    84  C   4.0   -0.03    3.37    3.07   267.95680   128.28995   245.13258
    85  H   1.0    0.10    1.09    1.44   278.77791   125.17630   238.71929
    86  H   1.0    0.06    1.06    1.44   275.91177   129.60656   240.56552
    87  H   1.0    0.05    1.03    1.43   273.11697   127.06306   237.77628
    88  H   1.0    0.05    1.03    1.43   273.87592   124.29888   239.54171
    89  H   1.0    0.06    1.03    1.43   270.39692   130.34199   239.60814
    90  H   1.0    0.06    1.03    1.43   272.28404   123.76821   243.88547
    91  H   1.0    0.06    1.03    1.43   267.23706   131.50682   242.78184
    92  H   1.0    0.05    1.03    1.43   269.07895   124.92417   247.05970
    93  H   1.0    0.06    1.03    1.43   266.54943   128.78645   246.53143
    94  N   5.0   -0.14    3.46    2.05   277.22528   128.13338   244.91485
    95  C   4.0    0.05    4.45    4.47   278.15254   127.34496   247.36722
    96  C   4.0    0.17    3.50    3.11   280.36737   125.47889   247.10068
    97  O   6.0   -0.29    1.26    1.80   280.54377   123.58150   248.40189
    98  C   4.0   -0.02    4.33    4.26   276.08866   126.13076   248.99278
    99  C   4.0    0.17    3.27    3.05   277.07729   125.80614   251.67532
   100  O   6.0   -0.27    1.22    1.80   278.44185   127.37826   252.67480
   101  N   5.0   -0.17    3.18    1.95   276.26712   123.73412   252.87884
   102  H   1.0    0.09    1.06    1.44   276.87662   129.98030   244.62231
   103  H   1.0    0.06    1.06    1.44   278.87627   129.00562   248.36814
   104  H   1.0    0.05    1.03    1.43   274.43555   127.36510   249.04575
   105  H   1.0    0.06    1.03    1.43   275.54677   124.31626   248.18885
   106  H   1.0    0.10    1.03    1.43   276.87761   123.39896   254.65015
   107  H   1.0    0.09    1.03    1.43   275.24188   122.40783   251.98653
   108  N   5.0   -0.14    3.41    2.03   282.12426   126.18584   245.41587
   109  C   4.0    0.02    4.25    4.09   284.39836   124.73929   245.00998
   110  C   4.0    0.15    3.32    3.06   284.24577   122.72459   242.94650
   111  O   6.0   -0.33    1.31    1.80   286.15878   122.05452   241.80371
   112  H   1.0    0.11    1.11    1.45   281.83596   127.76416   244.34159
   113  H   1.0    0.05    1.02    1.43   285.95360   126.03071   244.60169
   114  H   1.0    0.06    1.03    1.43   284.81039   123.71939   246.76940
   115  N   5.0   -0.13    3.51    2.08   281.99999   121.67881   242.57996
   116  C   4.0    0.04    4.51    4.54   281.61673   119.55186   240.88918
   117  C   4.0    0.15    3.45    3.09   282.01479   120.44871   238.16611
   118  O   6.0   -0.33    1.29    1.80   280.82680   122.23594   237.28777
   119  C   4.0   -0.02    4.27    4.14   278.94080   118.48452   241.24222
   120  C   4.0   -0.07    4.12    3.85   278.40691   116.44056   239.27469
   121  C   4.0   -0.07    4.11    3.83   278.63356   117.42962   243.90991
   122  H   1.0    0.11    1.11    1.45   280.42946   122.42766   243.38604
   123  H   1.0    0.05    1.06    1.44   283.02429   118.10565   241.35867
   124  H   1.0    0.06    1.06    1.44   277.61050   120.04583   240.98131
   125  H   1.0    0.04    1.00    1.43   276.51323   115.69519   239.54584
   126  H   1.0    0.05    1.00    1.43   278.52685   117.19512   237.36588
   127  H   1.0    0.04    1.00    1.43   279.73983   114.88685   239.45921
   128  H   1.0    0.04    1.00    1.43   276.71376   116.74952   244.17133
   129  H   1.0    0.04    1.00    1.43   279.92369   115.85988   244.21974
   130  H   1.0    0.06    1.00    1.43   278.99461   118.87026   245.33052
   131  N   5.0   -0.14    3.47    2.06   283.80066   119.21796   236.88084
   132  C   4.0    0.03    4.42    4.41   284.66617   119.89372   234.35811
   133  C   4.0    0.15    3.39    3.08   282.85192   118.73924   232.39929
   134  O   6.0   -0.29    1.22    1.80   283.25016   116.73252   231.31363
   135  C   4.0   -0.04    4.27    4.15   287.37718   118.98291   233.97085
   136  C   4.0   -0.05    4.20    3.99   289.21333   119.91037   236.00088
   137  C   4.0   -0.05    4.19    3.98   289.28006   122.79340   236.13882
   138  C   4.0   -0.04    4.12    3.83   291.38674   123.79249   237.82059
   139  N   5.0   -0.12    4.04    2.96   291.14845   122.77250   240.43937
   140  H   1.0    0.08    1.07    1.44   284.56815   117.63484   237.62024
   141  H   1.0    0.04    1.06    1.44   284.55656   121.94970   234.15746
   142  H   1.0    0.06    1.03    1.43   287.37317   116.92125   233.92038
   143  H   1.0    0.05    1.03    1.43   287.99378   119.66661   232.12801
   144  H   1.0    0.05    1.03    1.43   288.65073   119.12942   237.82180
   145  H   1.0    0.04    1.03    1.43   291.08114   119.20147   235.50176
   146  H   1.0    0.04    1.03    1.43   289.56626   123.54837   234.24400
   147  H   1.0    0.05    1.03    1.43   287.46836   123.47743   236.83470
   148  H   1.0    0.04    1.02    1.43   293.21490   123.25231   237.04181
   149  H   1.0    0.04    1.02    1.43   291.26872   125.84842   237.88191
   150  H   1.0    0.06    1.02    1.43   292.21844   123.80611   241.68466
   151  H   1.0    0.09    1.07    1.44   289.24596   122.78093   241.02274
   152  H   1.0    0.06    1.02    1.43   291.74126   120.92504   240.48081
   153  N   5.0   -0.15    3.47    2.06   280.79930   120.16495   232.03832
   154  C   4.0    0.04    4.37    4.33   278.54091   119.38238   230.70930
   155  C   4.0    0.09    3.21    3.04   278.96385   118.50842   227.98194
   156  O   6.0   -0.27    1.12    1.80   277.39704   117.15092   226.96377
   157  C   4.0   -0.02    4.27    4.13   276.54601   121.51173   230.77878
   158  C   4.0   -0.07    4.10    3.81   275.54748   121.91593   233.45760
   159  C   4.0   -0.07    4.12    3.84   277.58257   123.97755   229.69995
   160  H   1.0    0.09    1.09    1.44   280.61050   121.72062   233.13861
   161  H   1.0    0.06    1.06    1.44   277.74618   117.70887   231.65575
   162  H   1.0    0.05    1.06    1.44   274.96793   120.90014   229.59215
   163  H   1.0    0.05    1.00    1.43   274.16153   123.42880   233.42063
   164  H   1.0    0.04    1.00    1.43   274.63340   120.21199   234.15008
   165  H   1.0    0.06    1.00    1.43   277.04927   122.43914   234.76006
   166  H   1.0    0.05    1.00    1.43   276.08378   125.37952   229.68958
   167  H   1.0    0.05    1.00    1.43   279.15477   124.69863   230.81083
   168  H   1.0    0.05    1.00    1.43   278.22503   123.70967   227.76847
   169  H   1.0    0.10    1.07    1.44   257.32125   128.94463   245.67065
   170  H   1.0    0.05    1.05    1.44   259.35398   124.04447   242.29829
   171  H   1.0    0.09    1.07    1.44   258.13975   130.38080   236.53582
   172  H   1.0    0.06    1.05    1.44   263.76896   125.42418   231.95479
   173  H   1.0    0.10    1.07    1.44   265.91919   134.05866   229.44829
   174  H   1.0    0.07    1.05    1.44   270.41975   129.85918   227.28914
   175  H   1.0    0.09    1.08    1.44   284.39931   129.07767   234.03231
   176  H   1.0    0.06    1.04    1.43   280.51419   119.04880   227.04625

  Z AO/shell   Hii/eV     exponent
  1     Wed Apr 25 08:07:45 CEST 2018   EN: 2.200 GM2: 0.406  GM3: 0.0800  RAES: 1.40
     1s    -10.707211    1.230000
  6     Wed Apr 25 08:07:45 CEST 2018   EN: 2.550 GM2: 0.538  GM3: 0.1500  RAES: 3.00
     2s    -13.970922    2.096432
     2p    -10.063292    1.800000
  7     Wed Apr 25 08:07:45 CEST 2018   EN: 3.040 GM2: 0.461  GM3:-0.0640  RAES: 1.90
     2s    -16.686243    2.339881
     2p    -12.523956    2.014332
  8     Wed Apr 25 08:07:45 CEST 2018   EN: 3.440 GM2: 0.452  GM3:-0.0517  RAES: 1.80
     2s    -20.229985    2.439742
     2p    -15.503117    2.137023
 no old-style atom pair restraining (fixing) potential

molecular fragmentation (1/2 indicates fragments):
111111111111222222222222222222222222222222222222222222222222222222222222
222222222222222222222222222222222222222222222222222222222222222222222222
22222222222222222222222211222222
# atoms in fragment 1/2:    14   162
 fragment masses (1/2) :      116.10     1081.30
CMA distance (Bohr)    :  17.584
constraining FC (au)   :  0.0500
           ------------------------------------------------- 
          |        Self-Consistent Charge Iterations        |
           ------------------------------------------------- 

 Ncao       : 428
 Nao        : 428
 Nshell     : 260
 Nel        : 476
 T(el)      :   500.0
 intcut     :    35.0
 scfconv/Eh :  0.100E-06
   qconv/e  :  0.100E-04
 intneglect :  0.100E-08
 broydamp   :      0.400
 iter      E             dE          RMSdq      gap      omega  full diag
   1   -273.1047212 -0.273105E+03  0.467E+00    3.49       0.0  T
   2   -273.7717559 -0.667035E+00  0.218E+00    2.12       1.0  T
   3   -273.8141158 -0.423599E-01  0.124E+00    2.09       1.0  T
   4   -273.8585435 -0.444277E-01  0.262E-01    1.57       1.0  T
   5   -273.8611513 -0.260779E-02  0.128E-01    1.76       1.0  T
   6   -273.8617032 -0.551876E-03  0.573E-02    1.73       1.0  T
   7   -273.8618557 -0.152537E-03  0.251E-02    1.69       1.0  T
   8   -273.8618757 -0.199963E-04  0.120E-02    1.67       1.0  T
   9   -273.8618826 -0.688318E-05  0.517E-03    1.66       1.5  T
  10   -273.8618836 -0.993704E-06  0.221E-03    1.66       3.4  T
  11   -273.8618837 -0.153039E-06  0.930E-04    1.66       8.1  T
  12   -273.8618838 -0.286192E-07  0.433E-04    1.66      17.4  T
  13   -273.8618838 -0.114371E-07  0.190E-04    1.66      39.7  T
  14   -273.8618838 -0.101807E-08  0.890E-05    1.66      84.7  T
  15   -273.8618838 -0.317868E-09  0.321E-05    1.66     234.9  T
speedup 15.95
cpu  time for SCC    6.52 s
wall time for SCC    0.41 s

   *** convergence criteria satisfied after 15 iterations ***

          eigenvalues
 #    :         226        227        228        229        230        231        232        233
 occ. :        2.000      2.000      2.000      2.000      2.000      2.000      2.000      2.000
 eps  :       -11.051    -10.981    -10.950    -10.875    -10.850    -10.840    -10.731    -10.565
 #    :         234        235        236        237        238        239        240        241
 occ. :        2.000      2.000      2.000      2.000      2.000      0.000      0.000      0.000
 eps  :       -10.390    -10.301     -9.974     -9.931     -9.625     -7.970     -7.699     -7.647
 #    :         242        243        244        245        246        247        248        249
 occ. :        0.000      0.000      0.000      0.000      0.000      0.000      0.000      0.000
 eps  :        -7.490     -6.612     -6.512     -6.343     -6.188     -6.136     -6.124     -6.108


   #   Z            q   n(s)   n(p)   n(d)      C6AA      α(0)
   1   7 N     -0.382  1.302  4.080  0.000    29.877     8.118
   2   6 C      0.057  1.049  2.894  0.000    19.636     6.312
   3   6 C      0.190  1.097  2.713  0.000    23.929     8.012
   4   8 O     -0.369  1.735  4.634  0.000    21.071     6.154
   5   6 C     -0.090  1.077  3.013  0.000    22.213     6.710
   6   6 C      0.380  1.019  2.601  0.000    20.572     7.422
   7   8 O     -0.630  1.769  4.860  0.000    26.866     6.949
   8   8 O     -0.637  1.776  4.861  0.000    27.040     6.972
   9   1 H      0.151  0.849  0.000  0.000     1.393     1.849
  10   1 H      0.036  0.964  0.000  0.000     2.509     2.477
  11   1 H      0.034  0.966  0.000  0.000     2.536     2.490
  12   1 H      0.028  0.972  0.000  0.000     2.615     2.529
  13   7 N     -0.392  1.312  4.079  0.000    30.141     8.154
  14   6 C      0.022  1.062  2.915  0.000    20.214     6.404
  15   6 C      0.270  1.047  2.683  0.000    22.444     7.758
  16   8 O     -0.510  1.738  4.772  0.000    24.006     6.569
  17   6 C      0.080  1.038  2.882  0.000    19.453     6.317
  18   8 O     -0.473  1.719  4.754  0.000    22.318     6.377
  19   1 H      0.149  0.851  0.000  0.000     1.407     1.858
  20   1 H      0.041  0.959  0.000  0.000     2.432     2.439
  21   1 H      0.020  0.980  0.000  0.000     2.736     2.587
  22   1 H      0.053  0.947  0.000  0.000     2.281     2.362
  23   1 H      0.336  0.664  0.000  0.000     0.622     1.239
  24   7 N     -0.172  1.250  3.922  0.000    24.723     7.385
  25   6 C      0.025  1.063  2.912  0.000    20.162     6.393
  26   6 C      0.206  1.082  2.712  0.000    23.623     7.960
  27   8 O     -0.352  1.757  4.596  0.000    20.753     6.108
  28   6 C     -0.024  1.067  2.957  0.000    20.968     6.513
  29   6 C     -0.065  1.050  3.015  0.000    21.740     6.638
  30   6 C     -0.120  1.039  3.081  0.000    22.859     6.817
  31   6 C     -0.108  1.037  3.072  0.000    22.635     6.785
  32   1 H      0.244  0.756  0.000  0.000     0.905     1.491
  33   1 H      0.080  0.920  0.000  0.000     1.979     2.200
  34   1 H      0.056  0.944  0.000  0.000     2.249     2.345
  35   1 H      0.049  0.951  0.000  0.000     2.329     2.387
  36   1 H      0.036  0.964  0.000  0.000     2.506     2.475
  37   1 H      0.068  0.932  0.000  0.000     2.112     2.272
  38   1 H      0.041  0.959  0.000  0.000     2.441     2.443
  39   1 H      0.056  0.944  0.000  0.000     2.250     2.346
  40   1 H      0.034  0.966  0.000  0.000     2.536     2.490
  41   1 H      0.034  0.966  0.000  0.000     2.526     2.485
  42   1 H      0.055  0.945  0.000  0.000     2.261     2.351
  43   7 N     -0.405  1.311  4.094  0.000    30.517     8.204
  44   6 C      0.030  1.063  2.908  0.000    20.091     6.385
  45   6 C      0.204  1.093  2.703  0.000    23.660     7.966
  46   8 O     -0.388  1.755  4.634  0.000    21.449     6.209
  47   6 C      0.121  1.045  2.833  0.000    18.697     6.174
  48   8 O     -0.469  1.715  4.754  0.000    22.228     6.365
  49   6 C     -0.127  1.043  3.084  0.000    22.993     6.838
  50   1 H      0.189  0.811  0.000  0.000     1.164     1.690
  51   1 H      0.044  0.956  0.000  0.000     2.401     2.423
  52   1 H      0.031  0.969  0.000  0.000     2.577     2.510
  53   1 H      0.319  0.681  0.000  0.000     0.667     1.283
  54   1 H      0.053  0.947  0.000  0.000     2.284     2.363
  55   1 H      0.048  0.952  0.000  0.000     2.339     2.392
  56   1 H      0.059  0.941  0.000  0.000     2.216     2.328
  57   7 N     -0.391  1.318  4.073  0.000    30.135     8.153
  58   6 C      0.018  1.060  2.921  0.000    20.278     6.414
  59   6 C      0.280  1.042  2.678  0.000    22.266     7.727
  60   8 O     -0.498  1.752  4.746  0.000    23.739     6.532
  61   6 C     -0.072  1.056  3.016  0.000    21.873     6.658
  62   6 C     -0.103  1.057  3.046  0.000    22.467     6.748
  63   6 C      0.293  1.040  2.666  0.000    22.024     7.684
  64   8 O     -0.517  1.747  4.770  0.000    24.157     6.590
  65   7 N     -0.279  1.265  4.014  0.000    27.213     7.748
  66   1 H      0.152  0.848  0.000  0.000     1.387     1.845
  67   1 H      0.067  0.933  0.000  0.000     2.119     2.276
  68   1 H      0.041  0.959  0.000  0.000     2.434     2.440
  69   1 H      0.075  0.925  0.000  0.000     2.032     2.229
  70   1 H      0.093  0.907  0.000  0.000     1.854     2.129
  71   1 H      0.070  0.930  0.000  0.000     2.085     2.258
  72   1 H      0.231  0.769  0.000  0.000     0.960     1.535
  73   1 H      0.223  0.777  0.000  0.000     0.998     1.565
  74   7 N     -0.186  1.249  3.938  0.000    25.040     7.432
  75   6 C      0.032  1.058  2.910  0.000    20.048     6.375
  76   6 C      0.273  1.046  2.681  0.000    22.378     7.747
  77   8 O     -0.468  1.728  4.739  0.000    23.077     6.441
  78   6 C     -0.074  1.054  3.020  0.000    21.911     6.663
  79   6 C      0.009  1.081  2.910  0.000    27.806     8.650
  80   6 C     -0.038  1.081  2.958  0.000    28.949     8.823
  81   6 C     -0.042  1.080  2.962  0.000    29.032     8.836
  82   6 C     -0.031  1.081  2.949  0.000    28.762     8.795
  83   6 C     -0.032  1.078  2.954  0.000    28.798     8.800
  84   6 C     -0.030  1.078  2.952  0.000    28.744     8.792
  85   1 H      0.220  0.780  0.000  0.000     1.007     1.572
  86   1 H      0.059  0.941  0.000  0.000     2.206     2.323
  87   1 H      0.065  0.935  0.000  0.000     2.141     2.288
  88   1 H      0.070  0.930  0.000  0.000     2.081     2.256
  89   1 H      0.041  0.959  0.000  0.000     2.433     2.439
  90   1 H      0.047  0.953  0.000  0.000     2.362     2.404
  91   1 H      0.039  0.961  0.000  0.000     2.467     2.456
  92   1 H      0.020  0.980  0.000  0.000     2.740     2.589
  93   1 H      0.009  0.991  0.000  0.000     2.899     2.662
  94   7 N     -0.172  1.247  3.925  0.000    24.716     7.384
  95   6 C      0.027  1.058  2.915  0.000    20.119     6.386
  96   6 C      0.283  1.038  2.679  0.000    22.200     7.716
  97   8 O     -0.484  1.745  4.739  0.000    23.430     6.490
  98   6 C     -0.094  1.057  3.037  0.000    22.276     6.718
  99   6 C      0.300  1.034  2.666  0.000    21.909     7.664
 100   8 O     -0.507  1.749  4.758  0.000    23.936     6.560
 101   7 N     -0.287  1.266  4.021  0.000    27.406     7.775
 102   1 H      0.210  0.790  0.000  0.000     1.056     1.610
 103   1 H      0.082  0.918  0.000  0.000     1.964     2.191
 104   1 H      0.067  0.933  0.000  0.000     2.119     2.276
 105   1 H      0.073  0.927  0.000  0.000     2.054     2.241
 106   1 H      0.236  0.764  0.000  0.000     0.941     1.519
 107   1 H      0.230  0.770  0.000  0.000     0.965     1.539
 108   7 N     -0.199  1.248  3.950  0.000    25.312     7.472
 109   6 C     -0.038  1.052  2.986  0.000    21.329     6.588
 110   6 C      0.261  1.044  2.696  0.000    22.605     7.785
 111   8 O     -0.469  1.706  4.762  0.000    23.099     6.444
 112   1 H      0.227  0.773  0.000  0.000     0.980     1.551
 113   1 H      0.103  0.897  0.000  0.000     1.758     2.073
 114   1 H      0.104  0.896  0.000  0.000     1.746     2.067
 115   7 N     -0.157  1.241  3.917  0.000    24.402     7.337
 116   6 C      0.013  1.069  2.918  0.000    20.358     6.424
 117   6 C      0.270  1.044  2.687  0.000    22.441     7.757
 118   8 O     -0.487  1.739  4.747  0.000    23.493     6.498
 119   6 C     -0.018  1.060  2.957  0.000    20.852     6.495
 120   6 C     -0.119  1.039  3.079  0.000    22.829     6.813
 121   6 C     -0.120  1.041  3.080  0.000    22.862     6.817
 122   1 H      0.218  0.782  0.000  0.000     1.018     1.581
 123   1 H      0.075  0.925  0.000  0.000     2.036     2.231
 124   1 H      0.058  0.942  0.000  0.000     2.228     2.334
 125   1 H      0.054  0.946  0.000  0.000     2.265     2.354
 126   1 H      0.035  0.965  0.000  0.000     2.516     2.481
 127   1 H      0.051  0.949  0.000  0.000     2.307     2.375
 128   1 H      0.047  0.953  0.000  0.000     2.352     2.398
 129   1 H      0.051  0.949  0.000  0.000     2.302     2.373
 130   1 H      0.045  0.955  0.000  0.000     2.379     2.412
 131   7 N     -0.155  1.241  3.913  0.000    24.346     7.328
 132   6 C      0.006  1.068  2.926  0.000    20.484     6.445
 133   6 C      0.268  1.042  2.689  0.000    22.467     7.762
 134   8 O     -0.487  1.758  4.728  0.000    23.490     6.498
 135   6 C     -0.077  1.051  3.026  0.000    21.970     6.673
 136   6 C     -0.091  1.055  3.037  0.000    22.236     6.714
 137   6 C     -0.095  1.051  3.043  0.000    22.308     6.724
 138   6 C     -0.047  1.057  2.990  0.000    21.516     6.621
 139   7 N     -0.162  1.234  3.928  0.000    24.496     7.351
 140   1 H      0.220  0.780  0.000  0.000     1.009     1.573
 141   1 H      0.082  0.918  0.000  0.000     1.960     2.189
 142   1 H      0.066  0.934  0.000  0.000     2.128     2.281
 143   1 H      0.067  0.933  0.000  0.000     2.123     2.279
 144   1 H      0.068  0.932  0.000  0.000     2.106     2.270
 145   1 H      0.077  0.923  0.000  0.000     2.013     2.219
 146   1 H      0.083  0.917  0.000  0.000     1.949     2.183
 147   1 H      0.065  0.935  0.000  0.000     2.143     2.289
 148   1 H      0.117  0.883  0.000  0.000     1.639     2.002
 149   1 H      0.111  0.889  0.000  0.000     1.689     2.032
 150   1 H      0.290  0.710  0.000  0.000     0.743     1.351
 151   1 H      0.300  0.700  0.000  0.000     0.714     1.324
 152   1 H      0.286  0.714  0.000  0.000     0.756     1.362
 153   7 N     -0.175  1.248  3.927  0.000    24.792     7.395
 154   6 C      0.025  1.061  2.913  0.000    20.158     6.394
 155   6 C      0.211  1.081  2.708  0.000    23.530     7.944
 156   8 O     -0.377  1.759  4.617  0.000    21.220     6.176
 157   6 C     -0.015  1.063  2.952  0.000    20.803     6.487
 158   6 C     -0.123  1.041  3.082  0.000    22.923     6.827
 159   6 C     -0.125  1.040  3.086  0.000    22.962     6.833
 160   1 H      0.223  0.777  0.000  0.000     0.996     1.563
 161   1 H      0.079  0.921  0.000  0.000     1.987     2.205
 162   1 H      0.054  0.946  0.000  0.000     2.273     2.358
 163   1 H      0.053  0.947  0.000  0.000     2.277     2.360
 164   1 H      0.049  0.951  0.000  0.000     2.335     2.390
 165   1 H      0.061  0.939  0.000  0.000     2.193     2.316
 166   1 H      0.056  0.944  0.000  0.000     2.252     2.347
 167   1 H      0.062  0.938  0.000  0.000     2.176     2.307
 168   1 H      0.043  0.957  0.000  0.000     2.413     2.429
 169   1 H      0.181  0.819  0.000  0.000     1.211     1.723
 170   1 H      0.081  0.919  0.000  0.000     1.965     2.192
 171   1 H      0.196  0.804  0.000  0.000     1.127     1.663
 172   1 H      0.071  0.929  0.000  0.000     2.073     2.252
 173   1 H      0.178  0.822  0.000  0.000     1.227     1.735
 174   1 H      0.076  0.924  0.000  0.000     2.019     2.222
 175   1 H      0.196  0.804  0.000  0.000     1.125     1.661
 176   1 H      0.077  0.923  0.000  0.000     2.011     2.217

 Mol. C6AA /au·bohr⁶  :     280167.893200
 Mol. C8AA /au·bohr⁸  :    6188409.907265
 Mol. α(0) /au        :        792.140521

 
molecular dipole:
                 x           y           z       tot (Debye)
 q only:       25.440      -4.000      -5.751
   full:       23.804      -2.689      -4.189      61.815
molecular quadrupole (traceless):
                xx          xy          yy          xz          yz          zz
 q only:    16135.627    3131.474   -6592.548    6938.592   -2561.773   -9543.078
  q+dip:    14710.400    3350.919   -6174.996    6986.040   -1798.631   -8535.404
   full:    14712.389    3351.923   -6176.734    6989.204   -1798.792   -8535.655
speedup 15.95
cpu  time for grad    7.19 s
wall time for grad    0.45 s

SCC energy    :    -273.8693282
rep           :       3.3206152
ES            :       0.8860598
AES           :      -0.0387636
AXC           :       0.0888290
disp          :      -0.2133089
XB            :       0.0000000
fix           :       0.0000000
Gborn         :       0.0000000
Gsasa         :       0.0000000
Ghb           :       0.0000000
Gshift        :       0.0000000
Gsolv         :      -0.2292058     -143.83
Etot ala COSMO:    -273.8693282
grad norm     :       0.4429089
total E       :    -270.5330721
atomizationE  :      48.8720987    30667.70
(atE without considering molecular charge,
 total energy contains solvation terms)
H-L gap (eV)  :          1.6557

------------------------------------------------------------------------
 * finished run on 2019/02/13 at 00:18:47.104     
------------------------------------------------------------------------
 total:
 * wall-time:     0 d,  0 h,  0 min,  0.552 sec
 *  cpu-time:     0 d,  0 h,  0 min,  8.630 sec
 * ratio c/w:    15.629 speedup
 SCF:
 * wall-time:     0 d,  0 h,  0 min,  0.487 sec
 *  cpu-time:     0 d,  0 h,  0 min,  7.773 sec
 * ratio c/w:    15.954 speedup

