      -----------------------------------------------------------      
     |                   =====================                   |     
     |                           x T B                           |     
     |                   =====================                   |     
     |                         S. Grimme                         |     
     |          Mulliken Center for Theoretical Chemistry        |     
     |                    University of Bonn                     |     
     |                 Version 6.0.1 (SAW181210)                 |     
      -----------------------------------------------------------      

   This program is distributed in the hope that it will be useful,
   but WITHOUT ANY WARRANTY; without even the implied warranty of
   MERCHANTABILITY or FITNESS FOR A PARTICULAR PURPOSE.
   
   FOR NON-COMMERCIAL, ACADEMIA USE ONLY.
   
   Cite this work as:
   S. Grimme, C. Bannwarth, P. Shushkov, J. Comput. Theory Chem., 2017,
   13, 1989-2009.
   C. Bannwarth, S. Ehlert and S. Grimme., ChemRxiv, 2018, preprint.
   http://doi.org/10.26434/chemrxiv.7246238.v1
   
   for sTDA-xTB:
   S. Grimme and C. Bannwarth, J. Chem. Phys., 2016, 145, 054103.
   
   in the mass-spec context:
   V. Asgeirsson, C. Bauer and S. Grimme, Chem. Sci., 2017, 8, 4879.
   
   if GBSA is used:
   P. Shushkov, F. März and S. Grimme, unpublished.
   
   for ANC optimizer:
   S. Grimme, unpublished.
   Rational Function algorithm used in ANCopt:
   F. Eckert, P. Pulay, H.-J. Werner, J. Comput. Chem., 1997, 18, 1473.
   
   with help from (in alphabetical order)
   C. Bannwarth, F. Bohle, G. Brandenburg, E. Caldeweyher, M. Checinski,
   S. Dohm, S. Ehlert, S. Ehrlich, F. März, H. Neugebauer, J. Pisarek,
   P. Pracht, P. Shushkov, and S. Spicher.
   
 * started run on 2019/03/15 at 00:15:16.648     
========================================================================
 # omp threads = 1
========================================================================
number of atoms            : 153
number of electrons        : 428
charge                     : -1
spin                       : .0
first test random number   : .2803
           ------------------------------------------------- 
          |                 G F N 2 - x T B                 |
          | Geometry, Frequencies, Noncovalent interactions |
          |            JCTC 2018 parametrisation            |
           ------------------------------------------------- 
 
      method parameters     
 k(s)        :  1.8500
 k(p)        :  2.2300
 k(d)        :  2.2300
 k(f)        :  2.0000
 kEN (H0ij)  : -2.0000
 D4 a1       :  0.5200
 D4 a2       :  5.0000
 D4 s6       :  1.0000
 D4 s8       :  2.7000
 D4 s9       :  5.0000
 alphaj      :  2.0000

 Solvent             : h2o
 Using internal parameter file: .param_gbsa2_h2o
 Gsolv ref. state (COSMO-RS): gsolv [1 M gas/solution]
 temperature (mdtemp)       :    298.150000000000     
 dielectric constant        :    80.2000000000000     
 rho                        :    1.00000000000000     
 mass                       :    18.0000000000000     
 surface tension            :    15.5689454083859     
 probe radius               :   0.975313790000000     
 vdW radii scaling          :    1.00000000000000     
 Gshift (Eh)                :   1.857443126794793E-003
 c1                         :    1.55243817000000     
 soset                      :   0.130326360000000     
 HB correction              :  T

            Z     q(EN)     CN     RAES       Cart. coordinates
     1  N   5.0   -0.23    3.23    1.96    41.75564    19.43929    22.29939
     2  C   4.0    0.04    4.36    4.31    39.85362    20.35785    24.02861
     3  C   4.0    0.07    3.33    3.06    40.48106    21.48647    26.58082
     4  O   6.0   -0.32    1.16    1.80    39.23869    23.19820    27.48891
     5  C   4.0   -0.04    4.52    4.57    38.13536    18.29475    24.92581
     6  C   4.0   -0.04    4.39    4.37    35.52217    18.42091    24.01523
     7  C   4.0    0.16    3.31    3.06    35.29704    18.35477    21.18058
     8  O   6.0   -0.29    1.30    1.80    36.76532    19.60276    19.92325
     9  N   5.0   -0.21    3.28    1.98    33.60913    16.98773    20.28087
    10  H   1.0    0.09    1.07    1.44    41.67056    17.69613    22.06981
    11  H   1.0    0.06    1.13    1.45    39.18904    21.76712    22.87146
    12  H   1.0    0.04    1.09    1.44    38.89595    16.59222    24.41758
    13  H   1.0    0.04    1.11    1.45    38.16170    18.26885    26.86487
    14  H   1.0    0.03    1.08    1.44    34.47364    16.98912    24.77568
    15  H   1.0    0.04    1.09    1.44    34.70430    20.03921    24.68633
    16  H   1.0    0.08    1.07    1.44    32.45652    16.01623    21.24717
    17  H   1.0    0.10    1.07    1.44    33.31297    16.81763    18.52382
    18  N   5.0   -0.23    3.26    1.97    41.67939    28.25575    28.69049
    19  C   4.0    0.03    4.33    4.26    39.36101    29.63299    28.92812
    20  C   4.0    0.08    3.24    3.04    38.79482    29.84687    31.70293
    21  O   6.0   -0.31    1.12    1.80    38.46176    31.90306    32.69006
    22  C   4.0   -0.04    4.42    4.41    37.29621    28.72130    27.20590
    23  C   4.0   -0.02    3.65    3.20    37.23119    29.90310    24.67792
    24  C   4.0   -0.04    3.59    3.16    38.15563    28.70624    22.56032
    25  C   4.0   -0.05    3.59    3.16    36.36702    32.33228    24.33297
    26  C   4.0   -0.05    3.49    3.11    38.23609    29.84475    20.29797
    27  C   4.0   -0.04    3.48    3.11    36.45038    33.47399    22.06309
    28  C   4.0   -0.04    3.49    3.11    37.38952    32.24086    20.03074
    29  H   1.0    0.11    1.08    1.44    41.42298    26.53300    28.43943
    30  H   1.0    0.05    1.14    1.45    39.55421    31.44912    28.27818
    31  H   1.0    0.06    1.10    1.44    37.47028    26.81610    27.00223
    32  H   1.0    0.04    1.08    1.44    35.58952    28.98551    28.06267
    33  H   1.0    0.05    1.08    1.44    38.78503    26.91658    22.77073
    34  H   1.0    0.05    1.08    1.44    35.66544    33.22999    25.86544
    35  H   1.0    0.05    1.07    1.44    38.93627    28.90161    18.78231
    36  H   1.0    0.05    1.07    1.44    35.80707    35.27102    21.87384
    37  H   1.0    0.05    1.07    1.44    37.45855    33.09873    18.31737
    38  N   5.0   -0.24    3.26    1.97    23.22305    37.81799    20.03758
    39  C   4.0    0.03    4.43    4.43    25.07550    36.31615    21.31813
    40  C   4.0    0.15    3.55    3.14    24.71273    33.48633    21.07267
    41  O   6.0   -0.30    1.28    1.80    26.46631    32.01787    21.22478
    42  C   4.0   -0.05    4.47    4.49    25.30779    36.90349    24.07670
    43  C   4.0   -0.01    3.78    3.31    26.37998    34.82890    25.62063
    44  C   4.0   -0.04    3.64    3.19    24.86425    33.16510    26.87445
    45  C   4.0   -0.03    3.64    3.19    28.91894    34.37949    25.70379
    46  C   4.0   -0.04    3.53    3.13    25.84918    31.19439    28.10521
    47  C   4.0   -0.04    3.52    3.12    29.88093    32.40799    26.93466
    48  C   4.0   -0.04    3.54    3.13    28.33599    30.81548    28.13302
    49  H   1.0    0.08    1.07    1.44    22.36698    38.94020    21.08864
    50  H   1.0    0.04    1.11    1.45    26.72476    36.75350    20.39548
    51  H   1.0    0.03    1.08    1.44    26.37304    38.49217    24.32561
    52  H   1.0    0.04    1.08    1.44    23.56092    37.36730    24.75506
    53  H   1.0    0.05    1.08    1.44    22.98194    33.45293    26.84727
    54  H   1.0    0.05    1.08    1.44    30.06702    35.59356    24.79237
    55  H   1.0    0.05    1.08    1.44    24.65833    29.99643    29.01131
    56  H   1.0    0.05    1.08    1.44    31.77422    32.12997    26.95162
    57  H   1.0    0.04    1.08    1.44    29.07282    29.31260    29.06731
    58  N   5.0   -0.16    3.60    2.16    22.36136    32.71091    20.80997
    59  C   4.0    0.03    4.55    4.61    21.67866    30.12837    20.52569
    60  C   4.0    0.16    3.45    3.10    21.16243    29.65441    17.75545
    61  O   6.0   -0.30    1.26    1.80    19.20103    28.77133    17.02808
    62  C   4.0   -0.03    4.41    4.40    19.52279    29.40921    22.22013
    63  C   4.0   -0.03    4.30    4.20    20.24575    28.97043    24.88686
    64  C   4.0    0.25    3.13    3.03    18.12644    28.35464    26.69531
    65  O   6.0   -0.27    1.19    1.80    16.48322    26.82889    25.97418
    66  O   6.0   -0.29    1.17    1.80    18.09755    29.41332    28.80635
    67  H   1.0    0.08    1.12    1.45    20.98172    33.80036    20.78549
    68  H   1.0    0.06    1.12    1.45    23.15368    28.99876    21.09100
    69  H   1.0    0.05    1.08    1.44    18.17558    30.79446    22.13829
    70  H   1.0    0.07    1.08    1.44    18.63867    27.83459    21.52342
    71  H   1.0    0.05    1.08    1.44    21.54278    27.53831    24.96545
    72  H   1.0    0.05    1.09    1.44    21.18876    30.51834    25.55013
    73  N   5.0   -0.16    3.55    2.12    23.01948    30.34789    16.20744
    74  C   4.0    0.04    4.47    4.49    22.96266    30.16779    13.51971
    75  C   4.0    0.15    3.47    3.10    25.59307    30.25282    12.35676
    76  O   6.0   -0.29    1.24    1.80    26.27322    28.75688    10.76474
    77  C   4.0    0.03    4.27    4.15    21.31599    32.18249    12.35333
    78  O   6.0   -0.26    2.10    1.84    21.16971    31.94535     9.75143
    79  H   1.0    0.10    1.13    1.45    24.51601    31.04499    16.81331
    80  H   1.0    0.07    1.11    1.45    22.18123    28.44317    13.08320
    81  H   1.0    0.05    1.06    1.44    19.55176    32.12950    13.14997
    82  H   1.0    0.04    1.06    1.44    22.01695    33.91702    12.84950
    83  H   1.0    0.12    1.06    1.44    20.18381    33.19590     9.13451
    84  N   5.0   -0.16    3.57    2.13    27.11754    32.06058    13.19187
    85  C   4.0    0.04    4.47    4.49    29.64703    32.38307    12.30086
    86  C   4.0    0.17    3.43    3.09    31.50194    30.43125    13.35806
    87  O   6.0   -0.30    1.25    1.80    33.67977    30.36842    12.66817
    88  C   4.0    0.03    4.25    4.10    30.62049    35.03930    12.74061
    89  O   6.0   -0.26    2.10    1.84    30.72073    35.64070    15.29372
    90  H   1.0    0.09    1.11    1.45    26.64475    33.22785    14.41957
    91  H   1.0    0.05    1.11    1.45    29.56028    32.04863    10.38533
    92  H   1.0    0.04    1.05    1.44    32.37725    35.23599    11.94730
    93  H   1.0    0.03    1.05    1.44    29.51686    36.31047    11.78451
    94  H   1.0    0.12    1.06    1.44    30.78527    37.33730    15.46568
    95  N   5.0   -0.14    3.55    2.11    30.62214    28.82742    15.07215
    96  C   4.0    0.04    4.47    4.49    32.13279    26.90920    16.23922
    97  C   4.0    0.16    3.46    3.10    31.02509    24.26037    16.01162
    98  O   6.0   -0.29    1.26    1.80    32.36157    22.41108    15.83144
    99  C   4.0    0.04    4.26    4.12    32.71930    27.50200    18.96807
   100  O   6.0   -0.26    2.11    1.84    30.67062    27.01645    20.53095
   101  H   1.0    0.10    1.12    1.45    28.95958    28.85048    15.64309
   102  H   1.0    0.07    1.13    1.45    33.80090    26.90319    15.23760
   103  H   1.0    0.05    1.05    1.44    34.26471    26.49142    19.55064
   104  H   1.0    0.05    1.06    1.44    33.26889    29.35149    19.12741
   105  H   1.0    0.13    1.06    1.44    31.09627    27.40707    22.13736
   106  N   5.0   -0.15    3.43    2.04    28.52890    24.04559    16.05639
   107  C   4.0    0.02    4.37    4.33    27.32035    21.67456    15.84942
   108  C   4.0    0.16    3.40    3.08    25.98276    20.48044    18.07664
   109  O   6.0   -0.30    1.30    1.80    24.49021    18.76153    17.78919
   110  H   1.0    0.10    1.11    1.45    27.43820    25.41431    16.23393
   111  H   1.0    0.05    1.08    1.44    26.04236    21.75397    14.40006
   112  H   1.0    0.06    1.10    1.44    28.65958    20.41559    15.24099
   113  N   5.0   -0.14    3.62    2.17    26.55160    21.35926    20.33701
   114  C   4.0    0.03    4.54    4.59    25.35752    20.47086    22.59422
   115  C   4.0    0.16    3.52    3.12    22.51420    20.48271    22.08411
   116  O   6.0   -0.28    1.33    1.80    21.67188    21.97469    20.57584
   117  C   4.0   -0.05    4.50    4.54    26.14607    22.07934    24.78831
   118  C   4.0   -0.02    4.38    4.34    28.98019    22.25374    25.02408
   119  C   4.0   -0.08    4.23    4.06    29.85688    24.39141    26.62085
   120  C   4.0   -0.09    4.29    4.18    29.95472    19.81315    25.93489
   121  H   1.0    0.09    1.13    1.45    27.71666    22.65199    20.60033
   122  H   1.0    0.04    1.11    1.44    25.91850    18.66033    23.01691
   123  H   1.0    0.05    1.07    1.44    25.36351    23.83931    24.60886
   124  H   1.0    0.04    1.07    1.44    25.39594    21.39922    26.44033
   125  H   1.0    0.05    1.14    1.45    29.69739    22.60339    23.25473
   126  H   1.0    0.04    1.04    1.43    31.77163    24.47515    26.70731
   127  H   1.0    0.04    1.04    1.43    29.22533    26.07922    25.95419
   128  H   1.0    0.04    1.04    1.44    29.20418    24.19734    28.40829
   129  H   1.0    0.04    1.07    1.44    31.86280    19.83517    26.06803
   130  H   1.0    0.04    1.05    1.44    29.24456    19.43179    27.67365
   131  H   1.0    0.04    1.05    1.44    29.45728    18.38091    24.76075
   132  N   5.0   -0.16    3.49    2.07    21.02816    18.83065    23.27582
   133  C   4.0    0.03    4.49    4.53    18.33105    18.68219    22.86266
   134  C   4.0    0.07    3.20    3.04    16.51741    18.71998    25.12130
   135  O   6.0   -0.27    1.12    1.80    15.33523    20.58431    25.69258
   136  C   4.0   -0.03    4.40    4.38    17.69275    16.45176    21.16392
   137  C   4.0   -0.07    4.25    4.09    18.44154    16.93567    18.51503
   138  C   4.0   -0.09    4.28    4.16    18.90571    14.11745    22.16534
   139  H   1.0    0.07    1.10    1.44    21.62829    17.68746    24.46526
   140  H   1.0    0.08    1.14    1.45    18.02552    20.39861    22.00822
   141  H   1.0    0.04    1.12    1.45    15.76593    16.19055    21.19742
   142  H   1.0    0.04    1.04    1.43    18.00789    15.45451    17.37548
   143  H   1.0    0.05    1.04    1.43    17.56747    18.49419    17.80489
   144  H   1.0    0.07    1.05    1.44    20.33575    17.23356    18.39982
   145  H   1.0    0.03    1.04    1.43    18.47709    12.59248    21.08300
   146  H   1.0    0.04    1.05    1.44    20.80840    14.32710    22.16995
   147  H   1.0    0.03    1.04    1.43    18.33924    13.73977    23.95295
   148  H   1.0    0.10    1.08    1.44    41.54756    20.17825    20.78177
   149  H   1.0    0.04    1.05    1.44    41.95039    20.82771    27.56983
   150  H   1.0    0.09    1.08    1.44    42.55919    28.85011    27.36186
   151  H   1.0    0.05    1.05    1.44    38.68648    28.28960    32.76794
   152  H   1.0    0.09    1.08    1.44    23.97937    38.74042    18.82528
   153  H   1.0    0.04    1.05    1.44    16.28550    17.16714    26.17294

  Z AO/shell   Hii/eV     exponent
  1     Wed Apr 25 08:07:45 CEST 2018   EN: 2.200 GM2: 0.406  GM3: 0.0800  RAES: 1.40
     1s    -10.707211    1.230000
  6     Wed Apr 25 08:07:45 CEST 2018   EN: 2.550 GM2: 0.538  GM3: 0.1500  RAES: 3.00
     2s    -13.970922    2.096432
     2p    -10.063292    1.800000
  7     Wed Apr 25 08:07:45 CEST 2018   EN: 3.040 GM2: 0.461  GM3:-0.0640  RAES: 1.90
     2s    -16.686243    2.339881
     2p    -12.523956    2.014332
  8     Wed Apr 25 08:07:45 CEST 2018   EN: 3.440 GM2: 0.452  GM3:-0.0517  RAES: 1.80
     2s    -20.229985    2.439742
     2p    -15.503117    2.137023
 no old-style atom pair restraining (fixing) potential

molecular fragmentation (1/2 indicates fragments):
111111111111111112222222222222222222222222222222222222222222222222222222
222222222222222222222222222222222222222222222222222222222222222222222222
222112222
# atoms in fragment 1/2:    19   134
 fragment masses (1/2) :      130.15      957.07
CMA distance (Bohr)    :  13.805
constraining FC (au)   :  0.0500
           ------------------------------------------------- 
          |        Self-Consistent Charge Iterations        |
           ------------------------------------------------- 

 Ncao       : 384
 Nao        : 384
 Nshell     : 230
 Nel        : 428
 T(el)      :   500.0
 intcut     :    35.0
 scfconv/Eh :  0.100E-06
   qconv/e  :  0.100E-04
 intneglect :  0.100E-08
 broydamp   :      0.400
 iter      E             dE          RMSdq      gap      omega  full diag
   1   -246.4805461 -0.246481E+03  0.487E+00    3.46       0.0  T
   2   -247.1143540 -0.633808E+00  0.230E+00    2.02       1.0  T
   3   -247.1454392 -0.310852E-01  0.123E+00    2.26       1.0  T
   4   -247.1748182 -0.293790E-01  0.247E-01    1.55       1.0  T
   5   -247.1771905 -0.237227E-02  0.113E-01    1.66       1.0  T
   6   -247.1774246 -0.234106E-03  0.454E-02    1.68       1.0  T
   7   -247.1775073 -0.827647E-04  0.189E-02    1.70       1.0  T
   8   -247.1775141 -0.672142E-05  0.870E-03    1.72       1.0  T
   9   -247.1775172 -0.313404E-05  0.347E-03    1.72       2.3  T
  10   -247.1775176 -0.366073E-06  0.138E-03    1.72       5.8  T
  11   -247.1775176 -0.513142E-07  0.540E-04    1.72      15.0  T
  12   -247.1775176 -0.533328E-08  0.215E-04    1.72      37.6  T
  13   -247.1775176 -0.128296E-08  0.101E-04    1.72      80.0  T
  14   -247.1775176 -0.321307E-09  0.454E-05    1.72     178.1  T
  15   -247.1775176 -0.798366E-10  0.177E-05    1.72     457.3  T
speedup  1.00
cpu  time for SCC    0.51 s
wall time for SCC    0.51 s

   *** convergence criteria satisfied after 15 iterations ***

          eigenvalues
 #    :         202        203        204        205        206        207        208        209
 occ. :        2.000      2.000      2.000      2.000      2.000      2.000      2.000      2.000
 eps  :       -11.088    -11.014    -10.930    -10.923    -10.919    -10.891    -10.543    -10.393
 #    :         210        211        212        213        214        215        216        217
 occ. :        2.000      2.000      2.000      2.000      2.000      0.000      0.000      0.000
 eps  :       -10.245    -10.014     -9.873     -9.812     -9.566     -7.845     -7.603     -7.489
 #    :         218        219        220        221        222        223        224        225
 occ. :        0.000      0.000      0.000      0.000      0.000      0.000      0.000      0.000
 eps  :        -6.574     -6.345     -6.243     -6.135     -5.987     -5.930     -5.913     -5.840


   #   Z            q   n(s)   n(p)   n(d)      C6AA      α(0)
   1   7 N     -0.408  1.296  4.112  0.000    30.594     8.215
   2   6 C      0.034  1.026  2.941  0.000    20.015     6.371
   3   6 C      0.195  1.089  2.716  0.000    23.840     8.001
   4   8 O     -0.396  1.747  4.649  0.000    21.605     6.232
   5   6 C     -0.058  1.016  3.042  0.000    21.564     6.601
   6   6 C     -0.113  1.024  3.089  0.000    22.629     6.768
   7   6 C      0.299  1.011  2.690  0.000    21.930     7.668
   8   8 O     -0.527  1.746  4.781  0.000    24.396     6.622
   9   7 N     -0.258  1.216  4.041  0.000    26.689     7.673
  10   1 H      0.175  0.825  0.000  0.000     1.245     1.748
  11   1 H      0.078  0.922  0.000  0.000     1.995     2.208
  12   1 H      0.071  0.929  0.000  0.000     2.070     2.250
  13   1 H      0.061  0.939  0.000  0.000     2.183     2.310
  14   1 H      0.070  0.930  0.000  0.000     2.088     2.259
  15   1 H      0.079  0.921  0.000  0.000     1.991     2.207
  16   1 H      0.229  0.771  0.000  0.000     0.970     1.542
  17   1 H      0.228  0.772  0.000  0.000     0.975     1.546
  18   7 N     -0.397  1.300  4.097  0.000    30.283     8.173
  19   6 C      0.036  1.029  2.935  0.000    19.967     6.363
  20   6 C      0.206  1.084  2.710  0.000    23.627     7.961
  21   8 O     -0.383  1.757  4.626  0.000    21.335     6.193
  22   6 C     -0.090  1.020  3.070  0.000    22.199     6.704
  23   6 C      0.002  1.076  2.922  0.000    27.965     8.674
  24   6 C     -0.049  1.059  2.990  0.000    29.204     8.864
  25   6 C     -0.049  1.060  2.989  0.000    29.215     8.866
  26   6 C     -0.041  1.058  2.983  0.000    29.013     8.834
  27   6 C     -0.038  1.058  2.980  0.000    28.932     8.822
  28   6 C     -0.043  1.059  2.984  0.000    29.068     8.843
  29   1 H      0.181  0.819  0.000  0.000     1.208     1.721
  30   1 H      0.069  0.931  0.000  0.000     2.093     2.262
  31   1 H      0.079  0.921  0.000  0.000     1.986     2.204
  32   1 H      0.050  0.950  0.000  0.000     2.322     2.383
  33   1 H      0.039  0.961  0.000  0.000     2.460     2.453
  34   1 H      0.041  0.959  0.000  0.000     2.441     2.443
  35   1 H      0.040  0.960  0.000  0.000     2.443     2.444
  36   1 H      0.044  0.956  0.000  0.000     2.391     2.418
  37   1 H      0.041  0.959  0.000  0.000     2.436     2.440
  38   7 N     -0.420  1.302  4.118  0.000    30.929     8.260
  39   6 C      0.030  1.033  2.937  0.000    20.078     6.380
  40   6 C      0.268  1.040  2.692  0.000    22.481     7.765
  41   8 O     -0.494  1.742  4.752  0.000    23.660     6.522
  42   6 C     -0.083  1.020  3.063  0.000    22.060     6.682
  43   6 C      0.007  1.072  2.921  0.000    27.849     8.657
  44   6 C     -0.043  1.055  2.988  0.000    29.049     8.841
  45   6 C     -0.041  1.056  2.985  0.000    29.009     8.835
  46   6 C     -0.032  1.050  2.982  0.000    28.786     8.801
  47   6 C     -0.037  1.052  2.985  0.000    28.918     8.821
  48   6 C     -0.041  1.050  2.991  0.000    29.014     8.836
  49   1 H      0.179  0.821  0.000  0.000     1.220     1.730
  50   1 H      0.061  0.939  0.000  0.000     2.189     2.313
  51   1 H      0.069  0.931  0.000  0.000     2.095     2.264
  52   1 H      0.051  0.949  0.000  0.000     2.306     2.374
  53   1 H      0.018  0.982  0.000  0.000     2.770     2.603
  54   1 H      0.052  0.948  0.000  0.000     2.299     2.371
  55   1 H      0.021  0.979  0.000  0.000     2.724     2.581
  56   1 H      0.050  0.950  0.000  0.000     2.315     2.379
  57   1 H      0.042  0.958  0.000  0.000     2.419     2.432
  58   7 N     -0.184  1.219  3.965  0.000    24.987     7.424
  59   6 C      0.019  1.036  2.945  0.000    20.243     6.404
  60   6 C      0.279  1.034  2.687  0.000    22.287     7.731
  61   8 O     -0.463  1.740  4.723  0.000    22.970     6.426
  62   6 C     -0.055  1.010  3.045  0.000    21.552     6.606
  63   6 C     -0.094  1.027  3.067  0.000    22.268     6.716
  64   6 C      0.371  1.020  2.610  0.000    20.718     7.449
  65   8 O     -0.655  1.778  4.878  0.000    27.520     7.033
  66   8 O     -0.666  1.773  4.893  0.000    27.800     7.069
  67   1 H      0.213  0.787  0.000  0.000     1.040     1.597
  68   1 H      0.080  0.920  0.000  0.000     1.978     2.199
  69   1 H      0.037  0.963  0.000  0.000     2.482     2.463
  70   1 H      0.057  0.943  0.000  0.000     2.234     2.337
  71   1 H      0.022  0.978  0.000  0.000     2.709     2.574
  72   1 H      0.039  0.961  0.000  0.000     2.462     2.453
  73   7 N     -0.199  1.215  3.984  0.000    25.313     7.472
  74   6 C      0.009  1.040  2.951  0.000    20.426     6.434
  75   6 C      0.273  1.034  2.693  0.000    22.388     7.749
  76   8 O     -0.460  1.742  4.718  0.000    22.911     6.418
  77   6 C      0.078  1.001  2.921  0.000    19.446     6.308
  78   8 O     -0.490  1.699  4.790  0.000    22.668     6.427
  79   1 H      0.196  0.804  0.000  0.000     1.125     1.661
  80   1 H      0.095  0.905  0.000  0.000     1.827     2.114
  81   1 H      0.051  0.949  0.000  0.000     2.309     2.376
  82   1 H      0.045  0.955  0.000  0.000     2.381     2.413
  83   1 H      0.365  0.635  0.000  0.000     0.554     1.169
  84   7 N     -0.182  1.212  3.970  0.000    24.948     7.418
  85   6 C      0.008  1.044  2.949  0.000    20.449     6.438
  86   6 C      0.283  1.035  2.682  0.000    22.200     7.716
  87   8 O     -0.466  1.735  4.732  0.000    23.050     6.437
  88   6 C      0.070  1.004  2.926  0.000    19.580     6.331
  89   8 O     -0.491  1.697  4.794  0.000    22.691     6.431
  90   1 H      0.213  0.787  0.000  0.000     1.043     1.600
  91   1 H      0.106  0.894  0.000  0.000     1.734     2.059
  92   1 H      0.068  0.932  0.000  0.000     2.109     2.271
  93   1 H      0.062  0.938  0.000  0.000     2.180     2.309
  94   1 H      0.356  0.644  0.000  0.000     0.573     1.189
  95   7 N     -0.174  1.208  3.966  0.000    24.777     7.393
  96   6 C      0.007  1.041  2.952  0.000    20.465     6.440
  97   6 C      0.277  1.034  2.689  0.000    22.319     7.737
  98   8 O     -0.460  1.735  4.726  0.000    22.921     6.419
  99   6 C      0.077  1.003  2.920  0.000    19.463     6.312
 100   8 O     -0.470  1.681  4.790  0.000    22.263     6.370
 101   1 H      0.187  0.813  0.000  0.000     1.172     1.696
 102   1 H      0.106  0.894  0.000  0.000     1.728     2.056
 103   1 H      0.054  0.946  0.000  0.000     2.267     2.355
 104   1 H      0.054  0.946  0.000  0.000     2.270     2.356
 105   1 H      0.324  0.676  0.000  0.000     0.652     1.268
 106   7 N     -0.163  1.204  3.960  0.000    24.527     7.355
 107   6 C     -0.048  1.016  3.032  0.000    21.477     6.605
 108   6 C      0.281  1.030  2.689  0.000    22.244     7.723
 109   8 O     -0.487  1.740  4.747  0.000    23.491     6.498
 110   1 H      0.190  0.810  0.000  0.000     1.156     1.684
 111   1 H      0.094  0.906  0.000  0.000     1.840     2.121
 112   1 H      0.118  0.882  0.000  0.000     1.628     1.995
 113   7 N     -0.168  1.209  3.960  0.000    24.637     7.372
 114   6 C      0.019  1.040  2.941  0.000    20.252     6.406
 115   6 C      0.287  1.036  2.677  0.000    22.140     7.706
 116   8 O     -0.486  1.748  4.738  0.000    23.473     6.496
 117   6 C     -0.082  1.022  3.060  0.000    22.036     6.679
 118   6 C     -0.020  1.028  2.992  0.000    20.890     6.499
 119   6 C     -0.134  0.995  3.139  0.000    23.097     6.847
 120   6 C     -0.153  0.999  3.154  0.000    23.477     6.901
 121   1 H      0.210  0.790  0.000  0.000     1.057     1.610
 122   1 H      0.078  0.922  0.000  0.000     1.997     2.210
 123   1 H      0.038  0.962  0.000  0.000     2.481     2.463
 124   1 H      0.062  0.938  0.000  0.000     2.178     2.308
 125   1 H      0.046  0.954  0.000  0.000     2.374     2.409
 126   1 H      0.058  0.942  0.000  0.000     2.222     2.331
 127   1 H      0.039  0.961  0.000  0.000     2.462     2.454
 128   1 H      0.051  0.949  0.000  0.000     2.301     2.372
 129   1 H      0.069  0.931  0.000  0.000     2.095     2.263
 130   1 H      0.061  0.939  0.000  0.000     2.190     2.314
 131   1 H      0.049  0.951  0.000  0.000     2.335     2.389
 132   7 N     -0.181  1.219  3.963  0.000    24.928     7.415
 133   6 C      0.010  1.043  2.947  0.000    20.401     6.430
 134   6 C      0.201  1.080  2.719  0.000    23.722     7.976
 135   8 O     -0.361  1.770  4.591  0.000    20.914     6.131
 136   6 C     -0.016  1.035  2.981  0.000    20.817     6.488
 137   6 C     -0.135  0.995  3.140  0.000    23.119     6.850
 138   6 C     -0.149  0.998  3.151  0.000    23.399     6.891
 139   1 H      0.211  0.789  0.000  0.000     1.051     1.606
 140   1 H      0.088  0.912  0.000  0.000     1.901     2.156
 141   1 H      0.051  0.949  0.000  0.000     2.302     2.372
 142   1 H      0.066  0.934  0.000  0.000     2.134     2.284
 143   1 H      0.039  0.961  0.000  0.000     2.460     2.453
 144   1 H      0.065  0.935  0.000  0.000     2.144     2.289
 145   1 H      0.073  0.927  0.000  0.000     2.056     2.242
 146   1 H      0.062  0.938  0.000  0.000     2.177     2.307
 147   1 H      0.056  0.944  0.000  0.000     2.247     2.344
 148   1 H      0.185  0.815  0.000  0.000     1.187     1.706
 149   1 H      0.066  0.934  0.000  0.000     2.124     2.279
 150   1 H      0.188  0.812  0.000  0.000     1.169     1.693
 151   1 H      0.070  0.930  0.000  0.000     2.083     2.257
 152   1 H      0.195  0.805  0.000  0.000     1.130     1.665
 153   1 H      0.083  0.917  0.000  0.000     1.945     2.181

 Mol. C6AA /au·bohr⁶  :     228518.118716
 Mol. C8AA /au·bohr⁸  :    5137653.426028
 Mol. α(0) /au        :        720.384011

 
molecular dipole:
                 x           y           z       tot (Debye)
 q only:      -18.166     -28.049     -25.431
   full:      -18.903     -27.157     -25.157     105.651
molecular quadrupole (traceless):
                xx          xy          yy          xz          yz          zz
 q only:      307.924    -802.805    -138.070    -656.778   -1166.487    -169.854
  q+dip:      217.624    -808.768     -46.651    -677.648   -1145.225    -170.973
   full:      217.920    -808.721     -48.094    -676.147   -1143.065    -169.826
speedup  1.00
cpu  time for grad    0.77 s
wall time for grad    0.77 s

SCC energy    :    -247.1820630
rep           :       4.1947213
ES            :       0.8298752
AES           :       0.0093517
AXC           :       0.0405097
disp          :      -0.1813875
XB            :       0.0000000
fix           :       0.0000000
Gborn         :       0.0000000
Gsasa         :       0.0000000
Ghb           :       0.0000000
Gshift        :       0.0000000
Gsolv         :      -0.2134366     -133.93
Etot ala COSMO:    -247.1820630
grad norm     :       0.7080431
total E       :    -242.9733126
atomizationE  :      43.8345239    27506.58
(atE without considering molecular charge,
 total energy contains solvation terms)
H-L gap (eV)  :          1.7218

------------------------------------------------------------------------
 * finished run on 2019/03/15 at 00:15:17.664     
------------------------------------------------------------------------
 total:
 * wall-time:     0 d,  0 h,  0 min,  1.014 sec
 *  cpu-time:     0 d,  0 h,  0 min,  0.902 sec
 * ratio c/w:     0.889 speedup
 SCF:
 * wall-time:     0 d,  0 h,  0 min,  0.870 sec
 *  cpu-time:     0 d,  0 h,  0 min,  0.868 sec
 * ratio c/w:     0.998 speedup

