      -----------------------------------------------------------      
     |                   =====================                   |     
     |                           x T B                           |     
     |                   =====================                   |     
     |                         S. Grimme                         |     
     |          Mulliken Center for Theoretical Chemistry        |     
     |                    University of Bonn                     |     
     |                Version 6.1 RC1 (SAW190329)                |     
      -----------------------------------------------------------      

   This program is distributed in the hope that it will be useful,
   but WITHOUT ANY WARRANTY; without even the implied warranty of
   MERCHANTABILITY or FITNESS FOR A PARTICULAR PURPOSE.
   
   FOR NON-COMMERCIAL, ACADEMIA USE ONLY.
   
   Cite this work as:
   S. Grimme, C. Bannwarth, P. Shushkov, J. Comput. Theory Chem., 2017,
   13, 1989-2009. DOI: 10.1021/acs.jctc.7b00118
   C. Bannwarth, S. Ehlert and S. Grimme., J. Comput. Theory Chem., 2019,
   just accepted. DOI: 10.1021/acs.jctc.8b01176
   
   for sTDA-xTB:
   S. Grimme and C. Bannwarth, J. Chem. Phys., 2016, 145, 054103.
   DOI: 10.1063/1.4959605
   
   in the mass-spec context:
   V. Asgeirsson, C. Bauer and S. Grimme, Chem. Sci., 2017, 8, 4879.
   DOI: 10.1039/c7sc00601b
   
   for metadynamics refer to:
   S. Grimme, ChemRxiv, Preprint. DOI: 10.26434/chemrxiv.7660532.v1
   
   with help from (in alphabetical order)
   C. Bannwarth, F. Bohle, G. Brandenburg, E. Caldeweyher, M. Checinski,
   S. Dohm, S. Ehlert, S. Ehrlich, F. März, H. Neugebauer, J. Pisarek,
   P. Pracht, P. Shushkov, and S. Spicher.
   
 * started run on 2019/05/31 at 06:33:02.011     

           -------------------------------------------------
          |                Calculation Setup                |
           -------------------------------------------------

          program call               : /home/lum/qr/xtb-190329/bin/xtb xtb_tmp.xyz --chrg -2 --grad --gfn 2 --etemp 500 --acc 0.1 --gbsa h2o --parallel 2
          hostname                   : cu39
          coordinate file            : xtb_tmp.xyz
          omp threads                :                     2
          number of atoms            :                   470
          number of electrons        :                  1312
          charge                     :                    -2
          spin                       :                   0.0
          first test random number   :      0.00365365823291


molecular fragmentation (1/2 indicates fragments):
111111111111112222222222222222222222222222222222222222222222222222222222
222222222222222222222222222222222222222222222222222222222222222222222222
222222222222222222222222222222222222222222222222222222222222222222222222
222222222222222222222222222222222222222222222222222222222222222222222222
222222222222222222222222222222222222222222222222222222222222222222222222
222222222222222222222222222222222222222222222222222222222222222222222222
22222222222222222211222222222222222222
# atoms in fragment 1/2:    16   454
 fragment masses (1/2) :      116.12     3223.64
CMA distance (Bohr)    :  23.955
constraining FC (au)   :  0.0500

########################################################################
# WARNING! Please study the warnings concerning your input carefully
#  - XTBPATH is not set, using XTBHOME instead
#  - Process number higher than OMP_NUM_THREADS, I hope you know what you are doing.
########################################################################

           ------------------------------------------------- 
          |                 G F N 2 - x T B                 |
          | Geometry, Frequencies, Noncovalent interactions |
          |            JCTC 2018 parametrisation            |
           ------------------------------------------------- 
 
             k(s)              :                1.8500
             k(p)              :                2.2300
             k(d)              :                2.2300
             k(f)              :                2.0000
             kEN (H0ij)        :               -2.0000
             D4 a1             :                0.5200
             D4 a2             :                5.0000
             D4 s6             :                1.0000
             D4 s8             :                2.7000
             D4 s9             :                5.0000
             alphaj            :                2.0000

  Z AO/shell   Hii/eV     exponent
  1     Wed Apr 25 08:07:45 CEST 2018   EN: 2.200 GM2: 0.406  GM3: 0.0800  RAES: 1.40
     1s    -10.707211    1.230000
  6     Wed Apr 25 08:07:45 CEST 2018   EN: 2.550 GM2: 0.538  GM3: 0.1500  RAES: 3.00
     2s    -13.970922    2.096432
     2p    -10.063292    1.800000
  7     Wed Apr 25 08:07:45 CEST 2018   EN: 3.040 GM2: 0.461  GM3:-0.0640  RAES: 1.90
     2s    -16.686243    2.339881
     2p    -12.523956    2.014332
  8     Wed Apr 25 08:07:45 CEST 2018   EN: 3.440 GM2: 0.452  GM3:-0.0517  RAES: 1.80
     2s    -20.229985    2.439742
     2p    -15.503117    2.137023
 16     Tue Apr 24 11:44:34 CEST 2018   EN: 2.580 GM2: 0.340  GM3:-0.0502  RAES: 3.10
     3s    -20.029654    1.981333
     3p    -11.377694    2.025643
     3d     -0.420282    1.702555

 Solvent             : h2o
 Using internal parameter file: .param_gbsa2_h2o
 Gsolv ref. state (COSMO-RS): gsolv [1 M gas/solution]
 temperature (mdtemp)       :    298.150000000000     
 dielectric constant        :    80.2000000000000     
 rho                        :    1.00000000000000     
 mass                       :    18.0000000000000     
 surface tension            :    15.5689454083859     
 probe radius               :   0.975313790000000     
 vdW radii scaling          :    1.00000000000000     
 Gshift (Eh)                :   1.857443126794793E-003
 c1                         :    1.55243817000000     
 soset                      :   0.130326360000000     
 HB correction              :  T
 Number of grid points      :          230

            Z     q(EN)     CN     RAES       Cart. coordinates
     1  N   5.0   -0.73    3.00    1.93   100.42351    48.48062    18.45113
     2  C   4.0    0.07    3.98    3.58    99.45256    46.68097    20.29250
     3  C   4.0    0.08    3.00    3.02   101.64478    45.21354    21.53696
     4  O   6.0   -0.46    1.00    1.80   101.52138    44.57120    23.74897
     5  C   4.0   -0.10    3.99    3.60    97.58258    44.82799    19.06662
     6  C   4.0    0.27    3.00    3.02    95.88150    43.64973    21.07488
     7  O   6.0   -0.40    1.00    1.80    96.25251    41.56439    21.97101
     8  N   5.0   -0.66    3.00    1.93    93.96795    45.15035    21.82138
     9  H   1.0    0.25    1.00    1.43    99.35326    48.76660    16.89408
    10  H   1.0    0.13    0.99    1.43    98.47709    47.70195    21.81602
    11  H   1.0    0.10    0.99    1.43    96.38849    45.82335    17.70979
    12  H   1.0    0.12    0.99    1.43    98.59295    43.30616    18.11762
    13  H   1.0    0.29    1.00    1.43    92.67480    44.47055    23.04366
    14  H   1.0    0.27    1.00    1.43    93.50571    46.76231    20.92208
    15  N   5.0   -0.72    3.00    1.93   103.38547    44.90568    28.80035
    16  C   4.0    0.07    3.98    3.59   103.69438    42.50083    30.08037
    17  C   4.0    0.09    3.00    3.02   106.06131    42.59025    31.75101
    18  O   6.0   -0.39    1.00    1.80   106.05893    41.84821    33.94916
    19  C   4.0   -0.09    3.99    3.60   104.01047    40.28780    28.25210
    20  C   4.0    0.28    3.00    3.02   104.89881    38.02675    29.80806
    21  O   6.0   -0.36    1.00    1.80   103.50285    36.94026    31.28737
    22  N   5.0   -0.64    3.00    1.93   107.30043    37.29875    29.38016
    23  H   1.0    0.32    1.00    1.43   102.87641    44.90782    26.94838
    24  H   1.0    0.13    0.99    1.43   102.09691    42.12762    31.34709
    25  H   1.0    0.13    0.99    1.43   102.19846    39.83614    27.38099
    26  H   1.0    0.12    0.99    1.43   105.40147    40.76543    26.81637
    27  H   1.0    0.28    1.00    1.43   107.99351    35.95609    30.54503
    28  H   1.0    0.25    1.00    1.43   108.61399    38.49391    28.62522
    29  N   5.0   -0.71    3.00    1.92    71.08506    44.31892    43.88542
    30  C   4.0    0.01    3.98    3.58    72.74769    45.64834    42.15923
    31  C   4.0    0.06    2.99    3.02    72.88500    48.49074    42.67563
    32  O   6.0   -0.39    1.00    1.80    72.80783    50.05540    40.99312
    33  H   1.0    0.25    1.00    1.43    71.37966    42.46006    44.19034
    34  H   1.0    0.09    0.99    1.43    74.66362    44.89541    42.35089
    35  H   1.0    0.15    0.99    1.43    72.12424    45.38843    40.20010
    36  N   5.0   -0.69    3.00    1.93    78.53784    54.36677    26.81686
    37  C   4.0    0.08    3.98    3.59    79.29713    51.76517    27.05713
    38  C   4.0    0.29    3.02    3.02    78.02082    50.26180    24.93594
    39  O   6.0   -0.37    1.00    1.80    76.47211    51.23524    23.52252
    40  C   4.0   -0.13    3.98    3.59    78.36461    50.72371    29.61070
    41  C   4.0   -0.14    3.98    3.59    78.92955    52.54545    31.77824
    42  C   4.0   -0.03    3.99    3.60    77.57978    51.81916    34.21958
    43  N   5.0   -0.47    3.02    1.93    78.79393    49.71750    35.46141
    44  C   4.0    0.37    3.00    3.02    79.39714    49.51031    37.87261
    45  N   5.0   -0.66    3.02    1.93    80.54443    47.39682    38.65579
    46  N   5.0   -0.63    3.01    1.93    79.12168    51.38256    39.54012
    47  H   1.0    0.34    1.00    1.43    76.67525    54.68214    27.17951
    48  H   1.0    0.13    0.99    1.43    81.35946    51.66950    26.91220
    49  H   1.0    0.14    0.99    1.43    76.31704    50.47781    29.45282
    50  H   1.0    0.14    0.99    1.43    79.18800    48.86060    29.93505
    51  H   1.0    0.16    0.99    1.43    80.96139    52.67810    32.09443
    52  H   1.0    0.12    0.99    1.43    78.26284    54.41989    31.24376
    53  H   1.0    0.12    0.99    1.43    77.55506    53.46381    35.45589
    54  H   1.0    0.12    0.99    1.43    75.61886    51.31795    33.78048
    55  H   1.0    0.30    1.00    1.43    79.16090    48.17722    34.35031
    56  H   1.0    0.28    1.00    1.43    80.60797    45.91865    37.44901
    57  H   1.0    0.25    1.00    1.43    80.71293    47.09282    40.52900
    58  H   1.0    0.27    1.00    1.43    78.02655    52.86630    39.06935
    59  H   1.0    0.25    1.00    1.43    79.18694    50.89232    41.40176
    60  N   5.0   -0.48    3.01    1.93    78.70187    47.82206    24.69398
    61  C   4.0    0.07    3.99    3.61    77.25177    46.15413    23.07657
    62  C   4.0    0.27    3.01    3.02    74.89959    45.22159    24.50525
    63  O   6.0   -0.38    1.00    1.80    74.75625    45.30490    26.82816
    64  C   4.0   -0.20    3.98    3.59    78.85949    43.93871    22.12459
    65  H   1.0    0.29    1.00    1.43    79.93883    47.01170    25.89999
    66  H   1.0    0.13    0.99    1.43    76.58273    47.33859    21.51555
    67  H   1.0    0.09    0.99    1.43    78.89668    43.87821    20.07602
    68  H   1.0    0.15    0.99    1.43    80.77814    44.19152    22.80505
    69  H   1.0    0.13    0.99    1.43    78.13747    42.15398    22.85482
    70  N   5.0   -0.33    3.03    1.93    73.00907    44.36596    23.06837
    71  C   4.0    0.08    4.03    3.67    70.70093    43.43054    24.22718
    72  C   4.0    0.28    3.01    3.02    71.30063    41.04771    25.76659
    73  O   6.0   -0.38    1.00    1.80    73.17857    39.75869    25.36263
    74  C   4.0   -0.13    4.01    3.64    68.95073    42.89760    21.98357
    75  C   4.0   -0.14    4.01    3.64    70.80438    42.23273    19.87732
    76  C   4.0   -0.05    4.02    3.65    72.95858    44.10037    20.33208
    77  H   1.0    0.14    0.99    1.43    69.91914    44.84493    25.52440
    78  H   1.0    0.11    0.99    1.43    67.59958    41.40475    22.40148
    79  H   1.0    0.11    0.99    1.43    67.91432    44.61784    21.52062
    80  H   1.0    0.12    0.99    1.43    71.48010    40.30436    20.14210
    81  H   1.0    0.09    0.99    1.43    69.98011    42.42658    18.00757
    82  H   1.0    0.10    0.99    1.43    74.75360    43.39558    19.62045
    83  H   1.0    0.11    0.99    1.43    72.54238    45.94546    19.48694
    84  N   5.0   -0.48    3.01    1.93    69.56035    40.50619    27.52112
    85  C   4.0    0.08    3.99    3.61    69.88760    38.53746    29.38899
    86  C   4.0    0.27    3.00    3.02    67.62545    36.72047    29.36912
    87  O   6.0   -0.46    1.00    1.80    65.66134    37.21503    28.25680
    88  C   4.0   -0.13    4.02    3.65    70.19759    39.72294    32.02663
    89  C   4.0   -0.12    3.98    3.58    72.88664    40.65814    32.48583
    90  S   6.0   -0.15    2.02    3.10    73.27264    41.72829    35.72394
    91  C   4.0   -0.20    3.98    3.58    75.09227    39.13834    37.08073
    92  H   1.0    0.28    1.00    1.43    68.08891    41.71848    27.76697
    93  H   1.0    0.15    0.99    1.43    71.59685    37.47922    28.87059
    94  H   1.0    0.14    0.99    1.43    68.88485    41.32043    32.15758
    95  H   1.0    0.12    0.99    1.43    69.68941    38.32834    33.46411
    96  H   1.0    0.14    0.99    1.43    74.27971    39.16938    32.15295
    97  H   1.0    0.15    0.99    1.43    73.34510    42.25282    31.25403
    98  H   1.0    0.10    0.99    1.43    75.60340    39.69253    38.98313
    99  H   1.0    0.11    0.99    1.43    73.96539    37.42675    37.11619
   100  H   1.0    0.11    0.99    1.43    76.77636    38.83534    35.94923
   101  N   5.0   -0.47    3.01    1.93    67.97635    34.61937    30.72009
   102  C   4.0    0.09    3.99    3.60    66.15374    32.62409    31.08621
   103  C   4.0    0.27    3.01    3.02    65.84571    32.25722    33.93325
   104  O   6.0   -0.46    1.00    1.80    67.68494    32.35558    35.33285
   105  C   4.0    0.05    3.97    3.58    67.17589    30.12864    29.86698
   106  O   6.0   -0.45    1.99    1.82    69.83727    30.26965    29.83525
   107  C   4.0   -0.21    3.98    3.59    66.11864    29.88095    27.19100
   108  H   1.0    0.27    1.00    1.43    69.70252    34.20008    31.41385
   109  H   1.0    0.12    0.99    1.43    64.36891    33.18346    30.21217
   110  H   1.0    0.12    0.99    1.43    66.52750    28.51766    31.00946
   111  H   1.0    0.30    0.99    1.43    70.64766    28.66164    30.28830
   112  H   1.0    0.11    0.99    1.43    66.82086    28.15877    26.32342
   113  H   1.0    0.10    0.99    1.43    64.06465    29.84343    27.24599
   114  H   1.0    0.13    0.99    1.43    66.75186    31.49973    26.09983
   115  N   5.0   -0.47    3.01    1.93    63.48137    31.89379    34.75755
   116  C   4.0    0.06    3.98    3.59    62.81262    31.45368    37.38300
   117  C   4.0    0.05    3.00    3.02    60.95151    29.23640    37.47344
   118  O   6.0   -0.41    1.00    1.80    60.04045    28.37211    35.52493
   119  C   4.0   -0.13    3.99    3.60    61.50102    33.78729    38.55367
   120  C   4.0   -0.02    3.02    3.02    62.84588    36.25704    38.10361
   121  C   4.0   -0.08    3.04    3.02    65.45663    36.46345    38.15067
   122  C   4.0   -0.11    3.04    3.02    61.45700    38.44885    37.69086
   123  C   4.0   -0.10    3.03    3.02    66.65182    38.73352    37.66453
   124  C   4.0   -0.08    3.03    3.02    62.62457    40.73803    37.24843
   125  C   4.0    0.10    3.03    3.02    65.24683    40.88789    37.16093
   126  O   6.0   -0.45    1.99    1.83    66.35219    43.14053    36.61990
   127  H   1.0    0.25    1.00    1.43    62.07554    31.50315    33.51764
   128  H   1.0    0.13    0.99    1.43    64.52509    30.98960    38.44288
   129  H   1.0    0.11    0.99    1.43    59.59055    33.91965    37.78502
   130  H   1.0    0.09    0.99    1.43    61.36163    33.44861    40.58545
   131  H   1.0    0.13    1.00    1.43    66.60220    34.82256    38.51044
   132  H   1.0    0.11    1.00    1.43    59.42151    38.35244    37.72999
   133  H   1.0    0.11    0.99    1.43    68.69248    38.83311    37.64126
   134  H   1.0    0.12    1.00    1.43    61.52718    42.42636    36.96032
   135  H   1.0    0.26    0.99    1.43    68.17280    42.95143    36.57325
   136  N   5.0   -0.69    3.00    1.93    59.03380    35.51011    24.38340
   137  C   4.0    0.08    3.98    3.59    61.09845    37.31194    24.41236
   138  C   4.0    0.28    3.01    3.02    60.18388    39.85550    25.48258
   139  O   6.0   -0.40    1.00    1.80    58.22256    40.84402    24.76303
   140  C   4.0   -0.13    3.98    3.59    62.05917    37.69999    21.71183
   141  C   4.0   -0.12    3.98    3.59    62.99775    35.23118    20.54164
   142  C   4.0    0.26    3.00    3.02    60.87875    33.56520    19.54752
   143  O   6.0   -0.42    1.00    1.80    58.70330    34.29668    19.24188
   144  N   5.0   -0.66    3.00    1.93    61.58820    31.20470    18.96062
   145  H   1.0    0.32    1.00    1.43    57.98424    35.47200    22.77765
   146  H   1.0    0.14    0.99    1.43    62.59035    36.55788    25.63062
   147  H   1.0    0.14    0.99    1.43    60.53224    38.47399    20.55782
   148  H   1.0    0.10    0.99    1.43    63.59279    39.06844    21.77771
   149  H   1.0    0.10    0.99    1.43    64.23746    35.64952    18.94737
   150  H   1.0    0.10    0.99    1.43    64.09133    34.17968    21.93683
   151  H   1.0    0.25    1.00    1.43    63.34937    30.57334    19.29217
   152  H   1.0    0.28    1.00    1.43    60.27521    29.97709    18.33151
   153  N   5.0   -0.50    3.01    1.93    61.71969    40.87668    27.21388
   154  C   4.0    0.08    4.00    3.62    61.15106    43.25414    28.42976
   155  C   4.0    0.28    3.01    3.02    63.33282    45.09397    28.01129
   156  O   6.0   -0.44    1.00    1.80    65.54847    44.39746    28.00721
   157  C   4.0   -0.08    3.98    3.58    60.60940    42.85287    31.26573
   158  C   4.0   -0.21    3.98    3.59    59.78300    45.32965    32.47963
   159  C   4.0   -0.20    3.98    3.59    58.55809    40.84390    31.56696
   160  H   1.0    0.29    1.00    1.43    63.32776    39.96014    27.70507
   161  H   1.0    0.14    0.99    1.43    59.44406    43.98029    27.50755
   162  H   1.0    0.14    0.99    1.43    62.35947    42.20686    32.16488
   163  H   1.0    0.11    0.99    1.43    59.30571    45.00002    34.44738
   164  H   1.0    0.16    0.99    1.43    61.29546    46.71649    32.39865
   165  H   1.0    0.14    0.99    1.43    58.12464    46.07797    31.52284
   166  H   1.0    0.10    0.99    1.43    57.99907    40.70758    33.53484
   167  H   1.0    0.13    0.99    1.43    56.91519    41.36256    30.44415
   168  H   1.0    0.13    0.99    1.43    59.22636    39.01131    30.92554
   169  N   5.0   -0.49    3.01    1.93    62.63355    47.48413    27.56921
   170  C   4.0    0.07    3.99    3.61    64.44048    49.51833    27.30640
   171  C   4.0    0.26    3.01    3.02    65.17941    50.51933    29.93301
   172  O   6.0   -0.40    1.00    1.80    64.38264    49.55726    31.87643
   173  C   4.0   -0.14    3.98    3.59    63.39273    51.62403    25.63394
   174  C   4.0   -0.11    3.97    3.58    62.78713    50.80824    22.94307
   175  C   4.0    0.31    2.99    3.02    60.67446    52.55104    21.81326
   176  O   6.0   -0.42    1.00    1.80    58.84672    53.02515    23.22191
   177  O   6.0   -0.39    1.00    1.80    60.98001    53.29579    19.60447
   178  H   1.0    0.26    1.00    1.43    60.80897    48.01662    27.87522
   179  H   1.0    0.14    0.99    1.43    66.16368    48.72478    26.45643
   180  H   1.0    0.13    0.99    1.43    61.64773    52.32756    26.47856
   181  H   1.0    0.12    0.99    1.43    64.75570    53.16805    25.56778
   182  H   1.0    0.12    0.99    1.43    64.44698    50.88850    21.72089
   183  H   1.0    0.13    0.99    1.43    62.04511    48.88121    22.91943
   184  N   5.0   -0.51    3.01    1.93    66.68928    52.55638    29.89718
   185  C   4.0    0.08    3.99    3.60    68.28812    53.18269    32.01496
   186  C   4.0    0.26    3.01    3.02    68.05754    55.85222    33.14018
   187  O   6.0   -0.40    1.00    1.80    69.88795    56.75873    34.25455
   188  C   4.0   -0.09    3.98    3.59    71.03015    52.70473    31.18732
   189  C   4.0    0.33    2.99    3.02    71.73668    54.14676    28.71546
   190  O   6.0   -0.42    1.00    1.80    70.32245    53.90014    26.83076
   191  O   6.0   -0.43    1.00    1.80    73.71614    55.41626    28.76213
   192  H   1.0    0.28    1.00    1.43    67.56216    53.02583    28.22880
   193  H   1.0    0.15    0.99    1.43    67.79172    51.89063    33.57601
   194  H   1.0    0.13    0.99    1.43    72.33130    53.31526    32.65929
   195  H   1.0    0.12    0.99    1.43    71.28237    50.68415    30.81024
   196  N   5.0   -0.30    3.03    1.93    65.85817    57.09209    33.06672
   197  C   4.0    0.06    4.03    3.67    65.61119    59.56388    34.24520
   198  C   4.0    0.06    3.00    3.02    64.57282    59.32738    36.94858
   199  O   6.0   -0.38    1.00    1.80    63.48034    57.45365    37.72637
   200  C   4.0   -0.14    4.01    3.63    63.64583    60.87820    32.58248
   201  C   4.0   -0.14    4.01    3.63    61.83763    58.71079    31.95681
   202  C   4.0   -0.02    4.01    3.64    63.50083    56.33754    31.88927
   203  H   1.0    0.13    0.99    1.43    67.46135    60.47963    34.26929
   204  H   1.0    0.09    0.99    1.43    62.70708    62.42175    33.56005
   205  H   1.0    0.11    0.99    1.43    64.54538    61.59397    30.87667
   206  H   1.0    0.13    0.99    1.43    60.43154    58.52487    33.44630
   207  H   1.0    0.09    0.99    1.43    60.92151    58.99143    30.13892
   208  H   1.0    0.14    0.99    1.43    62.68104    54.77202    32.96619
   209  H   1.0    0.12    0.99    1.43    63.84345    55.70510    29.95696
   210  N   5.0   -0.73    3.00    1.93    55.93523    55.51556    32.29285
   211  C   4.0    0.08    3.97    3.58    55.65634    52.88445    31.53535
   212  C   4.0    0.08    3.00    3.02    55.29661    51.16895    33.84894
   213  O   6.0   -0.41    1.00    1.80    53.43544    49.81669    34.03102
   214  C   4.0   -0.01    3.98    3.58    57.94617    52.11070    29.90642
   215  O   6.0   -0.52    1.99    1.82    57.57799    49.79467    28.66147
   216  H   1.0    0.25    1.00    1.43    56.86431    56.63382    31.05262
   217  H   1.0    0.13    0.99    1.43    53.93982    52.65924    30.38209
   218  H   1.0    0.11    0.99    1.43    58.29891    53.62460    28.53416
   219  H   1.0    0.13    0.99    1.43    59.62981    51.87243    31.08146
   220  H   1.0    0.28    0.99    1.43    56.77963    50.10370    27.05126
   221  N   5.0   -0.70    3.00    1.93    67.58524    31.33366    45.30071
   222  C   4.0    0.07    3.98    3.59    69.01745    32.29244    43.17759
   223  C   4.0    0.29    3.01    3.02    70.46617    30.11426    41.91707
   224  O   6.0   -0.38    1.00    1.80    71.13699    28.25945    43.12512
   225  C   4.0   -0.09    3.98    3.58    70.81965    34.38425    44.13803
   226  C   4.0   -0.20    3.98    3.59    73.15515    33.28813    45.42807
   227  C   4.0   -0.23    3.98    3.59    71.62896    36.13695    42.00523
   228  H   1.0    0.26    1.00    1.43    68.52343    31.17987    46.95369
   229  H   1.0    0.10    0.99    1.43    67.64753    33.07974    41.84046
   230  H   1.0    0.10    0.99    1.43    69.74013    35.46683    45.53951
   231  H   1.0    0.11    0.99    1.43    74.28481    34.81249    46.21831
   232  H   1.0    0.12    0.99    1.43    72.63792    32.00735    46.94684
   233  H   1.0    0.15    0.99    1.43    74.31395    32.26279    44.07316
   234  H   1.0    0.09    0.99    1.43    72.71973    37.69106    42.78919
   235  H   1.0    0.13    0.99    1.43    72.81271    35.10853    40.67429
   236  H   1.0    0.10    0.99    1.43    69.98450    36.89345    41.04237
   237  N   5.0   -0.49    3.01    1.93    70.93164    30.37823    39.43449
   238  C   4.0    0.09    4.00    3.61    72.69836    28.70472    38.18088
   239  C   4.0    0.29    3.02    3.02    75.38043    29.40360    39.01077
   240  O   6.0   -0.42    1.00    1.80    75.93299    31.55375    39.68674
   241  C   4.0   -0.09    3.98    3.59    72.46702    28.86027    35.31443
   242  C   4.0    0.32    2.99    3.02    73.22558    26.37581    33.93790
   243  O   6.0   -0.41    1.00    1.80    74.48161    24.79216    35.13645
   244  O   6.0   -0.42    1.00    1.80    72.47869    26.16750    31.70395
   245  H   1.0    0.26    1.00    1.43    70.31639    31.88906    38.45244
   246  H   1.0    0.15    0.99    1.43    72.29452    26.76505    38.79931
   247  H   1.0    0.15    0.99    1.43    70.52252    29.29320    34.79414
   248  H   1.0    0.14    0.99    1.43    73.65638    30.37018    34.54394
   249  N   5.0   -0.48    3.01    1.93    77.00882    27.46707    39.05461
   250  C   4.0    0.08    4.00    3.62    79.62971    27.94998    39.68088
   251  C   4.0    0.28    3.01    3.02    80.95349    29.33318    37.50536
   252  O   6.0   -0.38    1.00    1.80    80.52980    28.88876    35.27792
   253  C   4.0   -0.21    3.98    3.59    81.04913    25.51413    40.27429
   254  H   1.0    0.28    1.00    1.43    76.54200    25.96057    37.94764
   255  H   1.0    0.14    0.99    1.43    79.59347    29.19731    41.33488
   256  H   1.0    0.11    0.99    1.43    82.96438    25.98371    40.84759
   257  H   1.0    0.11    0.99    1.43    80.09461    24.52286    41.79629
   258  H   1.0    0.12    0.99    1.43    81.06482    24.31978    38.60181
   259  N   5.0   -0.49    3.01    1.93    82.76240    30.93723    38.28881
   260  C   4.0    0.08    4.00    3.62    84.18009    32.51018    36.54986
   261  C   4.0    0.27    3.01    3.02    86.82461    31.37080    36.28421
   262  O   6.0   -0.45    1.00    1.80    88.11632    30.83973    38.12232
   263  C   4.0   -0.09    3.98    3.59    84.30404    35.23785    37.52087
   264  C   4.0   -0.22    3.98    3.59    85.95278    36.80851    35.75242
   265  C   4.0   -0.21    3.98    3.59    81.63206    36.30340    37.71748
   266  H   1.0    0.25    1.00    1.43    82.81985    31.44006    40.12985
   267  H   1.0    0.14    0.99    1.43    83.19190    32.47121    34.72746
   268  H   1.0    0.12    0.99    1.43    85.16235    35.21335    39.40361
   269  H   1.0    0.10    0.99    1.43    85.91730    38.78804    36.29747
   270  H   1.0    0.13    0.99    1.43    87.90237    36.16028    35.79541
   271  H   1.0    0.13    0.99    1.43    85.26206    36.68388    33.81711
   272  H   1.0    0.09    0.99    1.43    81.67271    38.24904    38.37127
   273  H   1.0    0.12    0.99    1.43    80.70954    36.25246    35.87457
   274  H   1.0    0.13    0.99    1.43    80.47119    35.20193    39.00853
   275  N   5.0   -0.51    3.00    1.93    87.57825    30.92313    33.90978
   276  C   4.0    0.07    3.99    3.60    89.91690    29.64268    33.30095
   277  C   4.0    0.26    3.01    3.02    91.94273    31.34178    32.10498
   278  O   6.0   -0.40    1.00    1.80    94.03119    30.48527    31.64373
   279  C   4.0   -0.14    3.98    3.59    89.45583    27.40190    31.48924
   280  C   4.0   -0.16    3.98    3.58    89.89884    24.77185    32.61624
   281  C   4.0   -0.15    3.98    3.58    87.61730    23.65725    34.01462
   282  C   4.0   -0.04    3.98    3.58    87.27389    24.55223    36.73840
   283  N   5.0   -0.73    3.98    2.81    89.08043    23.25894    38.46722
   284  H   1.0    0.24    1.00    1.43    86.40120    31.36450    32.47602
   285  H   1.0    0.15    0.99    1.43    90.71957    29.00806    35.09808
   286  H   1.0    0.12    0.99    1.43    87.53284    27.54138    30.75897
   287  H   1.0    0.12    0.99    1.43    90.72847    27.64035    29.88640
   288  H   1.0    0.10    0.99    1.43    90.32958    23.52321    31.03520
   289  H   1.0    0.12    0.99    1.43    91.57590    24.86295    33.80698
   290  H   1.0    0.11    0.99    1.43    85.91226    24.13310    32.95835
   291  H   1.0    0.10    0.99    1.43    87.77322    21.60099    33.99834
   292  H   1.0    0.16    0.99    1.43    87.55307    26.58404    36.88825
   293  H   1.0    0.11    0.99    1.43    85.35130    24.12640    37.34177
   294  H   1.0    0.31    0.99    1.43    89.52199    24.39820    40.04551
   295  H   1.0    0.24    1.00    1.43    88.36109    21.56785    39.08982
   296  H   1.0    0.25    1.00    1.43    90.75421    22.91992    37.54076
   297  N   5.0   -0.47    3.01    1.93    91.25124    33.70455    31.52879
   298  C   4.0    0.08    3.99    3.61    92.87446    35.42371    30.16154
   299  C   4.0    0.23    3.03    3.02    91.61841    38.01097    30.25771
   300  O   6.0   -0.44    1.00    1.80    89.49085    38.26348    31.15632
   301  C   4.0   -0.09    3.98    3.59    93.33473    34.47619    27.44062
   302  C   4.0    0.29    3.00    3.02    95.92017    33.19322    27.31245
   303  O   6.0   -0.39    1.00    1.80    97.80286    34.25156    28.11354
   304  N   5.0   -0.64    3.00    1.93    95.99114    30.94160    26.16153
   305  H   1.0    0.27    1.00    1.43    89.52589    34.42096    31.95877
   306  H   1.0    0.15    0.99    1.43    94.71570    35.52745    31.11618
   307  H   1.0    0.12    0.99    1.43    91.81761    33.20124    26.87989
   308  H   1.0    0.11    0.99    1.43    93.38927    36.05851    26.12012
   309  H   1.0    0.29    1.00    1.43    97.65386    30.01270    26.16968
   310  H   1.0    0.26    1.00    1.43    94.41662    29.96209    25.75039
   311  N   5.0   -0.36    3.03    1.93    92.89667    39.97401    29.30694
   312  C   4.0    0.07    4.04    3.68    91.85208    42.48003    29.68077
   313  C   4.0    0.28    3.01    3.02    89.49228    43.03547    28.15170
   314  O   6.0   -0.47    1.00    1.80    88.38675    45.04458    28.49594
   315  C   4.0   -0.14    4.01    3.64    94.03720    44.30404    29.10462
   316  C   4.0   -0.14    4.01    3.64    96.37481    42.65923    29.51029
   317  C   4.0   -0.04    4.02    3.65    95.52058    40.10106    28.49442
   318  H   1.0    0.12    0.99    1.43    91.25143    42.67000    31.66107
   319  H   1.0    0.13    0.99    1.43    93.94179    44.94185    27.15038
   320  H   1.0    0.09    0.99    1.43    93.97543    45.94559    30.33690
   321  H   1.0    0.11    0.99    1.43    98.01939    43.35503    28.49915
   322  H   1.0    0.11    0.99    1.43    96.79502    42.51900    31.52196
   323  H   1.0    0.15    0.99    1.43    95.61708    40.09477    26.42420
   324  H   1.0    0.13    0.99    1.43    96.61488    38.52188    29.22957
   325  N   5.0   -0.47    3.00    1.93    88.67334    41.36815    26.43664
   326  C   4.0    0.03    4.00    3.61    86.39376    41.90812    25.00920
   327  C   4.0    0.28    3.01    3.02    84.21336    42.85843    26.65735
   328  O   6.0   -0.42    1.00    1.80    83.06445    44.78862    26.11364
   329  H   1.0    0.26    1.00    1.43    89.41150    39.61444    26.37451
   330  H   1.0    0.14    0.99    1.43    86.75858    43.44230    23.66457
   331  H   1.0    0.10    0.99    1.43    85.79112    40.21675    24.00266
   332  N   5.0   -0.47    3.00    1.93    83.69018    41.51794    28.76165
   333  C   4.0    0.08    4.00    3.62    81.52306    42.25150    30.26844
   334  C   4.0    0.27    3.01    3.02    81.99647    44.63937    31.82468
   335  O   6.0   -0.50    1.00    1.80    80.42519    45.28796    33.41680
   336  C   4.0   -0.11    3.99    3.60    80.87208    40.17335    32.15391
   337  C   4.0    0.30    2.99    3.02    80.35891    37.61034    30.80964
   338  O   6.0   -0.40    1.00    1.80    78.22319    36.66823    31.07238
   339  O   6.0   -0.42    1.00    1.80    82.18585    36.69580    29.61054
   340  H   1.0    0.29    1.00    1.43    84.03744    39.61460    28.87106
   341  H   1.0    0.15    0.99    1.43    79.87021    42.63108    29.05180
   342  H   1.0    0.10    0.99    1.43    82.45898    39.93168    33.44545
   343  H   1.0    0.12    0.99    1.43    79.20402    40.74843    33.21278
   344  N   5.0   -0.48    3.00    1.93    84.17198    45.81043    31.43582
   345  C   4.0    0.08    4.00    3.61    85.13650    47.84236    32.99516
   346  C   4.0    0.27    3.01    3.02    85.48745    50.28692    31.48204
   347  O   6.0   -0.45    1.00    1.80    84.84369    52.33332    32.34315
   348  C   4.0   -0.08    3.98    3.58    87.65898    47.10464    34.26669
   349  C   4.0   -0.22    3.98    3.59    88.38081    49.08128    36.24047
   350  C   4.0   -0.22    3.98    3.59    87.45085    44.51265    35.51519
   351  H   1.0    0.32    1.00    1.43    85.34373    44.97184    30.16347
   352  H   1.0    0.15    0.99    1.43    83.72146    48.22474    34.45600
   353  H   1.0    0.13    0.99    1.43    89.10595    47.03336    32.79173
   354  H   1.0    0.10    0.99    1.43    90.23159    48.65617    37.02016
   355  H   1.0    0.14    0.99    1.43    88.42704    50.95544    35.40728
   356  H   1.0    0.11    0.99    1.43    87.00199    49.08389    37.76179
   357  H   1.0    0.09    0.99    1.43    89.21220    44.08202    36.47356
   358  H   1.0    0.10    0.99    1.43    85.93519    44.50442    36.90324
   359  H   1.0    0.13    0.99    1.43    87.06783    43.02715    34.14471
   360  N   5.0   -0.47    3.01    1.93    86.63435    49.99055    29.25824
   361  C   4.0    0.07    4.00    3.61    87.05036    52.02143    27.49249
   362  C   4.0    0.27    3.02    3.02    86.25988    51.14691    24.85629
   363  O   6.0   -0.36    1.00    1.80    86.27559    48.92923    24.23754
   364  C   4.0   -0.12    3.99    3.61    89.88020    52.69755    27.36389
   365  C   4.0   -0.02    3.03    3.02    90.90328    53.32584    29.93145
   366  C   4.0   -0.08    3.03    3.02    90.09822    55.48998    31.17575
   367  C   4.0   -0.09    3.03    3.02    92.62823    51.74842    31.11317
   368  C   4.0   -0.10    3.03    3.02    90.97408    56.04727    33.57170
   369  C   4.0   -0.11    3.03    3.02    93.52258    52.31132    33.50345
   370  C   4.0   -0.11    3.03    3.02    92.68562    54.45353    34.74416
   371  H   1.0    0.31    1.00    1.43    87.10027    48.24913    28.61319
   372  H   1.0    0.12    0.99    1.43    85.93839    53.65780    28.09968
   373  H   1.0    0.13    0.99    1.43    90.87620    51.08073    26.56198
   374  H   1.0    0.11    0.99    1.43    90.09038    54.29969    26.08960
   375  H   1.0    0.11    1.00    1.43    88.75006    56.71806    30.26365
   376  H   1.0    0.11    1.00    1.43    93.25687    50.06409    30.15262
   377  H   1.0    0.11    1.00    1.43    90.30679    57.72340    34.52327
   378  H   1.0    0.11    1.00    1.43    94.86288    51.06649    34.39974
   379  H   1.0    0.11    1.00    1.43    93.34850    54.87818    36.62104
   380  N   5.0   -0.48    3.01    1.93    85.68294    53.04435    23.26967
   381  C   4.0    0.06    3.99    3.60    84.98105    52.54405    20.67124
   382  C   4.0    0.07    3.00    3.02    87.42991    52.37462    19.09838
   383  O   6.0   -0.38    1.00    1.80    89.31980    51.41995    20.01372
   384  C   4.0   -0.15    3.98    3.59    82.98064    54.40645    19.74995
   385  C   4.0   -0.12    3.98    3.59    81.19036    53.25692    17.76404
   386  C   4.0    0.27    3.00    3.02    80.82479    55.06033    15.55672
   387  O   6.0   -0.41    1.00    1.80    82.67005    55.90964    14.41974
   388  N   5.0   -0.65    3.00    1.93    78.43129    55.55858    14.92202
   389  H   1.0    0.22    1.00    1.43    85.40262    54.79668    23.96509
   390  H   1.0    0.15    0.99    1.43    84.20467    50.61467    20.67260
   391  H   1.0    0.13    0.99    1.43    81.87637    55.01690    21.38203
   392  H   1.0    0.13    0.99    1.43    83.90171    56.09023    18.98959
   393  H   1.0    0.11    0.99    1.43    82.03200    51.53430    16.98833
   394  H   1.0    0.12    0.99    1.43    79.39080    52.76383    18.63539
   395  H   1.0    0.26    1.00    1.43    76.96837    54.96151    15.99424
   396  H   1.0    0.28    1.00    1.43    78.07597    56.77521    13.49475
   397  N   5.0   -0.70    3.00    1.93    82.37321    45.47710    50.44220
   398  C   4.0    0.06    3.98    3.58    79.88254    45.46144    49.28932
   399  C   4.0    0.07    3.00    3.02    78.00958    44.02917    50.94446
   400  O   6.0   -0.40    1.00    1.80    78.64161    42.25280    52.27907
   401  C   4.0   -0.14    3.98    3.59    79.85541    44.39045    46.56828
   402  C   4.0   -0.02    3.02    3.02    80.26531    41.58976    46.28690
   403  C   4.0   -0.10    3.04    3.02    82.37045    40.38202    47.28389
   404  C   4.0   -0.12    3.04    3.02    78.62322    40.15733    44.81404
   405  C   4.0   -0.11    3.03    3.02    82.83861    37.85252    46.81717
   406  C   4.0   -0.09    3.03    3.02    79.10450    37.64887    44.27703
   407  C   4.0    0.10    3.03    3.02    81.24165    36.47410    45.25653
   408  O   6.0   -0.48    1.99    1.83    81.74524    34.03524    44.60428
   409  H   1.0    0.28    1.00    1.43    82.90875    43.87562    51.35730
   410  H   1.0    0.10    0.99    1.43    79.29902    47.44019    49.15694
   411  H   1.0    0.09    0.99    1.43    78.05164    44.88877    45.69968
   412  H   1.0    0.09    0.99    1.43    81.30232    45.42811    45.51782
   413  H   1.0    0.11    1.00    1.43    83.70660    41.41956    48.41199
   414  H   1.0    0.10    1.00    1.43    76.95589    41.02077    44.01617
   415  H   1.0    0.10    0.99    1.43    84.51383    36.97717    47.59476
   416  H   1.0    0.12    1.00    1.43    77.85521    36.59194    43.06623
   417  H   1.0    0.25    0.99    1.43    83.25634    33.48251    45.47204
   418  N   5.0   -0.72    3.00    1.93    90.19053    41.78341    49.30897
   419  C   4.0    0.06    3.98    3.58    90.68513    41.51749    46.62751
   420  C   4.0    0.07    3.00    3.02    93.49664    41.95282    46.06351
   421  O   6.0   -0.43    1.00    1.80    94.31396    43.87961    45.11869
   422  C   4.0   -0.13    3.98    3.59    89.06973    43.35696    45.08676
   423  C   4.0   -0.11    3.98    3.58    88.44403    42.39516    42.42103
   424  C   4.0   -0.21    3.98    3.59    90.82228    41.70605    40.93950
   425  C   4.0   -0.23    3.98    3.59    86.58388    40.18999    42.47270
   426  H   1.0    0.26    1.00    1.43    90.27861    43.55877    50.03026
   427  H   1.0    0.10    0.99    1.43    90.21800    39.55402    46.16590
   428  H   1.0    0.09    0.99    1.43    87.30839    43.70265    46.09991
   429  H   1.0    0.13    0.99    1.43    90.12090    45.12762    44.93425
   430  H   1.0    0.10    0.99    1.43    87.52834    43.96576    41.43319
   431  H   1.0    0.10    0.99    1.43    90.31165    41.10135    39.04502
   432  H   1.0    0.12    0.99    1.43    92.07467    43.32942    40.81982
   433  H   1.0    0.11    0.99    1.43    91.86304    40.16454    41.81621
   434  H   1.0    0.10    0.99    1.43    86.32956    39.43601    40.58241
   435  H   1.0    0.10    0.99    1.43    87.24774    38.66536    43.67936
   436  H   1.0    0.11    0.99    1.43    84.75525    40.80709    43.17153
   437  N   5.0   -0.72    3.00    1.92    94.62506    31.28568    47.99801
   438  C   4.0    0.06    3.97    3.58    92.60016    29.43178    48.26217
   439  C   4.0    0.04    3.00    3.02    92.49517    28.08870    50.86635
   440  O   6.0   -0.42    1.00    1.80    91.08147    26.30495    51.17183
   441  C   4.0   -0.07    3.99    3.60    92.67221    27.37553    46.21609
   442  C   4.0    0.29    3.00    3.02    91.35759    27.83425    43.72224
   443  O   6.0   -0.47    1.01    1.80    90.87260    26.01517    42.36287
   444  N   5.0   -0.64    3.00    1.93    90.75126    30.17968    43.05724
   445  H   1.0    0.25    1.00    1.43    94.13615    33.12966    47.97979
   446  H   1.0    0.12    0.99    1.43    90.80279    30.45709    48.16512
   447  H   1.0    0.12    0.99    1.43    94.64007    26.90360    45.80558
   448  H   1.0    0.14    0.99    1.43    91.83415    25.66322    47.00737
   449  H   1.0    0.32    1.00    1.43    89.92153    30.48840    41.35450
   450  H   1.0    0.27    1.00    1.43    91.29168    31.68676    44.07306
   451  H   1.0    0.29    1.00    1.43   100.59494    50.00586    19.18379
   452  H   1.0    0.13    1.00    1.43   103.18402    44.78075    20.52974
   453  H   1.0    0.30    1.00    1.43   102.17574    45.81229    29.57956
   454  H   1.0    0.13    1.00    1.43   107.68203    43.27113    31.05767
   455  H   1.0    0.29    1.00    1.43    71.18249    45.02921    45.42768
   456  H   1.0    0.12    1.00    1.43    73.04436    49.12217    44.44959
   457  H   1.0    0.29    1.00    1.43    79.42639    55.32070    27.90913
   458  H   1.0    0.12    1.00    1.43    60.46659    28.47699    39.13452
   459  H   1.0    0.30    1.00    1.43    59.64954    33.93782    24.58675
   460  H   1.0    0.12    1.00    1.43    64.77916    60.75590    38.16834
   461  H   1.0    0.30    1.00    1.43    54.39787    56.21075    32.50685
   462  H   1.0    0.14    1.00    1.43    56.59304    51.15251    35.22374
   463  H   1.0    0.28    1.00    1.43    66.26620    32.36272    45.60686
   464  H   1.0    0.13    1.00    1.43    87.46698    53.04621    17.33240
   465  H   1.0    0.28    1.00    1.43    83.55156    45.74075    49.24448
   466  H   1.0    0.11    1.00    1.43    76.18849    44.53343    50.96460
   467  H   1.0    0.28    1.00    1.43    88.62276    41.22252    49.65546
   468  H   1.0    0.13    1.00    1.43    94.76193    40.61136    46.47653
   469  H   1.0    0.29    1.00    1.43    95.71543    31.12389    49.29319
   470  H   1.0    0.12    1.00    1.43    93.58812    28.69161    52.28517

           ------------------------------------------------- 
          |        Self-Consistent Charge Iterations        |
           ------------------------------------------------- 

          ...................................................
          :                      SETUP                      :
          :.................................................:
          :  # basis functions                1178          :
          :  # atomic orbitals                1177          :
          :  # shells                          705          :
          :  # electrons                      1312          :
          :  max. iterations                   250          :
          :  Hamiltonian                  GFN2-xTB          :
          :  restarted?                      false          :
          :  GBSA solvation                   true          :
          :  PC potential                    false          :
          :  electronic temp.          500.0000000     K    :
          :  accuracy                    0.1000000          :
          :  -> integral cutoff          0.3500000E+02      :
          :  -> integral neglect         0.1000000E-08      :
          :  -> SCF convergence          0.1000000E-06 Eh   :
          :  -> wf. convergence          0.1000000E-04 e    :
          :  Broyden damping             0.4000000          :
          ...................................................

 iter      E             dE          RMSdq      gap      omega  full diag
   1   -754.0810875 -0.754081E+03  0.445E+00    2.01       0.0  T
   2   -756.0957987 -0.201471E+01  0.227E+00    1.60       1.0  T
   3   -756.1736018 -0.778031E-01  0.124E+00    1.96       1.0  T
   4   -756.2118026 -0.382007E-01  0.305E-01    1.35       1.0  T
   5   -756.2313770 -0.195744E-01  0.135E-01    1.52       1.0  T
   6   -756.2321573 -0.780302E-03  0.631E-02    1.53       1.0  T
   7   -756.2323641 -0.206777E-03  0.301E-02    1.54       1.0  T
   8   -756.2324677 -0.103679E-03  0.140E-02    1.54       1.0  T
   9   -756.2324866 -0.188975E-04  0.695E-03    1.54       1.0  T
  10   -756.2324912 -0.455837E-05  0.294E-03    1.54       1.6  T
  11   -756.2324920 -0.816905E-06  0.126E-03    1.54       3.7  T
  12   -756.2324921 -0.139702E-06  0.616E-04    1.54       7.5  T
  13   -756.2324922 -0.522052E-07  0.288E-04    1.54      16.0  T
  14   -756.2324922 -0.916532E-08  0.120E-04    1.54      38.4  T
  15   -756.2324922 -0.163823E-08  0.549E-05    1.54      84.0  T
  16   -756.2324922 -0.282967E-09  0.268E-05    1.54     172.3  T

   *** convergence criteria satisfied after 16 iterations ***

         #    Occupation            Energy/Eh            Energy/eV
      -------------------------------------------------------------
         1        2.0000           -0.7447047             -20.2644
       ...           ...                  ...                  ...
       650        2.0000           -0.3730945             -10.1524
       651        2.0000           -0.3715568             -10.1106
       652        2.0000           -0.3664441              -9.9715
       653        2.0000           -0.3634830              -9.8909
       654        2.0000           -0.3634475              -9.8899
       655        2.0000           -0.3623605              -9.8603
       656        2.0000           -0.3582227              -9.7477 (HOMO)
       657                         -0.3015035              -8.2043 (LUMO)
       658                         -0.2965421              -8.0693
       659                         -0.2906122              -7.9080
       660                         -0.2884399              -7.8488
       661                         -0.2873676              -7.8197
       ...                                ...                  ...
      1177                          0.6745815              18.3563
      -------------------------------------------------------------
                  HL-Gap            0.0567192 Eh            1.5434 eV
             Fermi-level           -0.3297859 Eh           -8.9739 eV

 SCC (total)                   0 d,  0 h,  0 min, 23.868 sec
 SCC setup                      ...        0 min,  0.193 sec (  0.809%)
 Dispersion                     ...        0 min,  0.171 sec (  0.718%)
 integral evaluation            ...        0 min,  0.828 sec (  3.468%)
 zeroth order Hamiltonian       ...        0 min,  0.022 sec (  0.091%)
 iterations                     ...        0 min, 18.440 sec ( 77.258%)
 molecular gradient             ...        0 min,  4.162 sec ( 17.436%)
 printout                       ...        0 min,  0.052 sec (  0.220%)

         :::::::::::::::::::::::::::::::::::::::::::::::::::::
         ::                     SUMMARY                     ::
         :::::::::::::::::::::::::::::::::::::::::::::::::::::
         :: total energy             -747.192994463863 Eh   ::
         :: total w/o Gsasa/hb       -747.099308394112 Eh   ::
         :: gradient norm               0.704629029372 Eh/α ::
         :: HOMO-LUMO gap               1.543407516762 eV   ::
         ::.................................................::
         :: SCC energy               -756.251070887421 Eh   ::
         :: -> isotropic ES             2.698214230834 Eh   ::
         :: -> anisotropic ES          -0.132160147675 Eh   ::
         :: -> anisotropic XC           0.234727505197 Eh   ::
         :: -> dispersion              -0.603198731485 Eh   ::
         :: -> Gsolv                   -0.775391175584 Eh   ::
         ::    -> Gborn                -0.681705105833 Eh   ::
         ::    -> Gsasa                -0.020436117544 Eh   ::
         ::    -> Ghb                  -0.075107395333 Eh   ::
         ::    -> Gshift                0.001857443127 Eh   ::
         :: repulsion energy            9.008518123954 Eh   ::
         :: add. restraining            0.000000000000 Eh   ::
         :::::::::::::::::::::::::::::::::::::::::::::::::::::

           -------------------------------------------------
          |                Property Printout                |
           -------------------------------------------------

    * Orbital Energies and Occupations

         #    Occupation            Energy/Eh            Energy/eV
      -------------------------------------------------------------
         1        2.0000           -0.7447047             -20.2644
       ...           ...                  ...                  ...
       644        2.0000           -0.3792797             -10.3207
       645        2.0000           -0.3792759             -10.3206
       646        2.0000           -0.3783715             -10.2960
       647        2.0000           -0.3773412             -10.2680
       648        2.0000           -0.3757123             -10.2237
       649        2.0000           -0.3738902             -10.1741
       650        2.0000           -0.3730945             -10.1524
       651        2.0000           -0.3715568             -10.1106
       652        2.0000           -0.3664441              -9.9715
       653        2.0000           -0.3634830              -9.8909
       654        2.0000           -0.3634475              -9.8899
       655        2.0000           -0.3623605              -9.8603
       656        2.0000           -0.3582227              -9.7477 (HOMO)
       657                         -0.3015035              -8.2043 (LUMO)
       658                         -0.2965421              -8.0693
       659                         -0.2906122              -7.9080
       660                         -0.2884399              -7.8488
       661                         -0.2873676              -7.8197
       662                         -0.2871032              -7.8125
       663                         -0.2862276              -7.7886
       664                         -0.2855852              -7.7712
       665                         -0.2830823              -7.7031
       666                         -0.2800616              -7.6209
       667                         -0.2579097              -7.0181
       ...                                ...                  ...
      1177                          0.6745815              18.3563
      -------------------------------------------------------------
                  HL-Gap            0.0567192 Eh            1.5434 eV
             Fermi-level           -0.3297859 Eh           -8.9739 eV

   #   Z        covCN         q      C6AA      α(0)
   1   7 N      2.634    -0.389    30.073     8.145
   2   6 C      3.781     0.043    19.871     6.350
   3   6 C      2.763     0.198    23.778     7.986
   4   8 O      0.856    -0.358    20.869     6.125
   5   6 C      3.808    -0.104    22.475     6.748
   6   6 C      2.744     0.291    22.072     7.693
   7   8 O      0.859    -0.482    23.384     6.483
   8   7 N      2.639    -0.272    27.044     7.724
   9   1 H      0.860     0.175     1.246     1.748
  10   1 H      0.923     0.051     2.312     2.378
  11   1 H      0.924     0.079     1.985     2.203
  12   1 H      0.925     0.082     1.963     2.191
  13   1 H      0.860     0.197     1.121     1.658
  14   1 H      0.860     0.223     0.998     1.565
  15   7 N      2.634    -0.395    30.233     8.166
  16   6 C      3.788     0.049    19.770     6.333
  17   6 C      2.769     0.195    23.830     7.995
  18   8 O      0.856    -0.383    21.342     6.194
  19   6 C      3.812    -0.106    22.512     6.754
  20   6 C      2.748     0.291    22.057     7.690
  21   8 O      0.858    -0.487    23.497     6.499
  22   7 N      2.636    -0.299    27.713     7.818
  23   1 H      0.860     0.193     1.140     1.673
  24   1 H      0.924     0.047     2.362     2.403
  25   1 H      0.924     0.084     1.935     2.176
  26   1 H      0.925     0.081     1.973     2.197
  27   1 H      0.860     0.227     0.979     1.550
  28   1 H      0.860     0.228     0.972     1.545
  29   7 N      2.631    -0.384    29.919     8.124
  30   6 C      3.730    -0.010    20.858     6.519
  31   6 C      2.761     0.196    23.823     7.993
  32   8 O      0.856    -0.381    21.303     6.188
  33   1 H      0.860     0.166     1.297     1.784
  34   1 H      0.924     0.069     2.094     2.263
  35   1 H      0.924     0.066     2.131     2.283
  36   7 N      2.639    -0.398    30.328     8.179
  37   6 C      3.785     0.045    19.830     6.343
  38   6 C      2.763     0.275    22.349     7.742
  39   8 O      0.859    -0.497    23.709     6.528
  40   6 C      3.807    -0.044    21.349     6.578
  41   6 C      3.803    -0.079    22.002     6.678
  42   6 C      3.739    -0.005    20.744     6.499
  43   7 N      2.700    -0.150    24.237     7.312
  44   6 C      2.736     0.230    23.166     7.880
  45   7 N      2.658    -0.253    26.576     7.656
  46   7 N      2.650    -0.247    26.434     7.636
  47   1 H      0.860     0.172     1.262     1.760
  48   1 H      0.924     0.030     2.591     2.517
  49   1 H      0.924    -0.002     3.096     2.752
  50   1 H      0.924     0.009     2.908     2.667
  51   1 H      0.924     0.086     1.915     2.164
  52   1 H      0.925     0.064     2.153     2.295
  53   1 H      0.925     0.084     1.936     2.176
  54   1 H      0.924     0.044     2.394     2.420
  55   1 H      0.859     0.235     0.945     1.522
  56   1 H      0.860     0.229     0.968     1.541
  57   1 H      0.860     0.250     0.884     1.473
  58   1 H      0.860     0.234     0.947     1.524
  59   1 H      0.860     0.261     0.843     1.438
  60   7 N      2.689    -0.187    25.056     7.434
  61   6 C      3.796     0.033    20.021     6.371
  62   6 C      2.761     0.267    22.492     7.767
  63   8 O      0.859    -0.547    24.861     6.685
  64   6 C      3.753    -0.128    23.012     6.840
  65   1 H      0.860     0.201     1.100     1.643
  66   1 H      0.924     0.071     2.074     2.252
  67   1 H      0.925     0.080     1.974     2.197
  68   1 H      0.925     0.085     1.928     2.171
  69   1 H      0.925     0.038     2.482     2.464
  70   7 N      2.760    -0.087    22.939     7.113
  71   6 C      3.832     0.037    19.922     6.350
  72   6 C      2.753     0.286    22.150     7.707
  73   8 O      0.858    -0.501    23.806     6.542
  74   6 C      3.834    -0.061    21.643     6.619
  75   6 C      3.833    -0.072    21.846     6.650
  76   6 C      3.770    -0.016    20.887     6.513
  77   1 H      0.924     0.033     2.550     2.497
  78   1 H      0.925     0.049     2.326     2.385
  79   1 H      0.924     0.054     2.268     2.355
  80   1 H      0.924     0.069     2.096     2.264
  81   1 H      0.925     0.091     1.871     2.139
  82   1 H      0.925     0.085     1.925     2.170
  83   1 H      0.924     0.069     2.096     2.264
  84   7 N      2.691    -0.189    25.094     7.440
  85   6 C      3.795     0.033    20.030     6.373
  86   6 C      2.751     0.269    22.459     7.760
  87   8 O      0.858    -0.469    23.119     6.447
  88   6 C      3.839    -0.055    21.524     6.600
  89   6 C      3.795     0.010    20.422     6.435
  90  16 S      1.975    -0.199   149.525    20.581
  91   6 C      3.744    -0.052    21.587     6.628
  92   1 H      0.860     0.218     1.021     1.583
  93   1 H      0.923     0.058     2.227     2.334
  94   1 H      0.924     0.049     2.328     2.386
  95   1 H      0.924     0.055     2.259     2.350
  96   1 H      0.924     0.035     2.516     2.481
  97   1 H      0.924     0.013     2.842     2.637
  98   1 H      0.926     0.099     1.795     2.095
  99   1 H      0.925     0.051     2.311     2.377
 100   1 H      0.925     0.044     2.392     2.419
 101   7 N      2.695    -0.148    24.199     7.306
 102   6 C      3.790     0.010    20.425     6.436
 103   6 C      2.756     0.268    22.480     7.764
 104   8 O      0.858    -0.479    23.330     6.476
 105   6 C      3.723     0.131    18.561     6.152
 106   8 O      1.653    -0.493    22.746     6.438
 107   6 C      3.753    -0.133    23.119     6.857
 108   1 H      0.860     0.204     1.083     1.630
 109   1 H      0.924     0.078     1.995     2.209
 110   1 H      0.923     0.018     2.765     2.600
 111   1 H      0.802     0.323     0.656     1.272
 112   1 H      0.925     0.072     2.065     2.247
 113   1 H      0.925     0.064     2.152     2.294
 114   1 H      0.925     0.050     2.319     2.381
 115   7 N      2.690    -0.164    24.538     7.357
 116   6 C      3.787     0.026    20.158     6.395
 117   6 C      2.769     0.193    23.881     8.003
 118   8 O      0.856    -0.357    20.839     6.120
 119   6 C      3.810    -0.081    22.040     6.683
 120   6 C      2.965     0.002    27.986     8.677
 121   6 C      2.928    -0.043    29.080     8.844
 122   6 C      2.929    -0.043    29.057     8.840
 123   6 C      2.919    -0.076    29.898     8.967
 124   6 C      2.920    -0.057    29.427     8.896
 125   6 C      2.847     0.147    24.804     8.162
 126   8 O      1.659    -0.423    21.299     6.230
 127   1 H      0.860     0.222     1.000     1.567
 128   1 H      0.924     0.094     1.841     2.122
 129   1 H      0.924     0.079     1.990     2.206
 130   1 H      0.924     0.095     1.835     2.118
 131   1 H      0.926     0.045     2.381     2.413
 132   1 H      0.926     0.061     2.190     2.314
 133   1 H      0.925     0.031     2.569     2.506
 134   1 H      0.926     0.054     2.269     2.355
 135   1 H      0.804     0.317     0.672     1.288
 136   7 N      2.636    -0.394    30.213     8.164
 137   6 C      3.787     0.028    20.114     6.388
 138   6 C      2.756     0.272    22.396     7.750
 139   8 O      0.858    -0.493    23.636     6.518
 140   6 C      3.808    -0.055    21.560     6.610
 141   6 C      3.807    -0.096    22.322     6.726
 142   6 C      2.743     0.293    22.037     7.686
 143   8 O      0.859    -0.497    23.708     6.528
 144   7 N      2.639    -0.294    27.580     7.800
 145   1 H      0.860     0.177     1.231     1.738
 146   1 H      0.924     0.045     2.387     2.416
 147   1 H      0.924     0.054     2.268     2.355
 148   1 H      0.925     0.014     2.824     2.628
 149   1 H      0.924     0.075     2.035     2.231
 150   1 H      0.924     0.057     2.237     2.339
 151   1 H      0.860     0.228     0.974     1.546
 152   1 H      0.860     0.242     0.915     1.498
 153   7 N      2.691    -0.185    25.008     7.427
 154   6 C      3.802     0.020    20.241     6.405
 155   6 C      2.756     0.280    22.257     7.726
 156   8 O      0.858    -0.520    24.235     6.600
 157   6 C      3.852    -0.007    20.672     6.467
 158   6 C      3.757    -0.123    22.906     6.824
 159   6 C      3.757    -0.119    22.827     6.812
 160   1 H      0.860     0.207     1.071     1.621
 161   1 H      0.924     0.069     2.095     2.263
 162   1 H      0.924     0.030     2.593     2.518
 163   1 H      0.925     0.059     2.206     2.323
 164   1 H      0.925     0.044     2.402     2.423
 165   1 H      0.925     0.048     2.346     2.395
 166   1 H      0.925     0.068     2.112     2.273
 167   1 H      0.925     0.051     2.313     2.378
 168   1 H      0.925     0.042     2.427     2.436
 169   7 N      2.690    -0.180    24.888     7.409
 170   6 C      3.795     0.038    19.936     6.358
 171   6 C      2.756     0.274    22.360     7.743
 172   8 O      0.858    -0.480    23.339     6.477
 173   6 C      3.807    -0.055    21.564     6.611
 174   6 C      3.796    -0.091    22.234     6.714
 175   6 C      2.683     0.371    20.713     7.448
 176   8 O      0.856    -0.632    26.920     6.956
 177   8 O      0.856    -0.638    27.081     6.977
 178   1 H      0.860     0.224     0.989     1.558
 179   1 H      0.923     0.038     2.479     2.462
 180   1 H      0.924     0.058     2.228     2.334
 181   1 H      0.924     0.031     2.576     2.510
 182   1 H      0.924     0.010     2.892     2.659
 183   1 H      0.924     0.020     2.727     2.582
 184   7 N      2.690    -0.224    25.885     7.556
 185   6 C      3.792     0.046    19.804     6.337
 186   6 C      2.758     0.254    22.729     7.807
 187   8 O      0.860    -0.506    23.918     6.557
 188   6 C      3.804    -0.084    22.092     6.691
 189   6 C      2.683     0.370    20.721     7.449
 190   8 O      0.856    -0.632    26.919     6.956
 191   8 O      0.856    -0.588    25.834     6.815
 192   1 H      0.859     0.218     1.018     1.580
 193   1 H      0.923     0.056     2.242     2.341
 194   1 H      0.925     0.057     2.229     2.334
 195   1 H      0.924    -0.003     3.110     2.758
 196   7 N      2.758    -0.068    22.558     7.054
 197   6 C      3.833     0.019    20.224     6.398
 198   6 C      2.765     0.202    23.707     7.974
 199   8 O      0.856    -0.353    20.765     6.109
 200   6 C      3.829    -0.072    21.861     6.653
 201   6 C      3.830    -0.074    21.886     6.656
 202   6 C      3.763    -0.004    20.691     6.484
 203   1 H      0.924     0.096     1.818     2.108
 204   1 H      0.925     0.093     1.854     2.129
 205   1 H      0.925     0.074     2.041     2.234
 206   1 H      0.925     0.084     1.942     2.179
 207   1 H      0.925     0.062     2.176     2.307
 208   1 H      0.924     0.059     2.210     2.325
 209   1 H      0.924     0.038     2.475     2.460
 210   7 N      2.635    -0.384    29.941     8.127
 211   6 C      3.778     0.028    20.132     6.392
 212   6 C      2.763     0.206    23.624     7.960
 213   8 O      0.856    -0.353    20.768     6.110
 214   6 C      3.676     0.082    19.430     6.315
 215   8 O      1.655    -0.467    22.186     6.359
 216   1 H      0.860     0.161     1.328     1.805
 217   1 H      0.923     0.048     2.348     2.397
 218   1 H      0.924     0.039     2.462     2.454
 219   1 H      0.924     0.046     2.368     2.406
 220   1 H      0.805     0.332     0.633     1.250
 221   7 N      2.637    -0.392    30.138     8.153
 222   6 C      3.786     0.030    20.087     6.384
 223   6 C      2.757     0.281    22.251     7.725
 224   8 O      0.858    -0.489    23.542     6.505
 225   6 C      3.852    -0.018    20.863     6.497
 226   6 C      3.756    -0.102    22.508     6.764
 227   6 C      3.757    -0.115    22.760     6.802
 228   1 H      0.860     0.164     1.309     1.792
 229   1 H      0.924     0.031     2.577     2.511
 230   1 H      0.924     0.044     2.390     2.418
 231   1 H      0.925     0.048     2.349     2.397
 232   1 H      0.925     0.041     2.442     2.444
 233   1 H      0.925     0.028     2.620     2.531
 234   1 H      0.925     0.046     2.367     2.406
 235   1 H      0.925     0.030     2.592     2.517
 236   1 H      0.925     0.040     2.448     2.447
 237   7 N      2.690    -0.192    25.164     7.450
 238   6 C      3.799     0.045    19.827     6.340
 239   6 C      2.764     0.277    22.307     7.735
 240   8 O      0.858    -0.506    23.913     6.556
 241   6 C      3.802    -0.090    22.216     6.711
 242   6 C      2.684     0.370    20.727     7.450
 243   8 O      0.856    -0.602    26.156     6.857
 244   8 O      0.856    -0.626    26.764     6.936
 245   1 H      0.860     0.198     1.116     1.655
 246   1 H      0.923     0.054     2.270     2.356
 247   1 H      0.925     0.052     2.298     2.371
 248   1 H      0.924     0.005     2.974     2.697
 249   7 N      2.689    -0.190    25.125     7.444
 250   6 C      3.802     0.026    20.131     6.388
 251   6 C      2.755     0.281    22.248     7.724
 252   8 O      0.858    -0.511    24.033     6.573
 253   6 C      3.756    -0.142    23.292     6.881
 254   1 H      0.860     0.216     1.029     1.589
 255   1 H      0.924     0.074     2.042     2.234
 256   1 H      0.925     0.098     1.806     2.101
 257   1 H      0.925     0.089     1.892     2.151
 258   1 H      0.925     0.066     2.125     2.280
 259   7 N      2.694    -0.176    24.810     7.398
 260   6 C      3.801     0.025    20.162     6.393
 261   6 C      2.756     0.265    22.532     7.773
 262   8 O      0.859    -0.442    22.544     6.366
 263   6 C      3.853    -0.018    20.852     6.495
 264   6 C      3.756    -0.107    22.591     6.777
 265   6 C      3.756    -0.102    22.494     6.762
 266   1 H      0.860     0.222     0.999     1.566
 267   1 H      0.924     0.038     2.480     2.463
 268   1 H      0.924     0.074     2.041     2.234
 269   1 H      0.925     0.053     2.284     2.363
 270   1 H      0.925     0.055     2.262     2.352
 271   1 H      0.925     0.025     2.659     2.550
 272   1 H      0.925     0.053     2.277     2.360
 273   1 H      0.924     0.001     3.044     2.728
 274   1 H      0.925     0.046     2.367     2.406
 275   7 N      2.688    -0.171    24.692     7.380
 276   6 C      3.791     0.001    20.571     6.459
 277   6 C      2.755     0.271    22.423     7.754
 278   8 O      0.859    -0.463    22.984     6.428
 279   6 C      3.804    -0.075    21.922     6.666
 280   6 C      3.799    -0.083    22.087     6.691
 281   6 C      3.800    -0.092    22.263     6.718
 282   6 C      3.730    -0.040    21.387     6.602
 283   7 N      3.481    -0.165    24.552     7.359
 284   1 H      0.860     0.179     1.220     1.730
 285   1 H      0.924     0.121     1.604     1.981
 286   1 H      0.924     0.049     2.326     2.385
 287   1 H      0.924     0.060     2.196     2.317
 288   1 H      0.925     0.075     2.036     2.231
 289   1 H      0.925     0.078     1.997     2.210
 290   1 H      0.924     0.061     2.191     2.315
 291   1 H      0.924     0.089     1.893     2.152
 292   1 H      0.925     0.095     1.831     2.116
 293   1 H      0.925     0.091     1.869     2.138
 294   1 H      0.857     0.313     0.677     1.289
 295   1 H      0.859     0.291     0.740     1.348
 296   1 H      0.859     0.287     0.755     1.361
 297   7 N      2.693    -0.181    24.919     7.414
 298   6 C      3.796     0.028    20.102     6.384
 299   6 C      2.772     0.249    22.815     7.823
 300   8 O      0.859    -0.505    23.885     6.552
 301   6 C      3.805    -0.104    22.473     6.749
 302   6 C      2.744     0.298    21.944     7.670
 303   8 O      0.859    -0.482    23.398     6.485
 304   7 N      2.637    -0.280    27.247     7.752
 305   1 H      0.860     0.200     1.107     1.648
 306   1 H      0.923     0.092     1.856     2.131
 307   1 H      0.925     0.064     2.150     2.293
 308   1 H      0.924     0.075     2.035     2.231
 309   1 H      0.860     0.243     0.913     1.497
 310   1 H      0.860     0.222     0.999     1.566
 311   7 N      2.758    -0.095    23.092     7.137
 312   6 C      3.837     0.019    20.221     6.397
 313   6 C      2.759     0.274    22.377     7.746
 314   8 O      0.860    -0.479    23.315     6.474
 315   6 C      3.831    -0.066    21.737     6.634
 316   6 C      3.834    -0.071    21.825     6.647
 317   6 C      3.772    -0.020    20.961     6.524
 318   1 H      0.923     0.089     1.885     2.147
 319   1 H      0.925     0.061     2.187     2.313
 320   1 H      0.925     0.079     1.990     2.206
 321   1 H      0.925     0.080     1.975     2.198
 322   1 H      0.925     0.068     2.104     2.268
 323   1 H      0.924     0.082     1.957     2.188
 324   1 H      0.925     0.088     1.902     2.156
 325   7 N      2.685    -0.157    24.406     7.337
 326   6 C      3.748    -0.031    21.200     6.567
 327   6 C      2.757     0.285    22.167     7.710
 328   8 O      0.859    -0.479    23.322     6.475
 329   1 H      0.860     0.209     1.062     1.614
 330   1 H      0.924     0.109     1.705     2.042
 331   1 H      0.925     0.086     1.917     2.165
 332   7 N      2.687    -0.218    25.760     7.538
 333   6 C      3.802     0.062    19.542     6.294
 334   6 C      2.759     0.268    22.483     7.765
 335   8 O      0.858    -0.507    23.950     6.561
 336   6 C      3.810    -0.085    22.122     6.695
 337   6 C      2.684     0.374    20.656     7.438
 338   8 O      0.856    -0.642    27.172     6.989
 339   8 O      0.856    -0.622    26.668     6.924
 340   1 H      0.859     0.227     0.980     1.551
 341   1 H      0.923     0.008     2.917     2.671
 342   1 H      0.924     0.052     2.296     2.369
 343   1 H      0.925     0.030     2.588     2.516
 344   7 N      2.688    -0.175    24.797     7.396
 345   6 C      3.798     0.009    20.431     6.436
 346   6 C      2.754     0.270    22.440     7.757
 347   8 O      0.858    -0.479    23.320     6.474
 348   6 C      3.852    -0.022    20.923     6.506
 349   6 C      3.757    -0.127    22.986     6.836
 350   6 C      3.756    -0.117    22.800     6.808
 351   1 H      0.860     0.223     0.995     1.562
 352   1 H      0.924     0.082     1.954     2.186
 353   1 H      0.924     0.049     2.328     2.386
 354   1 H      0.925     0.071     2.077     2.254
 355   1 H      0.925     0.047     2.364     2.404
 356   1 H      0.925     0.064     2.153     2.295
 357   1 H      0.925     0.074     2.039     2.233
 358   1 H      0.925     0.049     2.334     2.389
 359   1 H      0.925     0.018     2.760     2.598
 360   7 N      2.693    -0.178    24.859     7.405
 361   6 C      3.798     0.023    20.198     6.399
 362   6 C      2.762     0.268    22.469     7.763
 363   8 O      0.858    -0.462    22.951     6.423
 364   6 C      3.815    -0.075    21.914     6.663
 365   6 C      2.972     0.012    27.736     8.639
 366   6 C      2.926    -0.035    28.874     8.812
 367   6 C      2.926    -0.043    29.062     8.841
 368   6 C      2.920    -0.031    28.781     8.798
 369   6 C      2.920    -0.035    28.862     8.810
 370   6 C      2.922    -0.036    28.889     8.814
 371   1 H      0.860     0.233     0.951     1.528
 372   1 H      0.924     0.061     2.191     2.315
 373   1 H      0.924     0.062     2.180     2.309
 374   1 H      0.925     0.065     2.145     2.290
 375   1 H      0.926     0.029     2.605     2.524
 376   1 H      0.926     0.038     2.481     2.463
 377   1 H      0.926     0.040     2.454     2.450
 378   1 H      0.926     0.050     2.319     2.381
 379   1 H      0.926     0.048     2.341     2.393
 380   7 N      2.692    -0.178    24.851     7.404
 381   6 C      3.792     0.024    20.188     6.399
 382   6 C      2.764     0.201    23.727     7.977
 383   8 O      0.856    -0.344    20.597     6.085
 384   6 C      3.803    -0.076    21.944     6.669
 385   6 C      3.804    -0.100    22.409     6.739
 386   6 C      2.744     0.289    22.093     7.696
 387   8 O      0.858    -0.496    23.706     6.528
 388   7 N      2.637    -0.285    27.347     7.767
 389   1 H      0.860     0.206     1.075     1.624
 390   1 H      0.923     0.099     1.798     2.097
 391   1 H      0.924     0.064     2.156     2.296
 392   1 H      0.924     0.079     1.986     2.204
 393   1 H      0.924     0.077     2.014     2.219
 394   1 H      0.925     0.051     2.309     2.376
 395   1 H      0.860     0.220     1.010     1.574
 396   1 H      0.860     0.239     0.927     1.509
 397   7 N      2.633    -0.378    29.781     8.105
 398   6 C      3.780     0.034    20.031     6.376
 399   6 C      2.766     0.202    23.708     7.974
 400   8 O      0.856    -0.375    21.181     6.170
 401   6 C      3.807    -0.076    21.942     6.668
 402   6 C      2.964    -0.004    28.115     8.697
 403   6 C      2.927    -0.038    28.951     8.824
 404   6 C      2.928    -0.045    29.125     8.850
 405   6 C      2.918    -0.075    29.882     8.964
 406   6 C      2.918    -0.058    29.433     8.897
 407   6 C      2.845     0.144    24.870     8.173
 408   8 O      1.659    -0.446    21.759     6.297
 409   1 H      0.860     0.164     1.312     1.794
 410   1 H      0.924     0.074     2.044     2.236
 411   1 H      0.924     0.045     2.385     2.415
 412   1 H      0.924     0.070     2.088     2.260
 413   1 H      0.926     0.058     2.227     2.334
 414   1 H      0.926     0.023     2.683     2.561
 415   1 H      0.925     0.056     2.249     2.345
 416   1 H      0.926     0.030     2.582     2.513
 417   1 H      0.805     0.355     0.578     1.194
 418   7 N      2.635    -0.382    29.879     8.118
 419   6 C      3.782     0.034    20.017     6.373
 420   6 C      2.765     0.205    23.654     7.965
 421   8 O      0.856    -0.365    20.998     6.144
 422   6 C      3.807    -0.080    22.026     6.681
 423   6 C      3.849    -0.019    20.871     6.498
 424   6 C      3.755    -0.112    22.706     6.794
 425   6 C      3.755    -0.121    22.880     6.820
 426   1 H      0.860     0.159     1.340     1.814
 427   1 H      0.924     0.065     2.146     2.291
 428   1 H      0.924     0.042     2.428     2.437
 429   1 H      0.924     0.057     2.240     2.341
 430   1 H      0.924     0.038     2.470     2.458
 431   1 H      0.925     0.035     2.520     2.482
 432   1 H      0.925     0.041     2.434     2.440
 433   1 H      0.925     0.034     2.534     2.490
 434   1 H      0.925     0.034     2.535     2.490
 435   1 H      0.925     0.043     2.411     2.428
 436   1 H      0.925     0.037     2.488     2.467
 437   7 N      2.631    -0.385    29.964     8.130
 438   6 C      3.778     0.029    20.110     6.389
 439   6 C      2.762     0.193    23.868     8.001
 440   8 O      0.856    -0.374    21.165     6.168
 441   6 C      3.808    -0.111    22.620     6.770
 442   6 C      2.742     0.288    22.113     7.699
 443   8 O      0.861    -0.496    23.695     6.526
 444   7 N      2.637    -0.269    26.968     7.713
 445   1 H      0.860     0.170     1.272     1.767
 446   1 H      0.924     0.078     1.996     2.210
 447   1 H      0.924     0.103     1.756     2.072
 448   1 H      0.924     0.097     1.813     2.106
 449   1 H      0.860     0.244     0.907     1.492
 450   1 H      0.861     0.222     1.000     1.566
 451   1 H      0.862     0.189     1.163     1.689
 452   1 H      0.930     0.091     1.870     2.138
 453   1 H      0.862     0.180     1.212     1.725
 454   1 H      0.930     0.084     1.938     2.177
 455   1 H      0.862     0.191     1.155     1.683
 456   1 H      0.930     0.087     1.906     2.159
 457   1 H      0.862     0.188     1.168     1.693
 458   1 H      0.930     0.103     1.762     2.075
 459   1 H      0.862     0.175     1.243     1.746
 460   1 H      0.930     0.096     1.818     2.109
 461   1 H      0.862     0.203     1.093     1.637
 462   1 H      0.930     0.081     1.968     2.193
 463   1 H      0.862     0.190     1.160     1.687
 464   1 H      0.930     0.092     1.855     2.130
 465   1 H      0.862     0.187     1.174     1.697
 466   1 H      0.930     0.063     2.165     2.301
 467   1 H      0.862     0.185     1.185     1.705
 468   1 H      0.930     0.069     2.099     2.265
 469   1 H      0.862     0.180     1.211     1.724
 470   1 H      0.930     0.071     2.075     2.253

 Mol. C6AA /au·bohr⁶  :    2120896.637729
 Mol. C8AA /au·bohr⁸  :   47547924.354211
 Mol. α(0) /au        :       2183.424791


Wiberg/Mayer (AO) data.
largest (>0.10) Wiberg bond orders for each atom
          total WBO             WBO to atom ...
     1  N   2.993        C    2 1.018    H  451 0.953    H    9 0.950
     2  C   3.987        N    1 1.018    C    3 0.968    C    5 0.955    H   10 0.953
     3  C   3.889        O    4 1.889    C    2 0.968    H  452 0.951
     4  O   2.062        C    3 1.889
     5  C   3.989        H   12 0.970    C    6 0.963    H   11 0.959    C    2 0.955
     6  C   3.943        O    7 1.664    N    8 1.288    C    5 0.963
     7  O   1.969        C    6 1.664    N    8 0.199
     8  N   3.391        C    6 1.288    H   13 0.936    H   14 0.931    O    7 0.199
     9  H   0.969        N    1 0.950
    10  H   0.997        C    2 0.953
    11  H   0.994        C    5 0.959
    12  H   0.993        C    5 0.970
    13  H   0.961        N    8 0.936
    14  H   0.950        N    8 0.931
    15  N   2.996        C   16 1.017    H  453 0.954    H   23 0.915
    16  C   3.987        N   15 1.017    C   17 0.967    H   24 0.958    C   19 0.953
    17  C   3.888        O   18 1.893    C   16 0.967    H  454 0.952
    18  O   2.029        C   17 1.893
    19  C   3.990        H   26 0.971    C   20 0.961    H   25 0.958    C   16 0.953
    20  C   3.942        O   21 1.672    N   22 1.278    C   19 0.961
    21  O   1.967        C   20 1.672    N   22 0.192
    22  N   3.359        C   20 1.278    H   27 0.927    H   28 0.925    O   21 0.192
    23  H   0.963        N   15 0.915
    24  H   0.998        C   16 0.958
    25  H   0.993        C   19 0.958
    26  H   0.994        C   19 0.971
    27  H   0.948        N   22 0.927
    28  H   0.948        N   22 0.925
    29  N   2.993        C   30 1.023    H   33 0.956    H  455 0.950
    30  C   3.986        N   29 1.023    C   31 1.000    H   35 0.964    H   34 0.924
    31  C   3.901        O   32 1.887    C   30 1.000    H  456 0.949
    32  O   2.039        C   31 1.887
    33  H   0.972        N   29 0.956
    34  H   0.995        C   30 0.924
    35  H   0.996        C   30 0.964
    36  N   2.999        C   37 1.034    H  457 0.946    H   47 0.918
    37  C   3.991        N   36 1.034    C   40 0.961    H   48 0.955    C   38 0.943
    38  C   3.937        O   39 1.647    N   60 1.276    C   37 0.943
    39  O   1.951        C   38 1.647    N   60 0.188
    40  C   3.994        C   41 1.006    H   49 0.975    H   50 0.973    C   37 0.961
    41  C   3.986        C   40 1.006    C   42 0.998    H   52 0.961    H   51 0.956
    42  C   3.965        C   41 0.998    N   43 0.994    H   53 0.960    H   54 0.956
    43  N   3.499        C   44 1.350    C   42 0.994    H   55 0.860    N   46 0.103    N   45 0.103
    44  C   3.975        N   43 1.350    N   46 1.300    N   45 1.288
    45  N   3.363        C   44 1.288    H   56 0.917    H   57 0.916    N   43 0.103
    46  N   3.364        C   44 1.300    H   58 0.916    H   59 0.909    N   43 0.103
    47  H   0.970        N   36 0.918
    48  H   0.999        C   37 0.955
    49  H   1.000        C   40 0.975
    50  H   1.000        C   40 0.973
    51  H   0.992        C   41 0.956
    52  H   0.995        C   41 0.961
    53  H   0.992        C   42 0.960
    54  H   0.998        C   42 0.956
    55  H   0.945        N   43 0.860
    56  H   0.947        N   45 0.917
    57  H   0.937        N   45 0.916
    58  H   0.945        N   46 0.916
    59  H   0.932        N   46 0.909
    60  N   3.446        C   38 1.276    C   61 0.989    H   65 0.912    O   39 0.188
    61  C   3.969        N   60 0.989    C   64 0.986    H   66 0.949    C   62 0.934
    62  C   3.941        O   63 1.593    N   70 1.311    C   61 0.934
    63  O   1.907        C   62 1.593    N   70 0.190
    64  C   3.984        H   69 0.987    C   61 0.986    H   67 0.981    H   68 0.967
    65  H   0.959        N   60 0.912
    66  H   0.995        C   61 0.949
    67  H   0.993        C   64 0.981
    68  H   0.992        C   64 0.967
    69  H   0.998        C   64 0.987
    70  N   3.524        C   62 1.311    C   71 0.975    C   76 0.967    O   63 0.190
    71  C   3.973        C   74 0.977    N   70 0.975    H   77 0.955    C   72 0.935
    72  C   3.945        O   73 1.634    N   84 1.300    C   71 0.935
    73  O   1.945        C   72 1.634    N   84 0.194
    74  C   3.989        C   75 1.005    C   71 0.977    H   79 0.976    H   78 0.974
    75  C   3.987        C   74 1.005    C   76 1.005    H   80 0.976    H   81 0.971
    76  C   3.953        C   75 1.005    N   70 0.967    H   83 0.963    H   82 0.963
    77  H   0.999        C   71 0.955
    78  H   0.997        C   74 0.974
    79  H   0.997        C   74 0.976
    80  H   0.995        C   75 0.976
    81  H   0.991        C   75 0.971
    82  H   0.993        C   76 0.963
    83  H   0.995        C   76 0.963
    84  N   3.464        C   72 1.300    C   85 0.990    H   92 0.896    O   73 0.194
    85  C   3.966        N   84 0.990    C   88 0.963    H   93 0.949    C   86 0.934
    86  C   3.954        O   87 1.614    N  101 1.317    C   85 0.934
[...]
   138  C   3.939        O  139 1.641    N  153 1.292    C  137 0.934
   139  O   1.950        C  138 1.641    N  153 0.196
   140  C   3.995        C  141 1.006    H  148 0.975    C  137 0.975    H  147 0.972
   141  C   3.996        C  140 1.006    C  142 0.972    H  150 0.963    H  149 0.952
   142  C   3.946        O  143 1.634    N  144 1.306    C  141 0.972
   143  O   1.957        C  142 1.634    N  144 0.195
   144  N   3.387        C  142 1.306    H  151 0.930    H  152 0.920    O  143 0.195
   145  H   0.968        N  136 0.936
   146  H   0.998        C  137 0.957
   147  H   0.997        C  140 0.972
   148  H   0.999        C  140 0.975
   149  H   0.994        C  141 0.952
   150  H   0.997        C  141 0.963
   151  H   0.948        N  144 0.930
   152  H   0.941        N  144 0.920
   153  N   3.466        C  138 1.292    C  154 0.987    H  160 0.901    O  139 0.196
   154  C   3.965        N  153 0.987    H  161 0.950    C  157 0.947    C  155 0.946
   155  C   3.938        O  156 1.594    N  169 1.314    C  154 0.946
   156  O   1.935        C  155 1.594    N  169 0.188
   157  C   3.987        C  158 1.009    C  159 1.006    H  162 0.966    C  154 0.947
   158  C   3.991        C  157 1.009    H  165 0.982    H  163 0.978    H  164 0.978
   159  C   3.992        C  157 1.006    H  168 0.986    H  167 0.985    H  166 0.980
   160  H   0.957        N  153 0.901
   161  H   0.995        C  154 0.950
   162  H   0.999        C  157 0.966
   163  H   0.996        C  158 0.978
   164  H   0.998        C  158 0.978
   165  H   0.998        C  158 0.982
   166  H   0.994        C  159 0.980
   167  H   0.997        C  159 0.985
   168  H   0.998        C  159 0.986
   169  N   3.475        C  155 1.314    C  170 0.992    H  178 0.889    O  156 0.188
   170  C   3.970        N  169 0.992    C  173 0.978    H  179 0.946    C  171 0.929
   171  C   3.949        O  172 1.639    N  184 1.289    C  170 0.929
   172  O   1.964        C  171 1.639    N  184 0.187
   173  C   3.990        C  174 1.007    C  170 0.978    H  181 0.971    H  180 0.962
   174  C   3.984        C  173 1.007    H  182 0.983    H  183 0.967    C  175 0.903
   175  C   3.937        O  177 1.513    O  176 1.499    C  174 0.903
   176  O   1.800        C  175 1.499    O  177 0.217
   177  O   1.803        C  175 1.513    O  176 0.217
   178  H   0.949        N  169 0.889
   179  H   0.998        C  170 0.946
   180  H   0.997        C  173 0.962
   181  H   0.998        C  173 0.971
   182  H   1.000        C  174 0.983
   183  H   1.000        C  174 0.967
   184  N   3.427        C  171 1.289    C  185 0.981    H  192 0.847    O  172 0.187
   185  C   3.964        N  184 0.981    C  188 0.978    C  186 0.940    H  193 0.938
   186  C   3.959        O  187 1.598    N  196 1.320    C  185 0.940
   187  O   1.922        C  186 1.598    N  196 0.196
   188  C   3.985        C  185 0.978    H  195 0.968    H  194 0.968    C  189 0.921
   189  C   3.934        O  191 1.520    O  190 1.460    C  188 0.921
   190  O   1.852        C  189 1.460    O  191 0.207
   191  O   1.852        C  189 1.520    O  190 0.207
   192  H   0.952        N  184 0.847
   193  H   0.997        C  185 0.938
   194  H   0.996        C  188 0.968
   195  H   0.999        C  188 0.968
   196  N   3.540        C  186 1.320    C  202 0.977    C  197 0.966    O  187 0.196
   197  C   3.960        C  198 0.973    N  196 0.966    C  200 0.962    H  203 0.943
   198  C   3.903        O  199 1.913    C  197 0.973    H  460 0.949
   199  O   2.055        C  198 1.913
   200  C   3.983        C  201 1.004    H  205 0.972    H  204 0.970    C  197 0.962
   201  C   3.988        C  200 1.004    C  202 0.999    H  207 0.977    H  206 0.975
   202  C   3.964        C  201 0.999    N  196 0.977    H  209 0.967    H  208 0.965
   203  H   0.991        C  197 0.943
   204  H   0.991        C  200 0.970
   205  H   0.994        C  200 0.972
   206  H   0.993        C  201 0.975
   207  H   0.996        C  201 0.977
   208  H   0.997        C  202 0.965
   209  H   0.999        C  202 0.967
   210  N   2.986        C  211 1.011    H  216 0.951    H  461 0.949
   211  C   3.986        N  210 1.011    C  212 0.972    H  217 0.959    C  214 0.957
   212  C   3.897        O  213 1.913    C  211 0.972    H  462 0.952
   213  O   2.048        C  212 1.913
   214  C   3.951        O  215 0.999    H  219 0.969    H  218 0.962    C  211 0.957
   215  O   1.982        C  214 0.999    H  220 0.876
   216  H   0.974        N  210 0.951
   217  H   0.998        C  211 0.959
   218  H   0.998        C  214 0.962
   219  H   0.998        C  214 0.969
   220  H   0.890        O  215 0.876
   221  N   2.994        C  222 1.023    H  228 0.954    H  463 0.953
   222  C   3.986        N  221 1.023    H  229 0.952    C  225 0.952    C  223 0.943
   223  C   3.934        O  224 1.646    N  237 1.273    C  222 0.943
   224  O   1.950        C  223 1.646    N  237 0.190
   225  C   3.994        C  226 1.011    C  227 1.010    H  230 0.965    C  222 0.952
   226  C   3.996        C  225 1.011    H  231 0.984    H  233 0.984    H  232 0.982
   227  C   3.995        C  225 1.010    H  234 0.983    H  235 0.981    H  236 0.979
   228  H   0.973        N  221 0.954
   229  H   0.999        C  222 0.952
   230  H   0.998        C  225 0.965
   231  H   0.998        C  226 0.984
   232  H   0.998        C  226 0.982
   233  H   0.999        C  226 0.984
   234  H   0.998        C  227 0.983
   235  H   0.999        C  227 0.981
   236  H   0.998        C  227 0.979
   237  N   3.449        C  223 1.273    C  238 0.985    H  245 0.920    O  224 0.190
   238  C   3.973        N  237 0.985    C  241 0.985    H  246 0.951    C  239 0.937
   239  C   3.950        O  240 1.622    N  249 1.307    C  238 0.937
   240  O   1.928        C  239 1.622    N  249 0.188
   241  C   3.983        C  238 0.985    H  248 0.965    H  247 0.956    C  242 0.918
   242  C   3.936        O  243 1.511    O  244 1.480    C  241 0.918
   243  O   1.845        C  242 1.511    O  244 0.208
   244  O   1.838        C  242 1.480    O  243 0.208
   245  H   0.961        N  237 0.920
   246  H   0.997        C  238 0.951
   247  H   0.997        C  241 0.956
   248  H   1.000        C  241 0.965
   249  N   3.447        C  239 1.307    C  250 0.975    H  254 0.889    O  240 0.188
   250  C   3.957        C  253 0.987    N  249 0.975    H  255 0.952    C  251 0.932
   251  C   3.940        O  252 1.647    N  259 1.282    C  250 0.932
   252  O   1.955        C  251 1.647    N  259 0.192
   253  C   3.976        C  250 0.987    H  258 0.981    H  257 0.978    H  256 0.976
   254  H   0.953        N  249 0.889
   255  H   0.994        C  250 0.952
   256  H   0.990        C  253 0.976
   257  H   0.992        C  253 0.978
   258  H   0.996        C  253 0.981
   259  N   3.450        C  251 1.282    C  260 0.977    H  266 0.915    O  252 0.192
   260  C   3.965        N  259 0.977    C  263 0.964    H  267 0.956    C  261 0.935
   261  C   3.956        O  262 1.629    N  275 1.298    C  260 0.935
   262  O   1.978        C  261 1.629    N  275 0.199
   263  C   3.988        C  265 1.008    C  264 1.007    C  260 0.964    H  268 0.960
   264  C   3.993        C  263 1.007    H  271 0.982    H  270 0.980    H  269 0.977
   265  C   3.993        C  263 1.008    H  273 0.984    H  272 0.982    H  274 0.982
   266  H   0.950        N  259 0.915
   267  H   0.998        C  260 0.956
   268  H   0.994        C  263 0.960
   269  H   0.997        C  264 0.977
   270  H   0.997        C  264 0.980
   271  H   0.999        C  264 0.982
   272  H   0.997        C  265 0.982
   273  H   1.000        C  265 0.984
   274  H   0.998        C  265 0.982
   275  N   3.481        C  261 1.298    C  276 0.977    H  284 0.933    O  262 0.199
   276  C   3.946        N  275 0.977    C  279 0.966    C  277 0.935    H  285 0.933
   277  C   3.948        O  278 1.652    N  297 1.286    C  276 0.935
   278  O   1.977        C  277 1.652    N  297 0.195
   279  C   3.983        C  280 1.005    H  287 0.972    H  286 0.970    C  276 0.966
   280  C   3.988        C  281 1.008    C  279 1.005    H  288 0.972    H  289 0.968
   281  C   3.987        C  282 1.010    C  280 1.008    H  290 0.969    H  291 0.968
   282  C   3.933        C  281 1.010    H  293 0.967    N  283 0.966    H  292 0.963
   283  N   3.645        C  282 0.966    H  295 0.903    H  296 0.898    H  294 0.815
   284  H   0.968        N  275 0.933
   285  H   0.985        C  276 0.933
   286  H   0.998        C  279 0.970
   287  H   0.996        C  279 0.972
   288  H   0.993        C  280 0.972
   289  H   0.994        C  280 0.968
   290  H   0.996        C  281 0.969
   291  H   0.992        C  281 0.968
   292  H   0.991        C  282 0.963
   293  H   0.992        C  282 0.967
   294  H   0.902        N  283 0.815
   295  H   0.915        N  283 0.903
   296  H   0.918        N  283 0.898
   297  N   3.461        C  277 1.286    C  298 0.992    H  305 0.906    O  278 0.195
   298  C   3.970        N  297 0.992    C  301 0.961    C  299 0.954    H  306 0.931
   299  C   3.954        O  300 1.597    N  311 1.303    C  298 0.954
   300  O   1.951        C  299 1.597    N  311 0.196
   301  C   3.991        H  307 0.973    C  298 0.961    C  302 0.958    H  308 0.954
   302  C   3.950        O  303 1.656    N  304 1.308    C  301 0.958
   303  O   1.969        C  302 1.656    N  304 0.198
   304  N   3.392        C  302 1.308    H  310 0.931    H  309 0.920    O  303 0.198
   305  H   0.960        N  297 0.906
   306  H   0.991        C  298 0.931
   307  H   0.996        C  301 0.973
   308  H   0.994        C  301 0.954
   309  H   0.940        N  304 0.920
   310  H   0.951        N  304 0.931
   311  N   3.523        C  299 1.303    C  312 0.973    C  317 0.965    O  300 0.196
   312  C   3.966        N  311 0.973    C  315 0.969    C  313 0.958    H  318 0.934
   313  C   3.941        O  314 1.584    N  325 1.301    C  312 0.958
   314  O   1.989        C  313 1.584    N  325 0.182
   315  C   3.982        C  316 1.003    H  319 0.973    H  320 0.969    C  312 0.969
   316  C   3.988        C  315 1.003    C  317 1.002    H  322 0.976    H  321 0.970
   317  C   3.948        C  316 1.002    N  311 0.965    H  324 0.959    H  323 0.957
   318  H   0.992        C  312 0.934
   319  H   0.996        C  315 0.973
   320  H   0.993        C  315 0.969
   321  H   0.993        C  316 0.970
   322  H   0.995        C  316 0.976
   323  H   0.993        C  317 0.957
   324  H   0.992        C  317 0.959
   325  N   3.472        C  313 1.301    C  326 0.995    H  329 0.923    O  314 0.182
   326  C   3.965        N  325 0.995    H  331 0.958    H  330 0.955    C  327 0.949
   327  C   3.941        O  328 1.637    N  332 1.265    C  326 0.949
   328  O   1.982        C  327 1.637    N  332 0.184
   329  H   0.956        N  325 0.923
   330  H   0.988        C  326 0.955
   331  H   0.992        C  326 0.958
   332  N   3.415        C  327 1.265    C  333 0.988    H  340 0.872    O  328 0.184
   333  C   3.972        N  332 0.988    C  336 0.976    H  341 0.944    C  334 0.938
   334  C   3.956        O  335 1.548    N  344 1.366    C  333 0.938
   335  O   1.940        C  334 1.548    N  344 0.193
   336  C   3.986        C  333 0.976    H  343 0.972    H  342 0.963    C  337 0.916
   337  C   3.931        O  338 1.521    O  339 1.469    C  336 0.916
   338  O   1.818        C  337 1.521    O  339 0.213
   339  O   1.825        C  337 1.469    O  338 0.213
   340  H   0.948        N  332 0.872
   341  H   0.999        C  333 0.944
   342  H   0.997        C  336 0.963
   343  H   0.998        C  336 0.972
   344  N   3.503        C  334 1.366    C  345 0.968    H  351 0.869    O  335 0.193
   345  C   3.943        N  344 0.968    H  352 0.951    C  348 0.950    C  346 0.933
   346  C   3.953        O  347 1.621    N  360 1.318    C  345 0.933
   347  O   1.959        C  346 1.621    N  360 0.201
   348  C   3.983        C  350 1.007    C  349 1.007    H  353 0.963    C  345 0.950
   349  C   3.988        C  348 1.007    H  356 0.983    H  355 0.983    H  354 0.982
   350  C   3.993        C  348 1.007    H  359 0.984    H  358 0.984    H  357 0.975
   351  H   0.950        N  344 0.869
   352  H   0.993        C  345 0.951
   353  H   0.997        C  348 0.963
   354  H   0.994        C  349 0.982
   355  H   0.998        C  349 0.983
   356  H   0.996        C  349 0.983
   357  H   0.994        C  350 0.975
   358  H   0.998        C  350 0.984
   359  H   1.000        C  350 0.984
   360  N   3.483        C  346 1.318    C  361 0.992    H  371 0.882    O  347 0.201
   361  C   3.968        N  360 0.992    H  372 0.953    C  364 0.946    C  362 0.937
   362  C   3.948        O  363 1.664    N  380 1.270    C  361 0.937
   363  O   1.991        C  362 1.664    N  380 0.195
   364  C   3.985        C  365 1.007    H  373 0.972    H  374 0.963    C  361 0.946
   365  C   3.987        C  367 1.417    C  366 1.410    C  364 1.007    C  370 0.110
   366  C   3.991        C  368 1.449    C  365 1.410    H  375 0.969    C  369 0.113
   367  C   3.990        C  369 1.440    C  365 1.417    H  376 0.963    C  368 0.110
   368  C   3.992        C  366 1.449    C  370 1.435    H  377 0.970    C  367 0.110
   369  C   3.991        C  370 1.441    C  367 1.440    H  378 0.969    C  366 0.113
   370  C   3.990        C  369 1.441    C  368 1.435    H  379 0.970    C  365 0.110
   371  H   0.946        N  360 0.882
   372  H   0.996        C  361 0.953
   373  H   0.996        C  364 0.972
   374  H   0.995        C  364 0.963
   375  H   0.999        C  366 0.969
   376  H   0.999        C  367 0.963
   377  H   0.998        C  368 0.970
   378  H   0.997        C  369 0.969
   379  H   0.997        C  370 0.970
   380  N   3.446        C  362 1.270    C  381 0.979    H  389 0.925    O  363 0.195
   381  C   3.965        C  384 0.992    N  380 0.979    C  382 0.970    H  390 0.913
   382  C   3.903        O  383 1.914    C  381 0.970    H  464 0.949
   383  O   2.058        C  382 1.914
   384  C   3.987        C  385 0.992    C  381 0.992    H  391 0.973    H  392 0.970
   385  C   3.994        C  384 0.992    H  394 0.977    C  386 0.971    H  393 0.954
   386  C   3.948        O  387 1.635    N  388 1.317    C  385 0.971
   387  O   1.935        C  386 1.635    N  388 0.199
   388  N   3.403        C  386 1.317    H  395 0.932    H  396 0.921    O  387 0.199
   389  H   0.957        N  380 0.925
   390  H   0.990        C  381 0.913
   391  H   0.996        C  384 0.973
   392  H   0.994        C  384 0.970
   393  H   0.994        C  385 0.954
   394  H   0.997        C  385 0.977
   395  H   0.952        N  388 0.932
   396  H   0.942        N  388 0.921
   397  N   3.006        C  398 1.026    H  465 0.949    H  409 0.948
   398  C   3.986        N  397 1.026    C  399 0.990    H  410 0.947    C  401 0.936
   399  C   3.901        O  400 1.890    C  398 0.990    H  466 0.956
   400  O   2.039        C  399 1.890
   401  C   3.993        C  402 1.015    H  411 0.971    H  412 0.954    C  398 0.936
   402  C   3.987        C  403 1.410    C  404 1.397    C  401 1.015
   403  C   3.989        C  405 1.444    C  402 1.410    H  413 0.958    C  406 0.107
   404  C   3.990        C  406 1.462    C  402 1.397    H  414 0.966    C  405 0.105
   405  C   3.985        C  403 1.444    C  407 1.374    H  415 0.964    C  404 0.105
   406  C   3.991        C  404 1.462    C  407 1.363    H  416 0.968    C  403 0.107
   407  C   3.937        C  405 1.374    C  406 1.363    O  408 1.069
   408  O   2.082        C  407 1.069    H  417 0.854
   409  H   0.973        N  397 0.948
   410  H   0.994        C  398 0.947
   411  H   0.998        C  401 0.971
   412  H   0.994        C  401 0.954
   413  H   0.997        C  403 0.958
   414  H   0.999        C  404 0.966
   415  H   0.997        C  405 0.964
   416  H   0.999        C  406 0.968
   417  H   0.874        O  408 0.854
   418  N   2.996        C  419 1.004    H  426 0.959    H  467 0.951
   419  C   3.983        N  418 1.004    C  422 0.986    C  420 0.967    H  427 0.944
   420  C   3.890        O  421 1.911    C  419 0.967    H  468 0.954
   421  O   2.050        C  420 1.911
   422  C   3.994        C  423 0.994    C  419 0.986    H  428 0.972    H  429 0.971
   423  C   3.995        C  424 1.010    C  425 1.009    C  422 0.994    H  430 0.966
   424  C   3.996        C  423 1.010    H  432 0.985    H  431 0.981    H  433 0.980
   425  C   3.995        C  423 1.009    H  436 0.981    H  434 0.980    H  435 0.979
   426  H   0.975        N  418 0.959
   427  H   0.996        C  419 0.944
   428  H   0.998        C  422 0.972
   429  H   0.997        C  422 0.971
   430  H   0.998        C  423 0.966
   431  H   0.999        C  424 0.981
   432  H   0.998        C  424 0.985
   433  H   0.999        C  424 0.980
   434  H   0.999        C  425 0.980
   435  H   0.998        C  425 0.979
   436  H   0.999        C  425 0.981
   437  N   3.001        C  438 1.023    H  445 0.957    H  469 0.953
   438  C   3.986        N  437 1.023    C  439 0.971    C  441 0.971    H  446 0.927
   439  C   3.895        O  440 1.893    C  438 0.971    H  470 0.951
   440  O   2.052        C  439 1.893
   441  C   3.985        C  442 0.982    C  438 0.971    H  448 0.949    H  447 0.942
   442  C   3.948        O  443 1.570    N  444 1.354    C  441 0.982
   443  O   1.964        C  442 1.570    N  444 0.194
   444  N   3.431        C  442 1.354    H  450 0.929    H  449 0.901    O  443 0.194
   445  H   0.971        N  437 0.957
   446  H   0.994        C  438 0.927
   447  H   0.989        C  441 0.942
   448  H   0.991        C  441 0.949
   449  H   0.940        N  444 0.901
   450  H   0.950        N  444 0.929
   451  H   0.964        N    1 0.953
   452  H   0.992        C    3 0.951
   453  H   0.967        N   15 0.954
   454  H   0.993        C   17 0.952
   455  H   0.964        N   29 0.950
   456  H   0.992        C   31 0.949
   457  H   0.964        N   36 0.946
   458  H   0.989        C  117 0.949
   459  H   0.969        N  136 0.958
   460  H   0.990        C  198 0.949
   461  H   0.959        N  210 0.949
   462  H   0.993        C  212 0.952
   463  H   0.964        N  221 0.953
   464  H   0.991        C  382 0.949
   465  H   0.965        N  397 0.949
   466  H   0.996        C  399 0.956
   467  H   0.966        N  418 0.951
   468  H   0.995        C  420 0.954
   469  H   0.967        N  437 0.953
   470  H   0.995        C  439 0.951
 
molecular dipole:
                 x           y           z       tot (Debye)
 q only:     -113.739     -93.963     -44.055
   full:     -115.186     -94.622     -46.082     396.592
molecular quadrupole (traceless):
                xx          xy          yy          xz          yz          zz
 q only:    -3201.854   -8331.133   -1178.792   -3427.833   -3065.100    4380.647
  q+dip:    -3413.524   -8499.958   -1038.068   -3705.475   -3221.109    4451.591
   full:    -3416.611   -8496.317   -1037.352   -3708.135   -3218.005    4453.963


           -------------------------------------------------
          | TOTAL ENERGY             -747.192994463863 Eh   |
          | GRADIENT NORM               0.704629029372 Eh/α |
          | HOMO-LUMO GAP               1.543407516762 eV   |
           -------------------------------------------------

------------------------------------------------------------------------
 * finished run on 2019/05/31 at 06:33:26.802     
------------------------------------------------------------------------
 total:
 * wall-time:     0 d,  0 h,  0 min, 24.789 sec
 *  cpu-time:     0 d,  0 h,  0 min, 48.495 sec
 * ratio c/w:     1.956 speedup
 SCF:
 * wall-time:     0 d,  0 h,  0 min, 23.871 sec
 *  cpu-time:     0 d,  0 h,  0 min, 46.921 sec
 * ratio c/w:     1.966 speedup

