      -----------------------------------------------------------      
     |                   =====================                   |     
     |                           x T B                           |     
     |                   =====================                   |     
     |                         S. Grimme                         |     
     |          Mulliken Center for Theoretical Chemistry        |     
     |                    University of Bonn                     |     
     |                Version 6.1 RC1 (SAW190329)                |     
      -----------------------------------------------------------      

   This program is distributed in the hope that it will be useful,
   but WITHOUT ANY WARRANTY; without even the implied warranty of
   MERCHANTABILITY or FITNESS FOR A PARTICULAR PURPOSE.
   
   FOR NON-COMMERCIAL, ACADEMIA USE ONLY.
   
   Cite this work as:
   S. Grimme, C. Bannwarth, P. Shushkov, J. Comput. Theory Chem., 2017,
   13, 1989-2009. DOI: 10.1021/acs.jctc.7b00118
   C. Bannwarth, S. Ehlert and S. Grimme., J. Comput. Theory Chem., 2019,
   just accepted. DOI: 10.1021/acs.jctc.8b01176
   
   for sTDA-xTB:
   S. Grimme and C. Bannwarth, J. Chem. Phys., 2016, 145, 054103.
   DOI: 10.1063/1.4959605
   
   in the mass-spec context:
   V. Asgeirsson, C. Bauer and S. Grimme, Chem. Sci., 2017, 8, 4879.
   DOI: 10.1039/c7sc00601b
   
   for metadynamics refer to:
   S. Grimme, ChemRxiv, Preprint. DOI: 10.26434/chemrxiv.7660532.v1
   
   with help from (in alphabetical order)
   C. Bannwarth, F. Bohle, G. Brandenburg, E. Caldeweyher, M. Checinski,
   S. Dohm, S. Ehlert, S. Ehrlich, F. März, H. Neugebauer, J. Pisarek,
   P. Pracht, P. Shushkov, and S. Spicher.
   
 * started run on 2019/05/31 at 05:35:15.644     

           -------------------------------------------------
          |                Calculation Setup                |
           -------------------------------------------------

          program call               : /home/lum/install/xtb/xtb-190329/bin/xtb xtb_tmp.xyz --chrg -2 --grad --gfn 2 --etemp 500 --acc 0.1 --gbsa h2o --parallel 2
          hostname                   : cpu02
          coordinate file            : xtb_tmp.xyz
          omp threads                :                     2
          number of atoms            :                   282
          number of electrons        :                   820
          charge                     :                    -2
          spin                       :                   0.0
          first test random number   :      0.44190480958759


molecular fragmentation (1/2 indicates fragments):
111111111111111111111111111122222222222222222222222222222222222222222222
222222222222222222222222222222222222222222222222222222222222222222222222
222222222222222222222222222222222222222222222222222222222222222222222222
222222222222222222222222222222222222222222222222222222222211222222
# atoms in fragment 1/2:    30   252
 fragment masses (1/2) :      217.22     1863.91
CMA distance (Bohr)    :  15.439
constraining FC (au)   :  0.0500

########################################################################
# WARNING! Please study the warnings concerning your input carefully
#  - XTBPATH is not set, using XTBHOME instead
#  - Process number higher than OMP_NUM_THREADS, I hope you know what you are doing.
########################################################################

           ------------------------------------------------- 
          |                 G F N 2 - x T B                 |
          | Geometry, Frequencies, Noncovalent interactions |
          |            JCTC 2018 parametrisation            |
           ------------------------------------------------- 
 
             k(s)              :                1.8500
             k(p)              :                2.2300
             k(d)              :                2.2300
             k(f)              :                2.0000
             kEN (H0ij)        :               -2.0000
             D4 a1             :                0.5200
             D4 a2             :                5.0000
             D4 s6             :                1.0000
             D4 s8             :                2.7000
             D4 s9             :                5.0000
             alphaj            :                2.0000

  Z AO/shell   Hii/eV     exponent
  1     Wed Apr 25 08:07:45 CEST 2018   EN: 2.200 GM2: 0.406  GM3: 0.0800  RAES: 1.40
     1s    -10.707211    1.230000
  6     Wed Apr 25 08:07:45 CEST 2018   EN: 2.550 GM2: 0.538  GM3: 0.1500  RAES: 3.00
     2s    -13.970922    2.096432
     2p    -10.063292    1.800000
  7     Wed Apr 25 08:07:45 CEST 2018   EN: 3.040 GM2: 0.461  GM3:-0.0640  RAES: 1.90
     2s    -16.686243    2.339881
     2p    -12.523956    2.014332
  8     Wed Apr 25 08:07:45 CEST 2018   EN: 3.440 GM2: 0.452  GM3:-0.0517  RAES: 1.80
     2s    -20.229985    2.439742
     2p    -15.503117    2.137023

 Solvent             : h2o
 Using internal parameter file: .param_gbsa2_h2o
 Gsolv ref. state (COSMO-RS): gsolv [1 M gas/solution]
 temperature (mdtemp)       :    298.150000000000     
 dielectric constant        :    80.2000000000000     
 rho                        :    1.00000000000000     
 mass                       :    18.0000000000000     
 surface tension            :    15.5689454083859     
 probe radius               :   0.975313790000000     
 vdW radii scaling          :    1.00000000000000     
 Gshift (Eh)                :   1.857443126794793E-003
 c1                         :    1.55243817000000     
 soset                      :   0.130326360000000     
 HB correction              :  T
 Number of grid points      :          230

            Z     q(EN)     CN     RAES       Cart. coordinates
     1  N   5.0   -0.72    3.00    1.93   289.82246   139.01715   174.33941
     2  C   4.0    0.06    3.98    3.59   291.77321   140.62131   173.28797
     3  C   4.0    0.27    3.01    3.02   293.93297   139.05255   172.17418
     4  O   6.0   -0.49    1.00    1.80   294.82810   139.55468   170.08404
     5  C   4.0   -0.14    3.99    3.60   292.81299   142.41075   175.30349
     6  C   4.0   -0.13    3.98    3.59   290.88957   144.47327   175.96312
     7  C   4.0    0.26    3.00    3.02   292.06179   146.29859   177.83919
     8  O   6.0   -0.40    1.00    1.80   293.53655   147.96071   177.22353
     9  N   5.0   -0.66    3.00    1.93   291.39668   145.89768   180.25904
    10  H   1.0    0.24    1.00    1.43   289.21927   139.35947   176.12573
    11  H   1.0    0.11    0.99    1.43   290.98048   141.72534   171.71533
    12  H   1.0    0.11    0.99    1.43   293.28815   141.30540   176.97975
    13  H   1.0    0.13    0.99    1.43   294.53894   143.29788   174.60248
    14  H   1.0    0.11    0.99    1.43   290.41678   145.52790   174.25734
    15  H   1.0    0.09    0.99    1.43   289.18531   143.62873   176.74968
    16  H   1.0    0.24    1.00    1.43   290.08468   144.59811   180.70619
    17  H   1.0    0.27    1.00    1.43   292.06985   147.05512   181.61279
    18  N   5.0   -0.49    3.01    1.93   294.78867   137.20491   173.64378
    19  C   4.0    0.07    3.99    3.60   297.01588   135.73933   173.02315
    20  C   4.0    0.10    3.00    3.02   296.88839   134.47049   170.42315
    21  O   6.0   -0.39    1.00    1.80   298.82387   133.93409   169.28079
    22  C   4.0   -0.03    3.98    3.59   297.47985   133.71156   175.06028
    23  O   6.0   -0.49    1.99    1.82   295.94182   131.58031   174.87157
    24  H   1.0    0.23    1.00    1.43   294.02394   136.95958   175.39213
    25  H   1.0    0.12    0.99    1.43   298.66957   136.99344   172.96458
    26  H   1.0    0.11    0.99    1.43   299.42497   133.04415   174.87199
    27  H   1.0    0.09    0.99    1.43   297.25407   134.62788   176.91523
    28  H   1.0    0.25    0.99    1.43   294.15549   132.09231   174.85919
    29  N   5.0   -0.68    3.00    1.93   295.35762   136.72763   165.23323
    30  C   4.0    0.08    3.99    3.60   295.94078   138.38377   163.13667
    31  C   4.0    0.28    3.01    3.02   298.77258   138.30687   162.53311
    32  O   6.0   -0.45    1.00    1.80   300.37724   139.16339   163.98138
    33  C   4.0   -0.09    3.99    3.60   295.14101   141.10419   163.72640
    34  C   4.0    0.27    3.00    3.02   292.26306   141.20707   163.80128
    35  O   6.0   -0.42    1.00    1.80   290.99254   141.55059   161.90640
    36  N   5.0   -0.66    3.00    1.93   291.27644   140.86560   166.10169
    37  H   1.0    0.32    1.00    1.43   295.49951   137.43724   167.00649
    38  H   1.0    0.11    0.99    1.43   294.88749   137.67389   161.49868
    39  H   1.0    0.13    0.99    1.43   295.94421   141.68056   165.53002
    40  H   1.0    0.12    0.99    1.43   295.82794   142.35294   162.23951
    41  H   1.0    0.27    1.00    1.43   289.38982   140.68879   166.28177
    42  H   1.0    0.30    1.00    1.43   292.39196   140.40615   167.59003
    43  N   5.0   -0.49    3.01    1.93   299.34982   137.38992   160.25463
    44  C   4.0    0.10    3.99    3.60   301.92828   137.02476   159.40488
    45  C   4.0    0.27    3.01    3.02   303.46940   139.46177   159.10220
    46  O   6.0   -0.39    1.00    1.80   305.69987   139.35910   158.53266
    47  C   4.0   -0.02    3.98    3.59   301.88448   135.68264   156.83758
    48  O   6.0   -0.49    1.99    1.82   300.47627   133.44461   157.08599
    49  H   1.0    0.25    1.00    1.43   298.04727   136.36552   159.29580
    50  H   1.0    0.15    0.99    1.43   302.95453   135.85055   160.77490
    51  H   1.0    0.11    0.99    1.43   301.01630   136.95212   155.44198
    52  H   1.0    0.12    0.99    1.43   303.84586   135.31821   156.28512
    53  H   1.0    0.24    0.99    1.43   300.57267   132.49213   155.53349
    54  N   5.0   -0.48    3.01    1.93   302.19672   141.64314   159.34840
    55  C   4.0    0.10    4.00    3.61   303.49814   144.02990   159.48646
    56  C   4.0    0.30    3.01    3.02   305.16198   144.32987   161.85067
    57  O   6.0   -0.39    1.00    1.80   306.90482   145.84958   161.82511
    58  C   4.0    0.03    3.98    3.59   301.53427   146.17764   159.40025
    59  O   6.0   -0.48    1.99    1.82   299.62635   145.54448   161.16739
    60  C   4.0   -0.22    3.98    3.59   300.44502   146.47366   156.74179
    61  H   1.0    0.28    1.00    1.43   300.43420   141.67936   160.08105
    62  H   1.0    0.13    0.99    1.43   304.78914   144.19575   157.87778
    63  H   1.0    0.12    0.99    1.43   302.50978   147.91746   159.97943
    64  H   1.0    0.25    0.99    1.43   298.55776   147.00008   161.42089
    65  H   1.0    0.10    0.99    1.43   299.02917   147.96080   156.72031
    66  H   1.0    0.09    0.99    1.43   301.94164   146.96375   155.42880
    67  H   1.0    0.12    0.99    1.43   299.57564   144.70952   156.15394
    68  N   5.0   -0.45    3.01    1.93   304.51870   142.95625   163.87297
    69  C   4.0    0.08    3.99    3.61   306.08815   142.93142   166.12063
    70  C   4.0    0.29    3.02    3.02   308.65927   141.72665   165.50276
    71  O   6.0   -0.37    1.00    1.80   308.78596   139.63263   164.52455
    72  C   4.0   -0.10    3.99    3.61   304.85128   141.32032   168.18302
    73  C   4.0    0.28    3.00    3.02   302.63349   142.66735   169.41924
    74  O   6.0   -0.42    1.00    1.80   302.89398   144.12422   171.20083
    75  N   5.0   -0.63    3.00    1.93   300.38716   142.10403   168.42277
    76  H   1.0    0.30    1.00    1.43   303.17259   141.59403   163.74551
    77  H   1.0    0.16    0.99    1.43   306.39938   144.87446   166.77037
    78  H   1.0    0.14    0.99    1.43   304.23903   139.53792   167.35153
    79  H   1.0    0.11    0.99    1.43   306.25505   140.93146   169.64075
    80  H   1.0    0.30    1.00    1.43   298.81863   142.87789   169.17414
    81  H   1.0    0.32    1.00    1.43   300.22581   140.88360   166.94541
    82  N   5.0   -0.47    3.01    1.93   310.68198   143.09575   166.14138
    83  C   4.0    0.08    3.99    3.61   313.19171   142.02054   165.97539
    84  C   4.0    0.28    3.02    3.02   313.78170   140.64439   168.45482
    85  O   6.0   -0.43    1.00    1.80   312.24495   140.56394   170.18517
    86  C   4.0   -0.01    3.98    3.58   315.14994   144.02966   165.20685
    87  O   6.0   -0.45    1.99    1.82   315.58196   145.91515   167.01756
    88  H   1.0    0.30    1.00    1.43   310.45963   144.84758   166.95049
    89  H   1.0    0.14    0.99    1.43   313.11465   140.56782   164.49273
    90  H   1.0    0.12    0.99    1.43   316.91553   143.09032   164.65251
    91  H   1.0    0.15    0.99    1.43   314.39075   145.02917   163.56858
    92  H   1.0    0.29    0.99    1.43   316.34244   145.23160   168.53144
    93  N   5.0   -0.51    3.00    1.93   316.03242   139.46913   168.66398
    94  C   4.0    0.07    4.00    3.63   316.40641   137.82419   170.82460
    95  C   4.0    0.30    3.01    3.02   316.31585   139.29300   173.32167
    96  O   6.0   -0.42    1.00    1.80   315.26692   138.38809   175.16595
    97  C   4.0   -0.14    3.98    3.59   318.81554   136.26899   170.55559
    98  C   4.0   -0.11    3.99    3.60   318.37949   134.17028   168.61471
    99  C   4.0    0.28    3.00    3.02   320.80332   132.77185   168.00655
   100  O   6.0   -0.39    1.00    1.80   322.12050   133.37361   166.20243
   101  N   5.0   -0.65    3.00    1.93   321.37806   130.86184   169.53745
   102  H   1.0    0.23    1.00    1.43   317.31531   139.44978   167.25645
   103  H   1.0    0.13    0.99    1.43   314.78037   136.53255   170.94196
   104  H   1.0    0.13    0.99    1.43   320.38259   137.48303   169.97767
   105  H   1.0    0.14    0.99    1.43   319.29742   135.46093   172.39195
   106  H   1.0    0.12    0.99    1.43   316.97765   132.84885   169.33842
   107  H   1.0    0.14    0.99    1.43   317.67099   134.97096   166.85364
   108  H   1.0    0.30    1.00    1.43   320.41838   130.50768   171.14838
   109  H   1.0    0.28    1.00    1.43   322.85896   129.72170   169.12999
   110  N   5.0   -0.46    3.01    1.93   317.42065   141.56228   173.29121
   111  C   4.0    0.09    3.99    3.60   317.31564   143.30784   175.39623
   112  C   4.0    0.30    3.01    3.02   314.57493   143.84678   176.17281
   113  O   6.0   -0.45    1.00    1.80   313.90011   143.77731   178.38909
   114  C   4.0   -0.03    3.98    3.59   318.61094   145.76683   174.57836
   115  O   6.0   -0.50    1.99    1.82   317.72863   146.38162   172.13066
   116  H   1.0    0.26    1.00    1.43   318.16940   142.24220   171.67288
   117  H   1.0    0.14    0.99    1.43   318.26070   142.46100   177.03887
   118  H   1.0    0.11    0.99    1.43   318.15693   147.24407   175.94915
   119  H   1.0    0.11    0.99    1.43   320.66281   145.47291   174.53783
   120  H   1.0    0.27    0.99    1.43   318.01462   148.15282   171.80254
   121  N   5.0   -0.46    3.01    1.93   313.00440   144.42510   174.28828
   122  C   4.0    0.08    4.00    3.62   310.35277   144.93588   174.75857
   123  C   4.0    0.30    3.02    3.02   309.18004   142.73579   176.18845
   124  O   6.0   -0.46    1.00    1.80   307.83408   143.04458   178.05570
   125  C   4.0   -0.10    3.98    3.59   308.95868   145.27656   172.27535
   126  C   4.0    0.32    2.99    3.02   309.65988   147.81303   170.93527
   127  O   6.0   -0.38    1.00    1.80   310.10895   149.66856   172.29479
   128  O   6.0   -0.41    1.00    1.80   309.67812   147.74110   168.57617
   129  H   1.0    0.29    1.00    1.43   313.66988   144.74169   172.52869
   130  H   1.0    0.15    0.99    1.43   310.15145   146.65932   175.90131
   131  H   1.0    0.14    0.99    1.43   309.37929   143.70948   171.00956
   132  H   1.0    0.14    0.99    1.43   306.92039   145.31981   172.60515
   133  N   5.0   -0.48    3.01    1.93   309.63382   140.47067   175.18667
   134  C   4.0    0.07    4.00    3.61   308.61376   138.20479   176.32113
   135  C   4.0    0.29    3.01    3.02   309.56672   137.92820   179.03486
   136  O   6.0   -0.46    1.00    1.80   308.13383   137.24959   180.73015
   137  C   4.0   -0.14    3.99    3.60   309.29563   135.86273   174.78772
   138  C   4.0   -0.09    3.98    3.58   308.11722   135.77494   172.13757
   139  C   4.0   -0.20    3.99    3.60   309.03329   133.38365   170.80576
   140  C   4.0   -0.21    3.98    3.59   305.23533   135.76282   172.28089
   141  H   1.0    0.29    1.00    1.43   310.75277   140.30860   173.64583
   142  H   1.0    0.12    0.99    1.43   306.55431   138.40906   176.46626
   143  H   1.0    0.13    0.99    1.43   311.35537   135.79082   174.64949
   144  H   1.0    0.13    0.99    1.43   308.64877   134.20386   175.83270
   145  H   1.0    0.14    0.99    1.43   308.74595   137.42716   171.05633
   146  H   1.0    0.13    0.99    1.43   308.27308   133.30070   168.90133
   147  H   1.0    0.11    0.99    1.43   311.08566   133.36258   170.68264
   148  H   1.0    0.13    0.99    1.43   308.40514   131.74277   171.87113
   149  H   1.0    0.13    0.99    1.43   304.42404   135.39856   170.43003
   150  H   1.0    0.12    0.99    1.43   304.63037   134.28205   173.57069
   151  H   1.0    0.10    0.99    1.43   304.52088   137.57488   172.93842
   152  N   5.0   -0.46    3.01    1.93   311.99422   138.47105   179.42250
   153  C   4.0    0.08    4.00    3.62   313.07311   138.30120   181.92996
   154  C   4.0    0.29    3.01    3.02   311.55436   139.93146   183.75055
   155  O   6.0   -0.41    1.00    1.80   311.00812   139.19844   185.88386
   156  C   4.0   -0.10    3.98    3.59   315.81541   139.16777   181.93215
   157  C   4.0    0.33    2.99    3.02   317.58341   137.43186   180.30448
   158  O   6.0   -0.44    1.00    1.80   317.09210   135.12331   180.27352
   159  O   6.0   -0.39    1.00    1.80   319.36278   138.50733   179.22689
   160  H   1.0    0.31    1.00    1.43   313.21046   138.72775   177.96230
   161  H   1.0    0.13    0.99    1.43   312.97669   136.34055   182.61640
   162  H   1.0    0.14    0.99    1.43   315.96273   141.09007   181.20801
   163  H   1.0    0.11    0.99    1.43   316.55458   139.11854   183.85950
   164  N   5.0   -0.48    3.01    1.93   310.92821   142.21577   182.89049
   165  C   4.0    0.10    3.99    3.61   309.46913   143.96440   184.40441
   166  C   4.0    0.32    3.01    3.02   306.89543   142.81077   185.07814
   167  O   6.0   -0.36    1.00    1.80   306.11296   142.74129   187.25704
   168  C   4.0   -0.01    3.98    3.59   309.13030   146.45079   182.96596
   169  O   6.0   -0.47    1.99    1.82   307.72274   148.11093   184.48562
   170  H   1.0    0.30    1.00    1.43   311.52420   142.76521   181.15647
   171  H   1.0    0.14    0.99    1.43   310.44765   144.33641   186.19714
   172  H   1.0    0.11    0.99    1.43   311.01575   147.21572   182.55083
   173  H   1.0    0.14    0.99    1.43   308.16763   146.06087   181.17095
   174  H   1.0    0.25    0.99    1.43   307.51842   149.69835   183.60512
   175  N   5.0   -0.48    3.01    1.93   305.59636   141.89122   183.12665
   176  C   4.0    0.08    4.00    3.63   303.10572   140.82915   183.53997
   177  C   4.0    0.30    3.01    3.02   303.31297   138.85346   185.65104
   178  O   6.0   -0.39    1.00    1.80   301.77206   138.69234   187.36795
   179  C   4.0   -0.09    3.98    3.58   301.99922   139.68003   181.11133
   180  C   4.0   -0.15    3.98    3.59   301.58899   141.75120   179.12218
   181  C   4.0   -0.23    3.98    3.59   299.52758   138.31938   181.71397
   182  C   4.0   -0.22    3.98    3.58   300.52759   140.73461   176.63922
   183  H   1.0    0.29    1.00    1.43   306.30432   142.04395   181.35706
   184  H   1.0    0.13    0.99    1.43   301.84087   142.32260   184.24096
   185  H   1.0    0.13    0.99    1.43   303.36918   138.31469   180.37797
   186  H   1.0    0.12    0.99    1.43   300.30846   143.18754   179.86848
   187  H   1.0    0.14    0.99    1.43   303.38290   142.68213   178.71713
   188  H   1.0    0.09    0.99    1.43   298.78695   137.41254   180.03028
   189  H   1.0    0.12    0.99    1.43   299.82358   136.88803   183.15517
   190  H   1.0    0.11    0.99    1.43   298.13877   139.67237   182.39131
   191  H   1.0    0.14    0.99    1.43   300.73673   142.15017   175.16187
   192  H   1.0    0.10    0.99    1.43   301.55663   139.05278   176.05593
   193  H   1.0    0.10    0.99    1.43   298.53591   140.26313   176.80580
   194  N   5.0   -0.47    3.01    1.93   305.26370   137.27518   185.37454
   195  C   4.0    0.09    3.99    3.60   305.77994   135.26203   187.14283
   196  C   4.0    0.10    3.00    3.02   306.24044   136.28681   189.78824
   197  O   6.0   -0.40    1.00    1.80   305.24421   135.26711   191.63759
   198  C   4.0   -0.13    3.99    3.60   308.07828   133.72105   186.30449
   199  C   4.0   -0.11    3.98    3.59   308.56462   131.50430   188.09328
   200  C   4.0    0.28    3.00    3.02   306.44469   129.57430   187.94321
   201  O   6.0   -0.46    1.00    1.80   305.33168   129.15996   185.94685
   202  N   5.0   -0.64    3.00    1.93   305.91588   128.32650   190.06293
   203  H   1.0    0.30    1.00    1.43   306.43029   137.44476   183.86684
   204  H   1.0    0.15    0.99    1.43   304.11886   134.01772   187.25805
   205  H   1.0    0.13    0.99    1.43   307.70999   133.00980   184.40313
   206  H   1.0    0.14    0.99    1.43   309.72620   134.95640   186.22233
   207  H   1.0    0.13    0.99    1.43   310.30752   130.54900   187.53210
   208  H   1.0    0.12    0.99    1.43   308.80669   132.15257   190.03130
   209  H   1.0    0.26    1.00    1.43   306.75720   128.77284   191.71222
   210  H   1.0    0.27    1.00    1.43   304.57719   126.94054   190.05979
   211  N   5.0   -0.72    3.00    1.93   304.79894   126.36724   181.31149
   212  C   4.0    0.08    3.99    3.60   304.48500   127.29151   178.75774
   213  C   4.0    0.28    3.01    3.02   306.91048   128.43873   177.66974
   214  O   6.0   -0.47    1.00    1.80   306.86288   130.13603   176.09983
   215  C   4.0   -0.08    3.98    3.58   302.24878   129.14470   178.51504
   216  C   4.0   -0.23    3.98    3.59   299.76896   127.81734   179.14906
   217  C   4.0   -0.21    3.98    3.59   302.62249   131.48104   180.16821
   218  H   1.0    0.32    1.00    1.43   305.16803   127.65312   182.68423
   219  H   1.0    0.11    0.99    1.43   304.06294   125.62474   177.59286
   220  H   1.0    0.12    0.99    1.43   302.20777   129.73192   176.53180
   221  H   1.0    0.12    0.99    1.43   298.18640   128.98621   178.56573
   222  H   1.0    0.10    0.99    1.43   299.64293   126.02178   178.15854
   223  H   1.0    0.10    0.99    1.43   299.64652   127.46476   181.16951
   224  H   1.0    0.09    0.99    1.43   301.02154   132.74588   179.94581
   225  H   1.0    0.13    0.99    1.43   302.77164   130.96133   182.14940
   226  H   1.0    0.13    0.99    1.43   304.32114   132.49496   179.61332
   227  N   5.0   -0.46    3.01    1.93   309.06479   127.44247   178.53808
   228  C   4.0    0.06    4.00    3.61   311.51255   128.28990   177.68102
   229  C   4.0    0.26    3.01    3.02   312.51129   126.54668   175.58650
   230  O   6.0   -0.41    1.00    1.80   311.53335   124.52130   175.09957
   231  C   4.0   -0.13    3.99    3.60   313.36275   128.33493   179.90502
   232  C   4.0   -0.11    3.99    3.60   312.58358   130.33763   181.83909
   233  C   4.0    0.27    3.00    3.02   314.28594   130.18993   184.13215
   234  O   6.0   -0.41    1.00    1.80   314.04054   128.52678   185.74031
   235  N   5.0   -0.65    3.00    1.93   316.01484   132.00722   184.30539
   236  H   1.0    0.26    1.00    1.43   309.07216   125.94831   179.74552
   237  H   1.0    0.13    0.99    1.43   311.28312   130.19719   176.90012
   238  H   1.0    0.13    0.99    1.43   313.35441   126.47593   180.79871
   239  H   1.0    0.13    0.99    1.43   315.27657   128.72883   179.24306
   240  H   1.0    0.12    0.99    1.43   312.72208   132.21168   180.99830
   241  H   1.0    0.13    0.99    1.43   310.63737   129.98734   182.42822
   242  H   1.0    0.31    1.00    1.43   316.36773   133.21635   182.82995
   243  H   1.0    0.28    1.00    1.43   317.27956   131.95732   185.73027
   244  N   5.0   -0.49    3.01    1.93   314.48527   127.51040   174.32016
   245  C   4.0    0.05    3.99    3.60   316.00352   126.06186   172.56499
   246  C   4.0    0.04    3.00    3.02   318.77302   126.46181   173.32823
   247  O   6.0   -0.43    1.00    1.80   319.47353   128.51503   174.16014
   248  C   4.0   -0.13    3.98    3.59   315.63405   127.00024   169.84274
   249  C   4.0   -0.11    3.98    3.59   312.87690   126.88974   169.00470
   250  C   4.0    0.26    3.00    3.02   312.43735   128.44745   166.63315
   251  O   6.0   -0.40    1.00    1.80   314.02060   129.86986   165.73233
   252  N   5.0   -0.66    3.00    1.93   310.15459   128.12720   165.58236
   253  H   1.0    0.26    1.00    1.43   315.28214   129.14741   174.90041
   254  H   1.0    0.13    0.99    1.43   315.41882   124.08944   172.75369
   255  H   1.0    0.14    0.99    1.43   316.27551   128.95671   169.73255
   256  H   1.0    0.11    0.99    1.43   316.81992   125.90303   168.56505
   257  H   1.0    0.11    0.99    1.43   312.28841   124.94395   168.68005
   258  H   1.0    0.13    0.99    1.43   311.67481   127.67886   170.48841
   259  H   1.0    0.26    1.00    1.43   308.80648   127.10603   166.44987
   260  H   1.0    0.29    1.00    1.43   309.67753   129.19257   164.07788
   261  N   5.0   -0.71    3.00    1.93   324.09053   139.23696   158.43628
   262  C   4.0    0.07    3.98    3.59   324.40618   141.49150   156.95865
   263  C   4.0    0.06    3.00    3.02   327.19198   142.13597   156.45447
   264  O   6.0   -0.44    1.00    1.80   327.76685   144.01005   155.22921
   265  C   4.0   -0.10    3.99    3.60   323.12769   143.69574   158.35125
   266  C   4.0    0.27    3.00    3.02   320.32192   143.13229   158.61093
   267  O   6.0   -0.42    1.00    1.80   319.45950   141.83955   160.32069
   268  N   5.0   -0.66    3.00    1.93   318.87318   144.12875   156.78996
   269  H   1.0    0.27    1.00    1.43   324.50286   139.44377   160.30497
   270  H   1.0    0.13    0.99    1.43   323.52075   141.16965   155.10975
   271  H   1.0    0.12    0.99    1.43   323.96957   143.81402   160.23121
   272  H   1.0    0.11    0.99    1.43   323.47237   145.44069   157.31944
   273  H   1.0    0.28    1.00    1.43   317.00723   143.74755   156.75790
   274  H   1.0    0.25    1.00    1.43   319.63045   145.11917   155.35570
   275  H   1.0    0.28    1.00    1.43   288.42131   139.12491   173.38142
   276  H   1.0    0.14    1.00    1.43   295.21190   134.07407   169.64642
   277  H   1.0    0.30    1.00    1.43   293.74984   136.18898   165.10105
   278  H   1.0    0.16    1.00    1.43   307.35413   137.79302   190.03744
   279  H   1.0    0.30    1.00    1.43   303.37626   125.57914   181.80893
   280  H   1.0    0.12    1.00    1.43   320.01572   125.04940   173.14973
   281  H   1.0    0.33    1.00    1.43   322.47376   138.71770   158.34139
   282  H   1.0    0.13    1.00    1.43   328.55765   141.01837   157.13048

           ------------------------------------------------- 
          |        Self-Consistent Charge Iterations        |
           ------------------------------------------------- 

          ...................................................
          :                      SETUP                      :
          :.................................................:
          :  # basis functions                 717          :
          :  # atomic orbitals                 717          :
          :  # shells                          427          :
          :  # electrons                       820          :
          :  max. iterations                   250          :
          :  Hamiltonian                  GFN2-xTB          :
          :  restarted?                      false          :
          :  GBSA solvation                   true          :
          :  PC potential                    false          :
          :  electronic temp.          500.0000000     K    :
          :  accuracy                    0.1000000          :
          :  -> integral cutoff          0.3500000E+02      :
          :  -> integral neglect         0.1000000E-08      :
          :  -> SCF convergence          0.1000000E-06 Eh   :
          :  -> wf. convergence          0.1000000E-04 e    :
          :  Broyden damping             0.4000000          :
          ...................................................

 iter      E             dE          RMSdq      gap      omega  full diag
   1   -477.5209892 -0.477521E+03  0.460E+00    1.66       0.0  T
   2   -478.9600346 -0.143905E+01  0.232E+00    1.34       1.0  T
   3   -479.0029503 -0.429156E-01  0.124E+00    1.65       1.0  T
   4   -479.0141942 -0.112439E-01  0.281E-01    0.97       1.0  T
   5   -479.0267895 -0.125953E-01  0.116E-01    1.17       1.0  T
   6   -479.0271250 -0.335525E-03  0.483E-02    1.14       1.0  T
   7   -479.0271918 -0.667242E-04  0.175E-02    1.16       1.0  T
   8   -479.0272079 -0.161481E-04  0.839E-03    1.15       1.0  T
   9   -479.0272112 -0.330849E-05  0.346E-03    1.15       1.7  T
  10   -479.0272117 -0.464260E-06  0.140E-03    1.15       4.2  T
  11   -479.0272118 -0.129707E-06  0.580E-04    1.15      10.3  T
  12   -479.0272118 -0.163132E-07  0.265E-04    1.15      22.5  T
  13   -479.0272118 -0.352702E-08  0.995E-05    1.15      59.8  T
  14   -479.0272118 -0.458954E-09  0.410E-05    1.15     145.1  T

   *** convergence criteria satisfied after 14 iterations ***

         #    Occupation            Energy/Eh            Energy/eV
      -------------------------------------------------------------
         1        2.0000           -0.7491067             -20.3842
       ...           ...                  ...                  ...
       404        2.0000           -0.3906408             -10.6299
       405        2.0000           -0.3793623             -10.3230
       406        2.0000           -0.3745732             -10.1927
       407        2.0000           -0.3726155             -10.1394
       408        2.0000           -0.3713451             -10.1048
       409        2.0000           -0.3710490             -10.0968
       410        2.0000           -0.3522080              -9.5841 (HOMO)
       411        0.0000           -0.3098819              -8.4323 (LUMO)
       412                         -0.2890289              -7.8649
       413                         -0.2872967              -7.8177
       414                         -0.2871513              -7.8138
       415                         -0.2540184              -6.9122
       ...                                ...                  ...
       717                          0.6404702              17.4281
      -------------------------------------------------------------
                  HL-Gap            0.0423261 Eh            1.1518 eV
             Fermi-level           -0.3310449 Eh           -9.0082 eV

 SCC (total)                   0 d,  0 h,  0 min,  3.232 sec
 SCC setup                      ...        0 min,  0.060 sec (  1.870%)
 Dispersion                     ...        0 min,  0.047 sec (  1.441%)
 integral evaluation            ...        0 min,  0.190 sec (  5.881%)
 zeroth order Hamiltonian       ...        0 min,  0.003 sec (  0.096%)
 iterations                     ...        0 min,  2.425 sec ( 75.038%)
 molecular gradient             ...        0 min,  0.484 sec ( 14.975%)
 printout                       ...        0 min,  0.023 sec (  0.697%)

         :::::::::::::::::::::::::::::::::::::::::::::::::::::
         ::                     SUMMARY                     ::
         :::::::::::::::::::::::::::::::::::::::::::::::::::::
         :: total energy             -473.804013457919 Eh   ::
         :: total w/o Gsasa/hb       -473.734257654071 Eh   ::
         :: gradient norm               0.454852107411 Eh/α ::
         :: HOMO-LUMO gap               1.151751625967 eV   ::
         ::.................................................::
         :: SCC energy               -479.032273255394 Eh   ::
         :: -> isotropic ES             1.895030608896 Eh   ::
         :: -> anisotropic ES          -0.051571951575 Eh   ::
         :: -> anisotropic XC           0.097219466713 Eh   ::
         :: -> dispersion              -0.371021544605 Eh   ::
         :: -> Gsolv                   -0.488009203088 Eh   ::
         ::    -> Gborn                -0.418253399241 Eh   ::
         ::    -> Gsasa                -0.006918871050 Eh   ::
         ::    -> Ghb                  -0.064694375924 Eh   ::
         ::    -> Gshift                0.001857443127 Eh   ::
         :: repulsion energy            5.195737278714 Eh   ::
         :: add. restraining            0.000000000000 Eh   ::
         :::::::::::::::::::::::::::::::::::::::::::::::::::::

           -------------------------------------------------
          |                Property Printout                |
           -------------------------------------------------

    * Orbital Energies and Occupations

         #    Occupation            Energy/Eh            Energy/eV
      -------------------------------------------------------------
         1        2.0000           -0.7491067             -20.3842
       ...           ...                  ...                  ...
       398        2.0000           -0.3962446             -10.7824
       399        2.0000           -0.3946835             -10.7399
       400        2.0000           -0.3940461             -10.7225
       401        2.0000           -0.3922586             -10.6739
       402        2.0000           -0.3918331             -10.6623
       403        2.0000           -0.3912572             -10.6467
       404        2.0000           -0.3906408             -10.6299
       405        2.0000           -0.3793623             -10.3230
       406        2.0000           -0.3745732             -10.1927
       407        2.0000           -0.3726155             -10.1394
       408        2.0000           -0.3713451             -10.1048
       409        2.0000           -0.3710490             -10.0968
       410        2.0000           -0.3522080              -9.5841 (HOMO)
       411        0.0000           -0.3098819              -8.4323 (LUMO)
       412                         -0.2890289              -7.8649
       413                         -0.2872967              -7.8177
       414                         -0.2871513              -7.8138
       415                         -0.2540184              -6.9122
       416                         -0.2494909              -6.7890
       417                         -0.2443729              -6.6497
       418                         -0.2428621              -6.6086
       419                         -0.2422577              -6.5922
       420                         -0.2380713              -6.4782
       421                         -0.2332274              -6.3464
       ...                                ...                  ...
       717                          0.6404702              17.4281
      -------------------------------------------------------------
                  HL-Gap            0.0423261 Eh            1.1518 eV
             Fermi-level           -0.3310449 Eh           -9.0082 eV

   #   Z        covCN         q      C6AA      α(0)
   1   7 N      2.635    -0.391    30.136     8.153
   2   6 C      3.788     0.025    20.173     6.397
   3   6 C      2.757     0.261    22.600     7.785
   4   8 O      0.858    -0.497    23.714     6.529
   5   6 C      3.809    -0.062    21.688     6.629
   6   6 C      3.808    -0.099    22.385     6.735
   7   6 C      2.746     0.292    22.052     7.689
   8   8 O      0.859    -0.514    24.106     6.583
   9   7 N      2.639    -0.294    27.572     7.799
  10   1 H      0.860     0.175     1.241     1.745
  11   1 H      0.923     0.050     2.320     2.382
  12   1 H      0.924     0.056     2.241     2.341
  13   1 H      0.924     0.039     2.461     2.453
  14   1 H      0.924     0.073     2.052     2.240
  15   1 H      0.925     0.073     2.057     2.243
  16   1 H      0.860     0.237     0.937     1.516
  17   1 H      0.860     0.225     0.987     1.556
  18   7 N      2.688    -0.159    24.432     7.341
  19   6 C      3.790     0.009    20.436     6.438
  20   6 C      2.764     0.209    23.576     7.952
  21   8 O      0.856    -0.351    20.728     6.104
  22   6 C      3.678     0.077    19.500     6.326
  23   8 O      1.654    -0.462    22.093     6.345
  24   1 H      0.860     0.229     0.970     1.543
  25   1 H      0.923     0.079     1.987     2.204
  26   1 H      0.924     0.067     2.116     2.275
  27   1 H      0.923     0.047     2.354     2.399
  28   1 H      0.802     0.355     0.578     1.194
  29   7 N      2.635    -0.388    30.041     8.140
  30   6 C      3.790     0.036    19.976     6.365
  31   6 C      2.755     0.269    22.455     7.760
  32   8 O      0.858    -0.489    23.534     6.504
  33   6 C      3.811    -0.109    22.567     6.762
  34   6 C      2.746     0.293    22.030     7.685
  35   8 O      0.858    -0.504    23.870     6.550
  36   7 N      2.639    -0.296    27.622     7.806
  37   1 H      0.860     0.172     1.263     1.761
  38   1 H      0.924     0.054     2.268     2.355
  39   1 H      0.925     0.067     2.119     2.277
  40   1 H      0.925     0.065     2.142     2.289
  41   1 H      0.860     0.225     0.987     1.556
  42   1 H      0.860     0.228     0.972     1.544
  43   7 N      2.690    -0.173    24.748     7.388
  44   6 C      3.792     0.015    20.340     6.423
  45   6 C      2.758     0.273    22.384     7.748
  46   8 O      0.859    -0.481    23.358     6.480
  47   6 C      3.682     0.073    19.559     6.333
  48   8 O      1.656    -0.475    22.365     6.384
  49   1 H      0.860     0.243     0.909     1.493
  50   1 H      0.923     0.085     1.928     2.172
  51   1 H      0.923     0.050     2.325     2.384
  52   1 H      0.924     0.055     2.253     2.347
  53   1 H      0.805     0.363     0.558     1.174
  54   7 N      2.689    -0.173    24.739     7.387
  55   6 C      3.798     0.015    20.327     6.420
  56   6 C      2.755     0.277    22.319     7.736
  57   8 O      0.858    -0.506    23.925     6.558
  58   6 C      3.728     0.114    18.811     6.192
  59   8 O      1.655    -0.488    22.630     6.422
  60   6 C      3.753    -0.145    23.349     6.891
  61   1 H      0.860     0.219     1.013     1.576
  62   1 H      0.924     0.086     1.920     2.167
  63   1 H      0.923     0.028     2.614     2.529
  64   1 H      0.805     0.348     0.592     1.209
  65   1 H      0.925     0.076     2.025     2.225
  66   1 H      0.925     0.064     2.151     2.293
  67   1 H      0.925     0.074     2.038     2.233
  68   7 N      2.688    -0.186    25.039     7.432
  69   6 C      3.797     0.042    19.878     6.348
  70   6 C      2.762     0.279    22.276     7.729
  71   8 O      0.858    -0.491    23.579     6.510
  72   6 C      3.814    -0.093    22.268     6.716
  73   6 C      2.743     0.291    22.066     7.691
  74   8 O      0.859    -0.520    24.230     6.600
  75   7 N      2.639    -0.281    27.250     7.753
  76   1 H      0.860     0.229     0.969     1.542
  77   1 H      0.924     0.052     2.291     2.367
  78   1 H      0.925     0.083     1.945     2.181
  79   1 H      0.924     0.055     2.261     2.351
  80   1 H      0.860     0.219     1.016     1.579
  81   1 H      0.860     0.250     0.885     1.474
  82   7 N      2.689    -0.186    25.028     7.430
  83   6 C      3.795     0.011    20.395     6.431
  84   6 C      2.763     0.273    22.391     7.749
  85   8 O      0.859    -0.492    23.614     6.515
  86   6 C      3.675     0.066    19.701     6.360
  87   8 O      1.655    -0.457    21.991     6.331
  88   1 H      0.859     0.224     0.990     1.558
  89   1 H      0.923     0.096     1.822     2.111
  90   1 H      0.923     0.063     2.160     2.299
  91   1 H      0.924     0.082     1.963     2.191
  92   1 H      0.805     0.311     0.688     1.303
  93   7 N      2.688    -0.190    25.116     7.443
  94   6 C      3.807     0.027    20.109     6.384
  95   6 C      2.752     0.285    22.179     7.712
  96   8 O      0.858    -0.487    23.507     6.500
  97   6 C      3.806    -0.067    21.786     6.645
  98   6 C      3.810    -0.096    22.321     6.725
  99   6 C      2.744     0.295    22.000     7.680
 100   8 O      0.859    -0.495    23.671     6.523
 101   7 N      2.639    -0.279    27.209     7.747
 102   1 H      0.860     0.228     0.976     1.547
 103   1 H      0.923     0.075     2.036     2.232
 104   1 H      0.924     0.071     2.070     2.250
 105   1 H      0.924     0.065     2.142     2.289
 106   1 H      0.925     0.060     2.198     2.319
 107   1 H      0.924     0.076     2.023     2.224
 108   1 H      0.860     0.213     1.044     1.601
 109   1 H      0.860     0.238     0.930     1.511
 110   7 N      2.692    -0.178    24.848     7.403
 111   6 C      3.793     0.021    20.232     6.405
 112   6 C      2.757     0.280    22.253     7.725
 113   8 O      0.859    -0.501    23.813     6.543
 114   6 C      3.680     0.064    19.710     6.359
 115   8 O      1.655    -0.484    22.557     6.411
 116   1 H      0.860     0.226     0.984     1.554
 117   1 H      0.923     0.087     1.909     2.160
 118   1 H      0.924     0.053     2.283     2.363
 119   1 H      0.924     0.078     2.002     2.212
 120   1 H      0.805     0.363     0.558     1.173
 121   7 N      2.692    -0.175    24.779     7.393
 122   6 C      3.801     0.047    19.789     6.333
 123   6 C      2.764     0.280    22.258     7.726
 124   8 O      0.859    -0.508    23.969     6.564
 125   6 C      3.806    -0.103    22.464     6.747
 126   6 C      2.683     0.374    20.668     7.440
 127   8 O      0.856    -0.617    26.545     6.908
 128   8 O      0.856    -0.610    26.374     6.885
 129   1 H      0.860     0.207     1.069     1.619
 130   1 H      0.923     0.056     2.241     2.341
 131   1 H      0.925     0.041     2.439     2.442
 132   1 H      0.924     0.048     2.341     2.393
 133   7 N      2.692    -0.187    25.049     7.433
 134   6 C      3.800     0.038    19.932     6.357
 135   6 C      2.761     0.279    22.287     7.731
 136   8 O      0.859    -0.497    23.727     6.531
 137   6 C      3.811    -0.068    21.793     6.645
 138   6 C      3.849    -0.003    20.593     6.455
 139   6 C      3.758    -0.113    22.717     6.795
 140   6 C      3.756    -0.115    22.762     6.802
 141   1 H      0.860     0.216     1.029     1.589
 142   1 H      0.924     0.067     2.119     2.276
 143   1 H      0.924     0.037     2.495     2.470
 144   1 H      0.924     0.068     2.103     2.268
 145   1 H      0.924     0.016     2.794     2.614
 146   1 H      0.925     0.052     2.294     2.368
 147   1 H      0.925     0.024     2.669     2.555
 148   1 H      0.925     0.063     2.159     2.298
 149   1 H      0.925     0.057     2.232     2.336
 150   1 H      0.925     0.059     2.211     2.325
 151   1 H      0.925     0.019     2.749     2.593
 152   7 N      2.691    -0.193    25.184     7.453
 153   6 C      3.801     0.050    19.745     6.326
 154   6 C      2.761     0.279    22.282     7.730
 155   8 O      0.859    -0.497    23.707     6.528
 156   6 C      3.803    -0.105    22.494     6.752
 157   6 C      2.682     0.376    20.625     7.432
 158   8 O      0.856    -0.607    26.286     6.874
 159   8 O      0.856    -0.610    26.374     6.885
 160   1 H      0.860     0.217     1.021     1.583
 161   1 H      0.923     0.055     2.264     2.353
 162   1 H      0.925     0.039     2.459     2.452
 163   1 H      0.924     0.038     2.478     2.462
 164   7 N      2.692    -0.191    25.137     7.446
 165   6 C      3.797     0.027    20.122     6.387
 166   6 C      2.761     0.288    22.118     7.702
 167   8 O      0.859    -0.488    23.530     6.504
 168   6 C      3.678     0.077    19.502     6.326
 169   8 O      1.656    -0.479    22.445     6.396
 170   1 H      0.860     0.207     1.069     1.619
 171   1 H      0.923     0.076     2.022     2.224
 172   1 H      0.923     0.037     2.491     2.468
 173   1 H      0.924     0.038     2.469     2.457
 174   1 H      0.805     0.362     0.560     1.176
 175   7 N      2.692    -0.185    25.017     7.429
 176   6 C      3.807     0.025    20.155     6.391
 177   6 C      2.757     0.290    22.075     7.694
 178   8 O      0.858    -0.489    23.542     6.505
 179   6 C      3.852    -0.021    20.913     6.504
 180   6 C      3.803    -0.062    21.684     6.629
 181   6 C      3.756    -0.120    22.858     6.817
 182   6 C      3.751    -0.104    22.551     6.772
 183   1 H      0.860     0.210     1.054     1.609
 184   1 H      0.923     0.066     2.126     2.280
 185   1 H      0.924     0.040     2.455     2.450
 186   1 H      0.924     0.046     2.376     2.411
 187   1 H      0.924     0.027     2.635     2.538
 188   1 H      0.925     0.064     2.150     2.293
 189   1 H      0.925     0.044     2.394     2.420
 190   1 H      0.925     0.062     2.173     2.305
 191   1 H      0.925     0.036     2.506     2.476
 192   1 H      0.925     0.029     2.599     2.521
 193   1 H      0.925     0.055     2.260     2.351
 194   7 N      2.692    -0.185    25.019     7.429
 195   6 C      3.794     0.043    19.867     6.347
 196   6 C      2.768     0.212    23.512     7.941
 197   8 O      0.856    -0.359    20.889     6.128
 198   6 C      3.809    -0.056    21.566     6.610
 199   6 C      3.806    -0.097    22.341     6.729
 200   6 C      2.744     0.289    22.107     7.699
 201   8 O      0.859    -0.498    23.747     6.534
 202   7 N      2.637    -0.280    27.230     7.750
 203   1 H      0.860     0.215     1.033     1.592
 204   1 H      0.923     0.080     1.975     2.197
 205   1 H      0.924     0.066     2.134     2.284
 206   1 H      0.924     0.052     2.298     2.371
 207   1 H      0.924     0.083     1.945     2.181
 208   1 H      0.925     0.056     2.247     2.344
 209   1 H      0.860     0.230     0.967     1.540
 210   1 H      0.860     0.249     0.889     1.477
 211   7 N      2.633    -0.403    30.456     8.196
 212   6 C      3.788     0.025    20.169     6.396
 213   6 C      2.754     0.271    22.417     7.753
 214   8 O      0.859    -0.506    23.909     6.556
 215   6 C      3.851    -0.015    20.800     6.487
 216   6 C      3.756    -0.120    22.847     6.815
 217   6 C      3.755    -0.103    22.526     6.767
 218   1 H      0.860     0.169     1.276     1.770
 219   1 H      0.923     0.053     2.286     2.364
 220   1 H      0.924     0.029     2.605     2.524
 221   1 H      0.925     0.057     2.230     2.335
 222   1 H      0.925     0.043     2.407     2.426
 223   1 H      0.925     0.044     2.391     2.418
 224   1 H      0.925     0.039     2.466     2.456
 225   1 H      0.925     0.043     2.404     2.425
 226   1 H      0.925     0.012     2.861     2.645
 227   7 N      2.691    -0.167    24.607     7.367
 228   6 C      3.799     0.020    20.246     6.407
 229   6 C      2.753     0.269    22.452     7.759
 230   8 O      0.858    -0.455    22.802     6.402
 231   6 C      3.809    -0.062    21.688     6.629
 232   6 C      3.809    -0.087    22.143     6.698
 233   6 C      2.746     0.290    22.080     7.694
 234   8 O      0.859    -0.511    24.025     6.572
 235   7 N      2.638    -0.304    27.822     7.834
 236   1 H      0.860     0.219     1.012     1.576
 237   1 H      0.924     0.062     2.170     2.304
 238   1 H      0.924     0.070     2.083     2.257
 239   1 H      0.924     0.050     2.315     2.379
 240   1 H      0.925     0.036     2.500     2.473
 241   1 H      0.924     0.066     2.133     2.284
 242   1 H      0.859     0.228     0.973     1.545
 243   1 H      0.860     0.220     1.008     1.573
 244   7 N      2.694    -0.172    24.718     7.384
 245   6 C      3.790     0.018    20.281     6.414
 246   6 C      2.770     0.193    23.881     8.003
 247   8 O      0.856    -0.365    20.998     6.144
 248   6 C      3.807    -0.063    21.706     6.632
 249   6 C      3.807    -0.102    22.436     6.743
 250   6 C      2.744     0.289    22.096     7.697
 251   8 O      0.859    -0.501    23.807     6.542
 252   7 N      2.639    -0.290    27.481     7.786
 253   1 H      0.860     0.195     1.130     1.665
 254   1 H      0.924     0.111     1.690     2.033
 255   1 H      0.924     0.061     2.188     2.313
 256   1 H      0.925     0.083     1.946     2.181
 257   1 H      0.925     0.090     1.877     2.142
 258   1 H      0.924     0.068     2.102     2.267
 259   1 H      0.860     0.230     0.964     1.538
 260   1 H      0.860     0.228     0.972     1.545
 261   7 N      2.637    -0.381    29.861     8.116
 262   6 C      3.785     0.042    19.885     6.352
 263   6 C      2.764     0.198    23.773     7.985
 264   8 O      0.856    -0.367    21.031     6.149
 265   6 C      3.812    -0.102    22.435     6.742
 266   6 C      2.746     0.291    22.068     7.692
 267   8 O      0.859    -0.508    23.958     6.562
 268   7 N      2.639    -0.289    27.464     7.783
 269   1 H      0.860     0.164     1.308     1.792
 270   1 H      0.923     0.082     1.961     2.190
 271   1 H      0.924     0.066     2.135     2.285
 272   1 H      0.925     0.074     2.038     2.233
 273   1 H      0.860     0.227     0.980     1.551
 274   1 H      0.860     0.237     0.937     1.516
 275   1 H      0.862     0.192     1.146     1.677
 276   1 H      0.930     0.097     1.811     2.104
 277   1 H      0.862     0.188     1.171     1.695
 278   1 H      0.930     0.065     2.137     2.286
 279   1 H      0.862     0.188     1.168     1.693
 280   1 H      0.930     0.108     1.714     2.047
 281   1 H      0.862     0.181     1.208     1.721
 282   1 H      0.930     0.087     1.912     2.162

 Mol. C6AA /au·bohr⁶  :     761271.089256
 Mol. C8AA /au·bohr⁸  :   16786227.113826
 Mol. α(0) /au        :       1294.372320


Wiberg/Mayer (AO) data.
largest (>0.10) Wiberg bond orders for each atom
          total WBO             WBO to atom ...
     1  N   2.993        C    2 1.020    H  275 0.953    H   10 0.948
     2  C   3.986        N    1 1.020    C    5 0.975    H   11 0.959    C    3 0.937
     3  C   3.938        O    4 1.587    N   18 1.323    C    2 0.937
     4  O   1.967        C    3 1.587    N   18 0.187
     5  C   3.992        C    6 0.988    H   13 0.975    C    2 0.975    H   12 0.972
     6  C   3.992        C    5 0.988    H   15 0.969    H   14 0.966    C    7 0.965
     7  C   3.938        O    8 1.648    N    9 1.300    C    6 0.965
     8  O   1.946        C    7 1.648    N    9 0.201
     9  N   3.388        C    7 1.300    H   17 0.928    H   16 0.925    O    8 0.201
    10  H   0.969        N    1 0.948
    11  H   0.997        C    2 0.959
    12  H   0.997        C    5 0.972
    13  H   0.998        C    5 0.975
    14  H   0.995        C    6 0.966
    15  H   0.995        C    6 0.969
    16  H   0.944        N    9 0.925
    17  H   0.949        N    9 0.928
    18  N   3.484        C    3 1.323    C   19 0.987    H   24 0.910    O    4 0.187
    19  C   3.970        N   18 0.987    C   20 0.973    C   22 0.949    H   25 0.937
    20  C   3.904        O   21 1.911    C   19 0.973    H  276 0.947
    21  O   2.057        C   20 1.911
    22  C   3.960        O   23 1.025    H   26 0.965    H   27 0.954    C   19 0.949
    23  O   1.951        C   22 1.025    H   28 0.858
    24  H   0.947        N   18 0.910
    25  H   0.994        C   19 0.937
    26  H   0.995        C   22 0.965
    27  H   0.998        C   22 0.954
    28  H   0.874        O   23 0.858
    29  N   3.005        C   30 1.021    H  277 0.952    H   37 0.929
    30  C   3.987        N   29 1.021    H   38 0.962    C   33 0.955    C   31 0.937
    31  C   3.936        O   32 1.592    N   43 1.315    C   30 0.937
    32  O   1.995        C   31 1.592    N   43 0.188
    33  C   3.992        H   40 0.966    H   39 0.965    C   34 0.964    C   30 0.955
    34  C   3.948        O   35 1.639    N   36 1.314    C   33 0.964
    35  O   1.941        C   34 1.639    N   36 0.201
    36  N   3.394        C   34 1.314    H   41 0.927    H   42 0.892    O   35 0.201
    37  H   0.971        N   29 0.929
    38  H   0.997        C   30 0.962
    39  H   0.996        C   33 0.965
    40  H   0.996        C   33 0.966
    41  H   0.949        N   36 0.927
    42  H   0.948        N   36 0.892
    43  N   3.471        C   31 1.315    C   44 0.987    H   49 0.903    O   32 0.188
    44  C   3.968        N   43 0.987    C   47 0.975    H   50 0.939    C   45 0.937
    45  C   3.949        O   46 1.658    N   54 1.276    C   44 0.937
    46  O   1.970        C   45 1.658    N   54 0.192
    47  C   3.959        O   48 1.009    C   44 0.975    H   52 0.967    H   51 0.966
    48  O   1.927        C   47 1.009    H   53 0.854
    49  H   0.940        N   43 0.903
    50  H   0.992        C   44 0.939
    51  H   0.998        C   47 0.966
    52  H   0.996        C   47 0.967
    53  H   0.868        O   48 0.854
    54  N   3.450        C   45 1.276    C   55 0.994    H   61 0.905    O   46 0.192
    55  C   3.969        N   54 0.994    C   58 0.958    H   62 0.948    C   56 0.929
    56  C   3.943        O   57 1.631    N   68 1.303    C   55 0.929
    57  O   1.943        C   56 1.631    N   68 0.194
    58  C   3.951        C   60 0.996    O   59 0.989    H   63 0.963    C   55 0.958
    59  O   1.934        C   58 0.989    H   64 0.863
    60  C   3.986        C   58 0.996    H   66 0.983    H   67 0.982    H   65 0.980
    61  H   0.952        N   54 0.905
    62  H   0.992        C   55 0.948
    63  H   0.999        C   58 0.963
    64  H   0.878        O   59 0.863
    65  H   0.994        C   60 0.980
    66  H   0.996        C   60 0.983
    67  H   0.994        C   60 0.982
    68  N   3.461        C   56 1.303    C   69 0.985    H   76 0.885    O   57 0.194
    69  C   3.973        N   68 0.985    C   72 0.971    H   77 0.955    C   70 0.926
    70  C   3.950        O   71 1.631    N   82 1.315    C   69 0.926
    71  O   1.944        C   70 1.631    N   82 0.200
    72  C   3.989        C   69 0.971    H   78 0.964    C   73 0.961    H   79 0.961
    73  C   3.950        O   74 1.621    N   75 1.340    C   72 0.961
    74  O   1.934        C   73 1.621    N   75 0.206
    75  N   3.412        C   73 1.340    H   80 0.928    H   81 0.872    O   74 0.206
    76  H   0.947        N   68 0.885
    77  H   0.997        C   69 0.955
    78  H   0.993        C   72 0.964
    79  H   0.996        C   72 0.961
    80  H   0.952        N   75 0.928
    81  H   0.938        N   75 0.872
    82  N   3.475        C   70 1.315    C   83 0.992    H   88 0.865    O   71 0.200
    83  C   3.967        N   82 0.992    C   86 0.962    C   84 0.943    H   89 0.932
    84  C   3.943        O   85 1.623    N   93 1.284    C   83 0.943
    85  O   1.975        C   84 1.623    N   93 0.187
    86  C   3.950        O   87 1.012    H   91 0.965    C   83 0.962    H   90 0.961
    87  O   1.961        C   86 1.012    H   92 0.876
    88  H   0.950        N   82 0.865
    89  H   0.990        C   83 0.932
    90  H   0.995        C   86 0.961
    91  H   0.993        C   86 0.965
    92  H   0.903        O   87 0.876
    93  N   3.448        C   84 1.284    C   94 0.978    H  102 0.914    O   85 0.187
    94  C   3.961        C   97 0.980    N   93 0.978    H  103 0.945    C   95 0.933
    95  C   3.941        O   96 1.624    N  110 1.297    C   94 0.933
    96  O   1.986        C   95 1.624    N  110 0.191
    97  C   3.985        C   98 0.990    C   94 0.980    H  105 0.971    H  104 0.970
    98  C   3.990        C   97 0.990    H  107 0.967    C   99 0.965    H  106 0.962
    99  C   3.949        O  100 1.643    N  101 1.318    C   98 0.965
   100  O   1.940        C   99 1.643    N  101 0.202
   101  N   3.404        C   99 1.318    H  109 0.921    H  108 0.915    O  100 0.202
   102  H   0.948        N   93 0.914
   103  H   0.994        C   94 0.945
   104  H   0.995        C   97 0.970
   105  H   0.995        C   97 0.971
   106  H   0.996        C   98 0.962
   107  H   0.994        C   98 0.967
   108  H   0.955        N  101 0.915
   109  H   0.943        N  101 0.921
   110  N   3.460        C   95 1.297    C  111 0.983    H  116 0.910    O   96 0.191
   111  C   3.967        N  110 0.983    C  114 0.977    H  117 0.948    C  112 0.934
   112  C   3.944        O  113 1.605    N  121 1.321    C  111 0.934
   113  O   1.956        C  112 1.605    N  121 0.196
   114  C   3.952        O  115 0.998    C  111 0.977    H  118 0.971    H  119 0.962
   115  O   1.940        C  114 0.998    H  120 0.853
   116  H   0.949        N  110 0.910
   117  H   0.992        C  111 0.948
   118  H   0.997        C  114 0.971
   119  H   0.993        C  114 0.962
   120  H   0.868        O  115 0.853
   121  N   3.483        C  112 1.321    C  122 0.971    H  129 0.916    O  113 0.196
   122  C   3.963        C  125 0.983    N  121 0.971    H  130 0.950    C  123 0.943
   123  C   3.949        O  124 1.586    N  133 1.324    C  122 0.943
   124  O   1.934        C  123 1.586    N  133 0.190
   125  C   3.977        C  122 0.983    H  131 0.963    H  132 0.954    C  126 0.902
   126  C   3.938        O  127 1.528    O  128 1.477    C  125 0.902
   127  O   1.827        C  126 1.528    O  128 0.214
   128  O   1.853        C  126 1.477    O  127 0.214
   129  H   0.957        N  121 0.916
   130  H   0.996        C  122 0.950
   131  H   0.998        C  125 0.963
   132  H   0.997        C  125 0.954
   133  N   3.479        C  123 1.324    C  134 0.974    H  141 0.899    O  124 0.190
   134  C   3.959        C  137 0.979    N  133 0.974    H  142 0.946    C  135 0.937
   135  C   3.945        O  136 1.594    N  152 1.325    C  134 0.937
   136  O   1.946        C  135 1.594    N  152 0.193
   137  C   3.983        C  138 0.990    C  134 0.979    H  143 0.970    H  144 0.963
   138  C   3.993        C  140 1.010    C  139 1.007    C  137 0.990    H  145 0.964
   139  C   3.993        C  138 1.007    H  147 0.986    H  146 0.985    H  148 0.982
   140  C   3.994        C  138 1.010    H  150 0.984    H  149 0.983    H  151 0.982
   141  H   0.953        N  133 0.899
   142  H   0.995        C  134 0.946
   143  H   0.999        C  137 0.970
   144  H   0.995        C  137 0.963
   145  H   1.000        C  138 0.964
   146  H   0.997        C  139 0.985
   147  H   0.999        C  139 0.986
   148  H   0.996        C  139 0.982
   149  H   0.997        C  140 0.983
   150  H   0.996        C  140 0.984
   151  H   1.000        C  140 0.982
   152  N   3.477        C  135 1.325    C  153 0.976    H  160 0.885    O  136 0.193
   153  C   3.966        C  156 0.982    N  152 0.976    H  161 0.946    C  154 0.940
   154  C   3.949        O  155 1.617    N  164 1.303    C  153 0.940
   155  O   1.934        C  154 1.617    N  164 0.192
   156  C   3.976        C  153 0.982    H  162 0.970    H  163 0.964    C  157 0.898
   157  C   3.938        O  159 1.531    O  158 1.474    C  156 0.898
   158  O   1.848        C  157 1.474    O  159 0.211
   159  O   1.833        C  157 1.531    O  158 0.211
   160  H   0.953        N  152 0.885
   161  H   0.996        C  153 0.946
   162  H   0.998        C  156 0.970
   163  H   0.998        C  156 0.964
   164  N   3.465        C  154 1.303    C  165 0.978    H  170 0.903    O  155 0.192
   165  C   3.961        C  168 0.980    N  164 0.978    H  171 0.953    C  166 0.929
   166  C   3.952        O  167 1.631    N  175 1.317    C  165 0.929
   167  O   1.955        C  166 1.631    N  175 0.201
   168  C   3.963        O  169 1.010    C  165 0.980    H  172 0.966    H  173 0.962
   169  O   1.921        C  168 1.010    H  174 0.856
   170  H   0.957        N  164 0.903
   171  H   0.994        C  165 0.953
   172  H   0.998        C  168 0.966
   173  H   0.999        C  168 0.962
   174  H   0.868        O  169 0.856
   175  N   3.475        C  166 1.317    C  176 0.971    H  183 0.900    O  167 0.201
   176  C   3.953        N  175 0.971    C  179 0.967    H  184 0.951    C  177 0.932
   177  C   3.948        O  178 1.630    N  194 1.302    C  176 0.932
   178  O   1.947        C  177 1.630    N  194 0.195
   179  C   3.985        C  181 1.007    C  180 0.994    C  176 0.967    H  185 0.963
   180  C   3.994        C  182 1.016    C  179 0.994    H  186 0.976    H  187 0.971
   181  C   3.990        C  179 1.007    H  190 0.984    H  189 0.983    H  188 0.978
   182  C   3.994        C  180 1.016    H  191 0.985    H  193 0.984    H  192 0.982
   183  H   0.956        N  175 0.900
   184  H   0.995        C  176 0.951
   185  H   0.998        C  179 0.963
   186  H   0.998        C  180 0.976
   187  H   0.999        C  180 0.971
   188  H   0.996        C  181 0.978
   189  H   0.998        C  181 0.983
   190  H   0.996        C  181 0.984
   191  H   0.998        C  182 0.985
   192  H   0.999        C  182 0.982
   193  H   0.997        C  182 0.984
   194  N   3.469        C  177 1.302    C  195 0.979    H  203 0.894    O  178 0.195
   195  C   3.967        C  196 0.982    N  194 0.979    C  198 0.964    H  204 0.947
   196  C   3.903        O  197 1.888    C  195 0.982    H  278 0.957
   197  O   2.028        C  196 1.888
   198  C   3.988        C  199 1.004    H  206 0.969    H  205 0.964    C  195 0.964
   199  C   3.993        C  198 1.004    C  200 0.972    H  208 0.969    H  207 0.944
   200  C   3.950        O  201 1.613    N  202 1.330    C  199 0.972
   201  O   1.942        C  200 1.613    N  202 0.196
   202  N   3.406        C  200 1.330    H  209 0.928    H  210 0.916    O  201 0.196
   203  H   0.954        N  194 0.894
   204  H   0.993        C  195 0.947
   205  H   0.996        C  198 0.964
   206  H   0.997        C  198 0.969
   207  H   0.993        C  199 0.944
   208  H   0.997        C  199 0.969
   209  H   0.947        N  202 0.928
   210  H   0.938        N  202 0.916
   211  N   2.997        C  212 1.025    H  279 0.948    H  218 0.931
   212  C   3.985        N  211 1.025    C  215 0.965    C  213 0.947    H  219 0.940
   213  C   3.937        O  214 1.624    N  227 1.293    C  212 0.947
   214  O   1.941        C  213 1.624    N  227 0.188
   215  C   3.994        C  217 1.010    C  216 1.009    H  220 0.965    C  212 0.965
   216  C   3.994        C  215 1.009    H  222 0.985    H  223 0.984    H  221 0.983
   217  C   3.996        C  215 1.010    H  226 0.987    H  224 0.984    H  225 0.981
   218  H   0.971        N  211 0.931
   219  H   0.997        C  212 0.940
   220  H   0.999        C  215 0.965
   221  H   0.996        C  216 0.983
   222  H   0.998        C  216 0.985
   223  H   0.998        C  216 0.984
   224  H   0.998        C  217 0.984
   225  H   0.998        C  217 0.981
   226  H   1.000        C  217 0.987
   227  N   3.470        C  213 1.293    C  228 0.997    H  236 0.916    O  214 0.188
   228  C   3.974        N  227 0.997    C  231 0.975    H  237 0.946    C  229 0.928
   229  C   3.954        O  230 1.666    N  244 1.279    C  228 0.928
   230  O   1.981        C  229 1.666    N  244 0.198
   231  C   3.991        C  232 0.989    C  228 0.975    H  239 0.973    H  238 0.971
   232  C   3.995        C  231 0.989    H  240 0.972    C  233 0.969    H  241 0.962
   233  C   3.947        O  234 1.611    N  235 1.337    C  232 0.969
   234  O   1.914        C  233 1.611    N  235 0.202
   235  N   3.406        C  233 1.337    H  243 0.928    H  242 0.867    O  234 0.202
   236  H   0.952        N  227 0.916
   237  H   0.996        C  228 0.946
   238  H   0.995        C  231 0.971
   239  H   0.997        C  231 0.973
   240  H   0.999        C  232 0.972
   241  H   0.996        C  232 0.962
   242  H   0.948        N  235 0.867
   243  H   0.951        N  235 0.928
   244  N   3.458        C  229 1.279    C  245 0.979    H  253 0.924    O  230 0.198
   245  C   3.958        C  246 0.981    N  244 0.979    C  248 0.948    H  254 0.945
   246  C   3.886        O  247 1.879    C  245 0.981    H  280 0.948
   247  O   2.052        C  246 1.879
   248  C   3.983        C  249 1.006    H  256 0.970    H  255 0.963    C  245 0.948
   249  C   3.993        C  248 1.006    C  250 0.967    H  257 0.959    H  258 0.951
   250  C   3.944        O  251 1.647    N  252 1.300    C  249 0.967
   251  O   1.949        C  250 1.647    N  252 0.196
   252  N   3.385        C  250 1.300    H  259 0.928    H  260 0.926    O  251 0.196
   253  H   0.962        N  244 0.924
   254  H   0.987        C  245 0.945
   255  H   0.996        C  248 0.963
   256  H   0.992        C  248 0.970
   257  H   0.992        C  249 0.959
   258  H   0.995        C  249 0.951
   259  H   0.947        N  252 0.928
   260  H   0.947        N  252 0.926
   261  N   3.006        C  262 1.035    H  269 0.954    H  281 0.952
   262  C   3.987        N  261 1.035    C  263 0.978    C  265 0.940    H  270 0.935
   263  C   3.896        O  264 1.899    C  262 0.978    H  282 0.951
   264  O   2.041        C  263 1.899
   265  C   3.992        H  271 0.968    H  272 0.967    C  266 0.966    C  262 0.940
   266  C   3.944        O  267 1.638    N  268 1.309    C  265 0.966
   267  O   1.946        C  266 1.638    N  268 0.201
   268  N   3.398        C  266 1.309    H  273 0.927    H  274 0.925    O  267 0.201
   269  H   0.973        N  261 0.954
   270  H   0.993        C  262 0.935
   271  H   0.996        C  265 0.968
   272  H   0.994        C  265 0.967
   273  H   0.948        N  268 0.927
   274  H   0.944        N  268 0.925
   275  H   0.963        N    1 0.953
   276  H   0.990        C   20 0.947
   277  H   0.964        N   29 0.952
   278  H   0.996        C  196 0.957
   279  H   0.965        N  211 0.948
   280  H   0.988        C  246 0.948
   281  H   0.967        N  261 0.952
   282  H   0.992        C  263 0.951
 
molecular dipole:
                 x           y           z       tot (Debye)
 q only:     -627.772    -287.613    -357.551
   full:     -627.474    -285.450    -357.642    1973.971
molecular quadrupole (traceless):
                xx          xy          yy          xz          yz          zz
 q only:  -144221.350 -135288.198   89087.375 -168285.471  -76999.601   55133.974
  q+dip:  -144288.892 -134231.864   89608.798 -168220.172  -76451.314   54680.094
   full:  -144291.318 -134233.344   89611.533 -168218.610  -76449.884   54679.784


           -------------------------------------------------
          | TOTAL ENERGY             -473.804013457919 Eh   |
          | GRADIENT NORM               0.454852107411 Eh/α |
          | HOMO-LUMO GAP               1.151751625967 eV   |
           -------------------------------------------------

------------------------------------------------------------------------
 * finished run on 2019/05/31 at 05:35:19.350     
------------------------------------------------------------------------
 total:
 * wall-time:     0 d,  0 h,  0 min,  3.706 sec
 *  cpu-time:     0 d,  0 h,  0 min,  6.634 sec
 * ratio c/w:     1.790 speedup
 SCF:
 * wall-time:     0 d,  0 h,  0 min,  3.233 sec
 *  cpu-time:     0 d,  0 h,  0 min,  6.015 sec
 * ratio c/w:     1.861 speedup

