      -----------------------------------------------------------      
     |                   =====================                   |     
     |                           x T B                           |     
     |                   =====================                   |     
     |                         S. Grimme                         |     
     |          Mulliken Center for Theoretical Chemistry        |     
     |                    University of Bonn                     |     
     |                 Version 6.0.1 (SAW181210)                 |     
      -----------------------------------------------------------      

   This program is distributed in the hope that it will be useful,
   but WITHOUT ANY WARRANTY; without even the implied warranty of
   MERCHANTABILITY or FITNESS FOR A PARTICULAR PURPOSE.
   
   FOR NON-COMMERCIAL, ACADEMIA USE ONLY.
   
   Cite this work as:
   S. Grimme, C. Bannwarth, P. Shushkov, J. Comput. Theory Chem., 2017,
   13, 1989-2009.
   C. Bannwarth, S. Ehlert and S. Grimme., ChemRxiv, 2018, preprint.
   http://doi.org/10.26434/chemrxiv.7246238.v1
   
   for sTDA-xTB:
   S. Grimme and C. Bannwarth, J. Chem. Phys., 2016, 145, 054103.
   
   in the mass-spec context:
   V. Asgeirsson, C. Bauer and S. Grimme, Chem. Sci., 2017, 8, 4879.
   
   if GBSA is used:
   P. Shushkov, F. März and S. Grimme, unpublished.
   
   for ANC optimizer:
   S. Grimme, unpublished.
   Rational Function algorithm used in ANCopt:
   F. Eckert, P. Pulay, H.-J. Werner, J. Comput. Chem., 1997, 18, 1473.
   
   with help from (in alphabetical order)
   C. Bannwarth, F. Bohle, G. Brandenburg, E. Caldeweyher, M. Checinski,
   S. Dohm, S. Ehlert, S. Ehrlich, F. März, H. Neugebauer, J. Pisarek,
   P. Pracht, P. Shushkov, and S. Spicher.
   
 * started run on 2019/03/07 at 11:37:45.868     
========================================================================
 # omp threads = 1
========================================================================
number of atoms            : 529
number of electrons        : 1460
charge                     : -3
spin                       : .0
first test random number   : .3040
           ------------------------------------------------- 
          |                 G F N 2 - x T B                 |
          | Geometry, Frequencies, Noncovalent interactions |
          |            JCTC 2018 parametrisation            |
           ------------------------------------------------- 
 
      method parameters     
 k(s)        :  1.8500
 k(p)        :  2.2300
 k(d)        :  2.2300
 k(f)        :  2.0000
 kEN (H0ij)  : -2.0000
 D4 a1       :  0.5200
 D4 a2       :  5.0000
 D4 s6       :  1.0000
 D4 s8       :  2.7000
 D4 s9       :  5.0000
 alphaj      :  2.0000

 Solvent             : h2o
 Using internal parameter file: .param_gbsa2_h2o
 Gsolv ref. state (COSMO-RS): gsolv [1 M gas/solution]
 temperature (mdtemp)       :    298.150000000000     
 dielectric constant        :    80.2000000000000     
 rho                        :    1.00000000000000     
 mass                       :    18.0000000000000     
 surface tension            :    15.5689454083859     
 probe radius               :   0.975313790000000     
 vdW radii scaling          :    1.00000000000000     
 Gshift (Eh)                :   1.857443126794793E-003
 c1                         :    1.55243817000000     
 soset                      :   0.130326360000000     
 HB correction              :  T

            Z     q(EN)     CN     RAES       Cart. coordinates
     1  N   5.0   -0.25    3.23    1.96   302.69063   134.28204   196.18946
     2  C   4.0    0.03    4.29    4.19   303.96431   133.17277   198.35508
     3  C   4.0    0.07    3.19    3.04   303.00244   134.33873   200.84196
     4  O   6.0   -0.31    1.16    1.80   302.33725   132.99135   202.61075
     5  C   4.0    0.04    4.28    4.16   306.92551   133.48457   198.15666
     6  O   6.0   -0.28    2.14    1.84   307.70408   132.75136   195.63010
     7  C   4.0   -0.08    4.19    3.98   308.28422   131.77815   199.98403
     8  H   1.0    0.09    1.08    1.44   303.65817   135.11163   195.18223
     9  H   1.0    0.06    1.12    1.45   303.57503   131.38131   198.35697
    10  H   1.0    0.03    1.10    1.44   307.34125   135.22879   198.53839
    11  H   1.0    0.13    1.07    1.44   307.20330   133.83795   194.58508
    12  H   1.0    0.04    1.06    1.44   310.09458   132.01625   199.81395
    13  H   1.0    0.05    1.06    1.44   307.77400   132.18633   201.69612
    14  H   1.0    0.06    1.06    1.44   307.86092   130.03204   199.62120
    15  N   5.0   -0.24    3.23    1.96   299.45164   130.79549   206.49980
    16  C   4.0    0.04    4.30    4.21   300.67052   131.12619   208.99802
    17  C   4.0    0.07    3.19    3.03   298.92441   132.22979   210.99168
    18  O   6.0   -0.30    1.12    1.80   298.70898   131.23202   213.04959
    19  C   4.0   -0.04    4.38    4.34   303.15173   132.62286   208.69189
    20  C   4.0    0.17    3.31    3.05   305.13594   131.19044   207.19900
    21  O   6.0   -0.30    1.24    1.80   304.79768   128.97569   206.68311
    22  N   5.0   -0.25    3.23    1.96   307.16550   132.49058   206.50358
    23  H   1.0    0.13    1.11    1.44   300.08470   131.73280   205.33195
    24  H   1.0    0.06    1.14    1.45   301.11082   129.44434   209.58195
    25  H   1.0    0.04    1.09    1.44   302.79835   134.21401   207.85285
    26  H   1.0    0.04    1.09    1.44   303.82069   133.02915   210.34917
    27  H   1.0    0.11    1.09    1.44   308.33524   131.77059   205.63431
    28  H   1.0    0.10    1.09    1.44   307.31101   134.05527   206.91932
    29  N   5.0   -0.24    3.27    1.97   296.76256   116.48649   198.46091
    30  C   4.0    0.03    4.39    4.35   299.25700   116.99293   199.51916
    31  C   4.0    0.16    3.45    3.10   301.22043   117.34820   197.45180
    32  O   6.0   -0.29    1.22    1.80   302.81347   119.04707   197.59730
    33  C   4.0   -0.04    4.33    4.26   300.11683   114.84432   201.32006
    34  C   4.0    0.25    3.16    3.03   300.25289   112.27240   199.96891
    35  O   6.0   -0.30    1.17    1.80   298.31214   110.94392   199.84041
    36  O   6.0   -0.31    1.21    1.80   302.28434   111.68847   198.99381
    37  H   1.0    0.11    1.09    1.44   296.10872   115.08431   198.95980
    38  H   1.0    0.05    1.12    1.45   299.11716   118.54818   200.47914
    39  H   1.0    0.05    1.09    1.44   301.76278   115.25439   202.01548
    40  H   1.0    0.04    1.08    1.44   298.95276   114.72904   202.73169
    41  N   5.0   -0.15    3.56    2.12   300.93319   115.87422   195.43924
    42  C   4.0    0.03    4.58    4.64   302.72654   115.97059   193.32652
    43  C   4.0    0.15    3.45    3.10   301.59648   117.09498   190.94358
    44  O   6.0   -0.30    1.27    1.80   301.87427   116.05752   188.84787
    45  C   4.0    0.06    4.39    4.37   303.78289   113.36466   192.74449
    46  O   6.0   -0.27    2.18    1.85   302.00088   111.43336   193.43424
    47  C   4.0   -0.07    4.24    4.08   306.12238   112.94892   194.26950
    48  H   1.0    0.11    1.14    1.45   299.72187   114.80841   195.25215
    49  H   1.0    0.06    1.15    1.45   304.08147   117.07797   193.87454
    50  H   1.0    0.06    1.13    1.45   304.13438   113.27584   190.94736
    51  H   1.0    0.17    1.11    1.44   301.97632   111.27462   195.01405
    52  H   1.0    0.06    1.06    1.44   306.80457   111.28785   193.90478
    53  H   1.0    0.05    1.06    1.44   307.36582   114.22637   193.84242
    54  H   1.0    0.07    1.06    1.44   305.71797   113.06419   196.05340
    55  N   5.0   -0.15    3.51    2.09   300.26234   119.18124   191.25916
    56  C   4.0    0.03    4.48    4.51   299.17007   120.55696   189.12188
    57  C   4.0    0.15    3.49    3.11   301.21287   122.39377   188.25261
    58  O   6.0   -0.30    1.25    1.80   301.82325   124.13988   189.59998
    59  C   4.0   -0.05    4.44    4.45   296.77768   122.02527   189.94769
    60  C   4.0   -0.03    4.34    4.28   296.01423   124.24003   188.22048
    61  C   4.0   -0.10    4.23    4.07   294.62150   123.31029   185.91691
    62  C   4.0   -0.10    4.23    4.06   294.41930   126.10708   189.68880
    63  H   1.0    0.10    1.14    1.45   299.95809   119.84831   192.70858
    64  H   1.0    0.05    1.12    1.45   298.66174   119.41367   187.78207
    65  H   1.0    0.04    1.09    1.44   295.37550   120.84797   190.04029
    66  H   1.0    0.05    1.10    1.44   297.04791   122.67345   191.64089
    67  H   1.0    0.05    1.14    1.45   297.53546   125.08285   187.64223
    68  H   1.0    0.04    1.06    1.44   294.16230   124.73703   184.86244
    69  H   1.0    0.04    1.06    1.44   295.70054   122.17267   184.96827
    70  H   1.0    0.03    1.06    1.44   293.10405   122.42212   186.43658
    71  H   1.0    0.03    1.06    1.44   293.94309   127.49792   188.59465
    72  H   1.0    0.03    1.06    1.44   292.90941   125.26993   190.30485
    73  H   1.0    0.04    1.06    1.44   295.38306   126.74959   191.10987
    74  N   5.0   -0.16    3.50    2.08   302.34670   121.80229   186.07942
    75  C   4.0    0.04    4.40    4.38   304.44241   123.25549   185.03063
    76  C   4.0    0.09    3.29    3.05   303.97187   123.60508   182.24328
    77  O   6.0   -0.29    1.16    1.80   303.02889   121.90811   180.98661
    78  C   4.0   -0.03    4.39    4.36   306.97842   121.89488   185.45581
    79  C   4.0    0.15    3.31    3.06   309.18940   123.23092   184.23883
    80  O   6.0   -0.29    1.22    1.80   309.29523   123.57107   181.91636
    81  N   5.0   -0.24    3.23    1.96   311.04511   123.93768   185.76006
    82  H   1.0    0.12    1.15    1.45   301.91207   120.53050   185.16669
    83  H   1.0    0.05    1.13    1.45   304.54256   124.88065   185.87344
    84  H   1.0    0.05    1.10    1.44   307.28456   121.74559   187.25672
    85  H   1.0    0.06    1.09    1.44   306.86504   120.19224   184.78874
    86  H   1.0    0.12    1.09    1.44   312.36981   124.65388   185.14779
    87  H   1.0    0.10    1.09    1.44   310.92606   123.68067   187.36066
    88  N   5.0   -0.23    3.29    1.98   339.63856   113.01695   215.88796
    89  C   4.0    0.02    4.38    4.35   340.22815   112.21949   213.33116
    90  C   4.0    0.15    3.48    3.11   341.12955   114.47015   211.87229
    91  O   6.0   -0.29    1.26    1.80   340.74216   116.59609   212.72645
    92  C   4.0   -0.08    4.25    4.10   337.93591   111.06864   212.07638
    93  H   1.0    0.11    1.08    1.44   338.53118   114.20370   215.96922
    94  H   1.0    0.03    1.13    1.45   341.53962   110.93825   213.37463
    95  H   1.0    0.05    1.06    1.44   338.36677   110.54897   210.37185
    96  H   1.0    0.04    1.06    1.44   337.38033   109.60977   213.03637
    97  H   1.0    0.05    1.06    1.44   336.58665   112.30830   212.01213
    98  N   5.0   -0.16    3.55    2.12   342.26716   113.99961   209.68966
    99  C   4.0    0.03    4.40    4.39   343.21959   115.97248   208.03048
   100  C   4.0    0.08    3.23    3.04   341.04262   116.84176   206.35996
   101  O   6.0   -0.29    1.15    1.80   339.04329   115.64178   206.29193
   102  C   4.0   -0.06    4.44    4.45   345.44001   114.91801   206.52248
   103  C   4.0   -0.03    4.33    4.25   347.59241   113.77473   208.15898
   104  C   4.0   -0.11    4.21    4.03   349.66544   112.58987   206.57161
   105  C   4.0   -0.10    4.25    4.11   348.64121   115.79863   209.85029
   106  H   1.0    0.08    1.14    1.45   342.51094   112.49728   209.12085
   107  H   1.0    0.05    1.13    1.45   343.83942   117.42568   208.96023
   108  H   1.0    0.04    1.09    1.44   344.81640   113.62544   205.38109
   109  H   1.0    0.03    1.09    1.44   346.13732   116.25783   205.48502
   110  H   1.0    0.04    1.13    1.45   346.88565   112.41980   209.17188
   111  H   1.0    0.03    1.06    1.44   350.96179   111.90390   207.67143
   112  H   1.0    0.03    1.06    1.44   348.95868   111.24250   205.54738
   113  H   1.0    0.03    1.06    1.44   350.40243   113.86355   205.47935
   114  H   1.0    0.03    1.06    1.44   349.98669   115.09943   210.88019
   115  H   1.0    0.03    1.06    1.44   349.30261   117.16868   208.82795
   116  H   1.0    0.04    1.06    1.44   347.31084   116.43735   210.93688
   117  N   5.0   -0.23    3.19    1.95   326.94716   118.97715   187.68758
   118  C   4.0    0.01    4.17    3.94   324.31099   119.59698   187.87466
   119  C   4.0    0.08    3.16    3.03   323.09211   119.98626   185.32731
   120  O   6.0   -0.29    1.16    1.80   324.39036   119.82752   183.40735
   121  H   1.0    0.10    1.08    1.44   327.28920   117.40678   187.92569
   122  H   1.0    0.04    1.09    1.44   323.43604   118.25527   188.76473
   123  H   1.0    0.04    1.09    1.44   324.11824   121.12009   188.87622
   124  N   5.0   -0.22    3.28    1.98   329.18648   127.12564   189.26739
   125  C   4.0    0.03    4.47    4.49   327.98273   126.83085   191.74293
   126  C   4.0    0.14    3.52    3.12   329.72505   125.37198   193.47014
   127  O   6.0   -0.30    1.27    1.80   330.83243   123.48603   192.66512
   128  C   4.0    0.05    4.38    4.35   325.53931   125.39654   191.47837
   129  O   6.0   -0.29    2.15    1.85   323.99729   126.60975   189.59809
   130  C   4.0   -0.08    4.20    4.01   324.09367   125.28127   193.95769
   131  H   1.0    0.10    1.08    1.44   328.47027   126.30361   188.06175
   132  H   1.0    0.04    1.13    1.45   327.64257   128.49192   192.44024
   133  H   1.0    0.05    1.12    1.45   325.93993   123.67878   190.97948
   134  H   1.0    0.14    1.09    1.44   324.77208   126.63621   188.21293
   135  H   1.0    0.05    1.05    1.44   322.53654   124.34586   193.71392
   136  H   1.0    0.05    1.06    1.44   325.11790   124.44223   195.22570
   137  H   1.0    0.05    1.06    1.44   323.70250   126.98202   194.51705
   138  N   5.0   -0.17    3.50    2.08   330.07843   126.22613   195.81529
   139  C   4.0    0.03    4.55    4.61   331.69604   124.79939   197.48392
   140  C   4.0    0.16    3.46    3.10   330.30142   122.52227   198.47414
   141  O   6.0   -0.32    1.26    1.80   328.39469   122.77361   199.78561
   142  C   4.0   -0.05    4.42    4.41   332.64468   126.49826   199.64199
   143  C   4.0   -0.04    4.32    4.23   334.14134   128.73191   198.80106
   144  C   4.0    0.24    3.16    3.03   335.28085   130.13220   201.01771
   145  O   6.0   -0.30    1.17    1.80   333.90135   130.89565   202.81106
   146  O   6.0   -0.30    1.18    1.80   337.60521   130.41755   200.99314
   147  H   1.0    0.09    1.13    1.45   329.42081   127.57351   196.44079
   148  H   1.0    0.05    1.14    1.45   333.16057   124.20224   196.55795
   149  H   1.0    0.06    1.10    1.44   331.20093   127.08596   200.60764
   150  H   1.0    0.05    1.10    1.44   333.67458   125.49103   200.77582
   151  H   1.0    0.05    1.10    1.44   335.47549   128.18389   197.67100
   152  H   1.0    0.04    1.10    1.44   333.06420   129.86764   197.84675
   153  N   5.0   -0.15    3.54    2.11   331.20282   120.29806   197.70124
   154  C   4.0    0.04    4.57    4.63   330.10867   117.90000   198.47603
   155  C   4.0    0.15    3.50    3.11   331.94170   116.72081   200.32040
   156  O   6.0   -0.30    1.26    1.80   334.21126   117.09876   200.12198
   157  C   4.0   -0.02    4.36    4.31   329.62490   116.09909   196.19513
   158  C   4.0   -0.08    4.20    4.00   327.80320   117.35765   194.29595
   159  C   4.0   -0.08    4.24    4.09   332.08154   115.32620   194.94602
   160  H   1.0    0.10    1.13    1.45   332.47838   120.14878   196.70346
   161  H   1.0    0.07    1.13    1.45   328.46839   118.18346   199.24326
   162  H   1.0    0.06    1.13    1.45   328.83499   114.56653   196.81685
   163  H   1.0    0.04    1.05    1.44   327.51218   116.22570   192.88433
   164  H   1.0    0.05    1.05    1.44   326.20827   117.72048   195.12554
   165  H   1.0    0.06    1.05    1.44   328.54208   118.92045   193.68368
   166  H   1.0    0.04    1.06    1.44   331.72627   114.20937   193.53628
   167  H   1.0    0.05    1.06    1.44   332.95459   116.81908   194.33753
   168  H   1.0    0.06    1.06    1.44   333.13979   114.45503   196.16300
   169  N   5.0   -0.16    3.58    2.14   330.88723   115.28651   202.08918
   170  C   4.0    0.04    4.62    4.68   332.35177   114.05819   204.02048
   171  C   4.0    0.14    3.54    3.13   331.45982   111.33509   204.16599
   172  O   6.0   -0.30    1.32    1.80   329.19404   110.80408   203.78427
   173  C   4.0   -0.02    4.45    4.46   331.86800   115.30163   206.57350
   174  C   4.0   -0.08    4.29    4.18   329.09010   115.11644   207.27270
   175  C   4.0   -0.08    4.27    4.14   333.52340   114.13945   208.57283
   176  H   1.0    0.13    1.17    1.46   329.28853   115.00683   202.18745
   177  H   1.0    0.06    1.13    1.45   334.13756   114.17346   203.62364
   178  H   1.0    0.06    1.13    1.45   332.29508   117.07986   206.45445
   179  H   1.0    0.04    1.06    1.44   328.81420   115.91579   208.89976
   180  H   1.0    0.06    1.06    1.44   328.08099   115.96303   205.99903
   181  H   1.0    0.06    1.07    1.44   328.59878   113.35332   207.36719
   182  H   1.0    0.04    1.06    1.44   333.19459   114.94825   210.18477
   183  H   1.0    0.05    1.07    1.44   333.15868   112.34799   208.70322
   184  H   1.0    0.07    1.06    1.44   335.28463   114.37188   208.12119
   185  N   5.0   -0.17    3.48    2.06   333.18892   109.61166   204.74047
   186  C   4.0    0.04    4.48    4.51   332.56342   106.92636   204.90676
   187  C   4.0    0.16    3.47    3.10   332.43870   106.18748   207.66954
   188  O   6.0   -0.31    1.26    1.80   334.28496   106.32165   209.01881
   189  C   4.0    0.03    4.24    4.07   334.45693   105.30498   203.44223
   190  O   6.0   -0.27    2.08    1.84   333.98072   102.67070   203.88253
   191  H   1.0    0.10    1.13    1.45   334.74794   109.95748   205.04282
   192  H   1.0    0.07    1.14    1.45   330.93070   106.62779   204.13009
   193  H   1.0    0.04    1.07    1.44   334.33409   105.66970   201.65077
   194  H   1.0    0.04    1.07    1.44   336.16524   105.72450   203.95812
   195  H   1.0    0.13    1.07    1.44   335.02762   101.79954   203.06806
   196  N   5.0   -0.15    3.52    2.09   330.17481   105.61300   208.54827
   197  C   4.0    0.03    4.46    4.48   329.82332   104.78719   211.16932
   198  C   4.0    0.07    3.25    3.04   328.76507   102.13024   211.14853
   199  O   6.0   -0.30    1.15    1.80   326.71850   101.64836   210.12052
   200  C   4.0   -0.02    4.41    4.40   328.07532   106.59944   212.67732
   201  C   4.0   -0.06    4.29    4.18   329.13546   109.31876   212.58094
   202  C   4.0   -0.09    4.24    4.08   327.73895   105.67159   215.39474
   203  C   4.0   -0.09    4.15    3.90   327.76352   111.11211   214.39508
   204  H   1.0    0.13    1.15    1.45   328.80854   105.68292   207.67143
   205  H   1.0    0.05    1.14    1.45   331.44659   104.81365   212.01969
   206  H   1.0    0.05    1.13    1.45   326.41425   106.61456   211.90253
   207  H   1.0    0.04    1.09    1.44   330.92125   109.28663   212.99668
   208  H   1.0    0.05    1.09    1.44   328.99373   109.96315   210.87074
   209  H   1.0    0.04    1.06    1.44   326.64291   106.82621   216.30370
   210  H   1.0    0.04    1.06    1.44   326.98684   103.99918   215.38152
   211  H   1.0    0.04    1.06    1.44   329.37167   105.59978   216.22433
   212  H   1.0    0.04    1.05    1.44   328.49295   112.78829   214.26658
   213  H   1.0    0.04    1.06    1.44   325.98529   111.18581   213.95477
   214  H   1.0    0.04    1.06    1.44   327.94304   110.49984   216.11284
   215  N   5.0   -0.23    3.25    1.97   327.07188    96.58389   208.37630
   216  C   4.0   -0.00    4.28    4.16   326.77519    95.64848   205.85163
   217  C   4.0    0.15    3.39    3.08   325.08956    97.33411   204.30394
   218  O   6.0   -0.30    1.22    1.80   323.90092    96.53476   202.42744
   219  H   1.0    0.11    1.09    1.44   325.69049    97.09790   209.06227
   220  H   1.0    0.04    1.09    1.44   328.41736    95.51998   205.04849
   221  H   1.0    0.04    1.09    1.44   326.07032    93.95717   205.90265
   222  N   5.0   -0.15    3.57    2.13   324.90814    99.67548   205.09763
   223  C   4.0    0.04    4.49    4.53   323.34156   101.53686   203.82017
   224  C   4.0    0.15    3.46    3.10   324.87035   103.96327   203.41388
   225  O   6.0   -0.30    1.30    1.80   326.67315   104.54531   204.72724
   226  C   4.0   -0.05    4.36    4.31   320.96239   102.09433   205.39053
   227  C   4.0   -0.05    4.30    4.20   319.09156    99.88335   205.72313
   228  C   4.0   -0.05    4.29    4.17   316.84846   100.67893   207.29727
   229  C   4.0   -0.04    4.29    4.17   315.00598    98.49252   207.58262
   230  N   5.0   -0.17    4.11    3.18   315.93572    96.23240   208.97156
   231  H   1.0    0.13    1.16    1.46   325.69049   100.24807   206.40154
   232  H   1.0    0.06    1.14    1.45   322.81810   100.87546   202.19312
   233  H   1.0    0.06    1.09    1.44   321.48963   102.65936   207.05349
   234  H   1.0    0.04    1.09    1.44   320.07044   103.49084   204.60819
   235  H   1.0    0.06    1.09    1.44   318.52087    99.30321   204.08095
   236  H   1.0    0.05    1.09    1.44   319.94005    98.46984   206.52437
   237  H   1.0    0.05    1.09    1.44   317.41349   101.23829   208.94889
   238  H   1.0    0.05    1.09    1.44   316.00753   102.10378   206.50736
   239  H   1.0    0.05    1.09    1.44   313.50931    99.11424   208.43866
   240  H   1.0    0.04    1.09    1.44   314.48441    97.96150   205.90832
   241  H   1.0    0.06    1.09    1.44   314.69417    95.10424   209.10385
   242  H   1.0    0.06    1.09    1.44   317.22641    95.55021   208.13442
   243  H   1.0    0.06    1.09    1.44   316.44406    96.68783   210.50791
   244  N   5.0   -0.17    3.52    2.09   324.15792   105.29364   201.45423
   245  C   4.0    0.05    4.55    4.60   325.46750   107.63312   200.84007
   246  C   4.0    0.17    3.47    3.10   323.65525   109.78930   201.25581
   247  O   6.0   -0.31    1.26    1.80   321.70128   110.04063   199.95379
   248  C   4.0    0.05    4.26    4.12   326.55031   107.59155   198.05651
   249  O   6.0   -0.27    2.12    1.84   327.85233   109.92536   197.52549
   250  C   4.0   -0.07    4.20    4.00   324.39414   107.26840   196.13088
   251  H   1.0    0.11    1.13    1.45   322.93905   104.89869   200.45457
   252  H   1.0    0.08    1.15    1.45   326.92448   107.84099   201.93234
   253  H   1.0    0.04    1.10    1.44   327.71249   106.18181   197.91667
   254  H   1.0    0.13    1.08    1.44   328.42492   109.88756   196.04584
   255  H   1.0    0.04    1.05    1.44   325.08767   107.24573   194.43390
   256  H   1.0    0.07    1.06    1.44   323.51730   105.69048   196.45213
   257  H   1.0    0.07    1.06    1.44   323.21684   108.66491   196.29150
   258  N   5.0   -0.14    3.58    2.14   324.09178   111.11778   203.32506
   259  C   4.0    0.03    4.51    4.55   322.56488   113.22293   204.15087
   260  C   4.0    0.15    3.45    3.09   323.72328   115.64745   203.09830
   261  O   6.0   -0.30    1.30    1.80   325.51285   115.56997   201.64510
   262  C   4.0   -0.05    4.43    4.43   322.43638   113.23427   207.03082
   263  C   4.0   -0.02    3.59    3.16   321.22884   110.92880   208.18166
   264  C   4.0   -0.05    3.51    3.12   318.67583   110.39023   207.72057
   265  C   4.0   -0.05    3.50    3.12   322.57433   109.32632   209.78415
   266  C   4.0   -0.04    3.46    3.10   317.48908   108.34366   208.85062
   267  C   4.0   -0.05    3.49    3.11   321.41026   107.28730   210.91798
   268  C   4.0    0.06    3.50    3.11   318.86669   106.80920   210.46445
   269  O   6.0   -0.28    2.13    1.84   317.72529   104.77963   211.68899
   270  H   1.0    0.11    1.17    1.46   325.33522   110.80030   204.32284
   271  H   1.0    0.05    1.13    1.45   320.84523   113.08687   203.52915
   272  H   1.0    0.04    1.10    1.44   324.13713   113.39867   207.69411
   273  H   1.0    0.04    1.10    1.44   321.50474   114.71770   207.57128
   274  H   1.0    0.07    1.10    1.44   317.75931   111.42580   206.63586
   275  H   1.0    0.05    1.10    1.44   324.27697   109.63623   210.09217
   276  H   1.0    0.07    1.09    1.44   315.79399   108.00729   208.52937
   277  H   1.0    0.06    1.10    1.44   322.32678   106.23283   211.98568
   278  H   1.0    0.14    1.10    1.44   318.79677   104.03508   212.59417
   279  N   5.0   -0.16    3.53    2.10   322.65559   117.78662   203.82206
   280  C   4.0    0.04    4.41    4.40   323.62502   120.24326   202.98680
   281  C   4.0    0.16    3.48    3.10   324.87791   121.41678   205.31872
   282  O   6.0   -0.30    1.29    1.80   324.18249   120.76294   207.44278
   283  C   4.0   -0.08    4.19    3.98   321.40081   121.92134   202.08162
   284  H   1.0    0.09    1.13    1.45   321.36113   117.87166   204.80094
   285  H   1.0    0.06    1.12    1.45   324.80610   120.08453   201.59407
   286  H   1.0    0.05    1.05    1.44   322.04521   123.54650   201.52982
   287  H   1.0    0.04    1.05    1.44   320.54287   121.09931   200.68701
   288  H   1.0    0.05    1.05    1.44   320.22162   122.17078   203.46301
   289  N   5.0   -0.17    3.50    2.08   326.65236   123.14210   204.89543
   290  C   4.0    0.03    4.46    4.48   327.99784   124.34964   206.99113
   291  C   4.0    0.17    3.51    3.12   326.07977   125.31907   208.90731
   292  O   6.0   -0.30    1.26    1.80   326.08355   124.59908   211.06538
   293  C   4.0   -0.08    4.26    4.13   329.56632   126.50014   205.98580
   294  H   1.0    0.11    1.15    1.45   327.10778   123.64288   203.41766
   295  H   1.0    0.06    1.12    1.45   329.10522   123.14021   207.81127
   296  H   1.0    0.05    1.06    1.44   330.46016   127.30517   207.36908
   297  H   1.0    0.05    1.06    1.44   330.77763   125.85764   204.76881
   298  H   1.0    0.05    1.06    1.44   328.47405   127.72658   205.17133
   299  N   5.0   -0.16    3.53    2.10   324.49051   127.04628   208.07206
   300  C   4.0    0.03    4.43    4.43   322.50252   128.26704   209.55927
   301  C   4.0    0.16    3.46    3.10   320.90381   126.45101   211.14097
   302  O   6.0   -0.30    1.26    1.80   320.97184   126.53038   213.44833
   303  C   4.0    0.01    4.25    4.10   320.75830   129.75425   207.75080
   304  O   6.0   -0.29    2.10    1.84   320.19894   128.25192   205.55305
   305  H   1.0    0.10    1.15    1.45   324.53209   127.57918   206.53760
   306  H   1.0    0.05    1.13    1.45   323.35101   129.36686   210.75547
   307  H   1.0    0.04    1.07    1.44   319.20495   130.20590   208.61063
   308  H   1.0    0.04    1.07    1.44   321.56711   131.32084   207.24813
   309  H   1.0    0.13    1.07    1.44   319.24841   129.07017   204.57984
   310  N   5.0   -0.16    3.52    2.09   319.57722   124.71057   209.90131
   311  C   4.0    0.03    4.49    4.52   318.00497   122.86431   211.14853
   312  C   4.0    0.16    3.42    3.08   319.27109   121.13143   213.10440
   313  O   6.0   -0.30    1.21    1.80   317.97285   120.04673   214.73901
   314  C   4.0   -0.06    4.39    4.36   316.67272   121.18813   209.18888
   315  C   4.0   -0.06    4.32    4.24   314.71874   122.53739   207.55994
   316  C   4.0   -0.06    4.33    4.26   312.60414   123.61453   209.16432
   317  C   4.0   -0.04    4.32    4.24   310.61803   124.86553   207.52592
   318  N   5.0   -0.17    4.17    3.36   311.66683   126.92911   206.05383
   319  H   1.0    0.10    1.14    1.45   319.57722   124.58018   208.28181
   320  H   1.0    0.06    1.14    1.45   316.84468   123.90744   212.11040
   321  H   1.0    0.05    1.09    1.44   317.94072   120.44924   208.09095
   322  H   1.0    0.05    1.10    1.44   315.85068   119.80296   210.06383
   323  H   1.0    0.04    1.09    1.44   315.52754   123.88665   206.61886
   324  H   1.0    0.04    1.09    1.44   314.02521   121.36576   206.33162
   325  H   1.0    0.04    1.09    1.44   311.83691   122.27661   210.15453
   326  H   1.0    0.04    1.09    1.44   313.28633   124.83530   210.34917
   327  H   1.0    0.05    1.09    1.44   309.88293   123.62209   206.39776
   328  H   1.0    0.05    1.09    1.44   309.26121   125.49670   208.58417
   329  H   1.0    0.07    1.09    1.44   310.41772   127.88909   205.46423
   330  H   1.0    0.06    1.10    1.44   312.67595   127.85886   207.02893
   331  H   1.0    0.06    1.10    1.44   312.55122   126.30739   204.76503
   332  N   5.0   -0.15    3.51    2.08   321.77876   120.86687   212.95889
   333  C   4.0    0.04    4.38    4.34   323.17904   119.21903   214.73712
   334  C   4.0    0.16    3.42    3.08   324.27130   120.87254   216.88007
   335  O   6.0   -0.30    1.27    1.80   324.67382   119.96547   218.99656
   336  C   4.0   -0.08    4.18    3.95   325.29176   117.74882   213.35573
   337  H   1.0    0.12    1.13    1.45   322.71039   121.61331   211.85718
   338  H   1.0    0.06    1.12    1.45   322.03765   117.97370   215.45143
   339  H   1.0    0.04    1.05    1.44   326.18182   116.68491   214.55382
   340  H   1.0    0.05    1.05    1.44   324.55287   116.70381   212.04426
   341  H   1.0    0.06    1.05    1.44   326.46906   118.93368   212.60173
   342  N   5.0   -0.14    3.49    2.07   324.55476   123.32918   216.36795
   343  C   4.0    0.05    4.38    4.35   325.59600   125.10553   218.22555
   344  C   4.0    0.10    3.29    3.05   324.31855   124.78427   220.79369
   345  O   6.0   -0.29    1.17    1.80   322.03387   125.08474   221.03180
   346  C   4.0   -0.04    4.39    4.36   325.39569   127.85508   217.31848
   347  C   4.0   -0.04    4.27    4.13   327.79564   129.10986   216.46433
   348  C   4.0    0.24    3.14    3.03   329.61356   129.73536   218.63373
   349  O   6.0   -0.29    1.19    1.80   329.82710   128.24247   220.44976
   350  O   6.0   -0.29    1.18    1.80   330.87401   131.71390   218.54681
   351  H   1.0    0.13    1.15    1.45   324.15225   124.00760   214.94688
   352  H   1.0    0.06    1.13    1.45   327.37612   124.71246   218.41075
   353  H   1.0    0.07    1.11    1.45   324.19949   127.91177   215.93143
   354  H   1.0    0.06    1.11    1.44   324.68515   128.85474   218.68098
   355  H   1.0    0.06    1.09    1.44   328.64791   128.01382   215.26813
   356  H   1.0    0.05    1.09    1.44   327.37612   130.65565   215.57238
   357  N   5.0   -0.22    3.30    1.98   321.76553   120.57396   223.61127
   358  C   4.0    0.04    4.30    4.20   319.43738   119.16423   223.66418
   359  C   4.0    0.08    3.27    3.05   319.85501   116.69247   225.08148
   360  O   6.0   -0.30    1.14    1.80   321.31010   115.08242   224.26323
   361  C   4.0   -0.03    4.39    4.37   318.58701   118.51605   220.95621
   362  C   4.0    0.05    3.77    3.30   316.60846   116.53184   220.78991
   363  N   5.0   -0.16    2.61    1.91   314.08379   117.07230   221.00156
   364  C   4.0   -0.01    3.67    3.21   316.79177   114.03173   220.38173
   365  C   4.0    0.05    3.62    3.18   312.75531   114.98227   220.72377
   366  N   5.0   -0.14    3.52    2.09   314.34079   113.08120   220.37606
   367  H   1.0    0.14    1.11    1.44   322.72929   120.25082   222.34327
   368  H   1.0    0.04    1.12    1.45   318.16560   120.18279   224.50322
   369  H   1.0    0.06    1.10    1.44   317.95962   120.04106   220.15685
   370  H   1.0    0.07    1.10    1.44   320.04966   117.96992   219.99623
   371  H   1.0    0.06    1.08    1.44   318.27331   113.11333   220.14929
   372  H   1.0    0.05    1.07    1.44   311.00354   114.86510   220.76534
   373  H   1.0    0.09    1.11    1.45   313.92694   111.52218   220.18142
   374  N   5.0   -0.25    3.23    1.96   319.02731   110.28819   226.25689
   375  C   4.0    0.03    4.30    4.21   317.98985   108.07910   225.00589
   376  C   4.0    0.06    3.20    3.04   316.87303   106.11756   226.79546
   377  O   6.0   -0.32    1.14    1.80   315.24030   104.65113   226.00744
   378  C   4.0   -0.05    4.40    4.37   319.90415   106.82999   223.21254
   379  C   4.0   -0.02    3.60    3.17   320.48240   108.37956   220.89385
   380  C   4.0   -0.04    3.52    3.12   322.45906   110.14646   220.89574
   381  C   4.0   -0.05    3.53    3.13   319.10479   108.08666   218.71121
   382  C   4.0   -0.05    3.44    3.09   322.96550   111.58076   218.77168
   383  C   4.0   -0.05    3.46    3.10   319.61502   109.47749   216.57960
   384  C   4.0   -0.05    3.45    3.10   321.56711   111.22360   216.59472
   385  H   1.0    0.11    1.09    1.44   320.62980   110.46204   226.05469
   386  H   1.0    0.05    1.14    1.45   316.59335   108.73483   224.01567
   387  H   1.0    0.04    1.10    1.44   321.46317   106.52007   224.12717
   388  H   1.0    0.05    1.10    1.44   319.25408   105.19726   222.69098
   389  H   1.0    0.06    1.10    1.44   323.43793   110.35433   222.33949
   390  H   1.0    0.06    1.10    1.44   317.79332   106.91691   218.67720
   391  H   1.0    0.06    1.10    1.44   324.24485   112.78451   218.80759
   392  H   1.0    0.06    1.10    1.44   318.65126   109.24695   215.12829
   393  H   1.0    0.05    1.10    1.44   321.93371   112.14957   215.14719
   394  N   5.0   -0.14    3.45    2.05   310.00198   105.47127   224.00433
   395  C   4.0    0.03    4.58    4.64   311.20763   103.74029   222.21476
   396  C   4.0    0.15    3.46    3.10   310.46875   104.03319   219.48789
   397  O   6.0   -0.29    1.24    1.80   311.91817   105.08577   217.95154
   398  C   4.0   -0.05    4.51    4.56   310.54055   101.10412   223.27301
   399  C   4.0   -0.05    4.47    4.49   308.08391   101.57277   224.50700
   400  C   4.0   -0.01    4.40    4.39   308.50721   104.04075   225.85816
   401  H   1.0    0.06    1.14    1.45   313.00665   104.08044   222.11839
   402  H   1.0    0.04    1.09    1.44   310.41205    99.84556   221.94642
   403  H   1.0    0.04    1.09    1.44   311.80100   100.50318   224.46165
   404  H   1.0    0.05    1.10    1.44   306.72331   101.69182   223.28624
   405  H   1.0    0.03    1.09    1.44   307.64172   100.22917   225.67107
   406  H   1.0    0.04    1.08    1.44   306.92929   104.88168   226.26067
   407  H   1.0    0.04    1.08    1.44   309.41050   103.81210   227.43608
   408  N   5.0   -0.16    3.56    2.12   308.25399   103.05054   218.83026
   409  C   4.0    0.04    4.52    4.57   307.31290   103.08833   216.27347
   410  C   4.0    0.17    3.49    3.11   307.43574   105.73017   215.14719
   411  O   6.0   -0.27    1.22    1.80   306.37749   107.55186   216.17142
   412  C   4.0   -0.04    4.37    4.33   304.61059   102.05843   216.09205
   413  C   4.0    0.25    3.19    3.03   302.93819   103.03164   218.19154
   414  O   6.0   -0.31    1.19    1.80   302.94197   101.87891   220.23811
   415  O   6.0   -0.27    1.17    1.80   301.61727   104.96105   217.80036
   416  H   1.0    0.10    1.17    1.46   307.24865   102.33433   219.88662
   417  H   1.0    0.04    1.14    1.45   308.40705   101.98473   215.30215
   418  H   1.0    0.05    1.10    1.44   303.88872   102.52708   214.47445
   419  H   1.0    0.04    1.09    1.44   304.65406   100.22728   216.14874
   420  N   5.0   -0.15    3.57    2.14   308.87760   105.89268   213.10817
   421  C   4.0    0.03    4.48    4.51   309.22342   108.18303   211.69466
   422  C   4.0    0.15    3.49    3.11   309.43696   107.31565   208.93755
   423  O   6.0   -0.30    1.28    1.80   309.74498   105.04987   208.43866
   424  C   4.0   -0.05    4.45    4.46   311.64038   109.51907   212.57905
   425  C   4.0   -0.03    4.29    4.17   311.83124   112.37066   212.04615
   426  C   4.0   -0.08    4.20    4.00   309.86781   113.89756   213.55415
   427  C   4.0   -0.08    4.22    4.04   314.47874   113.27395   212.70566
   428  H   1.0    0.11    1.16    1.46   309.69963   104.62846   212.50346
   429  H   1.0    0.05    1.12    1.45   307.85336   109.38112   211.91576
   430  H   1.0    0.06    1.10    1.44   311.80667   109.26395   214.38752
   431  H   1.0    0.05    1.10    1.44   313.07279   108.69326   211.78726
   432  H   1.0    0.05    1.12    1.45   311.48542   112.64089   210.26603
   433  H   1.0    0.04    1.05    1.44   310.04923   115.67957   213.16676
   434  H   1.0    0.05    1.05    1.44   308.18029   113.34387   213.09873
   435  H   1.0    0.05    1.05    1.44   310.13426   113.63300   215.34750
   436  H   1.0    0.05    1.06    1.44   314.61291   115.07108   212.37307
   437  H   1.0    0.05    1.06    1.44   314.80945   112.95459   214.48012
   438  H   1.0    0.05    1.06    1.44   315.70518   112.37255   211.68332
   439  N   5.0   -0.16    3.53    2.10   309.28200   109.10522   207.18010
   440  C   4.0    0.03    4.48    4.51   309.47664   108.43059   204.54394
   441  C   4.0    0.16    3.48    3.10   312.02777   109.35277   203.62553
   442  O   6.0   -0.30    1.26    1.80   313.19184   110.96849   204.83873
   443  C   4.0   -0.07    4.23    4.06   307.31101   109.63434   203.08885
   444  H   1.0    0.09    1.13    1.45   309.06846   110.68881   207.47868
   445  H   1.0    0.05    1.14    1.45   309.35570   106.62023   204.28882
   446  H   1.0    0.06    1.06    1.44   307.43951   109.18270   201.31628
   447  H   1.0    0.05    1.06    1.44   305.71419   109.03152   203.75781
   448  H   1.0    0.06    1.06    1.44   307.39605   111.45793   203.26270
   449  N   5.0   -0.16    3.52    2.09   312.87815   108.31153   201.52604
   450  C   4.0    0.04    4.52    4.56   315.28188   109.01073   200.39788
   451  C   4.0    0.16    3.49    3.11   314.91905   111.33887   198.79917
   452  O   6.0   -0.28    1.27    1.80   312.81579   112.21760   198.42878
   453  C   4.0   -0.05    4.42    4.41   316.32501   106.87345   198.73870
   454  C   4.0   -0.04    4.30    4.20   317.28499   104.64735   200.21457
   455  C   4.0    0.24    3.14    3.03   318.27331   102.51952   198.56295
   456  O   6.0   -0.30    1.19    1.80   320.13280   102.99762   197.15889
   457  O   6.0   -0.29    1.17    1.80   317.24152   100.41815   198.63665
   458  H   1.0    0.09    1.14    1.45   312.07123   107.16636   200.70212
   459  H   1.0    0.06    1.13    1.45   316.48185   109.33576   201.74525
   460  H   1.0    0.06    1.10    1.44   315.00787   106.30842   197.59730
   461  H   1.0    0.06    1.10    1.44   317.68561   107.53297   197.70313
   462  H   1.0    0.05    1.10    1.44   318.62480   105.20482   201.33518
   463  H   1.0    0.05    1.10    1.44   315.93383   104.00485   201.27282
   464  N   5.0   -0.16    3.52    2.09   317.00531   112.36688   197.85242
   465  C   4.0    0.04    4.45    4.47   316.95240   114.57597   196.26694
   466  C   4.0    0.16    3.46    3.10   315.56912   114.10354   193.76494
   467  O   6.0   -0.28    1.23    1.80   315.80911   112.08532   192.60465
   468  C   4.0   -0.08    4.24    4.07   319.62447   115.48115   195.77372
   469  H   1.0    0.11    1.16    1.45   318.49819   111.78296   198.12454
   470  H   1.0    0.05    1.14    1.45   316.01698   115.87422   197.15889
   471  H   1.0    0.05    1.06    1.44   319.57911   116.97026   194.70413
   472  H   1.0    0.05    1.06    1.44   320.43327   115.89689   197.36487
   473  H   1.0    0.06    1.06    1.44   320.57500   114.15645   194.93468
   474  N   5.0   -0.15    3.48    2.06   314.25765   116.03295   192.87299
   475  C   4.0    0.03    4.39    4.36   312.83468   115.89500   190.48249
   476  C   4.0    0.16    3.46    3.10   314.80756   115.54918   188.36410
   477  O   6.0   -0.29    1.24    1.80   316.72185   116.87199   188.26017
   478  C   4.0   -0.08    4.19    3.98   311.33235   118.37054   190.06108
   479  H   1.0    0.09    1.13    1.45   314.15371   117.47103   193.62321
   480  H   1.0    0.05    1.11    1.45   311.63282   114.50983   190.50516
   481  H   1.0    0.05    1.05    1.44   310.40260   118.26094   188.48505
   482  H   1.0    0.05    1.05    1.44   310.15694   118.61621   191.44625
   483  H   1.0    0.05    1.05    1.44   312.49453   119.78595   189.98738
   484  N   5.0   -0.16    3.46    2.05   314.27276   113.82764   186.62933
   485  C   4.0    0.04    4.36    4.31   315.96029   113.32875   184.49583
   486  C   4.0    0.07    3.22    3.04   314.90960   114.10543   181.94281
   487  O   6.0   -0.28    1.12    1.80   316.10769   115.53973   180.57465
   488  C   4.0   -0.09    4.23    4.06   316.71996   110.59621   184.45426
   489  H   1.0    0.09    1.13    1.45   312.92917   112.91302   186.64634
   490  H   1.0    0.07    1.15    1.45   317.42861   114.39078   184.77173
   491  H   1.0    0.04    1.06    1.44   317.83679   110.29386   183.03319
   492  H   1.0    0.05    1.06    1.44   317.58923   110.17858   186.01328
   493  H   1.0    0.04    1.06    1.44   315.22519   109.54741   184.28985
   494  N   5.0   -0.21    3.28    1.98   301.92907   116.71703   178.83799
   495  C   4.0    0.03    4.37    4.33   299.72187   115.32242   179.61845
   496  C   4.0    0.06    3.25    3.04   297.95498   115.13722   177.35267
   497  O   6.0   -0.30    1.12    1.80   297.24255   117.06474   176.19805
   498  C   4.0    0.05    4.37    4.32   298.38962   116.61310   181.81431
   499  O   6.0   -0.28    2.18    1.85   300.10927   117.04774   183.86089
   500  C   4.0   -0.10    4.24    4.08   296.29958   114.94447   182.81209
   501  H   1.0    0.14    1.10    1.44   301.97443   118.24582   179.38602
   502  H   1.0    0.03    1.13    1.45   300.21887   113.65379   180.19482
   503  H   1.0    0.05    1.11    1.45   297.72254   118.20236   181.19259
   504  H   1.0    0.15    1.10    1.44   299.70676   116.13311   185.09488
   505  H   1.0    0.04    1.06    1.44   295.46243   115.78351   184.21049
   506  H   1.0    0.04    1.06    1.44   295.08449   114.62133   181.47794
   507  H   1.0    0.04    1.06    1.44   297.00823   113.35521   183.39034
   508  H   1.0    0.10    1.08    1.44   301.96282   133.05205   195.26752
   509  H   1.0    0.04    1.04    1.43   302.91312   136.21669   201.03264
   510  H   1.0    0.11    1.07    1.44   299.61891   129.17973   205.99593
   511  H   1.0    0.04    1.05    1.44   297.93479   133.79585   210.61862
   512  H   1.0    0.09    1.08    1.44   295.69207   117.72920   198.91066
   513  H   1.0    0.06    1.05    1.44   304.43116   125.23506   181.40465
   514  H   1.0    0.08    1.08    1.44   339.02562   111.69654   216.76739
   515  H   1.0    0.05    1.04    1.43   341.22498   118.39848   205.30430
   516  H   1.0    0.12    1.10    1.44   327.51542   119.37627   186.13505
   517  H   1.0    0.06    1.04    1.43   321.24520   120.36930   185.21221
   518  H   1.0    0.09    1.08    1.44   329.17061   128.76647   188.82018
   519  H   1.0    0.04    1.04    1.44   329.72180   100.72564   211.97486
   520  H   1.0    0.08    1.08    1.44   327.69330    95.35082   209.36924
   521  H   1.0    0.06    1.04    1.44   325.34780   124.32273   222.30983
   522  H   1.0    0.12    1.11    1.45   321.42024   122.23825   223.55221
   523  H   1.0    0.04    1.04    1.44   318.93765   116.36521   226.70086
   524  H   1.0    0.11    1.08    1.44   318.28551   111.68964   225.64190
   525  H   1.0    0.04    1.04    1.43   317.46460   106.02859   228.58800
   526  H   1.0    0.10    1.12    1.45   311.19364   106.39504   224.79122
   527  H   1.0    0.05    1.04    1.44   313.23338   113.44655   181.37080
   528  H   1.0    0.10    1.08    1.44   303.32643   115.93712   179.41393
   529  H   1.0    0.04    1.04    1.43   297.34480   113.44771   176.76591

  Z AO/shell   Hii/eV     exponent
  1     Wed Apr 25 08:07:45 CEST 2018   EN: 2.200 GM2: 0.406  GM3: 0.0800  RAES: 1.40
     1s    -10.707211    1.230000
  6     Wed Apr 25 08:07:45 CEST 2018   EN: 2.550 GM2: 0.538  GM3: 0.1500  RAES: 3.00
     2s    -13.970922    2.096432
     2p    -10.063292    1.800000
  7     Wed Apr 25 08:07:45 CEST 2018   EN: 3.040 GM2: 0.461  GM3:-0.0640  RAES: 1.90
     2s    -16.686243    2.339881
     2p    -12.523956    2.014332
  8     Wed Apr 25 08:07:45 CEST 2018   EN: 3.440 GM2: 0.452  GM3:-0.0517  RAES: 1.80
     2s    -20.229985    2.439742
     2p    -15.503117    2.137023
 no old-style atom pair restraining (fixing) potential

molecular fragmentation (1/2 indicates fragments):
111111111111112222222222222222222222222222222222222222222222222222222222
222222222222222222222222222222222222222222222222222222222222222222222222
222222222222222222222222222222222222222222222222222222222222222222222222
222222222222222222222222222222222222222222222222222222222222222222222222
222222222222222222222222222222222222222222222222222222222222222222222222
222222222222222222222222222222222222222222222222222222222222222222222222
222222222222222222222222222222222222222222222222222222222222222222222222
2221122222222222222222222
# atoms in fragment 1/2:    16   513
 fragment masses (1/2) :      103.12     3576.03
CMA distance (Bohr)    :  23.401
constraining FC (au)   :  0.0500
           ------------------------------------------------- 
          |        Self-Consistent Charge Iterations        |
           ------------------------------------------------- 

 Ncao       : 1303
 Nao        : 1303
 Nshell     : 787
 Nel        : 1460
 T(el)      :   500.0
 intcut     :    35.0
 scfconv/Eh :  0.100E-06
   qconv/e  :  0.100E-04
 intneglect :  0.100E-08
 broydamp   :      0.400
 iter      E             dE          RMSdq      gap      omega  full diag
   1   -843.6069516 -0.843607E+03  0.478E+00    3.25       0.0  T
   2   -845.9181477 -0.231120E+01  0.221E+00    1.48       1.0  T
   3   -846.0522795 -0.134132E+00  0.130E+00    1.58       1.0  T
   4   -846.1761521 -0.123873E+00  0.258E-01    1.01       1.0  T
   5   -846.1862620 -0.101099E-01  0.122E-01    1.15       1.0  T
   6   -846.1873670 -0.110502E-02  0.538E-02    1.16       1.0  T
   7   -846.1876689 -0.301908E-03  0.197E-02    1.16       1.0  T
   8   -846.1877030 -0.340996E-04  0.984E-03    1.16       1.0  T
   9   -846.1877162 -0.131936E-04  0.425E-03    1.16       1.0  T
  10   -846.1877186 -0.243210E-05  0.176E-03    1.16       2.5  T
  11   -846.1877190 -0.318332E-06  0.719E-04    1.16       6.0  T
  12   -846.1877190 -0.463848E-07  0.345E-04    1.16      12.6  T
  13   -846.1877190 -0.145635E-07  0.155E-04    1.16      28.1  T
  14   -846.1877190 -0.241153E-08  0.715E-05    1.16      60.8  T
  15   -846.1877190 -0.502837E-09  0.309E-05    1.16     140.7  T
speedup  1.00
cpu  time for SCC   12.09 s
wall time for SCC   12.09 s

   *** convergence criteria satisfied after 15 iterations ***

          eigenvalues
 #    :         718        719        720        721        722        723        724        725
 occ. :        2.000      2.000      2.000      2.000      2.000      2.000      2.000      2.000
 eps  :        -9.916     -9.828     -9.809     -9.795     -9.791     -9.789     -9.767     -9.716
 #    :         726        727        728        729        730        731        732        733
 occ. :        2.000      2.000      2.000      2.000      2.000      0.000      0.000      0.000
 eps  :        -9.707     -9.684     -9.590     -9.577     -9.300     -8.138     -7.994     -7.993
 #    :         734        735        736        737        738        739        740        741
 occ. :        0.000      0.000      0.000      0.000      0.000      0.000      0.000      0.000
 eps  :        -7.980     -7.977     -7.857     -7.770     -7.705     -7.668     -7.513     -7.500


   #   Z            q   n(s)   n(p)   n(d)      C6AA      α(0)
   1   7 N     -0.413  1.279  4.134  0.000    30.741     8.234
   2   6 C      0.009  1.046  2.945  0.000    20.452     6.442
   3   6 C      0.189  1.097  2.714  0.000    23.962     8.016
   4   8 O     -0.371  1.757  4.614  0.000    21.120     6.162
   5   6 C      0.098  1.034  2.868  0.000    19.060     6.235
   6   8 O     -0.495  1.694  4.801  0.000    22.780     6.443
   7   6 C     -0.174  0.980  3.194  0.000    23.930     6.972
   8   1 H      0.190  0.810  0.000  0.000     1.157     1.685
   9   1 H      0.078  0.922  0.000  0.000     2.000     2.211
  10   1 H      0.055  0.945  0.000  0.000     2.254     2.348
  11   1 H      0.325  0.675  0.000  0.000     0.651     1.267
  12   1 H      0.094  0.906  0.000  0.000     1.839     2.121
  13   1 H      0.069  0.931  0.000  0.000     2.101     2.266
  14   1 H      0.083  0.917  0.000  0.000     1.951     2.184
  15   7 N     -0.421  1.286  4.134  0.000    30.959     8.264
  16   6 C      0.027  1.033  2.940  0.000    20.134     6.391
  17   6 C      0.201  1.087  2.712  0.000    23.715     7.975
  18   8 O     -0.377  1.760  4.617  0.000    21.224     6.177
  19   6 C     -0.127  1.017  3.110  0.000    22.915     6.813
  20   6 C      0.288  1.032  2.681  0.000    22.126     7.702
  21   8 O     -0.482  1.745  4.738  0.000    23.397     6.485
  22   7 N     -0.302  1.190  4.112  0.000    27.780     7.828
  23   1 H      0.203  0.797  0.000  0.000     1.090     1.635
  24   1 H      0.081  0.919  0.000  0.000     1.965     2.192
  25   1 H      0.093  0.907  0.000  0.000     1.847     2.125
  26   1 H      0.089  0.911  0.000  0.000     1.888     2.149
  27   1 H      0.233  0.767  0.000  0.000     0.952     1.528
  28   1 H      0.236  0.764  0.000  0.000     0.940     1.518
  29   7 N     -0.433  1.285  4.148  0.000    31.312     8.311
  30   6 C      0.032  1.036  2.932  0.000    20.037     6.375
  31   6 C      0.270  1.048  2.682  0.000    22.439     7.757
  32   8 O     -0.503  1.743  4.760  0.000    23.862     6.549
  33   6 C     -0.117  1.019  3.098  0.000    22.734     6.787
  34   6 C      0.371  1.020  2.610  0.000    20.717     7.449
  35   8 O     -0.662  1.777  4.885  0.000    27.685     7.054
  36   8 O     -0.639  1.761  4.878  0.000    27.092     6.979
  37   1 H      0.177  0.823  0.000  0.000     1.232     1.739
  38   1 H      0.062  0.938  0.000  0.000     2.177     2.307
  39   1 H      0.039  0.961  0.000  0.000     2.456     2.451
  40   1 H      0.040  0.960  0.000  0.000     2.442     2.444
  41   7 N     -0.178  1.206  3.972  0.000    24.859     7.405
  42   6 C     -0.003  1.042  2.961  0.000    20.617     6.463
  43   6 C      0.257  1.045  2.698  0.000    22.676     7.798
  44   8 O     -0.489  1.749  4.740  0.000    23.540     6.505
  45   6 C      0.107  1.021  2.872  0.000    18.900     6.204
  46   8 O     -0.498  1.676  4.822  0.000    22.841     6.452
  47   6 C     -0.160  0.979  3.181  0.000    23.636     6.927
  48   1 H      0.208  0.792  0.000  0.000     1.065     1.617
  49   1 H      0.104  0.896  0.000  0.000     1.752     2.070
  50   1 H      0.091  0.909  0.000  0.000     1.865     2.135
  51   1 H      0.313  0.687  0.000  0.000     0.682     1.297
  52   1 H      0.067  0.933  0.000  0.000     2.114     2.274
  53   1 H      0.066  0.934  0.000  0.000     2.129     2.282
  54   1 H      0.064  0.936  0.000  0.000     2.153     2.294
  55   7 N     -0.169  1.206  3.962  0.000    24.645     7.373
  56   6 C      0.003  1.043  2.954  0.000    20.531     6.451
  57   6 C      0.275  1.038  2.687  0.000    22.345     7.741
  58   8 O     -0.466  1.735  4.732  0.000    23.045     6.436
  59   6 C     -0.103  1.017  3.086  0.000    22.455     6.744
  60   6 C     -0.024  1.029  2.995  0.000    20.958     6.511
  61   6 C     -0.156  0.977  3.179  0.000    23.551     6.915
  62   6 C     -0.155  0.979  3.176  0.000    23.528     6.911
  63   1 H      0.213  0.787  0.000  0.000     1.042     1.599
  64   1 H      0.090  0.910  0.000  0.000     1.879     2.143
  65   1 H      0.071  0.929  0.000  0.000     2.074     2.252
  66   1 H      0.070  0.930  0.000  0.000     2.089     2.260
  67   1 H      0.049  0.951  0.000  0.000     2.331     2.388
  68   1 H      0.062  0.938  0.000  0.000     2.170     2.304
  69   1 H      0.046  0.954  0.000  0.000     2.374     2.409
  70   1 H      0.060  0.940  0.000  0.000     2.198     2.318
  71   1 H      0.064  0.936  0.000  0.000     2.146     2.291
  72   1 H      0.059  0.941  0.000  0.000     2.210     2.324
  73   1 H      0.055  0.945  0.000  0.000     2.257     2.349
  74   7 N     -0.180  1.208  3.972  0.000    24.894     7.410
  75   6 C      0.023  1.031  2.945  0.000    20.185     6.397
  76   6 C      0.206  1.080  2.715  0.000    23.635     7.962
  77   8 O     -0.351  1.751  4.600  0.000    20.730     6.104
  78   6 C     -0.122  1.017  3.105  0.000    22.821     6.798
  79   6 C      0.279  1.035  2.686  0.000    22.274     7.728
  80   8 O     -0.509  1.766  4.743  0.000    23.993     6.567
  81   7 N     -0.285  1.196  4.088  0.000    27.354     7.768
  82   1 H      0.228  0.772  0.000  0.000     0.973     1.545
  83   1 H      0.109  0.891  0.000  0.000     1.703     2.041
  84   1 H      0.094  0.906  0.000  0.000     1.836     2.119
  85   1 H      0.103  0.897  0.000  0.000     1.760     2.075
  86   1 H      0.249  0.751  0.000  0.000     0.885     1.474
  87   1 H      0.241  0.759  0.000  0.000     0.919     1.501
  88   7 N     -0.419  1.286  4.132  0.000    30.894     8.255
  89   6 C      0.024  1.026  2.950  0.000    20.170     6.395
  90   6 C      0.273  1.039  2.688  0.000    22.386     7.748
  91   8 O     -0.517  1.761  4.756  0.000    24.168     6.591
  92   6 C     -0.155  0.980  3.175  0.000    23.523     6.910
  93   1 H      0.175  0.825  0.000  0.000     1.240     1.744
  94   1 H      0.069  0.931  0.000  0.000     2.095     2.263
  95   1 H      0.060  0.940  0.000  0.000     2.195     2.317
  96   1 H      0.075  0.925  0.000  0.000     2.035     2.231
  97   1 H      0.053  0.947  0.000  0.000     2.280     2.361
  98   7 N     -0.181  1.199  3.982  0.000    24.915     7.413
  99   6 C      0.019  1.036  2.945  0.000    20.258     6.409
 100   6 C      0.194  1.088  2.718  0.000    23.850     7.998
 101   8 O     -0.377  1.759  4.618  0.000    21.235     6.178
 102   6 C     -0.102  1.016  3.086  0.000    22.439     6.741
 103   6 C     -0.028  1.033  2.995  0.000    21.027     6.522
 104   6 C     -0.156  0.979  3.177  0.000    23.554     6.916
 105   6 C     -0.155  0.975  3.180  0.000    23.533     6.912
 106   1 H      0.220  0.780  0.000  0.000     1.008     1.572
 107   1 H      0.105  0.895  0.000  0.000     1.737     2.061
 108   1 H      0.071  0.929  0.000  0.000     2.074     2.252
 109   1 H      0.080  0.920  0.000  0.000     1.982     2.201
 110   1 H      0.056  0.944  0.000  0.000     2.240     2.340
 111   1 H      0.068  0.932  0.000  0.000     2.103     2.267
 112   1 H      0.058  0.942  0.000  0.000     2.219     2.329
 113   1 H      0.061  0.939  0.000  0.000     2.192     2.315
 114   1 H      0.065  0.935  0.000  0.000     2.145     2.290
 115   1 H      0.059  0.941  0.000  0.000     2.208     2.323
 116   1 H      0.046  0.954  0.000  0.000     2.371     2.408
 117   7 N     -0.402  1.272  4.130  0.000    30.421     8.192
 118   6 C     -0.029  0.999  3.029  0.000    21.158     6.561
 119   6 C      0.192  1.084  2.724  0.000    23.889     8.004
 120   8 O     -0.398  1.759  4.639  0.000    21.646     6.238
 121   1 H      0.182  0.818  0.000  0.000     1.201     1.717
 122   1 H      0.096  0.904  0.000  0.000     1.817     2.108
 123   1 H      0.104  0.896  0.000  0.000     1.747     2.067
 124   7 N     -0.418  1.289  4.129  0.000    30.870     8.252
 125   6 C      0.014  1.032  2.954  0.000    20.340     6.422
 126   6 C      0.261  1.048  2.691  0.000    22.606     7.787
 127   8 O     -0.486  1.750  4.736  0.000    23.475     6.496
 128   6 C      0.103  1.023  2.874  0.000    18.957     6.212
 129   8 O     -0.496  1.680  4.816  0.000    22.801     6.446
 130   6 C     -0.171  0.982  3.189  0.000    23.862     6.961
 131   1 H      0.187  0.813  0.000  0.000     1.175     1.698
 132   1 H      0.057  0.943  0.000  0.000     2.232     2.336
 133   1 H      0.049  0.951  0.000  0.000     2.332     2.388
 134   1 H      0.322  0.678  0.000  0.000     0.658     1.274
 135   1 H      0.092  0.908  0.000  0.000     1.862     2.134
 136   1 H      0.058  0.942  0.000  0.000     2.222     2.331
 137   1 H      0.082  0.918  0.000  0.000     1.963     2.191
 138   7 N     -0.189  1.208  3.981  0.000    25.089     7.439
 139   6 C      0.016  1.033  2.951  0.000    20.301     6.413
 140   6 C      0.262  1.044  2.694  0.000    22.586     7.782
 141   8 O     -0.495  1.731  4.765  0.000    23.685     6.525
 142   6 C     -0.068  1.000  3.068  0.000    21.786     6.642
 143   6 C     -0.112  1.009  3.103  0.000    22.625     6.770
 144   6 C      0.369  1.022  2.609  0.000    20.750     7.455
 145   8 O     -0.669  1.780  4.889  0.000    27.885     7.080
 146   8 O     -0.655  1.774  4.882  0.000    27.517     7.033
 147   1 H      0.217  0.783  0.000  0.000     1.023     1.585
 148   1 H      0.072  0.928  0.000  0.000     2.064     2.246
 149   1 H      0.067  0.933  0.000  0.000     2.120     2.277
 150   1 H      0.039  0.961  0.000  0.000     2.456     2.451
 151   1 H      0.043  0.957  0.000  0.000     2.403     2.424
 152   1 H      0.051  0.949  0.000  0.000     2.312     2.378
 153   7 N     -0.165  1.208  3.957  0.000    24.568     7.362
 154   6 C      0.001  1.043  2.956  0.000    20.568     6.456
 155   6 C      0.272  1.037  2.691  0.000    22.402     7.751
 156   8 O     -0.502  1.746  4.756  0.000    23.837     6.546
 157   6 C     -0.035  1.043  2.992  0.000    21.159     6.542
 158   6 C     -0.160  0.982  3.178  0.000    23.635     6.929
 159   6 C     -0.154  0.975  3.179  0.000    23.516     6.911
 160   1 H      0.216  0.784  0.000  0.000     1.026     1.587
 161   1 H      0.097  0.903  0.000  0.000     1.816     2.107
 162   1 H      0.073  0.927  0.000  0.000     2.049     2.238
 163   1 H      0.071  0.929  0.000  0.000     2.071     2.250
 164   1 H      0.061  0.939  0.000  0.000     2.189     2.314
 165   1 H      0.068  0.932  0.000  0.000     2.111     2.272
 166   1 H      0.069  0.931  0.000  0.000     2.094     2.263
 167   1 H      0.060  0.940  0.000  0.000     2.202     2.320
 168   1 H      0.051  0.949  0.000  0.000     2.301     2.372
 169   7 N     -0.185  1.208  3.977  0.000    25.004     7.427
 170   6 C      0.012  1.034  2.954  0.000    20.366     6.423
 171   6 C      0.265  1.046  2.689  0.000    22.529     7.773
 172   8 O     -0.489  1.751  4.739  0.000    23.548     6.506
 173   6 C     -0.028  1.032  2.996  0.000    21.030     6.521
 174   6 C     -0.148  0.973  3.175  0.000    23.395     6.892
 175   6 C     -0.157  0.976  3.181  0.000    23.559     6.916
 176   1 H      0.233  0.767  0.000  0.000     0.953     1.529
 177   1 H      0.087  0.913  0.000  0.000     1.908     2.160
 178   1 H      0.054  0.946  0.000  0.000     2.264     2.353
 179   1 H      0.063  0.937  0.000  0.000     2.167     2.302
 180   1 H      0.050  0.950  0.000  0.000     2.317     2.380
 181   1 H      0.060  0.940  0.000  0.000     2.194     2.316
 182   1 H      0.064  0.936  0.000  0.000     2.155     2.295
 183   1 H      0.060  0.940  0.000  0.000     2.198     2.318
 184   1 H      0.068  0.932  0.000  0.000     2.106     2.269
 185   7 N     -0.181  1.210  3.971  0.000    24.923     7.415
 186   6 C      0.002  1.037  2.961  0.000    20.545     6.453
 187   6 C      0.278  1.032  2.690  0.000    22.289     7.731
 188   8 O     -0.471  1.729  4.742  0.000    23.158     6.452
 189   6 C      0.057  0.996  2.947  0.000    19.807     6.371
 190   8 O     -0.510  1.691  4.819  0.000    23.105     6.489
 191   1 H      0.221  0.779  0.000  0.000     1.006     1.571
 192   1 H      0.097  0.903  0.000  0.000     1.814     2.106
 193   1 H      0.062  0.938  0.000  0.000     2.179     2.308
 194   1 H      0.069  0.931  0.000  0.000     2.095     2.263
 195   1 H      0.356  0.644  0.000  0.000     0.573     1.188
 196   7 N     -0.170  1.209  3.962  0.000    24.688     7.379
 197   6 C      0.006  1.041  2.953  0.000    20.485     6.444
 198   6 C      0.192  1.091  2.717  0.000    23.892     8.005
 199   8 O     -0.351  1.752  4.599  0.000    20.731     6.105
 200   6 C     -0.041  1.048  2.993  0.000    21.272     6.560
 201   6 C     -0.087  1.007  3.080  0.000    22.149     6.699
 202   6 C     -0.158  0.979  3.180  0.000    23.607     6.924
 203   6 C     -0.152  0.978  3.175  0.000    23.487     6.907
 204   1 H      0.225  0.775  0.000  0.000     0.987     1.556
 205   1 H      0.103  0.897  0.000  0.000     1.753     2.070
 206   1 H      0.074  0.926  0.000  0.000     2.042     2.234
 207   1 H      0.056  0.944  0.000  0.000     2.249     2.345
 208   1 H      0.042  0.958  0.000  0.000     2.422     2.434
 209   1 H      0.076  0.924  0.000  0.000     2.020     2.223
 210   1 H      0.059  0.941  0.000  0.000     2.205     2.322
 211   1 H      0.066  0.934  0.000  0.000     2.126     2.280
 212   1 H      0.048  0.952  0.000  0.000     2.345     2.394
 213   1 H      0.060  0.940  0.000  0.000     2.195     2.317
 214   1 H      0.064  0.936  0.000  0.000     2.151     2.293
 215   7 N     -0.422  1.280  4.142  0.000    30.998     8.269
 216   6 C     -0.030  0.997  3.033  0.000    21.165     6.560
 217   6 C      0.266  1.040  2.693  0.000    22.506     7.769
 218   8 O     -0.547  1.773  4.774  0.000    24.848     6.683
 219   1 H      0.187  0.813  0.000  0.000     1.173     1.696
 220   1 H      0.082  0.918  0.000  0.000     1.957     2.188
 221   1 H      0.069  0.931  0.000  0.000     2.091     2.261
 222   7 N     -0.166  1.201  3.964  0.000    24.582     7.364
 223   6 C      0.010  1.037  2.953  0.000    20.398     6.429
 224   6 C      0.268  1.039  2.693  0.000    22.478     7.764
 225   8 O     -0.477  1.728  4.749  0.000    23.273     6.468
 226   6 C     -0.094  1.009  3.084  0.000    22.277     6.718
 227   6 C     -0.097  1.005  3.092  0.000    22.343     6.728
 228   6 C     -0.109  1.007  3.101  0.000    22.561     6.760
 229   6 C     -0.075  1.015  3.060  0.000    22.009     6.692
 230   7 N     -0.141  1.145  3.996  0.000    24.039     7.282
 231   1 H      0.239  0.761  0.000  0.000     0.929     1.510
 232   1 H      0.075  0.925  0.000  0.000     2.028     2.227
 233   1 H      0.082  0.918  0.000  0.000     1.960     2.189
 234   1 H      0.049  0.951  0.000  0.000     2.326     2.385
 235   1 H      0.062  0.938  0.000  0.000     2.172     2.304
 236   1 H      0.074  0.926  0.000  0.000     2.043     2.235
 237   1 H      0.104  0.896  0.000  0.000     1.752     2.069
 238   1 H      0.082  0.918  0.000  0.000     1.958     2.188
 239   1 H      0.130  0.870  0.000  0.000     1.533     1.936
 240   1 H      0.124  0.876  0.000  0.000     1.582     1.967
 241   1 H      0.300  0.700  0.000  0.000     0.713     1.323
 242   1 H      0.287  0.713  0.000  0.000     0.755     1.361
 243   1 H      0.298  0.702  0.000  0.000     0.719     1.328
 244   7 N     -0.181  1.210  3.971  0.000    24.929     7.415
 245   6 C      0.004  1.042  2.954  0.000    20.500     6.445
 246   6 C      0.276  1.040  2.684  0.000    22.337     7.740
 247   8 O     -0.511  1.749  4.763  0.000    24.036     6.573
 248   6 C      0.104  1.034  2.862  0.000    18.977     6.222
 249   8 O     -0.499  1.686  4.813  0.000    22.876     6.457
 250   6 C     -0.165  0.982  3.183  0.000    23.739     6.945
 251   1 H      0.208  0.792  0.000  0.000     1.064     1.616
 252   1 H      0.110  0.890  0.000  0.000     1.700     2.039
 253   1 H      0.048  0.952  0.000  0.000     2.340     2.392
 254   1 H      0.337  0.663  0.000  0.000     0.618     1.234
 255   1 H      0.064  0.936  0.000  0.000     2.150     2.293
 256   1 H      0.068  0.932  0.000  0.000     2.109     2.271
 257   1 H      0.076  0.924  0.000  0.000     2.018     2.221
 258   7 N     -0.154  1.201  3.953  0.000    24.329     7.326
 259   6 C      0.006  1.035  2.959  0.000    20.479     6.443
 260   6 C      0.265  1.039  2.695  0.000    22.524     7.772
 261   8 O     -0.486  1.745  4.742  0.000    23.480     6.497
 262   6 C     -0.108  1.010  3.098  0.000    22.542     6.756
 263   6 C     -0.016  1.083  2.933  0.000    28.407     8.742
 264   6 C     -0.061  1.063  2.998  0.000    29.508     8.908
 265   6 C     -0.063  1.059  3.004  0.000    29.577     8.919
 266   6 C     -0.072  1.050  3.021  0.000    29.787     8.950
 267   6 C     -0.088  1.053  3.035  0.000    30.201     9.012
 268   6 C      0.130  1.053  2.817  0.000    25.158     8.221
 269   8 O     -0.446  1.681  4.765  0.000    21.768     6.298
 270   1 H      0.230  0.770  0.000  0.000     0.965     1.539
 271   1 H      0.096  0.904  0.000  0.000     1.823     2.111
 272   1 H      0.076  0.924  0.000  0.000     2.020     2.223
 273   1 H      0.089  0.911  0.000  0.000     1.888     2.149
 274   1 H      0.073  0.927  0.000  0.000     2.049     2.238
 275   1 H      0.076  0.924  0.000  0.000     2.025     2.225
 276   1 H      0.063  0.937  0.000  0.000     2.164     2.300
 277   1 H      0.081  0.919  0.000  0.000     1.969     2.194
 278   1 H      0.346  0.654  0.000  0.000     0.596     1.213
 279   7 N     -0.174  1.202  3.972  0.000    24.773     7.392
 280   6 C     -0.001  1.046  2.955  0.000    20.604     6.463
 281   6 C      0.261  1.045  2.694  0.000    22.599     7.785
 282   8 O     -0.486  1.746  4.740  0.000    23.481     6.497
 283   6 C     -0.176  0.988  3.188  0.000    23.977     6.979
 284   1 H      0.224  0.776  0.000  0.000     0.991     1.559
 285   1 H      0.098  0.902  0.000  0.000     1.799     2.098
 286   1 H      0.095  0.905  0.000  0.000     1.829     2.115
 287   1 H      0.098  0.902  0.000  0.000     1.803     2.100
 288   1 H      0.089  0.911  0.000  0.000     1.883     2.146
 289   7 N     -0.192  1.216  3.976  0.000    25.173     7.452
 290   6 C      0.014  1.036  2.950  0.000    20.342     6.421
 291   6 C      0.283  1.032  2.685  0.000    22.210     7.717
 292   8 O     -0.492  1.739  4.753  0.000    23.606     6.514
 293   6 C     -0.154  0.979  3.175  0.000    23.513     6.909
 294   1 H      0.231  0.769  0.000  0.000     0.961     1.535
 295   1 H      0.078  0.922  0.000  0.000     1.996     2.209
 296   1 H      0.068  0.932  0.000  0.000     2.110     2.271
 297   1 H      0.070  0.930  0.000  0.000     2.086     2.258
 298   1 H      0.080  0.920  0.000  0.000     1.980     2.200
 299   7 N     -0.187  1.203  3.984  0.000    25.056     7.434
 300   6 C     -0.001  1.044  2.957  0.000    20.597     6.463
 301   6 C      0.269  1.037  2.694  0.000    22.455     7.760
 302   8 O     -0.497  1.761  4.736  0.000    23.715     6.529
 303   6 C      0.034  1.006  2.960  0.000    20.197     6.433
 304   8 O     -0.498  1.684  4.814  0.000    22.848     6.453
 305   1 H      0.233  0.767  0.000  0.000     0.950     1.527
 306   1 H      0.086  0.914  0.000  0.000     1.920     2.167
 307   1 H      0.088  0.912  0.000  0.000     1.895     2.153
 308   1 H      0.078  0.922  0.000  0.000     1.999     2.211
 309   1 H      0.368  0.632  0.000  0.000     0.547     1.161
 310   7 N     -0.179  1.203  3.976  0.000    24.872     7.407
 311   6 C     -0.002  1.042  2.960  0.000    20.616     6.465
 312   6 C      0.268  1.046  2.686  0.000    22.469     7.762
 313   8 O     -0.495  1.765  4.730  0.000    23.678     6.524
 314   6 C     -0.103  1.009  3.094  0.000    22.448     6.743
 315   6 C     -0.123  1.011  3.112  0.000    22.848     6.803
 316   6 C     -0.126  1.010  3.116  0.000    22.898     6.810
 317   6 C     -0.081  1.010  3.071  0.000    22.117     6.708
 318   7 N     -0.119  1.132  3.987  0.000    23.575     7.211
 319   1 H      0.238  0.762  0.000  0.000     0.930     1.510
 320   1 H      0.113  0.887  0.000  0.000     1.670     2.021
 321   1 H      0.075  0.925  0.000  0.000     2.030     2.228
 322   1 H      0.085  0.915  0.000  0.000     1.925     2.170
 323   1 H      0.086  0.914  0.000  0.000     1.918     2.165
 324   1 H      0.098  0.902  0.000  0.000     1.806     2.101
 325   1 H      0.099  0.901  0.000  0.000     1.793     2.094
 326   1 H      0.091  0.909  0.000  0.000     1.868     2.137
 327   1 H      0.133  0.867  0.000  0.000     1.514     1.924
 328   1 H      0.132  0.868  0.000  0.000     1.522     1.929
 329   1 H      0.277  0.723  0.000  0.000     0.787     1.389
 330   1 H      0.290  0.710  0.000  0.000     0.742     1.350
 331   1 H      0.294  0.706  0.000  0.000     0.732     1.340
 332   7 N     -0.188  1.212  3.976  0.000    25.074     7.437
 333   6 C      0.016  1.046  2.938  0.000    20.320     6.420
 334   6 C      0.268  1.048  2.684  0.000    22.466     7.761
 335   8 O     -0.505  1.755  4.749  0.000    23.889     6.553
 336   6 C     -0.155  0.981  3.174  0.000    23.535     6.914
 337   1 H      0.217  0.783  0.000  0.000     1.021     1.583
 338   1 H      0.102  0.898  0.000  0.000     1.766     2.078
 339   1 H      0.080  0.920  0.000  0.000     1.976     2.198
 340   1 H      0.091  0.909  0.000  0.000     1.865     2.135
 341   1 H      0.067  0.933  0.000  0.000     2.115     2.274
 342   7 N     -0.178  1.218  3.960  0.000    24.857     7.405
 343   6 C      0.031  1.033  2.937  0.000    20.064     6.378
 344   6 C      0.214  1.085  2.701  0.000    23.468     7.934
 345   8 O     -0.366  1.742  4.624  0.000    21.008     6.145
 346   6 C     -0.070  1.003  3.068  0.000    21.832     6.650
 347   6 C     -0.119  1.013  3.106  0.000    22.758     6.790
 348   6 C      0.367  1.026  2.608  0.000    20.782     7.461
 349   8 O     -0.663  1.774  4.889  0.000    27.722     7.059
 350   8 O     -0.661  1.771  4.889  0.000    27.660     7.051
 351   1 H      0.232  0.768  0.000  0.000     0.958     1.533
 352   1 H      0.078  0.922  0.000  0.000     1.995     2.209
 353   1 H      0.091  0.909  0.000  0.000     1.866     2.136
 354   1 H      0.054  0.946  0.000  0.000     2.268     2.355
 355   1 H      0.046  0.954  0.000  0.000     2.373     2.409
 356   1 H      0.054  0.946  0.000  0.000     2.274     2.358
 357   7 N     -0.408  1.276  4.132  0.000    30.588     8.214
 358   6 C      0.037  1.030  2.933  0.000    19.964     6.364
 359   6 C      0.196  1.092  2.712  0.000    23.825     7.994
 360   8 O     -0.356  1.748  4.609  0.000    20.830     6.119
 361   6 C     -0.085  1.006  3.079  0.000    22.095     6.689
 362   6 C      0.058  1.067  2.875  0.000    26.595     8.452
 363   7 N     -0.326  1.477  3.849  0.000    29.257     8.022
 364   6 C     -0.043  1.037  3.006  0.000    29.013     8.834
 365   6 C      0.082  1.034  2.884  0.000    26.146     8.387
 366   7 N     -0.109  1.203  3.906  0.000    23.371     7.180
 367   1 H      0.184  0.816  0.000  0.000     1.193     1.711
 368   1 H      0.065  0.935  0.000  0.000     2.142     2.288
 369   1 H      0.074  0.926  0.000  0.000     2.042     2.234
 370   1 H      0.062  0.938  0.000  0.000     2.174     2.306
 371   1 H      0.060  0.940  0.000  0.000     2.198     2.318
 372   1 H      0.061  0.939  0.000  0.000     2.190     2.314
 373   1 H      0.187  0.813  0.000  0.000     1.175     1.698
 374   7 N     -0.409  1.274  4.134  0.000    30.620     8.218
 375   6 C      0.036  1.030  2.935  0.000    19.984     6.367
 376   6 C      0.190  1.094  2.716  0.000    23.935     8.012
 377   8 O     -0.384  1.761  4.623  0.000    21.361     6.197
 378   6 C     -0.091  1.010  3.081  0.000    22.220     6.708
 379   6 C     -0.001  1.082  2.918  0.000    28.038     8.685
 380   6 C     -0.055  1.058  2.998  0.000    29.378     8.889
 381   6 C     -0.059  1.050  3.009  0.000    29.471     8.903
 382   6 C     -0.049  1.055  2.994  0.000    29.221     8.865
 383   6 C     -0.053  1.054  3.000  0.000    29.323     8.880
 384   6 C     -0.057  1.054  3.003  0.000    29.418     8.895
 385   1 H      0.194  0.806  0.000  0.000     1.134     1.668
 386   1 H      0.065  0.935  0.000  0.000     2.143     2.289
 387   1 H      0.074  0.926  0.000  0.000     2.042     2.234
 388   1 H      0.070  0.930  0.000  0.000     2.090     2.260
 389   1 H      0.060  0.940  0.000  0.000     2.199     2.319
 390   1 H      0.057  0.943  0.000  0.000     2.231     2.336
 391   1 H      0.055  0.945  0.000  0.000     2.252     2.347
 392   1 H      0.060  0.940  0.000  0.000     2.195     2.317
 393   1 H      0.056  0.944  0.000  0.000     2.244     2.342
 394   7 N     -0.315  1.318  3.997  0.000    28.111     7.875
 395   6 C      0.020  1.035  2.944  0.000    20.206     6.395
 396   6 C      0.262  1.052  2.685  0.000    22.576     7.781
 397   8 O     -0.522  1.754  4.768  0.000    24.273     6.606
 398   6 C     -0.087  1.006  3.081  0.000    22.108     6.687
 399   6 C     -0.079  0.997  3.083  0.000    21.971     6.665
 400   6 C     -0.001  0.999  3.003  0.000    20.611     6.465
 401   1 H      0.072  0.928  0.000  0.000     2.067     2.248
 402   1 H      0.047  0.953  0.000  0.000     2.354     2.399
 403   1 H      0.074  0.926  0.000  0.000     2.044     2.236
 404   1 H      0.045  0.955  0.000  0.000     2.383     2.414
 405   1 H      0.060  0.940  0.000  0.000     2.200     2.319
 406   1 H      0.042  0.958  0.000  0.000     2.416     2.431
 407   1 H      0.047  0.953  0.000  0.000     2.354     2.399
 408   7 N     -0.188  1.211  3.977  0.000    25.073     7.437
 409   6 C      0.029  1.032  2.939  0.000    20.074     6.378
 410   6 C      0.281  1.037  2.682  0.000    22.242     7.723
 411   8 O     -0.516  1.766  4.750  0.000    24.142     6.588
 412   6 C     -0.115  1.014  3.101  0.000    22.681     6.778
 413   6 C      0.376  1.016  2.609  0.000    20.636     7.434
 414   8 O     -0.647  1.762  4.885  0.000    27.298     7.005
 415   8 O     -0.661  1.785  4.876  0.000    27.673     7.053
 416   1 H      0.218  0.782  0.000  0.000     1.020     1.582
 417   1 H      0.070  0.930  0.000  0.000     2.081     2.256
 418   1 H      0.044  0.956  0.000  0.000     2.396     2.420
 419   1 H      0.062  0.938  0.000  0.000     2.178     2.308
 420   7 N     -0.176  1.204  3.972  0.000    24.802     7.397
 421   6 C      0.014  1.033  2.953  0.000    20.344     6.422
 422   6 C      0.259  1.048  2.693  0.000    22.634     7.792
 423   8 O     -0.495  1.746  4.749  0.000    23.673     6.523
 424   6 C     -0.096  1.014  3.082  0.000    22.321     6.723
 425   6 C     -0.031  1.036  2.994  0.000    21.086     6.531
 426   6 C     -0.152  0.979  3.173  0.000    23.477     6.905
 427   6 C     -0.149  0.977  3.172  0.000    23.407     6.894
 428   1 H      0.231  0.769  0.000  0.000     0.961     1.535
 429   1 H      0.079  0.921  0.000  0.000     1.993     2.208
 430   1 H      0.072  0.928  0.000  0.000     2.061     2.245
 431   1 H      0.071  0.929  0.000  0.000     2.068     2.249
 432   1 H      0.054  0.946  0.000  0.000     2.266     2.354
 433   1 H      0.070  0.930  0.000  0.000     2.085     2.258
 434   1 H      0.040  0.960  0.000  0.000     2.450     2.448
 435   1 H      0.046  0.954  0.000  0.000     2.370     2.407
 436   1 H      0.066  0.934  0.000  0.000     2.125     2.279
 437   1 H      0.050  0.950  0.000  0.000     2.315     2.379
 438   1 H      0.060  0.940  0.000  0.000     2.204     2.321
 439   7 N     -0.169  1.201  3.968  0.000    24.646     7.373
 440   6 C      0.014  1.031  2.955  0.000    20.337     6.419
 441   6 C      0.268  1.039  2.693  0.000    22.474     7.764
 442   8 O     -0.480  1.738  4.742  0.000    23.339     6.477
 443   6 C     -0.148  0.980  3.168  0.000    23.384     6.891
 444   1 H      0.221  0.779  0.000  0.000     1.006     1.571
 445   1 H      0.090  0.910  0.000  0.000     1.877     2.142
 446   1 H      0.072  0.928  0.000  0.000     2.066     2.248
 447   1 H      0.069  0.931  0.000  0.000     2.093     2.262
 448   1 H      0.072  0.928  0.000  0.000     2.064     2.246
 449   7 N     -0.176  1.201  3.975  0.000    24.817     7.399
 450   6 C      0.014  1.036  2.950  0.000    20.339     6.420
 451   6 C      0.273  1.036  2.690  0.000    22.379     7.747
 452   8 O     -0.497  1.744  4.754  0.000    23.726     6.531
 453   6 C     -0.073  1.003  3.070  0.000    21.879     6.657
 454   6 C     -0.112  1.009  3.103  0.000    22.617     6.769
 455   6 C      0.367  1.021  2.611  0.000    20.770     7.458
 456   8 O     -0.669  1.778  4.891  0.000    27.877     7.079
 457   8 O     -0.637  1.768  4.869  0.000    27.055     6.974
 458   1 H      0.207  0.793  0.000  0.000     1.072     1.622
 459   1 H      0.092  0.908  0.000  0.000     1.857     2.131
 460   1 H      0.044  0.956  0.000  0.000     2.392     2.419
 461   1 H      0.070  0.930  0.000  0.000     2.081     2.256
 462   1 H      0.043  0.957  0.000  0.000     2.412     2.429
 463   1 H      0.046  0.954  0.000  0.000     2.371     2.408
 464   7 N     -0.184  1.204  3.980  0.000    24.989     7.424
 465   6 C      0.014  1.031  2.954  0.000    20.337     6.420
 466   6 C      0.272  1.043  2.685  0.000    22.403     7.751
 467   8 O     -0.513  1.761  4.752  0.000    24.068     6.578
 468   6 C     -0.160  0.980  3.180  0.000    23.641     6.928
 469   1 H      0.224  0.776  0.000  0.000     0.991     1.559
 470   1 H      0.090  0.910  0.000  0.000     1.878     2.143
 471   1 H      0.093  0.907  0.000  0.000     1.847     2.125
 472   1 H      0.083  0.917  0.000  0.000     1.946     2.181
 473   1 H      0.072  0.928  0.000  0.000     2.058     2.243
 474   7 N     -0.180  1.209  3.970  0.000    24.892     7.410
 475   6 C      0.008  1.045  2.948  0.000    20.456     6.441
 476   6 C      0.273  1.044  2.683  0.000    22.384     7.747
 477   8 O     -0.483  1.746  4.736  0.000    23.406     6.486
 478   6 C     -0.169  0.985  3.184  0.000    23.828     6.957
 479   1 H      0.234  0.766  0.000  0.000     0.947     1.524
 480   1 H      0.078  0.922  0.000  0.000     1.995     2.209
 481   1 H      0.082  0.918  0.000  0.000     1.959     2.188
 482   1 H      0.086  0.914  0.000  0.000     1.916     2.165
 483   1 H      0.093  0.907  0.000  0.000     1.851     2.128
 484   7 N     -0.184  1.211  3.973  0.000    24.984     7.424
 485   6 C      0.016  1.031  2.953  0.000    20.308     6.416
 486   6 C      0.196  1.085  2.719  0.000    23.815     7.992
 487   8 O     -0.355  1.762  4.593  0.000    20.797     6.114
 488   6 C     -0.161  0.980  3.182  0.000    23.659     6.930
 489   1 H      0.220  0.780  0.000  0.000     1.011     1.575
 490   1 H      0.109  0.891  0.000  0.000     1.702     2.040
 491   1 H      0.087  0.913  0.000  0.000     1.907     2.159
 492   1 H      0.086  0.914  0.000  0.000     1.914     2.163
 493   1 H      0.083  0.917  0.000  0.000     1.946     2.181
 494   7 N     -0.400  1.275  4.125  0.000    30.371     8.185
 495   6 C      0.022  1.031  2.947  0.000    20.215     6.402
 496   6 C      0.188  1.096  2.716  0.000    23.971     8.019
 497   8 O     -0.373  1.768  4.605  0.000    21.142     6.165
 498   6 C      0.105  1.024  2.871  0.000    18.928     6.209
 499   8 O     -0.491  1.676  4.815  0.000    22.691     6.430
 500   6 C     -0.166  0.981  3.185  0.000    23.761     6.946
 501   1 H      0.196  0.804  0.000  0.000     1.127     1.663
 502   1 H      0.067  0.933  0.000  0.000     2.123     2.279
 503   1 H      0.061  0.939  0.000  0.000     2.189     2.314
 504   1 H      0.324  0.676  0.000  0.000     0.653     1.269
 505   1 H      0.072  0.928  0.000  0.000     2.068     2.248
 506   1 H      0.064  0.936  0.000  0.000     2.152     2.294
 507   1 H      0.067  0.933  0.000  0.000     2.121     2.277
 508   1 H      0.187  0.813  0.000  0.000     1.173     1.696
 509   1 H      0.082  0.918  0.000  0.000     1.959     2.189
 510   1 H      0.179  0.821  0.000  0.000     1.220     1.730
 511   1 H      0.075  0.925  0.000  0.000     2.034     2.230
 512   1 H      0.196  0.804  0.000  0.000     1.128     1.664
 513   1 H      0.086  0.914  0.000  0.000     1.914     2.163
 514   1 H      0.187  0.813  0.000  0.000     1.173     1.697
 515   1 H      0.070  0.930  0.000  0.000     2.083     2.257
 516   1 H      0.184  0.816  0.000  0.000     1.190     1.708
 517   1 H      0.068  0.932  0.000  0.000     2.112     2.273
 518   1 H      0.190  0.810  0.000  0.000     1.160     1.687
 519   1 H      0.091  0.909  0.000  0.000     1.871     2.139
 520   1 H      0.192  0.808  0.000  0.000     1.149     1.679
 521   1 H      0.068  0.932  0.000  0.000     2.111     2.272
 522   1 H      0.184  0.816  0.000  0.000     1.190     1.709
 523   1 H      0.066  0.934  0.000  0.000     2.134     2.284
 524   1 H      0.164  0.836  0.000  0.000     1.312     1.794
 525   1 H      0.080  0.920  0.000  0.000     1.979     2.200
 526   1 H      0.168  0.832  0.000  0.000     1.286     1.776
 527   1 H      0.087  0.913  0.000  0.000     1.906     2.159
 528   1 H      0.187  0.813  0.000  0.000     1.174     1.697
 529   1 H      0.078  0.922  0.000  0.000     1.999     2.211

 Mol. C6AA /au·bohr⁶  :    2571903.673103
 Mol. C8AA /au·bohr⁸  :   57088393.717150
 Mol. α(0) /au        :       2391.801701

 
molecular dipole:
                 x           y           z       tot (Debye)
 q only:     -956.180    -348.985    -627.468
   full:     -956.215    -349.729    -628.480    3041.298
molecular quadrupole (traceless):
                xx          xy          yy          xz          yz          zz
 q only:  -219302.834 -167950.063  178080.275 -299953.278 -109826.257   41222.559
  q+dip:  -219027.017 -168284.904  178209.544 -300486.156 -110240.596   40817.473
   full:  -219025.851 -168287.597  178209.480 -300488.052 -110239.294   40816.371
speedup  1.00
cpu  time for grad   15.03 s
wall time for grad   15.03 s

SCC energy    :    -846.2060174
rep           :      17.3113769
ES            :       3.2859826
AES           :      -0.0548468
AXC           :       0.1084855
disp          :      -0.6434051
XB            :       0.0000000
fix           :       0.0000000
Gborn         :       0.0000000
Gsasa         :       0.0000000
Ghb           :       0.0000000
Gshift        :       0.0000000
Gsolv         :      -0.9597089     -602.23
Etot ala COSMO:    -846.2060174
grad norm     :       2.9339152
total E       :    -828.8431213
atomizationE  :     145.3757713    91224.67
(atE without considering molecular charge,
 total energy contains solvation terms)
H-L gap (eV)  :          1.1615

------------------------------------------------------------------------
 * finished run on 2019/03/07 at 11:38:02.006     
------------------------------------------------------------------------
 total:
 * wall-time:     0 d,  0 h,  0 min, 16.137 sec
 *  cpu-time:     0 d,  0 h,  0 min, 15.861 sec
 * ratio c/w:     0.983 speedup
 SCF:
 * wall-time:     0 d,  0 h,  0 min, 15.620 sec
 *  cpu-time:     0 d,  0 h,  0 min, 15.619 sec
 * ratio c/w:     1.000 speedup

