      -----------------------------------------------------------      
     |                   =====================                   |     
     |                           x T B                           |     
     |                   =====================                   |     
     |                         S. Grimme                         |     
     |          Mulliken Center for Theoretical Chemistry        |     
     |                    University of Bonn                     |     
     |                 Version 6.0.1 (SAW181210)                 |     
      -----------------------------------------------------------      

   This program is distributed in the hope that it will be useful,
   but WITHOUT ANY WARRANTY; without even the implied warranty of
   MERCHANTABILITY or FITNESS FOR A PARTICULAR PURPOSE.
   
   FOR NON-COMMERCIAL, ACADEMIA USE ONLY.
   
   Cite this work as:
   S. Grimme, C. Bannwarth, P. Shushkov, J. Comput. Theory Chem., 2017,
   13, 1989-2009.
   C. Bannwarth, S. Ehlert and S. Grimme., ChemRxiv, 2018, preprint.
   http://doi.org/10.26434/chemrxiv.7246238.v1
   
   for sTDA-xTB:
   S. Grimme and C. Bannwarth, J. Chem. Phys., 2016, 145, 054103.
   
   in the mass-spec context:
   V. Asgeirsson, C. Bauer and S. Grimme, Chem. Sci., 2017, 8, 4879.
   
   if GBSA is used:
   P. Shushkov, F. März and S. Grimme, unpublished.
   
   for ANC optimizer:
   S. Grimme, unpublished.
   Rational Function algorithm used in ANCopt:
   F. Eckert, P. Pulay, H.-J. Werner, J. Comput. Chem., 1997, 18, 1473.
   
   with help from (in alphabetical order)
   C. Bannwarth, F. Bohle, G. Brandenburg, E. Caldeweyher, M. Checinski,
   S. Dohm, S. Ehlert, S. Ehrlich, F. März, H. Neugebauer, J. Pisarek,
   P. Pracht, P. Shushkov, and S. Spicher.
   
 * started run on 2019/03/14 at 16:03:17.860     
========================================================================
 # omp threads = 1
========================================================================
number of atoms            : 581
number of electrons        : 1570
charge                     : 2
spin                       : .0
first test random number   : .9442

########################################################################
# WARNING! Please study the warnings concerning your input carefully
#  - XTBPATH is not set, using XTBHOME instead
########################################################################

           ------------------------------------------------- 
          |                 G F N 2 - x T B                 |
          | Geometry, Frequencies, Noncovalent interactions |
          |            JCTC 2018 parametrisation            |
           ------------------------------------------------- 
 
      method parameters     
 k(s)        :  1.8500
 k(p)        :  2.2300
 k(d)        :  2.2300
 k(f)        :  2.0000
 kEN (H0ij)  : -2.0000
 D4 a1       :  0.5200
 D4 a2       :  5.0000
 D4 s6       :  1.0000
 D4 s8       :  2.7000
 D4 s9       :  5.0000
 alphaj      :  2.0000

 Solvent             : h2o
 Using internal parameter file: .param_gbsa2_h2o
 Gsolv ref. state (COSMO-RS): gsolv [1 M gas/solution]
 temperature (mdtemp)       :    298.150000000000     
 dielectric constant        :    80.2000000000000     
 rho                        :    1.00000000000000     
 mass                       :    18.0000000000000     
 surface tension            :    15.5689454083859     
 probe radius               :   0.975313790000000     
 vdW radii scaling          :    1.00000000000000     
 Gshift (Eh)                :   1.857443126794793E-003
 c1                         :    1.55243817000000     
 soset                      :   0.130326360000000     
 HB correction              :  T

            Z     q(EN)     CN     RAES       Cart. coordinates
     1  N   5.0   -0.12    4.09    3.12    18.77429    28.82198    61.23812
     2  C   4.0    0.00    4.30    4.20    18.32743    26.45566    59.75791
     3  C   4.0    0.16    3.38    3.07    20.78885    25.64795    58.37596
     4  O   6.0   -0.30    1.29    1.80    20.86209    25.39675    56.10224
     5  C   4.0   -0.03    4.34    4.27    16.22004    26.87737    57.82547
     6  C   4.0   -0.04    4.03    3.67    13.58185    26.53636    58.93723
     7  S   6.0   -0.01    2.45    3.10    11.16676    26.53552    56.42015
     8  C   4.0   -0.05    3.87    3.43     9.69235    29.59264    56.92661
     9  H   1.0    0.06    1.02    1.43    17.06173    29.55839    61.81707
    10  H   1.0    0.06    1.02    1.43    19.87942    28.53867    62.81802
    11  H   1.0    0.08    1.02    1.43    19.68447    30.13161    60.10075
    12  H   1.0    0.05    1.04    1.44    17.77766    24.94538    61.06708
    13  H   1.0    0.05    1.03    1.43    16.42630    28.74440    56.98102
    14  H   1.0    0.06    1.05    1.44    16.47360    25.54753    56.26991
    15  H   1.0    0.05    1.07    1.44    13.38899    24.70931    59.86218
    16  H   1.0    0.05    1.06    1.44    13.07477    28.02662    60.25455
    17  H   1.0    0.06    1.05    1.44     8.29332    29.78679    55.43869
    18  H   1.0    0.05    1.04    1.43     8.75682    29.61494    58.75296
    19  H   1.0    0.05    1.03    1.43    11.06458    31.10834    56.76524
    20  N   5.0   -0.14    3.33    1.99    22.67190    25.04262    59.96805
    21  C   4.0    0.03    4.15    3.90    25.21291    24.48919    59.12112
    22  C   4.0    0.10    3.16    3.03    25.41692    22.55960    57.00524
    23  O   6.0   -0.30    1.18    1.80    27.29412    22.48632    55.67527
    24  H   1.0    0.08    1.06    1.44    22.44933    25.21845    61.85511
    25  H   1.0    0.08    1.04    1.43    26.11735    26.18937    58.34835
    26  H   1.0    0.05    1.03    1.43    26.31599    23.80884    60.72125
    27  N   5.0   -0.19    3.28    1.97    23.01710    22.76398    51.79277
    28  C   4.0    0.04    4.24    4.07    23.30339    23.94082    49.34097
    29  C   4.0    0.15    3.41    3.08    26.10449    24.10047    48.60660
    30  O   6.0   -0.28    1.24    1.80    26.78840    24.03939    46.38781
    31  C   4.0   -0.06    4.09    3.78    21.93294    26.46461    49.27120
    32  H   1.0    0.12    1.06    1.44    22.26319    23.77738    53.24817
    33  H   1.0    0.06    1.06    1.44    22.46227    22.66944    47.92963
    34  H   1.0    0.06    1.00    1.43    22.21408    27.37934    47.45606
    35  H   1.0    0.06    1.00    1.43    19.92288    26.12909    49.52122
    36  H   1.0    0.07    1.00    1.43    22.61058    27.70607    50.76089
    37  N   5.0   -0.13    3.48    2.06    27.72653    24.20152    50.53092
    38  C   4.0    0.04    4.32    4.24    30.42177    24.26648    50.10498
    39  C   4.0    0.10    3.29    3.05    31.27675    22.05901    48.42947
    40  O   6.0   -0.26    1.11    1.80    33.10903    22.25974    47.02403
    41  C   4.0   -0.04    4.26    4.12    31.88914    24.24553    52.61470
    42  C   4.0   -0.03    4.22    4.04    32.51511    21.56213    53.50162
    43  C   4.0    0.00    4.20    4.00    32.87900    21.25001    56.34621
    44  N   5.0   -0.14    3.40    2.02    34.53430    23.12139    57.48069
    45  C   4.0    0.10    3.34    3.06    35.32933    23.08337    59.86191
    46  N   5.0   -0.18    3.25    1.97    35.22342    21.01244    61.27711
    47  N   5.0   -0.18    3.25    1.97    36.21869    25.21460    60.87272
    48  H   1.0    0.12    1.10    1.44    27.09891    24.31738    52.33900
    49  H   1.0    0.06    1.05    1.44    30.87321    26.01071    49.07323
    50  H   1.0    0.04    1.03    1.43    33.62313    25.31044    52.29479
    51  H   1.0    0.06    1.03    1.43    30.71770    25.22519    54.00036
    52  H   1.0    0.06    1.04    1.43    30.92796    20.33996    53.03726
    53  H   1.0    0.05    1.02    1.43    34.14587    20.88477    52.43898
    54  H   1.0    0.07    1.04    1.43    31.00119    21.40123    57.19365
    55  H   1.0    0.05    1.03    1.43    33.65456    19.36729    56.65836
    56  H   1.0    0.07    1.08    1.44    34.73306    24.73879    56.48284
    57  H   1.0    0.09    1.03    1.43    34.85516    19.29610    60.54130
    58  H   1.0    0.09    1.03    1.43    35.85787    21.08203    63.07286
    59  H   1.0    0.08    1.04    1.43    36.07513    26.84376    59.90497
    60  H   1.0    0.09    1.03    1.43    36.95555    25.27833    62.62566
    61  N   5.0   -0.21    3.23    1.96    57.61045    44.26666    29.77767
    62  C   4.0    0.03    4.32    4.24    55.64010    46.11969    29.44194
    63  C   4.0    0.14    3.41    3.08    54.22699    46.75690    31.88379
    64  O   6.0   -0.32    1.33    1.80    53.34098    48.89955    32.18623
    65  C   4.0   -0.05    4.25    4.10    53.85680    45.32394    27.29845
    66  C   4.0   -0.04    4.18    3.96    52.43838    47.57223    26.16505
    67  C   4.0   -0.04    4.20    4.00    54.24722    49.42601    24.88800
    68  C   4.0   -0.03    4.13    3.86    52.88268    51.78540    23.96413
    69  N   5.0   -0.11    4.02    2.93    54.73089    53.89383    23.73493
    70  H   1.0    0.09    1.02    1.43    57.35051    42.49459    29.11236
    71  H   1.0    0.05    1.07    1.44    56.60296    47.88633    28.94039
    72  H   1.0    0.05    1.03    1.43    54.97384    44.40916    25.82422
    73  H   1.0    0.05    1.03    1.43    52.53510    43.92097    28.02759
    74  H   1.0    0.05    1.02    1.43    51.06335    46.89571    24.78606
    75  H   1.0    0.05    1.03    1.43    51.38728    48.53643    27.65225
    76  H   1.0    0.05    1.04    1.43    55.65693    50.02093    26.26279
    77  H   1.0    0.05    1.03    1.43    55.18449    48.46885    23.32726
    78  H   1.0    0.05    1.02    1.43    51.97613    51.44120    22.14946
    79  H   1.0    0.05    1.02    1.43    51.43079    52.34175    25.31412
    80  H   1.0    0.07    1.02    1.43    53.84570    55.51333    23.12842
    81  H   1.0    0.07    1.03    1.43    55.50151    54.21704    25.50649
    82  H   1.0    0.07    1.02    1.43    56.14136    53.41241    22.48198
    83  N   5.0   -0.15    3.47    2.06    54.08450    44.97404    33.64345
    84  C   4.0    0.03    4.38    4.35    52.74334    45.32961    36.03515
    85  C   4.0    0.16    3.49    3.11    53.44482    47.90031    37.18333
    86  O   6.0   -0.31    1.28    1.80    51.86373    49.49972    37.73156
    87  C   4.0   -0.05    4.32    4.23    53.38622    43.10162    37.78467
    88  C   4.0   -0.02    4.14    3.89    51.88019    42.82877    40.26824
    89  C   4.0   -0.07    4.09    3.79    52.60253    44.79805    42.25685
    90  C   4.0   -0.08    4.10    3.79    49.02784    42.86218    39.81409
    91  H   1.0    0.08    1.07    1.44    54.82243    43.23906    33.28995
    92  H   1.0    0.05    1.05    1.44    50.70639    45.39815    35.65235
    93  H   1.0    0.04    1.03    1.43    53.10278    41.38144    36.67627
    94  H   1.0    0.04    1.03    1.43    55.39619    43.20605    38.22498
    95  H   1.0    0.04    1.06    1.44    52.38693    40.96576    41.01757
    96  H   1.0    0.04    1.00    1.43    51.59028    44.44817    44.01197
    97  H   1.0    0.04    1.00    1.43    54.61750    44.74275    42.64891
    98  H   1.0    0.05    1.01    1.43    52.09518    46.68346    41.62644
    99  H   1.0    0.04    1.00    1.43    47.99409    42.36482    41.52117
   100  H   1.0    0.04    1.00    1.43    48.42394    44.74492    39.25736
   101  H   1.0    0.04    1.00    1.43    48.50052    41.52867    38.34004
   102  N   5.0   -0.15    3.48    2.07    55.91891    48.27161    37.56928
   103  C   4.0    0.03    4.38    4.35    56.87076    50.55339    38.77579
   104  C   4.0    0.16    3.47    3.10    55.81330    52.97814    37.59783
   105  O   6.0   -0.30    1.23    1.80    55.42461    54.85136    38.88889
   106  C   4.0   -0.05    4.33    4.25    59.78393    50.51272    38.73084
   107  C   4.0   -0.02    4.18    3.96    61.11684    53.09475    38.96253
   108  C   4.0   -0.07    4.10    3.81    63.65948    52.76182    40.29923
   109  C   4.0   -0.07    4.11    3.82    61.56874    54.27271    36.35881
   110  H   1.0    0.08    1.07    1.44    57.15841    46.89880    37.09147
   111  H   1.0    0.05    1.05    1.44    56.19283    50.58766    40.73757
   112  H   1.0    0.04    1.03    1.43    60.39619    49.29085    40.27503
   113  H   1.0    0.04    1.04    1.43    60.36946    49.63587    36.96022
   114  H   1.0    0.06    1.05    1.44    59.93612    54.38318    40.06595
   115  H   1.0    0.05    1.00    1.43    64.64000    54.56443    40.39058
   116  H   1.0    0.05    1.00    1.43    63.40624    52.05483    42.20903
   117  H   1.0    0.05    1.00    1.43    64.81361    51.43539    39.24063
   118  H   1.0    0.05    1.00    1.43    62.67272    55.99885    36.52047
   119  H   1.0    0.05    1.00    1.43    62.58690    52.96429    35.14481
   120  H   1.0    0.05    1.01    1.43    59.80615    54.76242    35.43425
   121  N   5.0   -0.14    3.49    2.07    55.55865    52.97058    35.06762
   122  C   4.0    0.04    4.38    4.34    54.82928    55.22682    33.72240
   123  C   4.0    0.17    3.42    3.09    51.99311    55.82336    33.63969
   124  O   6.0   -0.29    1.26    1.80    51.27685    57.71422    32.50474
   125  C   4.0    0.04    4.15    3.91    55.84002    55.21364    31.00513
   126  O   6.0   -0.26    2.05    1.83    54.89314    53.25027    29.47683
   127  H   1.0    0.11    1.09    1.44    55.51301    51.30272    34.13364
   128  H   1.0    0.06    1.06    1.44    55.68553    56.83294    34.72301
   129  H   1.0    0.06    1.02    1.43    55.26073    57.00850    30.15139
   130  H   1.0    0.04    1.01    1.43    57.91338    55.13026    31.03629
   131  H   1.0    0.15    1.06    1.44    54.22815    51.87169    30.50678
   132  N   5.0   -0.12    3.47    2.06    50.38512    54.19985    34.70034
   133  C   4.0    0.04    4.53    4.57    47.70055    54.73922    34.54221
   134  C   4.0    0.15    3.54    3.13    46.97153    56.83654    36.39843
   135  O   6.0   -0.28    1.27    1.80    47.87699    56.95514    38.52967
   136  C   4.0   -0.02    4.26    4.12    46.17950    52.29911    34.98564
   137  C   4.0   -0.06    4.13    3.87    46.14194    51.50698    37.75471
   138  C   4.0   -0.08    4.11    3.82    43.47481    52.59172    34.02639
   139  H   1.0    0.11    1.08    1.44    50.94098    52.78635    35.86515
   140  H   1.0    0.05    1.07    1.44    47.36396    55.41043    32.61433
   141  H   1.0    0.05    1.06    1.44    47.14171    50.83608    33.88024
   142  H   1.0    0.04    1.00    1.43    45.14122    49.72343    37.94279
   143  H   1.0    0.07    1.01    1.43    48.03529    51.27992    38.50851
   144  H   1.0    0.06    1.01    1.43    45.16526    52.92102    38.87494
   145  H   1.0    0.04    1.00    1.43    42.48317    50.79703    34.16254
   146  H   1.0    0.06    1.00    1.43    42.47310    53.95449    35.19369
   147  H   1.0    0.04    1.00    1.43    43.42989    53.20471    32.06563
   148  N   5.0   -0.09    3.68    2.25    45.25115    58.53390    35.63359
   149  C   4.0    0.04    4.61    4.68    44.24984    60.30057    37.49837
   150  C   4.0    0.16    3.45    3.09    43.01695    58.80022    39.63903
   151  O   6.0   -0.30    1.24    1.80    41.73935    56.91938    39.22653
   152  C   4.0   -0.04    4.33    4.26    42.32596    61.89367    36.02930
   153  C   4.0   -0.04    4.26    4.13    43.34231    61.78942    33.33059
   154  C   4.0   -0.01    4.35    4.29    44.28174    59.06678    33.12287
   155  H   1.0    0.05    1.05    1.44    45.79806    61.45228    38.24947
   156  H   1.0    0.06    1.03    1.43    40.46812    61.00494    36.12553
   157  H   1.0    0.05    1.02    1.43    42.17557    63.80313    36.77207
   158  H   1.0    0.05    1.02    1.43    41.91438    62.23168    31.92184
   159  H   1.0    0.06    1.02    1.43    44.92280    63.09152    33.11071
   160  H   1.0    0.04    1.02    1.43    42.71620    57.79320    32.67597
   161  H   1.0    0.05    1.02    1.43    45.77996    58.86576    31.72415
   162  N   5.0   -0.13    3.47    2.06    43.40801    59.72549    41.96107
   163  C   4.0    0.03    4.43    4.42    42.26578    58.63833    44.18812
   164  C   4.0    0.15    3.40    3.08    40.42382    60.50260    45.41798
   165  O   6.0   -0.27    1.22    1.80    40.33555    62.73788    44.83997
   166  C   4.0   -0.04    4.37    4.32    44.29711    57.95910    46.14301
   167  C   4.0   -0.02    4.17    3.94    46.19972    55.94406    45.28814
   168  C   4.0   -0.07    4.12    3.84    47.93732    55.33623    47.50926
   169  C   4.0   -0.07    4.11    3.83    44.89239    53.53681    44.38469
   170  H   1.0    0.09    1.06    1.44    44.43289    61.31222    42.20786
   171  H   1.0    0.06    1.07    1.44    41.20300    56.98437    43.55088
   172  H   1.0    0.06    1.03    1.43    45.29279    59.70628    46.61003
   173  H   1.0    0.05    1.03    1.43    43.37146    57.33047    47.87361
   174  H   1.0    0.06    1.05    1.44    47.32046    56.68349    43.71567
   175  H   1.0    0.04    1.00    1.43    49.30890    53.92306    46.94596
   176  H   1.0    0.05    1.00    1.43    48.92733    57.00552    48.17898
   177  H   1.0    0.06    1.01    1.43    46.85879    54.59330    49.09214
   178  H   1.0    0.04    1.00    1.43    46.28581    52.13228    43.83171
   179  H   1.0    0.04    1.00    1.43    43.70483    52.75673    45.86713
   180  H   1.0    0.05    1.00    1.43    43.72364    53.90887    42.73925
   181  N   5.0   -0.14    3.47    2.06    38.95880    59.44278    47.20083
   182  C   4.0    0.04    4.41    4.39    37.29656    60.87725    48.82431
   183  C   4.0    0.16    3.43    3.09    38.65525    61.81023    51.21734
   184  O   6.0   -0.29    1.23    1.80    40.36216    60.62436    52.23233
   185  C   4.0   -0.04    4.30    4.20    35.08633    59.25139    49.72922
   186  C   4.0   -0.04    4.19    3.99    33.32825    58.40803    47.60370
   187  C   4.0   -0.00    4.23    4.05    30.97620    57.18024    48.72925
   188  N   5.0   -0.14    3.40    2.02    29.31232    56.33265    46.71464
   189  C   4.0    0.10    3.35    3.06    27.14302    55.12147    47.04681
   190  N   5.0   -0.18    3.26    1.97    26.28397    54.64509    49.36537
   191  N   5.0   -0.16    3.25    1.97    25.75726    54.40614    45.06319
   192  H   1.0    0.08    1.07    1.44    39.12340    57.57786    47.56737
   193  H   1.0    0.07    1.06    1.44    36.63667    62.52526    47.76191
   194  H   1.0    0.05    1.03    1.43    35.85547    57.60009    50.69609
   195  H   1.0    0.06    1.03    1.43    34.02880    60.36012    51.11306
   196  H   1.0    0.06    1.03    1.43    32.79248    60.05797    46.49211
   197  H   1.0    0.05    1.03    1.43    34.29269    57.05947    46.38039
   198  H   1.0    0.04    1.02    1.43    31.54060    55.55278    49.87765
   199  H   1.0    0.05    1.02    1.43    30.01820    58.57074    49.92292
   200  H   1.0    0.08    1.07    1.44    29.94097    56.64111    44.93923
   201  H   1.0    0.09    1.03    1.43    27.09423    55.42608    50.89520
   202  H   1.0    0.10    1.04    1.43    24.55183    53.87228    49.54133
   203  H   1.0    0.10    1.03    1.43    26.43291    54.66922    43.30441
   204  H   1.0    0.13    1.07    1.44    24.57584    52.88579    45.23534
   205  N   5.0   -0.13    3.51    2.09    37.75892    63.99764    52.10453
   206  C   4.0    0.04    4.41    4.39    38.51762    65.02625    54.51941
   207  C   4.0    0.16    3.42    3.09    37.92003    63.16374    56.67284
   208  O   6.0   -0.28    1.23    1.80    36.23220    61.60594    56.56716
   209  C   4.0   -0.04    4.26    4.12    37.17393    67.56176    54.90475
   210  C   4.0   -0.02    4.19    3.97    34.29757    67.31255    54.99307
   211  C   4.0    0.25    3.16    3.03    33.10089    66.80800    52.34092
   212  O   6.0   -0.27    1.18    1.80    33.87931    68.13156    50.54041
   213  O   6.0   -0.27    1.16    1.80    31.46538    65.11857    52.21111
   214  H   1.0    0.10    1.13    1.45    36.24987    64.80905    51.27135
   215  H   1.0    0.06    1.05    1.44    40.57493    65.30460    54.45591
   216  H   1.0    0.05    1.02    1.43    37.86643    68.46276    56.62496
   217  H   1.0    0.07    1.03    1.43    37.65345    68.76506    53.29615
   218  H   1.0    0.07    1.03    1.43    33.68702    65.80181    56.25541
   219  H   1.0    0.06    1.03    1.43    33.48647    69.08900    55.65943
   220  N   5.0   -0.15    3.38    2.01    39.43009    63.43746    58.71566
   221  C   4.0    0.03    4.24    4.08    39.20105    61.86173    60.93965
   222  C   4.0    0.16    3.29    3.05    40.33531    59.20282    60.68440
   223  O   6.0   -0.27    1.21    1.80    40.05978    57.62115    62.34418
   224  H   1.0    0.09    1.06    1.44    40.82783    64.73060    58.68084
   225  H   1.0    0.06    1.03    1.43    40.13359    62.78193    62.53158
   226  H   1.0    0.07    1.03    1.43    37.20455    61.63028    61.41607
   227  N   5.0   -0.12    3.54    2.11    41.69010    58.83852    58.59237
   228  C   4.0    0.04    4.41    4.40    42.92484    56.50621    57.91419
   229  C   4.0    0.15    3.40    3.08    45.56345    57.17569    56.91310
   230  O   6.0   -0.27    1.25    1.80    46.17242    59.35441    56.45465
   231  C   4.0   -0.03    4.32    4.23    41.38635    55.11648    55.86918
   232  C   4.0   -0.01    3.56    3.14    38.83138    54.31810    56.82734
   233  C   4.0   -0.03    3.47    3.10    38.57746    52.42229    58.63091
   234  C   4.0   -0.03    3.47    3.10    36.65309    55.46745    55.92486
   235  C   4.0   -0.02    3.44    3.09    36.22788    51.67527    59.47303
   236  C   4.0   -0.04    3.43    3.09    34.28896    54.72203    56.74043
   237  C   4.0    0.07    3.45    3.09    34.05531    52.81277    58.52561
   238  O   6.0   -0.25    2.11    1.84    31.76232    51.97769    59.35123
   239  H   1.0    0.11    1.09    1.44    41.76781    60.20872    57.26443
   240  H   1.0    0.06    1.05    1.44    43.05111    55.36412    59.63528
   241  H   1.0    0.06    1.04    1.43    41.14676    56.42432    54.29154
   242  H   1.0    0.04    1.03    1.43    42.45261    53.46910    55.23679
   243  H   1.0    0.06    1.03    1.43    40.23245    51.52193    59.41054
   244  H   1.0    0.07    1.03    1.43    36.79985    57.01053    54.60188
   245  H   1.0    0.07    1.03    1.43    36.04572    50.21534    60.88274
   246  H   1.0    0.06    1.03    1.43    32.62946    55.65346    56.00445
   247  H   1.0    0.12    1.04    1.43    30.45229    53.11733    58.77373
   248  N   5.0   -0.13    3.36    2.01    47.12175    55.20212    56.58517
   249  C   4.0    0.02    4.25    4.10    49.70542    55.49934    55.75163
   250  C   4.0    0.14    3.30    3.05    50.37717    53.71393    53.57861
   251  O   6.0   -0.31    1.23    1.80    48.80824    52.46681    52.45459
   252  H   1.0    0.08    1.06    1.44    46.55325    53.44629    57.06264
   253  H   1.0    0.07    1.04    1.43    49.91091    57.46189    55.13425
   254  H   1.0    0.05    1.02    1.43    50.99906    55.17052    57.33377
   255  N   5.0   -0.14    3.47    2.06    52.86390    53.75518    52.99160
   256  C   4.0    0.03    4.41    4.40    54.00581    51.84840    51.39175
   257  C   4.0    0.15    3.41    3.08    55.30640    49.87742    53.07913
   258  O   6.0   -0.29    1.24    1.80    55.78134    50.31342    55.30162
   259  C   4.0   -0.04    4.26    4.12    55.94700    53.02744    49.58785
   260  C   4.0   -0.05    4.18    3.95    54.65732    54.54817    47.49840
   261  C   4.0   -0.01    4.20    4.00    56.50790    55.46290    45.46812
   262  N   5.0   -0.14    3.40    2.02    58.16505    57.46169    46.35368
   263  C   4.0    0.10    3.34    3.06    57.51483    59.86771    46.61805
   264  N   5.0   -0.18    3.26    1.97    55.20186    60.67472    46.06081
   265  N   5.0   -0.17    3.24    1.97    59.22880    61.50808    47.47698
   266  H   1.0    0.09    1.08    1.44    54.03987    54.48543    54.30992
   267  H   1.0    0.05    1.06    1.44    52.46087    50.95875    50.34616
   268  H   1.0    0.06    1.03    1.43    57.18918    54.23596    50.70060
   269  H   1.0    0.05    1.03    1.43    57.07514    51.51176    48.76633
   270  H   1.0    0.04    1.03    1.43    53.25196    53.35843    46.57979
   271  H   1.0    0.05    1.03    1.43    53.66473    56.13911    48.34632
   272  H   1.0    0.04    1.03    1.43    57.70041    53.89682    44.86962
   273  H   1.0    0.06    1.02    1.43    55.47689    56.11357    43.80145
   274  H   1.0    0.08    1.07    1.44    59.91409    56.94275    46.91479
   275  H   1.0    0.09    1.03    1.43    53.87549    59.51990    45.33365
   276  H   1.0    0.09    1.03    1.43    54.74781    62.51427    46.22895
   277  H   1.0    0.09    1.03    1.43    61.01665    60.97725    47.84051
   278  H   1.0    0.10    1.03    1.43    58.80473    63.34853    47.70324
   279  N   5.0   -0.14    3.49    2.07    55.89877    47.71056    51.92167
   280  C   4.0    0.04    4.41    4.39    57.21502    45.67491    53.19411
   281  C   4.0    0.09    3.23    3.04    60.04749    45.85046    52.57099
   282  O   6.0   -0.28    1.13    1.80    60.75389    46.43105    50.44705
   283  C   4.0   -0.02    4.33    4.25    56.15746    43.11133    52.29930
   284  C   4.0   -0.05    4.20    4.00    53.36206    42.95719    53.04464
   285  C   4.0   -0.07    4.13    3.85    57.70411    40.94124    53.40562
   286  C   4.0   -0.08    4.01    3.63    52.02201    40.54619    52.20334
   287  H   1.0    0.08    1.06    1.44    55.54910    47.47323    50.06193
   288  H   1.0    0.06    1.06    1.44    56.85271    45.94229    55.20802
   289  H   1.0    0.05    1.05    1.44    56.28290    43.06922    50.23773
   290  H   1.0    0.05    1.03    1.43    53.19230    43.15462    55.08754
   291  H   1.0    0.05    1.03    1.43    52.36658    44.57869    52.24873
   292  H   1.0    0.04    1.00    1.43    56.85758    39.15095    52.88217
   293  H   1.0    0.05    1.00    1.43    59.63185    40.96166    52.70044
   294  H   1.0    0.05    1.00    1.43    57.77853    41.13067    55.44372
   295  H   1.0    0.04    1.00    1.43    50.01983    40.73003    52.62303
   296  H   1.0    0.04    1.00    1.43    52.23221    40.21573    50.18765
   297  H   1.0    0.04    1.00    1.43    52.71089    38.88927    53.19934
   298  N   5.0   -0.21    3.22    1.96    46.76125    32.82710    52.92832
   299  C   4.0    0.02    4.29    4.18    45.03720    34.68381    51.81105
   300  C   4.0    0.14    3.43    3.09    42.58458    34.89577    53.31229
   301  O   6.0   -0.32    1.29    1.80    41.76960    36.94278    54.03201
   302  C   4.0   -0.05    4.35    4.30    44.56200    33.83576    49.07869
   303  C   4.0   -0.02    4.14    3.89    42.99979    35.40479    47.20125
   304  C   4.0   -0.07    4.09    3.79    40.29124    35.88094    48.07655
   305  C   4.0   -0.08    4.09    3.78    44.34652    37.83608    46.43155
   306  H   1.0    0.08    1.03    1.43    47.18951    31.31542    51.84093
   307  H   1.0    0.04    1.05    1.44    45.96702    36.53234    51.87941
   308  H   1.0    0.04    1.04    1.43    46.41871    33.59497    48.22727
   309  H   1.0    0.04    1.04    1.43    43.71290    31.96245    49.18190
   310  H   1.0    0.04    1.06    1.44    42.88550    34.20082    45.51765
   311  H   1.0    0.04    1.00    1.43    39.20413    36.81347    46.60081
   312  H   1.0    0.05    1.00    1.43    39.35387    34.10292    48.52229
   313  H   1.0    0.06    1.01    1.43    40.23400    37.06539    49.74916
   314  H   1.0    0.04    1.00    1.43    43.14590    38.94600    45.18854
   315  H   1.0    0.04    1.01    1.43    44.78937    38.96713    48.07358
   316  H   1.0    0.04    1.00    1.43    46.08707    37.40698    45.43161
   317  N   5.0   -0.15    3.50    2.08    41.37573    32.71647    53.68425
   318  C   4.0    0.04    4.51    4.55    38.91615    32.62532    54.86547
   319  C   4.0    0.16    3.48    3.11    38.92529    33.55418    57.60652
   320  O   6.0   -0.27    1.25    1.80    37.00318    34.34392    58.61208
   321  C   4.0   -0.03    4.26    4.12    37.78677    29.94598    54.76479
   322  C   4.0   -0.07    4.14    3.88    39.29846    28.14725    56.44152
   323  C   4.0   -0.07    4.12    3.85    35.00607    30.07605    55.55223
   324  H   1.0    0.07    1.07    1.44    42.18929    31.07799    53.12007
   325  H   1.0    0.06    1.06    1.44    37.65090    33.91609    53.84209
   326  H   1.0    0.04    1.05    1.44    37.91247    29.29440    52.80410
   327  H   1.0    0.04    1.00    1.43    38.76716    26.19305    56.10451
   328  H   1.0    0.04    1.00    1.43    41.31337    28.27014    56.07855
   329  H   1.0    0.05    1.01    1.43    39.03891    28.62478    58.41918
   330  H   1.0    0.04    1.00    1.43    34.11515    28.23097    55.52125
   331  H   1.0    0.06    1.01    1.43    34.82742    30.87946    57.43439
   332  H   1.0    0.05    1.00    1.43    33.92799    31.28969    54.29049
   333  N   5.0   -0.15    3.52    2.09    41.11411    33.30835    58.86214
   334  C   4.0    0.05    4.41    4.40    41.32596    34.19310    61.43564
   335  C   4.0    0.17    3.39    3.08    41.82360    37.06184    61.49803
   336  O   6.0   -0.25    1.20    1.80    40.76510    38.47693    62.99071
   337  C   4.0    0.03    4.14    3.89    43.39680    32.70021    62.79841
   338  O   6.0   -0.22    2.05    1.83    43.36599    33.30939    65.38484
   339  H   1.0    0.08    1.07    1.44    42.66323    32.58832    58.01074
   340  H   1.0    0.08    1.06    1.44    39.51539    33.89366    62.39371
   341  H   1.0    0.04    1.01    1.43    43.04620    30.67874    62.48537
   342  H   1.0    0.04    1.01    1.43    45.22395    33.16917    61.93335
   343  H   1.0    0.13    1.02    1.43    44.42695    32.13266    66.29227
   344  N   5.0   -0.14    3.50    2.08    43.51401    37.80881    59.78407
   345  C   4.0    0.04    4.42    4.41    44.46605    40.36439    59.52460
   346  C   4.0    0.17    3.44    3.09    42.44962    42.26112    58.67627
   347  O   6.0   -0.28    1.21    1.80    42.16285    44.30135    59.73093
   348  C   4.0   -0.04    4.37    4.34    46.59116    40.29853    57.55655
   349  C   4.0   -0.01    3.58    3.16    47.91659    42.79322    57.39915
   350  C   4.0   -0.04    3.47    3.10    50.00196    43.27893    58.91536
   351  C   4.0   -0.03    3.49    3.11    47.05623    44.66558    55.77679
   352  C   4.0   -0.03    3.38    3.07    51.22003    45.58781    58.79102
   353  C   4.0   -0.03    3.38    3.07    48.28507    46.96465    55.63155
   354  C   4.0   -0.03    3.38    3.07    50.37497    47.42708    57.13362
   355  H   1.0    0.08    1.08    1.44    44.30800    36.49336    58.63959
   356  H   1.0    0.07    1.05    1.44    45.13520    41.02520    61.37386
   357  H   1.0    0.04    1.03    1.43    47.88600    38.78352    58.07758
   358  H   1.0    0.05    1.04    1.43    45.72858    39.81000    55.75043
   359  H   1.0    0.06    1.03    1.43    50.61965    41.83311    60.20817
   360  H   1.0    0.06    1.05    1.44    45.41924    44.30900    54.62829
   361  H   1.0    0.06    1.03    1.43    52.82699    45.96971    59.98366
   362  H   1.0    0.07    1.03    1.43    47.59995    48.39078    54.34420
   363  H   1.0    0.07    1.03    1.43    51.36090    49.20536    56.99748
   364  N   5.0   -0.13    3.54    2.10    41.21723    41.58341    56.57659
   365  C   4.0    0.04    4.42    4.41    39.05106    42.96253    55.66806
   366  C   4.0    0.16    3.42    3.09    36.64754    41.70639    56.71081
   367  O   6.0   -0.25    1.25    1.80    36.58401    39.50176    57.37379
   368  C   4.0   -0.03    4.31    4.23    38.98500    42.93345    52.75537
   369  C   4.0   -0.02    3.55    3.14    41.26649    44.16846    51.59085
   370  C   4.0   -0.05    3.49    3.11    43.31747    42.72117    50.82136
   371  C   4.0   -0.05    3.46    3.10    41.41203    46.76799    51.27007
   372  C   4.0   -0.05    3.44    3.09    45.44248    43.80687    49.76493
   373  C   4.0   -0.05    3.44    3.09    43.52636    47.87955    50.21873
   374  C   4.0    0.06    3.45    3.09    45.56864    46.41496    49.44713
   375  O   6.0   -0.25    2.11    1.84    47.66281    47.44084    48.39105
   376  H   1.0    0.12    1.12    1.45    41.38016    39.79262    55.90989
   377  H   1.0    0.06    1.06    1.44    39.20673    44.89137    56.40244
   378  H   1.0    0.06    1.03    1.43    38.89214    40.95884    52.17021
   379  H   1.0    0.04    1.03    1.43    37.25871    43.86886    52.12673
   380  H   1.0    0.05    1.03    1.43    43.19647    40.70631    51.09826
   381  H   1.0    0.05    1.03    1.43    39.83404    47.91742    51.84986
   382  H   1.0    0.05    1.03    1.43    47.04606    42.68324    49.19876
   383  H   1.0    0.05    1.03    1.43    43.62492    49.90571    49.99878
   384  H   1.0    0.12    1.04    1.43    47.50820    49.26653    48.35452
   385  N   5.0   -0.13    3.47    2.06    34.62927    43.24580    56.84666
   386  C   4.0    0.03    4.39    4.36    32.11897    42.32349    57.45762
   387  C   4.0    0.16    3.48    3.11    31.32870    40.33639    55.51096
   388  O   6.0   -0.30    1.32    1.80    32.10365    40.41264    53.33618
   389  C   4.0   -0.05    4.40    4.38    30.22645    44.50906    57.22799
   390  C   4.0   -0.02    4.16    3.92    28.28113    44.86704    59.33209
   391  C   4.0   -0.06    4.10    3.80    29.49178    45.30468    61.91258
   392  C   4.0   -0.07    4.13    3.86    26.74008    47.19723    58.58600
   393  H   1.0    0.07    1.07    1.44    34.78031    45.01092    56.14572
   394  H   1.0    0.05    1.05    1.44    32.14714    41.48280    59.34507
   395  H   1.0    0.04    1.04    1.43    31.29194    46.26851    57.09398
   396  H   1.0    0.04    1.05    1.44    29.19134    44.25889    55.45660
   397  H   1.0    0.04    1.05    1.44    27.05164    43.20717    59.42102
   398  H   1.0    0.05    1.00    1.43    28.02151    45.65684    63.30166
   399  H   1.0    0.05    1.00    1.43    30.59927    43.69732    62.55394
   400  H   1.0    0.06    1.00    1.43    30.72765    46.94497    61.85197
   401  H   1.0    0.05    1.00    1.43    25.24158    47.55855    59.93579
   402  H   1.0    0.05    1.00    1.43    27.99076    48.82604    58.54424
   403  H   1.0    0.04    1.00    1.43    25.90529    46.98274    56.71893
   404  N   5.0   -0.15    3.44    2.04    29.54164    38.69282    56.23711
   405  C   4.0    0.03    4.42    4.41    28.57455    36.84529    54.44435
   406  C   4.0    0.15    3.44    3.09    26.93574    38.16033    52.43518
   407  O   6.0   -0.30    1.30    1.80    27.49471    38.07962    50.19497
   408  C   4.0   -0.04    4.25    4.10    27.23180    34.69811    55.82124
   409  C   4.0   -0.03    4.18    3.96    25.99237    32.85000    53.98571
   410  C   4.0    0.25    3.09    3.02    25.16973    30.38897    55.40458
   411  O   6.0   -0.29    1.17    1.80    23.59331    30.62722    57.14414
   412  O   6.0   -0.30    1.18    1.80    26.20403    28.39913    54.72022
   413  H   1.0    0.08    1.06    1.44    28.91551    38.64200    58.03747
   414  H   1.0    0.06    1.06    1.44    30.18118    36.07871    53.38042
   415  H   1.0    0.05    1.03    1.43    28.63135    33.69254    56.96088
   416  H   1.0    0.05    1.03    1.43    25.80242    35.45484    57.09818
   417  H   1.0    0.06    1.02    1.43    24.32570    33.70081    53.11203
   418  H   1.0    0.05    1.02    1.43    27.30075    32.31711    52.47995
   419  N   5.0   -0.14    3.48    2.07    24.98929    39.55234    53.28409
   420  C   4.0    0.04    4.47    4.49    23.22044    40.75813    51.54099
   421  C   4.0    0.16    3.45    3.09    24.63139    42.35552    49.56199
   422  O   6.0   -0.30    1.22    1.80    24.35589    42.08887    47.28549
   423  C   4.0    0.05    4.24    4.09    21.37593    42.34688    53.14257
   424  O   6.0   -0.25    2.14    1.85    20.25795    40.65847    54.88065
   425  C   4.0   -0.06    4.07    3.75    19.43353    43.72157    51.52249
   426  H   1.0    0.09    1.08    1.44    24.30519    39.27923    55.04998
   427  H   1.0    0.06    1.05    1.44    22.14904    39.31284    50.50837
   428  H   1.0    0.04    1.04    1.43    22.48252    43.74899    54.21737
   429  H   1.0    0.12    1.03    1.43    18.65262    41.33170    55.43018
   430  H   1.0    0.05    1.00    1.43    18.16529    44.80349    52.72420
   431  H   1.0    0.06    1.00    1.43    20.34807    45.01893    50.21783
   432  H   1.0    0.06    1.00    1.43    18.32963    42.38932    50.41445
   433  N   5.0   -0.14    3.51    2.08    26.16070    44.09431    50.58515
   434  C   4.0    0.04    4.40    4.38    27.72492    45.81391    49.11477
   435  C   4.0    0.16    3.48    3.11    29.65887    44.32987    47.57244
   436  O   6.0   -0.32    1.34    1.80    30.14591    44.89487    45.37527
   437  C   4.0   -0.04    4.34    4.27    29.02284    47.65062    50.93882
   438  C   4.0   -0.01    3.57    3.15    31.18470    49.13110    49.84926
   439  C   4.0   -0.03    3.48    3.11    31.11272    50.21528    47.45937
   440  C   4.0   -0.05    3.48    3.11    33.34266    49.45372    51.31127
   441  C   4.0   -0.04    3.44    3.09    33.16940    51.52601    46.53798
   442  C   4.0   -0.05    3.43    3.09    35.38864    50.79647    50.42414
   443  C   4.0    0.06    3.45    3.10    35.33443    51.81403    48.00430
   444  O   6.0   -0.26    2.11    1.84    37.32869    53.12318    47.04887
   445  H   1.0    0.07    1.08    1.44    26.26771    44.17888    52.48767
   446  H   1.0    0.08    1.06    1.44    26.52885    46.83725    47.75769
   447  H   1.0    0.04    1.03    1.43    27.58585    48.93334    51.68126
   448  H   1.0    0.04    1.05    1.44    29.81414    46.55444    52.49046
   449  H   1.0    0.07    1.03    1.43    29.44495    49.99807    46.31120
   450  H   1.0    0.05    1.03    1.43    33.42989    48.65903    53.18806
   451  H   1.0    0.06    1.03    1.43    33.11747    52.34921    44.67692
   452  H   1.0    0.05    1.03    1.43    37.01064    51.09306    51.62706
   453  H   1.0    0.11    1.04    1.43    38.76153    52.91921    48.16607
   454  N   5.0   -0.13    3.43    2.04    30.78434    42.40365    48.73112
   455  C   4.0    0.02    4.27    4.14    32.57477    40.80229    47.43573
   456  C   4.0    0.16    3.40    3.08    31.51741    39.77697    44.96494
   457  O   6.0   -0.32    1.36    1.80    32.78098    39.82130    43.00970
   458  H   1.0    0.11    1.10    1.44    30.49066    41.96124    50.56819
   459  H   1.0    0.05    1.02    1.43    34.30153    41.85121    46.99202
   460  H   1.0    0.06    1.03    1.43    33.03826    39.25045    48.70724
   461  N   5.0   -0.13    3.49    2.07    29.20254    38.80777    45.05328
   462  C   4.0    0.04    4.34    4.28    27.94743    37.90544    42.78478
   463  C   4.0    0.17    3.47    3.10    28.09256    39.89219    40.66747
   464  O   6.0   -0.30    1.23    1.80    28.69902    39.34176    38.50702
   465  C   4.0   -0.06    4.11    3.83    25.19452    37.28670    43.34934
   466  H   1.0    0.12    1.10    1.44    28.26436    38.69727    46.72264
   467  H   1.0    0.06    1.05    1.44    28.92384    36.21517    42.07814
   468  H   1.0    0.05    1.00    1.43    24.23648    36.75644    41.61323
   469  H   1.0    0.05    1.00    1.43    25.07527    35.72694    44.68077
   470  H   1.0    0.07    1.01    1.43    24.24760    38.92122    44.15693
   471  N   5.0   -0.13    3.51    2.09    27.41787    42.22129    41.36742
   472  C   4.0    0.04    4.41    4.40    27.45208    44.32735    39.61271
   473  C   4.0    0.17    3.46    3.10    30.14406    44.70668    38.57396
   474  O   6.0   -0.28    1.26    1.80    30.63183    44.68142    36.32038
   475  C   4.0   -0.04    4.28    4.16    26.53298    46.73851    40.90962
   476  C   4.0   -0.02    4.17    3.94    23.78023    46.59336    41.76044
   477  C   4.0    0.25    3.11    3.03    23.08044    48.92558    43.39770
   478  O   6.0   -0.31    1.23    1.80    24.36776    49.31870    45.34593
   479  O   6.0   -0.27    1.16    1.80    21.30757    50.28051    42.66347
   480  H   1.0    0.10    1.08    1.44    27.02349    42.58868    43.19896
   481  H   1.0    0.06    1.05    1.44    26.23498    43.87744    37.99433
   482  H   1.0    0.07    1.04    1.43    27.72517    47.10156    42.55146
   483  H   1.0    0.06    1.03    1.43    26.75630    48.30458    39.58410
   484  H   1.0    0.06    1.02    1.43    22.50467    46.55450    40.14092
   485  H   1.0    0.06    1.02    1.43    23.44864    44.90796    42.90591
   486  N   5.0   -0.14    3.53    2.10    31.87236    45.07705    40.37528
   487  C   4.0    0.04    4.42    4.41    34.51512    45.55678    39.82587
   488  C   4.0    0.16    3.49    3.11    35.47629    43.69859    37.82957
   489  O   6.0   -0.31    1.25    1.80    36.75867    44.36406    36.02275
   490  C   4.0   -0.04    4.35    4.30    36.04425    45.36752    42.27904
   491  C   4.0   -0.03    4.16    3.93    38.73342    46.44404    42.10969
   492  C   4.0   -0.07    4.10    3.81    38.70744    49.30420    41.70987
   493  C   4.0   -0.08    4.11    3.81    40.16084    45.82540    44.54598
   494  H   1.0    0.11    1.12    1.45    31.32900    45.04626    42.21167
   495  H   1.0    0.05    1.05    1.44    34.69024    47.45001    39.00400
   496  H   1.0    0.05    1.03    1.43    35.00845    46.38915    43.74448
   497  H   1.0    0.05    1.03    1.43    36.11222    43.38025    42.83293
   498  H   1.0    0.04    1.05    1.44    39.69810    45.55002    40.51298
   499  H   1.0    0.04    1.00    1.43    40.62401    50.03733    41.66526
   500  H   1.0    0.05    1.00    1.43    37.80915    49.81860    39.93728
   501  H   1.0    0.05    1.00    1.43    37.69452    50.22420    43.23895
   502  H   1.0    0.04    1.00    1.43    42.06169    46.59286    44.47262
   503  H   1.0    0.04    1.00    1.43    39.19316    46.64324    46.16305
   504  H   1.0    0.04    1.00    1.43    40.29564    43.79842    44.84870
   505  N   5.0   -0.13    3.53    2.10    34.87550    41.29837    38.31129
   506  C   4.0    0.04    4.46    4.48    35.66273    39.22591    36.70310
   507  C   4.0    0.16    3.52    3.12    35.01535    39.82222    33.95390
   508  O   6.0   -0.28    1.25    1.80    36.58460    39.82156    32.25390
   509  C   4.0    0.06    4.25    4.09    34.36545    36.74318    37.53956
   510  O   6.0   -0.25    2.12    1.84    35.04884    36.09067    40.02480
   511  C   4.0   -0.06    4.10    3.81    35.13826    34.58215    35.80052
   512  H   1.0    0.11    1.12    1.45    33.90152    40.89725    39.91025
   513  H   1.0    0.06    1.05    1.44    37.71616    38.97717    36.84498
   514  H   1.0    0.06    1.04    1.43    32.30793    37.02168    37.42501
   515  H   1.0    0.15    1.06    1.44    34.32599    37.30746    41.19262
   516  H   1.0    0.06    1.00    1.43    34.34094    32.83451    36.51227
   517  H   1.0    0.05    1.00    1.43    34.44640    34.92426    33.90394
   518  H   1.0    0.06    1.00    1.43    37.17994    34.38421    35.74523
   519  N   5.0   -0.13    3.53    2.10    32.56399    40.26632    33.56007
   520  C   4.0    0.04    4.35    4.30    31.56703    40.67117    31.04021
   521  C   4.0    0.17    3.50    3.11    33.20090    42.59272    29.63745
   522  O   6.0   -0.25    1.25    1.80    33.96760    42.20190    27.48403
   523  C   4.0   -0.05    4.11    3.82    28.82053    41.51550    31.20789
   524  H   1.0    0.11    1.08    1.44    31.33972    40.32481    35.02598
   525  H   1.0    0.06    1.05    1.44    31.69740    38.89629    29.97292
   526  H   1.0    0.06    1.00    1.43    27.99147    41.59312    29.33381
   527  H   1.0    0.06    1.00    1.43    27.78732    40.13734    32.32784
   528  H   1.0    0.07    1.00    1.43    28.71262    43.33839    32.14852
   529  N   5.0   -0.12    3.51    2.09    33.63910    44.73090    30.87841
   530  C   4.0    0.05    4.44    4.45    35.08551    46.76199    29.74840
   531  C   4.0    0.17    3.49    3.11    37.53326    45.81115    28.50851
   532  O   6.0   -0.25    1.24    1.80    37.99115    46.15179    26.26526
   533  C   4.0   -0.03    4.34    4.28    35.75735    48.71972    31.75953
   534  C   4.0    0.16    3.23    3.04    33.41244    50.10611    32.68499
   535  O   6.0   -0.27    1.23    1.80    31.34383    49.10054    32.87364
   536  N   5.0   -0.18    3.19    1.95    33.80012    52.54513    33.23070
   537  H   1.0    0.12    1.08    1.44    32.85509    45.03232    32.60289
   538  H   1.0    0.07    1.05    1.44    33.97021    47.64138    28.23508
   539  H   1.0    0.06    1.04    1.43    36.60972    47.73004    33.36029
   540  H   1.0    0.04    1.03    1.43    37.12955    50.05148    30.99703
   541  H   1.0    0.11    1.03    1.43    32.35393    53.59052    33.90458
   542  H   1.0    0.09    1.03    1.43    35.47816    53.38268    32.94350
   543  N   5.0   -0.14    3.49    2.07    39.18121    44.76196    30.10532
   544  C   4.0    0.04    4.41    4.40    41.68110    44.07964    29.21437
   545  C   4.0    0.11    3.27    3.05    41.46183    42.22797    27.00927
   546  O   6.0   -0.26    1.11    1.80    42.87856    42.24844    25.16683
   547  C   4.0   -0.02    4.26    4.11    43.30172    42.88190    31.30873
   548  C   4.0   -0.07    4.11    3.83    46.07405    42.83030    30.49105
   549  C   4.0   -0.07    4.12    3.85    43.04445    44.30922    33.80542
   550  H   1.0    0.10    1.07    1.44    38.65308    44.30529    31.88445
   551  H   1.0    0.06    1.05    1.44    42.60726    45.79512    28.50150
   552  H   1.0    0.05    1.06    1.44    42.61892    40.94851    31.56830
   553  H   1.0    0.04    1.00    1.43    47.16939    41.70851    31.81618
   554  H   1.0    0.06    1.00    1.43    46.30061    42.01573    28.61867
   555  H   1.0    0.04    1.00    1.43    46.84623    44.73462    30.44097
   556  H   1.0    0.04    1.00    1.43    44.42422    43.58432    35.14197
   557  H   1.0    0.04    1.00    1.43    43.40077    46.30981    33.50982
   558  H   1.0    0.06    1.00    1.43    41.18489    44.08665    34.65216
   559  N   5.0   -0.20    3.18    1.95    18.48231    28.83432    38.16737
   560  C   4.0    0.03    4.26    4.12    19.26077    30.63972    40.07391
   561  C   4.0    0.10    3.24    3.04    17.01364    31.75152    41.50418
   562  O   6.0   -0.27    1.12    1.80    17.08086    32.04572    43.79135
   563  C   4.0    0.06    4.24    4.08    20.71635    32.94715    39.04312
   564  O   6.0   -0.24    2.10    1.84    19.31822    34.35211    37.28098
   565  C   4.0   -0.07    4.06    3.72    23.30812    32.18176    38.01918
   566  H   1.0    0.09    1.02    1.43    19.30850    28.81637    36.43629
   567  H   1.0    0.05    1.05    1.44    20.45045    29.68043    41.47722
   568  H   1.0    0.05    1.05    1.44    20.96496    34.21821    40.66668
   569  H   1.0    0.13    1.02    1.43    18.40166    33.21928    36.14299
   570  H   1.0    0.06    1.00    1.43    24.18921    33.80123    37.11507
   571  H   1.0    0.05    1.00    1.43    24.51851    31.52788    39.53978
   572  H   1.0    0.05    1.00    1.43    23.08771    30.66446    36.66122
   573  H   1.0    0.07    1.05    1.44    24.00556    21.34098    56.69849
   574  H   1.0    0.10    1.07    1.44    22.00036    21.40746    51.65614
   575  H   1.0    0.07    1.05    1.44    30.33526    20.42106    48.47152
   576  H   1.0    0.10    1.07    1.44    59.02985    44.80149    29.00836
   577  H   1.0    0.06    1.04    1.43    61.33323    45.48849    53.90775
   578  H   1.0    0.09    1.07    1.44    48.24313    33.57694    53.29482
   579  H   1.0    0.08    1.05    1.44    40.10989    40.90763    27.01505
   580  H   1.0    0.10    1.07    1.44    18.73423    27.25459    38.74491
   581  H   1.0    0.07    1.05    1.44    15.45136    32.25297    40.56669

  Z AO/shell   Hii/eV     exponent
  1     Wed Apr 25 08:07:45 CEST 2018   EN: 2.200 GM2: 0.406  GM3: 0.0800  RAES: 1.40
     1s    -10.707211    1.230000
  6     Wed Apr 25 08:07:45 CEST 2018   EN: 2.550 GM2: 0.538  GM3: 0.1500  RAES: 3.00
     2s    -13.970922    2.096432
     2p    -10.063292    1.800000
  7     Wed Apr 25 08:07:45 CEST 2018   EN: 3.040 GM2: 0.461  GM3:-0.0640  RAES: 1.90
     2s    -16.686243    2.339881
     2p    -12.523956    2.014332
  8     Wed Apr 25 08:07:45 CEST 2018   EN: 3.440 GM2: 0.452  GM3:-0.0517  RAES: 1.80
     2s    -20.229985    2.439742
     2p    -15.503117    2.137023
 16     Tue Apr 24 11:44:34 CEST 2018   EN: 2.580 GM2: 0.340  GM3:-0.0502  RAES: 3.10
     3s    -20.029654    1.981333
     3p    -11.377694    2.025643
     3d     -0.420282    1.702555
 no old-style atom pair restraining (fixing) potential

molecular fragmentation (1/2 indicates fragments):
111111111111111111111111112222222222222222222222222222222222222222222222
222222222222222222222222222222222222222222222222222222222222222222222222
222222222222222222222222222222222222222222222222222222222222222222222222
222222222222222222222222222222222222222222222222222222222222222222222222
222222222222222222222222222222222222222222222222222222222222222222222222
222222222222222222222222222222222222222222222222222222222222222222222222
222222222222222222222222222222222222222222222222222222222222222222222222
222222222222222222222222222222222222222222222222222222222222222222221222
22222
# atoms in fragment 1/2:    27   554
 fragment masses (1/2) :      191.27     3792.45
CMA distance (Bohr)    :  30.989
constraining FC (au)   :  0.0500
           ------------------------------------------------- 
          |        Self-Consistent Charge Iterations        |
           ------------------------------------------------- 

 Ncao       : 1427
 Nao        : 1426
 Nshell     : 862
 Nel        : 1570
 T(el)      :   500.0
 intcut     :    35.0
 scfconv/Eh :  0.100E-06
   qconv/e  :  0.100E-04
 intneglect :  0.100E-08
 broydamp   :      0.400
 iter      E             dE          RMSdq      gap      omega  full diag
   1   -897.9753624 -0.897975E+03  0.452E+00    2.89       0.0  T
   2   -899.9735608 -0.199820E+01  0.214E+00    1.80       1.0  T
   3   -900.0882367 -0.114676E+00  0.116E+00    2.12       1.0  T
   4   -900.2157126 -0.127476E+00  0.251E-01    1.63       1.0  T
   5   -900.2235536 -0.784100E-02  0.120E-01    1.84       1.0  T
   6   -900.2247366 -0.118297E-02  0.524E-02    1.84       1.0  T
   7   -900.2251912 -0.454606E-03  0.231E-02    1.84       1.0  T
   8   -900.2252364 -0.451883E-04  0.114E-02    1.84       1.0  T
   9   -900.2252533 -0.168991E-04  0.495E-03    1.83       1.0  T
  10   -900.2252558 -0.250699E-05  0.248E-03    1.83       1.7  T
  11   -900.2252565 -0.704870E-06  0.108E-03    1.83       3.9  T
  12   -900.2252566 -0.134565E-06  0.537E-04    1.83       7.7  T
  13   -900.2252567 -0.434499E-07  0.275E-04    1.83      15.1  T
  14   -900.2252567 -0.104635E-07  0.127E-04    1.83      32.6  T
  15   -900.2252567 -0.271871E-08  0.564E-05    1.83      73.6  T
  16   -900.2252567 -0.483737E-09  0.277E-05    1.83     149.7  T
speedup  1.00
cpu  time for SCC   15.49 s
wall time for SCC   15.48 s

   *** convergence criteria satisfied after 16 iterations ***

          eigenvalues
 #    :         773        774        775        776        777        778        779        780
 occ. :        2.000      2.000      2.000      2.000      2.000      2.000      2.000      2.000
 eps  :       -10.413    -10.404    -10.355    -10.349    -10.342    -10.277    -10.208    -10.098
 #    :         781        782        783        784        785        786        787        788
 occ. :        2.000      2.000      2.000      2.000      2.000      0.000      0.000      0.000
 eps  :       -10.019     -9.849     -9.828     -9.761     -9.745     -7.914     -7.881     -7.655
 #    :         789        790        791        792        793        794        795        796
 occ. :        0.000      0.000      0.000      0.000      0.000      0.000      0.000      0.000
 eps  :        -7.555     -7.496     -6.943     -6.796     -6.686     -6.577     -6.560     -6.452


   #   Z            q   n(s)   n(p)   n(d)      C6AA      α(0)
   1   7 N     -0.148  1.232  3.916  0.000    24.192     7.305
   2   6 C     -0.030  1.083  2.947  0.000    21.124     6.547
   3   6 C      0.281  1.030  2.689  0.000    22.238     7.722
   4   8 O     -0.445  1.751  4.693  0.000    22.595     6.373
   5   6 C     -0.083  1.048  3.035  0.000    22.065     6.683
   6   6 C     -0.031  1.071  2.960  0.000    21.140     6.548
   7  16 S     -0.246  1.933  4.258  0.055   151.592    20.723
   8   6 C     -0.060  1.054  3.005  0.000    21.721     6.648
   9   1 H      0.309  0.691  0.000  0.000     0.688     1.300
  10   1 H      0.306  0.694  0.000  0.000     0.697     1.308
  11   1 H      0.295  0.705  0.000  0.000     0.729     1.338
  12   1 H      0.138  0.862  0.000  0.000     1.473     1.898
  13   1 H      0.080  0.920  0.000  0.000     1.977     2.199
  14   1 H      0.095  0.905  0.000  0.000     1.832     2.117
  15   1 H      0.081  0.919  0.000  0.000     1.971     2.195
  16   1 H      0.078  0.922  0.000  0.000     1.997     2.210
  17   1 H      0.050  0.950  0.000  0.000     2.325     2.384
  18   1 H      0.064  0.936  0.000  0.000     2.156     2.296
  19   1 H      0.064  0.936  0.000  0.000     2.149     2.292
  20   7 N     -0.163  1.238  3.926  0.000    24.535     7.357
  21   6 C     -0.041  1.051  2.991  0.000    21.394     6.599
  22   6 C      0.204  1.078  2.719  0.000    23.669     7.967
  23   8 O     -0.352  1.740  4.612  0.000    20.743     6.106
  24   1 H      0.238  0.762  0.000  0.000     0.932     1.513
  25   1 H      0.121  0.879  0.000  0.000     1.604     1.981
  26   1 H      0.132  0.868  0.000  0.000     1.517     1.926
  27   7 N     -0.405  1.309  4.096  0.000    30.506     8.203
  28   6 C      0.041  1.054  2.905  0.000    19.901     6.354
  29   6 C      0.266  1.050  2.684  0.000    22.511     7.770
  30   8 O     -0.538  1.761  4.777  0.000    24.650     6.657
  31   6 C     -0.105  1.037  3.067  0.000    22.554     6.772
  32   1 H      0.184  0.816  0.000  0.000     1.194     1.711
  33   1 H      0.026  0.974  0.000  0.000     2.642     2.542
  34   1 H      0.025  0.975  0.000  0.000     2.665     2.553
  35   1 H      0.053  0.947  0.000  0.000     2.283     2.363
  36   1 H      0.044  0.956  0.000  0.000     2.402     2.424
  37   7 N     -0.165  1.245  3.920  0.000    24.560     7.360
  38   6 C      0.031  1.057  2.912  0.000    20.062     6.378
  39   6 C      0.215  1.084  2.702  0.000    23.459     7.932
  40   8 O     -0.377  1.756  4.622  0.000    21.234     6.178
  41   6 C     -0.083  1.059  3.025  0.000    22.091     6.691
  42   6 C     -0.086  1.050  3.036  0.000    22.143     6.700
  43   6 C     -0.031  1.053  2.978  0.000    21.210     6.572
  44   7 N     -0.135  1.207  3.928  0.000    23.926     7.265
  45   6 C      0.228  1.019  2.753  0.000    23.199     7.886
  46   7 N     -0.244  1.229  4.016  0.000    26.376     7.628
  47   7 N     -0.254  1.229  4.025  0.000    26.611     7.661
  48   1 H      0.243  0.757  0.000  0.000     0.909     1.494
  49   1 H      0.071  0.929  0.000  0.000     2.075     2.252
  50   1 H      0.073  0.927  0.000  0.000     2.049     2.239
  51   1 H      0.096  0.904  0.000  0.000     1.818     2.109
  52   1 H      0.077  0.923  0.000  0.000     2.011     2.217
  53   1 H      0.064  0.936  0.000  0.000     2.151     2.294
  54   1 H      0.099  0.901  0.000  0.000     1.795     2.095
  55   1 H      0.094  0.906  0.000  0.000     1.841     2.122
  56   1 H      0.212  0.788  0.000  0.000     1.045     1.601
  57   1 H      0.249  0.751  0.000  0.000     0.887     1.475
  58   1 H      0.257  0.743  0.000  0.000     0.856     1.449
  59   1 H      0.230  0.770  0.000  0.000     0.965     1.539
  60   1 H      0.255  0.745  0.000  0.000     0.863     1.455
  61   7 N     -0.397  1.305  4.092  0.000    30.292     8.174
  62   6 C      0.019  1.061  2.920  0.000    20.266     6.412
  63   6 C      0.261  1.052  2.687  0.000    22.600     7.784
  64   8 O     -0.506  1.747  4.759  0.000    23.917     6.557
  65   6 C     -0.074  1.057  3.016  0.000    21.903     6.663
  66   6 C     -0.075  1.050  3.025  0.000    21.927     6.667
  67   6 C     -0.099  1.055  3.044  0.000    22.377     6.734
  68   6 C     -0.049  1.058  2.991  0.000    21.553     6.627
  69   7 N     -0.149  1.231  3.917  0.000    24.204     7.307
  70   1 H      0.158  0.842  0.000  0.000     1.351     1.821
  71   1 H      0.072  0.928  0.000  0.000     2.068     2.249
  72   1 H      0.056  0.944  0.000  0.000     2.241     2.341
  73   1 H      0.039  0.961  0.000  0.000     2.460     2.453
  74   1 H      0.050  0.950  0.000  0.000     2.320     2.382
  75   1 H      0.054  0.946  0.000  0.000     2.274     2.358
  76   1 H      0.086  0.914  0.000  0.000     1.918     2.166
  77   1 H      0.076  0.924  0.000  0.000     2.018     2.222
  78   1 H      0.111  0.889  0.000  0.000     1.686     2.031
  79   1 H      0.112  0.888  0.000  0.000     1.676     2.024
  80   1 H      0.296  0.704  0.000  0.000     0.724     1.333
  81   1 H      0.295  0.705  0.000  0.000     0.727     1.336
  82   1 H      0.299  0.701  0.000  0.000     0.717     1.327
  83   7 N     -0.167  1.248  3.919  0.000    24.621     7.369
  84   6 C      0.014  1.066  2.920  0.000    20.355     6.425
  85   6 C      0.286  1.040  2.675  0.000    22.162     7.709
  86   8 O     -0.484  1.747  4.737  0.000    23.438     6.491
  87   6 C     -0.086  1.064  3.021  0.000    22.132     6.698
  88   6 C     -0.014  1.059  2.955  0.000    20.790     6.486
  89   6 C     -0.122  1.040  3.082  0.000    22.903     6.824
  90   6 C     -0.118  1.039  3.079  0.000    22.815     6.811
  91   1 H      0.222  0.778  0.000  0.000     1.000     1.566
  92   1 H      0.078  0.922  0.000  0.000     1.996     2.209
  93   1 H      0.061  0.939  0.000  0.000     2.188     2.313
  94   1 H      0.061  0.939  0.000  0.000     2.189     2.314
  95   1 H      0.047  0.953  0.000  0.000     2.359     2.402
  96   1 H      0.051  0.949  0.000  0.000     2.303     2.373
  97   1 H      0.045  0.955  0.000  0.000     2.386     2.416
  98   1 H      0.041  0.959  0.000  0.000     2.438     2.441
  99   1 H      0.045  0.955  0.000  0.000     2.389     2.417
 100   1 H      0.042  0.958  0.000  0.000     2.425     2.435
 101   1 H      0.035  0.965  0.000  0.000     2.523     2.484
 102   7 N     -0.182  1.245  3.938  0.000    24.951     7.419
 103   6 C      0.015  1.066  2.919  0.000    20.330     6.421
 104   6 C      0.283  1.041  2.676  0.000    22.202     7.716
 105   8 O     -0.477  1.745  4.732  0.000    23.277     6.469
 106   6 C     -0.088  1.066  3.022  0.000    22.172     6.703
 107   6 C     -0.017  1.058  2.959  0.000    20.839     6.493
 108   6 C     -0.124  1.044  3.079  0.000    22.923     6.826
 109   6 C     -0.121  1.042  3.079  0.000    22.863     6.818
 110   1 H      0.212  0.788  0.000  0.000     1.048     1.604
 111   1 H      0.079  0.921  0.000  0.000     1.989     2.206
 112   1 H      0.073  0.927  0.000  0.000     2.053     2.241
 113   1 H      0.063  0.937  0.000  0.000     2.164     2.301
 114   1 H      0.048  0.952  0.000  0.000     2.339     2.392
 115   1 H      0.046  0.954  0.000  0.000     2.368     2.407
 116   1 H      0.047  0.953  0.000  0.000     2.355     2.400
 117   1 H      0.044  0.956  0.000  0.000     2.402     2.423
 118   1 H      0.042  0.958  0.000  0.000     2.419     2.432
 119   1 H      0.044  0.956  0.000  0.000     2.399     2.422
 120   1 H      0.032  0.968  0.000  0.000     2.557     2.501
 121   7 N     -0.190  1.242  3.948  0.000    25.125     7.445
 122   6 C      0.012  1.060  2.929  0.000    20.389     6.430
 123   6 C      0.273  1.041  2.686  0.000    22.384     7.748
 124   8 O     -0.509  1.749  4.759  0.000    23.974     6.565
 125   6 C      0.058  1.040  2.901  0.000    19.811     6.376
 126   8 O     -0.464  1.688  4.776  0.000    22.127     6.350
 127   1 H      0.213  0.787  0.000  0.000     1.041     1.599
 128   1 H      0.080  0.920  0.000  0.000     1.984     2.203
 129   1 H      0.069  0.931  0.000  0.000     2.100     2.266
 130   1 H      0.054  0.946  0.000  0.000     2.272     2.357
 131   1 H      0.329  0.671  0.000  0.000     0.640     1.257
 132   7 N     -0.165  1.243  3.922  0.000    24.570     7.362
 133   6 C      0.023  1.063  2.914  0.000    20.178     6.395
 134   6 C      0.269  1.046  2.685  0.000    22.453     7.760
 135   8 O     -0.497  1.745  4.751  0.000    23.713     6.529
 136   6 C     -0.015  1.062  2.953  0.000    20.802     6.487
 137   6 C     -0.116  1.036  3.080  0.000    22.784     6.806
 138   6 C     -0.124  1.041  3.082  0.000    22.922     6.826
 139   1 H      0.219  0.781  0.000  0.000     1.013     1.577
 140   1 H      0.063  0.937  0.000  0.000     2.165     2.301
 141   1 H      0.052  0.948  0.000  0.000     2.297     2.370
 142   1 H      0.045  0.955  0.000  0.000     2.389     2.417
 143   1 H      0.064  0.936  0.000  0.000     2.150     2.293
 144   1 H      0.040  0.960  0.000  0.000     2.444     2.445
 145   1 H      0.048  0.952  0.000  0.000     2.347     2.396
 146   1 H      0.048  0.952  0.000  0.000     2.344     2.394
 147   1 H      0.040  0.960  0.000  0.000     2.444     2.445
 148   7 N     -0.085  1.230  3.855  0.000    22.900     7.107
 149   6 C      0.022  1.067  2.911  0.000    20.183     6.392
 150   6 C      0.281  1.040  2.679  0.000    22.251     7.724
 151   8 O     -0.482  1.741  4.742  0.000    23.400     6.486
 152   6 C     -0.067  1.053  3.015  0.000    21.763     6.638
 153   6 C     -0.071  1.052  3.019  0.000    21.839     6.649
 154   6 C     -0.011  1.054  2.958  0.000    20.815     6.502
 155   1 H      0.052  0.948  0.000  0.000     2.300     2.372
 156   1 H      0.054  0.946  0.000  0.000     2.268     2.355
 157   1 H      0.056  0.944  0.000  0.000     2.247     2.344
 158   1 H      0.068  0.932  0.000  0.000     2.106     2.269
 159   1 H      0.064  0.936  0.000  0.000     2.156     2.296
 160   1 H      0.066  0.934  0.000  0.000     2.135     2.285
 161   1 H      0.074  0.926  0.000  0.000     2.046     2.237
 162   7 N     -0.162  1.235  3.926  0.000    24.499     7.351
 163   6 C      0.012  1.061  2.927  0.000    20.382     6.429
 164   6 C      0.271  1.044  2.685  0.000    22.422     7.754
 165   8 O     -0.499  1.755  4.744  0.000    23.758     6.535
 166   6 C     -0.076  1.061  3.016  0.000    21.943     6.668
 167   6 C     -0.014  1.056  2.958  0.000    20.794     6.486
 168   6 C     -0.124  1.044  3.080  0.000    22.930     6.827
 169   6 C     -0.118  1.040  3.078  0.000    22.817     6.811
 170   1 H      0.200  0.800  0.000  0.000     1.104     1.646
 171   1 H      0.094  0.906  0.000  0.000     1.837     2.119
 172   1 H      0.047  0.953  0.000  0.000     2.363     2.404
 173   1 H      0.053  0.947  0.000  0.000     2.287     2.365
 174   1 H      0.050  0.950  0.000  0.000     2.317     2.380
 175   1 H      0.060  0.940  0.000  0.000     2.203     2.321
 176   1 H      0.041  0.959  0.000  0.000     2.441     2.443
 177   1 H      0.048  0.952  0.000  0.000     2.341     2.393
 178   1 H      0.054  0.946  0.000  0.000     2.273     2.357
 179   1 H      0.040  0.960  0.000  0.000     2.451     2.448
 180   1 H      0.036  0.964  0.000  0.000     2.507     2.476
 181   7 N     -0.172  1.238  3.933  0.000    24.719     7.384
 182   6 C      0.025  1.057  2.918  0.000    20.157     6.393
 183   6 C      0.274  1.044  2.682  0.000    22.364     7.744
 184   8 O     -0.479  1.732  4.747  0.000    23.315     6.474
 185   6 C     -0.067  1.052  3.016  0.000    21.778     6.642
 186   6 C     -0.082  1.053  3.029  0.000    22.062     6.687
 187   6 C     -0.022  1.053  2.970  0.000    21.050     6.546
 188   7 N     -0.140  1.210  3.929  0.000    24.023     7.279
 189   6 C      0.236  1.019  2.745  0.000    23.051     7.861
 190   7 N     -0.246  1.229  4.017  0.000    26.405     7.632
 191   7 N     -0.264  1.259  4.005  0.000    26.838     7.694
 192   1 H      0.217  0.783  0.000  0.000     1.024     1.585
 193   1 H      0.057  0.943  0.000  0.000     2.235     2.338
 194   1 H      0.067  0.933  0.000  0.000     2.115     2.274
 195   1 H      0.052  0.948  0.000  0.000     2.296     2.369
 196   1 H      0.061  0.939  0.000  0.000     2.192     2.315
 197   1 H      0.084  0.916  0.000  0.000     1.935     2.175
 198   1 H      0.084  0.916  0.000  0.000     1.942     2.180
 199   1 H      0.079  0.921  0.000  0.000     1.987     2.205
 200   1 H      0.227  0.773  0.000  0.000     0.976     1.548
 201   1 H      0.248  0.752  0.000  0.000     0.889     1.477
 202   1 H      0.247  0.753  0.000  0.000     0.896     1.483
 203   1 H      0.222  0.778  0.000  0.000     1.000     1.566
 204   1 H      0.245  0.755  0.000  0.000     0.903     1.488
 205   7 N     -0.179  1.245  3.934  0.000    24.876     7.408
 206   6 C      0.027  1.062  2.911  0.000    20.121     6.388
 207   6 C      0.278  1.042  2.680  0.000    22.301     7.733
 208   8 O     -0.464  1.745  4.719  0.000    23.000     6.430
 209   6 C     -0.064  1.054  3.009  0.000    21.715     6.634
 210   6 C     -0.095  1.064  3.031  0.000    22.314     6.726
 211   6 C      0.370  1.025  2.605  0.000    20.729     7.451
 212   8 O     -0.652  1.778  4.874  0.000    27.423     7.021
 213   8 O     -0.638  1.770  4.868  0.000    27.072     6.976
 214   1 H      0.194  0.806  0.000  0.000     1.139     1.672
 215   1 H      0.063  0.937  0.000  0.000     2.161     2.299
 216   1 H      0.054  0.946  0.000  0.000     2.272     2.357
 217   1 H      0.060  0.940  0.000  0.000     2.195     2.317
 218   1 H      0.024  0.976  0.000  0.000     2.674     2.557
 219   1 H      0.026  0.974  0.000  0.000     2.650     2.546
 220   7 N     -0.186  1.243  3.944  0.000    25.042     7.432
 221   6 C     -0.035  1.053  2.982  0.000    21.281     6.581
 222   6 C      0.278  1.037  2.685  0.000    22.292     7.731
 223   8 O     -0.493  1.747  4.746  0.000    23.624     6.517
 224   1 H      0.214  0.786  0.000  0.000     1.038     1.596
 225   1 H      0.099  0.901  0.000  0.000     1.792     2.094
 226   1 H      0.092  0.908  0.000  0.000     1.862     2.134
 227   7 N     -0.158  1.228  3.930  0.000    24.409     7.338
 228   6 C      0.018  1.063  2.919  0.000    20.279     6.413
 229   6 C      0.270  1.042  2.688  0.000    22.441     7.757
 230   8 O     -0.475  1.745  4.730  0.000    23.247     6.464
 231   6 C     -0.078  1.056  3.022  0.000    21.979     6.673
 232   6 C      0.002  1.075  2.923  0.000    27.987     8.678
 233   6 C     -0.038  1.082  2.956  0.000    28.945     8.823
 234   6 C     -0.038  1.082  2.956  0.000    28.937     8.822
 235   6 C     -0.060  1.073  2.987  0.000    29.495     8.906
 236   6 C     -0.075  1.077  2.997  0.000    29.864     8.961
 237   6 C      0.139  1.045  2.816  0.000    24.965     8.189
 238   8 O     -0.427  1.712  4.715  0.000    21.385     6.243
 239   1 H      0.202  0.798  0.000  0.000     1.096     1.640
 240   1 H      0.076  0.924  0.000  0.000     2.017     2.221
 241   1 H      0.068  0.932  0.000  0.000     2.113     2.273
 242   1 H      0.069  0.931  0.000  0.000     2.095     2.264
 243   1 H      0.042  0.958  0.000  0.000     2.424     2.435
 244   1 H      0.036  0.964  0.000  0.000     2.505     2.475
 245   1 H      0.047  0.953  0.000  0.000     2.363     2.404
 246   1 H      0.041  0.959  0.000  0.000     2.440     2.443
 247   1 H      0.342  0.658  0.000  0.000     0.606     1.223
 248   7 N     -0.155  1.226  3.928  0.000    24.347     7.328
 249   6 C     -0.041  1.053  2.988  0.000    21.383     6.596
 250   6 C      0.271  1.040  2.689  0.000    22.417     7.753
 251   8 O     -0.448  1.735  4.713  0.000    22.655     6.382
 252   1 H      0.202  0.798  0.000  0.000     1.096     1.640
 253   1 H      0.113  0.887  0.000  0.000     1.672     2.022
 254   1 H      0.078  0.922  0.000  0.000     2.000     2.212
 255   7 N     -0.173  1.251  3.921  0.000    24.736     7.387
 256   6 C      0.004  1.066  2.930  0.000    20.512     6.449
 257   6 C      0.268  1.043  2.689  0.000    22.480     7.764
 258   8 O     -0.491  1.753  4.738  0.000    23.583     6.511
 259   6 C     -0.087  1.058  3.029  0.000    22.160     6.701
 260   6 C     -0.089  1.055  3.034  0.000    22.194     6.707
 261   6 C     -0.030  1.052  2.977  0.000    21.188     6.568
 262   7 N     -0.135  1.206  3.929  0.000    23.930     7.265
 263   6 C      0.234  1.017  2.749  0.000    23.103     7.870
 264   7 N     -0.242  1.221  4.021  0.000    26.314     7.619
 265   7 N     -0.262  1.231  4.030  0.000    26.786     7.687
 266   1 H      0.208  0.792  0.000  0.000     1.066     1.617
 267   1 H      0.093  0.907  0.000  0.000     1.848     2.126
 268   1 H      0.074  0.926  0.000  0.000     2.043     2.235
 269   1 H      0.073  0.927  0.000  0.000     2.055     2.242
 270   1 H      0.073  0.927  0.000  0.000     2.054     2.241
 271   1 H      0.072  0.928  0.000  0.000     2.063     2.246
 272   1 H      0.092  0.908  0.000  0.000     1.861     2.133
 273   1 H      0.093  0.907  0.000  0.000     1.848     2.126
 274   1 H      0.236  0.764  0.000  0.000     0.940     1.519
 275   1 H      0.241  0.759  0.000  0.000     0.921     1.503
 276   1 H      0.245  0.755  0.000  0.000     0.904     1.489
 277   1 H      0.249  0.751  0.000  0.000     0.886     1.474
 278   1 H      0.248  0.752  0.000  0.000     0.892     1.480
 279   7 N     -0.165  1.238  3.927  0.000    24.565     7.361
 280   6 C      0.018  1.065  2.916  0.000    20.271     6.411
 281   6 C      0.202  1.086  2.711  0.000    23.697     7.972
 282   8 O     -0.354  1.748  4.606  0.000    20.789     6.113
 283   6 C     -0.022  1.069  2.953  0.000    20.925     6.506
 284   6 C     -0.067  1.050  3.018  0.000    21.781     6.644
 285   6 C     -0.123  1.038  3.086  0.000    22.923     6.827
 286   6 C     -0.112  1.036  3.076  0.000    22.701     6.795
 287   1 H      0.219  0.781  0.000  0.000     1.016     1.579
 288   1 H      0.084  0.916  0.000  0.000     1.938     2.177
 289   1 H      0.063  0.937  0.000  0.000     2.168     2.303
 290   1 H      0.038  0.962  0.000  0.000     2.475     2.460
 291   1 H      0.042  0.958  0.000  0.000     2.427     2.436
 292   1 H      0.068  0.932  0.000  0.000     2.110     2.272
 293   1 H      0.039  0.961  0.000  0.000     2.463     2.454
 294   1 H      0.049  0.951  0.000  0.000     2.331     2.387
 295   1 H      0.038  0.962  0.000  0.000     2.478     2.462
 296   1 H      0.050  0.950  0.000  0.000     2.321     2.383
 297   1 H      0.042  0.958  0.000  0.000     2.419     2.432
 298   7 N     -0.402  1.319  4.083  0.000    30.420     8.191
 299   6 C      0.025  1.060  2.915  0.000    20.172     6.397
 300   6 C      0.269  1.047  2.684  0.000    22.457     7.760
 301   8 O     -0.501  1.747  4.755  0.000    23.814     6.543
 302   6 C     -0.079  1.064  3.016  0.000    22.009     6.678
 303   6 C     -0.015  1.058  2.957  0.000    20.811     6.489
 304   6 C     -0.108  1.037  3.071  0.000    22.617     6.782
 305   6 C     -0.122  1.039  3.083  0.000    22.888     6.822
 306   1 H      0.170  0.830  0.000  0.000     1.270     1.765
 307   1 H      0.046  0.954  0.000  0.000     2.368     2.406
 308   1 H      0.060  0.940  0.000  0.000     2.201     2.320
 309   1 H      0.044  0.956  0.000  0.000     2.400     2.423
 310   1 H      0.037  0.963  0.000  0.000     2.492     2.469
 311   1 H      0.029  0.971  0.000  0.000     2.597     2.520
 312   1 H      0.028  0.972  0.000  0.000     2.619     2.531
 313   1 H      0.032  0.968  0.000  0.000     2.551     2.498
 314   1 H      0.035  0.965  0.000  0.000     2.515     2.480
 315   1 H      0.053  0.947  0.000  0.000     2.279     2.361
 316   1 H      0.047  0.953  0.000  0.000     2.356     2.400
 317   7 N     -0.175  1.242  3.933  0.000    24.786     7.394
 318   6 C      0.016  1.061  2.923  0.000    20.301     6.415
 319   6 C      0.286  1.036  2.678  0.000    22.153     7.708
 320   8 O     -0.468  1.756  4.712  0.000    23.083     6.442
 321   6 C     -0.030  1.065  2.965  0.000    21.076     6.529
 322   6 C     -0.150  1.045  3.105  0.000    23.447     6.904
 323   6 C     -0.125  1.039  3.086  0.000    22.944     6.830
 324   1 H      0.221  0.779  0.000  0.000     1.003     1.569
 325   1 H      0.067  0.933  0.000  0.000     2.124     2.279
 326   1 H      0.061  0.939  0.000  0.000     2.185     2.312
 327   1 H      0.081  0.919  0.000  0.000     1.965     2.192
 328   1 H      0.064  0.936  0.000  0.000     2.157     2.297
 329   1 H      0.058  0.942  0.000  0.000     2.227     2.334
 330   1 H      0.063  0.937  0.000  0.000     2.168     2.303
 331   1 H      0.060  0.940  0.000  0.000     2.202     2.320
 332   1 H      0.031  0.969  0.000  0.000     2.572     2.508
 333   7 N     -0.190  1.238  3.952  0.000    25.116     7.443
 334   6 C      0.012  1.064  2.924  0.000    20.381     6.428
 335   6 C      0.285  1.038  2.678  0.000    22.178     7.711
 336   8 O     -0.496  1.762  4.734  0.000    23.695     6.526
 337   6 C      0.070  1.040  2.890  0.000    19.622     6.346
 338   8 O     -0.492  1.737  4.755  0.000    22.710     6.433
 339   1 H      0.208  0.792  0.000  0.000     1.068     1.618
 340   1 H      0.097  0.903  0.000  0.000     1.815     2.107
 341   1 H      0.068  0.932  0.000  0.000     2.104     2.269
 342   1 H      0.041  0.959  0.000  0.000     2.442     2.444
 343   1 H      0.360  0.640  0.000  0.000     0.564     1.180
 344   7 N     -0.182  1.244  3.938  0.000    24.946     7.418
 345   6 C      0.027  1.062  2.911  0.000    20.127     6.388
 346   6 C      0.284  1.039  2.677  0.000    22.197     7.715
 347   8 O     -0.506  1.754  4.751  0.000    23.911     6.556
 348   6 C     -0.082  1.058  3.024  0.000    22.048     6.683
 349   6 C      0.012  1.076  2.912  0.000    27.738     8.639
 350   6 C     -0.042  1.080  2.962  0.000    29.037     8.837
 351   6 C     -0.040  1.081  2.959  0.000    28.994     8.830
 352   6 C     -0.032  1.078  2.954  0.000    28.808     8.802
 353   6 C     -0.033  1.080  2.952  0.000    28.819     8.803
 354   6 C     -0.033  1.077  2.955  0.000    28.817     8.803
 355   1 H      0.206  0.794  0.000  0.000     1.075     1.624
 356   1 H      0.062  0.938  0.000  0.000     2.178     2.308
 357   1 H      0.072  0.928  0.000  0.000     2.064     2.247
 358   1 H      0.063  0.937  0.000  0.000     2.161     2.299
 359   1 H      0.042  0.958  0.000  0.000     2.426     2.436
 360   1 H      0.035  0.965  0.000  0.000     2.516     2.480
 361   1 H      0.037  0.963  0.000  0.000     2.489     2.467
 362   1 H      0.046  0.954  0.000  0.000     2.376     2.410
 363   1 H      0.032  0.968  0.000  0.000     2.564     2.504
 364   7 N     -0.178  1.248  3.930  0.000    24.862     7.405
 365   6 C      0.027  1.060  2.913  0.000    20.119     6.387
 366   6 C      0.274  1.045  2.681  0.000    22.366     7.744
 367   8 O     -0.474  1.752  4.722  0.000    23.222     6.461
 368   6 C     -0.068  1.053  3.016  0.000    21.803     6.646
 369   6 C     -0.003  1.076  2.927  0.000    28.104     8.696
 370   6 C     -0.041  1.083  2.958  0.000    29.020     8.834
 371   6 C     -0.044  1.081  2.963  0.000    29.090     8.845
 372   6 C     -0.059  1.073  2.987  0.000    29.475     8.903
 373   6 C     -0.073  1.077  2.996  0.000    29.819     8.955
 374   6 C      0.147  1.044  2.809  0.000    24.795     8.161
 375   8 O     -0.397  1.700  4.697  0.000    20.790     6.155
 376   1 H      0.235  0.765  0.000  0.000     0.942     1.520
 377   1 H      0.064  0.936  0.000  0.000     2.153     2.295
 378   1 H      0.055  0.945  0.000  0.000     2.262     2.352
 379   1 H      0.049  0.951  0.000  0.000     2.335     2.389
 380   1 H      0.046  0.954  0.000  0.000     2.373     2.409
 381   1 H      0.034  0.966  0.000  0.000     2.533     2.489
 382   1 H      0.061  0.939  0.000  0.000     2.187     2.313
 383   1 H      0.045  0.955  0.000  0.000     2.377     2.411
 384   1 H      0.332  0.668  0.000  0.000     0.633     1.249
 385   7 N     -0.180  1.246  3.934  0.000    24.902     7.411
 386   6 C      0.023  1.059  2.918  0.000    20.200     6.400
 387   6 C      0.276  1.045  2.679  0.000    22.331     7.739
 388   8 O     -0.484  1.739  4.745  0.000    23.426     6.489
 389   6 C     -0.077  1.064  3.013  0.000    21.952     6.668
 390   6 C     -0.015  1.058  2.957  0.000    20.813     6.489
 391   6 C     -0.122  1.040  3.082  0.000    22.897     6.823
 392   6 C     -0.128  1.044  3.083  0.000    22.992     6.835
 393   1 H      0.197  0.803  0.000  0.000     1.123     1.660
 394   1 H      0.074  0.926  0.000  0.000     2.043     2.235
 395   1 H      0.074  0.926  0.000  0.000     2.043     2.235
 396   1 H      0.035  0.965  0.000  0.000     2.520     2.482
 397   1 H      0.040  0.960  0.000  0.000     2.449     2.447
 398   1 H      0.054  0.946  0.000  0.000     2.268     2.355
 399   1 H      0.035  0.965  0.000  0.000     2.511     2.478
 400   1 H      0.052  0.948  0.000  0.000     2.297     2.370
 401   1 H      0.057  0.943  0.000  0.000     2.232     2.336
 402   1 H      0.060  0.940  0.000  0.000     2.203     2.321
 403   1 H      0.035  0.965  0.000  0.000     2.514     2.480
 404   7 N     -0.185  1.249  3.936  0.000    25.008     7.427
 405   6 C      0.022  1.064  2.914  0.000    20.204     6.400
 406   6 C      0.277  1.047  2.676  0.000    22.315     7.735
 407   8 O     -0.481  1.743  4.738  0.000    23.361     6.480
 408   6 C     -0.062  1.053  3.009  0.000    21.688     6.630
 409   6 C     -0.089  1.062  3.027  0.000    22.204     6.710
 410   6 C      0.363  1.025  2.611  0.000    20.835     7.470
 411   8 O     -0.626  1.750  4.876  0.000    26.766     6.936
 412   8 O     -0.606  1.762  4.845  0.000    26.275     6.872
 413   1 H      0.218  0.782  0.000  0.000     1.017     1.579
 414   1 H      0.075  0.925  0.000  0.000     2.027     2.227
 415   1 H      0.062  0.938  0.000  0.000     2.178     2.308
 416   1 H      0.060  0.940  0.000  0.000     2.200     2.320
 417   1 H      0.002  0.998  0.000  0.000     3.024     2.719
 418   1 H      0.010  0.990  0.000  0.000     2.890     2.658
 419   7 N     -0.187  1.256  3.931  0.000    25.059     7.435
 420   6 C      0.015  1.068  2.917  0.000    20.328     6.420
 421   6 C      0.279  1.040  2.681  0.000    22.274     7.728
 422   8 O     -0.489  1.751  4.737  0.000    23.538     6.505
 423   6 C      0.109  1.050  2.841  0.000    18.880     6.204
 424   8 O     -0.480  1.717  4.762  0.000    22.461     6.398
 425   6 C     -0.137  1.042  3.094  0.000    23.188     6.867
 426   1 H      0.233  0.767  0.000  0.000     0.953     1.529
 427   1 H      0.069  0.931  0.000  0.000     2.098     2.265
 428   1 H      0.040  0.960  0.000  0.000     2.448     2.447
 429   1 H      0.357  0.643  0.000  0.000     0.573     1.189
 430   1 H      0.076  0.924  0.000  0.000     2.018     2.222
 431   1 H      0.043  0.957  0.000  0.000     2.416     2.431
 432   1 H      0.058  0.942  0.000  0.000     2.226     2.333
 433   7 N     -0.186  1.248  3.939  0.000    25.036     7.431
 434   6 C      0.015  1.065  2.921  0.000    20.339     6.422
 435   6 C      0.278  1.041  2.681  0.000    22.302     7.734
 436   8 O     -0.492  1.737  4.755  0.000    23.600     6.513
 437   6 C     -0.088  1.057  3.031  0.000    22.161     6.700
 438   6 C     -0.005  1.074  2.931  0.000    28.143     8.702
 439   6 C     -0.042  1.083  2.958  0.000    29.035     8.836
 440   6 C     -0.044  1.081  2.963  0.000    29.083     8.844
[...]
   250  C   3.957    O  251 1.671    N  255 1.265    C  249 0.953
   251  O   1.994    C  250 1.671    N  255 0.191    C  249 0.057
   252  H   0.959    N  248 0.929
   253  H   0.987    C  249 0.942
   254  H   0.994    C  249 0.950
   255  N   3.435    C  250 1.265    C  256 0.985    H  266 0.922    O  251 0.191
   256  C   3.961    N  255 0.985    C  259 0.972    H  267 0.945    C  257 0.933    O  258 0.055
   257  C   3.947    O  258 1.639    N  279 1.297    C  256 0.933
   258  O   1.960    C  257 1.639    N  279 0.196    C  256 0.055
   259  C   3.985    C  260 1.006    C  256 0.972    H  268 0.972    H  269 0.968
   260  C   3.989    C  259 1.006    C  261 0.995    H  271 0.969    H  270 0.963
   261  C   3.950    C  260 0.995    N  262 0.984    H  272 0.966    H  273 0.958
   262  N   3.476    C  263 1.321    C  261 0.984    H  274 0.916    N  264 0.102    N  265 0.100
   263  C   3.977    N  264 1.321    N  262 1.321    N  265 1.306
   264  N   3.404    C  263 1.321    H  276 0.921    H  275 0.917    N  262 0.102    N  265 0.100
   265  N   3.382    C  263 1.306    H  278 0.920    H  277 0.918    N  262 0.100    N  264 0.100
   266  H   0.957    N  255 0.922
   267  H   0.991    C  256 0.945
   268  H   0.994    C  259 0.972
   269  H   0.994    C  259 0.968
   270  H   0.994    C  260 0.963
   271  H   0.995    C  260 0.969
   272  H   0.991    C  261 0.966
   273  H   0.991    C  261 0.958
   274  H   0.944    N  262 0.916
   275  H   0.942    N  264 0.917
   276  H   0.940    N  264 0.921
   277  H   0.938    N  265 0.918
   278  H   0.939    N  265 0.920
   279  N   3.475    C  257 1.297    C  280 0.982    H  287 0.919    O  258 0.196
   280  C   3.964    N  279 0.982    C  281 0.970    H  288 0.951    C  283 0.943    O  282 0.060
   281  C   3.902    O  282 1.905    C  280 0.970    H  577 0.954
   282  O   2.045    C  281 1.905    C  280 0.060
   283  C   3.984    C  285 1.008    C  284 0.994    H  289 0.963    C  280 0.943
   284  C   3.993    C  286 1.017    C  283 0.994    H  291 0.973    H  290 0.970
   285  C   3.992    C  283 1.008    H  294 0.986    H  293 0.982    H  292 0.979
   286  C   3.993    C  284 1.017    H  296 0.986    H  297 0.985    H  295 0.983
   287  H   0.952    N  279 0.919
   288  H   0.993    C  280 0.951
   289  H   0.996    C  283 0.963
   290  H   0.999    C  284 0.970
   291  H   0.998    C  284 0.973
   292  H   0.995    C  285 0.979
   293  H   0.998    C  285 0.982
   294  H   0.998    C  285 0.986
   295  H   0.998    C  286 0.983
   296  H   0.997    C  286 0.986
   297  H   0.998    C  286 0.985
   298  N   2.983    C  299 1.005    H  578 0.956    H  306 0.952
   299  C   3.984    N  298 1.005    C  302 0.975    H  307 0.964    C  300 0.944
   300  C   3.938    O  301 1.603    N  317 1.303    C  299 0.944
   301  O   1.965    C  300 1.603    N  317 0.190
   302  C   3.991    C  303 0.993    C  299 0.975    H  309 0.971    H  308 0.969
   303  C   3.995    C  305 1.010    C  304 1.009    C  302 0.993    H  310 0.966
   304  C   3.996    C  303 1.009    H  312 0.986    H  311 0.986    H  313 0.981
   305  C   3.994    C  303 1.010    H  316 0.986    H  314 0.986    H  315 0.975
   306  H   0.971    N  298 0.952
   307  H   0.998    C  299 0.964
   308  H   0.996    C  302 0.969
   309  H   0.998    C  302 0.971
   310  H   0.998    C  303 0.966
   311  H   0.999    C  304 0.986
   312  H   0.999    C  304 0.986
   313  H   0.999    C  304 0.981
   314  H   0.999    C  305 0.986
   315  H   0.997    C  305 0.975
   316  H   0.998    C  305 0.986
   317  N   3.472    C  300 1.303    C  318 0.985    H  324 0.912    O  301 0.190
   318  C   3.964    N  317 0.985    C  321 0.959    H  325 0.946    C  319 0.937    O  320 0.052
   319  C   3.944    O  320 1.670    N  333 1.256    C  318 0.937
   320  O   1.988    C  319 1.670    N  333 0.189    C  318 0.052
   321  C   3.985    C  322 1.009    C  323 1.009    H  326 0.963    C  318 0.959
   322  C   3.988    C  321 1.009    H  327 0.977    H  328 0.977    H  329 0.975
   323  C   3.989    C  321 1.009    H  332 0.985    H  331 0.978    H  330 0.966
   324  H   0.951    N  317 0.912
   325  H   0.995    C  318 0.946
   326  H   0.996    C  321 0.963
   327  H   0.993    C  322 0.977
   328  H   0.996    C  322 0.977
   329  H   0.997    C  322 0.975
   330  H   0.996    C  323 0.966
   331  H   0.996    C  323 0.978
   332  H   0.999    C  323 0.985
   333  N   3.436    C  319 1.256    C  334 0.988    H  339 0.919    O  320 0.189
   334  C   3.964    N  333 0.988    C  337 0.976    H  340 0.950    C  335 0.923    O  336 0.053
   335  C   3.941    O  336 1.655    N  344 1.291    C  334 0.923
   336  O   1.965    C  335 1.655    N  344 0.196    C  334 0.053
   337  C   3.955    O  338 1.007    C  334 0.976    H  342 0.965    H  341 0.964
   338  O   1.919    C  337 1.007    H  343 0.857
   339  H   0.957    N  333 0.919
   340  H   0.990    C  334 0.950
   341  H   0.995    C  337 0.964
   342  H   0.998    C  337 0.965
   343  H   0.870    O  338 0.857
   344  N   3.458    C  335 1.291    C  345 0.975    H  355 0.917    O  336 0.196
   345  C   3.963    N  344 0.975    C  348 0.965    H  356 0.956    C  346 0.932    O  347 0.050
   346  C   3.946    O  347 1.634    N  364 1.307    C  345 0.932
   347  O   1.945    C  346 1.634    N  364 0.197    C  345 0.050
   348  C   3.985    C  349 1.008    C  345 0.965    H  357 0.965    H  358 0.965
   349  C   3.987    C  350 1.413    C  351 1.413    C  348 1.008    C  354 0.110
   350  C   3.990    C  352 1.442    C  349 1.413    H  359 0.968    C  353 0.111
   351  C   3.991    C  353 1.444    C  349 1.413    H  360 0.961    C  352 0.112
   352  C   3.992    C  350 1.442    C  354 1.436    H  361 0.971    C  351 0.112
   353  C   3.991    C  351 1.444    C  354 1.440    H  362 0.966    C  350 0.111
   354  C   3.992    C  353 1.440    C  352 1.436    H  363 0.969    C  349 0.110
   355  H   0.957    N  344 0.917
   356  H   0.996    C  345 0.956
   357  H   0.994    C  348 0.965
   358  H   0.996    C  348 0.965
   359  H   0.998    C  350 0.968
   360  H   0.999    C  351 0.961
   361  H   0.998    C  352 0.971
   362  H   0.998    C  353 0.966
   363  H   0.998    C  354 0.969
   364  N   3.467    C  346 1.307    C  365 0.993    H  376 0.877    O  347 0.197
   365  C   3.970    N  364 0.993    C  368 0.957    H  377 0.953    C  366 0.929    O  367 0.055
   366  C   3.943    O  367 1.670    N  385 1.267    C  365 0.929
   367  O   1.979    C  366 1.670    N  385 0.192    C  365 0.055
   368  C   3.987    C  369 1.006    H  378 0.969    H  379 0.968    C  365 0.957
   369  C   3.986    C  371 1.407    C  370 1.400    C  368 1.006    C  374 0.094
   370  C   3.990    C  372 1.456    C  369 1.400    H  380 0.957    C  373 0.104
   371  C   3.990    C  373 1.455    C  369 1.407    H  381 0.965    C  372 0.106
   372  C   3.987    C  370 1.456    C  374 1.359    H  382 0.964    C  371 0.106
   373  C   3.987    C  371 1.455    C  374 1.365    H  383 0.964    C  370 0.104    O  375 0.062
   374  C   3.945    C  373 1.365    C  372 1.359    O  375 1.091    C  369 0.094
   375  O   2.122    C  374 1.091    H  384 0.867    C  373 0.062
   376  H   0.944    N  364 0.877
   377  H   0.996    C  365 0.953
   378  H   0.997    C  368 0.969
   379  H   0.996    C  368 0.968
   380  H   0.998    C  370 0.957
   381  H   0.999    C  371 0.965
   382  H   0.996    C  372 0.964
   383  H   0.998    C  373 0.964
   384  H   0.890    O  375 0.867
   385  N   3.439    C  366 1.267    C  386 0.982    H  393 0.924    O  367 0.192
   386  C   3.965    N  385 0.982    C  389 0.970    H  394 0.948    C  387 0.939    O  388 0.051
   387  C   3.943    O  388 1.621    N  404 1.291    C  386 0.939
   388  O   1.967    C  387 1.621    N  404 0.186    C  386 0.051
   389  C   3.983    C  390 0.993    C  386 0.970    H  395 0.959    H  396 0.959
   390  C   3.993    C  391 1.011    C  392 1.005    C  389 0.993    H  397 0.968
   391  C   3.992    C  390 1.011    H  400 0.985    H  398 0.984    H  399 0.982
   392  C   3.991    C  390 1.005    H  401 0.984    H  403 0.984    H  402 0.982
   393  H   0.961    N  385 0.924
   394  H   0.994    C  386 0.948
   395  H   0.994    C  389 0.959
   396  H   0.999    C  389 0.959
   397  H   0.998    C  390 0.968
   398  H   0.997    C  391 0.984
   399  H   0.999    C  391 0.982
   400  H   0.997    C  391 0.985
   401  H   0.996    C  392 0.984
   402  H   0.996    C  392 0.982
   403  H   0.999    C  392 0.984
   404  N   3.455    C  387 1.291    C  405 0.974    H  413 0.920    O  388 0.186
   405  C   3.961    C  408 0.981    N  404 0.974    H  414 0.954    C  406 0.929
   406  C   3.940    O  407 1.637    N  419 1.289    C  405 0.929
   407  O   1.987    C  406 1.637    N  419 0.191
   408  C   3.988    C  409 1.002    C  405 0.981    H  415 0.972    H  416 0.971
   409  C   3.978    C  408 1.002    H  418 0.981    H  417 0.973    C  410 0.902    O  411 0.051
   410  C   3.943    O  412 1.525    O  411 1.494    C  409 0.902
   411  O   1.793    C  410 1.494    O  412 0.222    C  409 0.051
   412  O   1.839    C  410 1.525    O  411 0.222
   413  H   0.952    N  404 0.920
   414  H   0.994    C  405 0.954
   415  H   0.996    C  408 0.972
   416  H   0.996    C  408 0.971
   417  H   1.000    C  409 0.973
   418  H   1.000    C  409 0.981
   419  N   3.442    C  406 1.289    C  420 0.976    H  426 0.908    O  407 0.191
   420  C   3.966    N  419 0.976    C  423 0.963    H  427 0.953    C  421 0.933    O  422 0.052
   421  C   3.948    O  422 1.643    N  433 1.293    C  420 0.933
   422  O   1.969    C  421 1.643    N  433 0.197    C  420 0.052
   423  C   3.962    C  425 1.006    O  424 0.997    C  420 0.963    H  428 0.952
   424  O   1.932    C  423 0.997    H  429 0.854
   425  C   3.989    C  423 1.006    H  432 0.984    H  431 0.982    H  430 0.979
   426  H   0.946    N  419 0.908
   427  H   0.995    C  420 0.953
   428  H   0.998    C  423 0.952
   429  H   0.872    O  424 0.854
   430  H   0.994    C  425 0.979
   431  H   0.998    C  425 0.982
   432  H   0.997    C  425 0.984
   433  N   3.458    C  421 1.293    C  434 0.968    H  445 0.916    O  422 0.197
   434  C   3.950    C  437 0.972    N  433 0.968    C  435 0.940    H  446 0.934
   435  C   3.945    O  436 1.590    N  454 1.327    C  434 0.940
   436  O   1.974    C  435 1.590    N  454 0.195
   437  C   3.984    C  438 1.008    C  434 0.972    H  448 0.956    H  447 0.954
   438  C   3.986    C  440 1.409    C  439 1.404    C  437 1.008    C  443 0.095
   439  C   3.990    C  441 1.458    C  438 1.404    H  449 0.966    C  442 0.105
   440  C   3.990    C  442 1.453    C  438 1.409    H  450 0.965    C  441 0.106
   441  C   3.988    C  439 1.458    C  443 1.365    H  451 0.966    C  440 0.106
   442  C   3.987    C  440 1.453    C  443 1.371    H  452 0.960    C  439 0.105    O  444 0.060
   443  C   3.944    C  442 1.371    C  441 1.365    O  444 1.073    C  438 0.095
   444  O   2.112    C  443 1.073    H  453 0.870    C  442 0.060
   445  H   0.960    N  433 0.916
   446  H   0.988    C  434 0.934
   447  H   0.991    C  437 0.954
   448  H   0.995    C  437 0.956
   449  H   0.998    C  439 0.966
   450  H   0.998    C  440 0.965
   451  H   0.996    C  441 0.966
   452  H   0.997    C  442 0.960
   453  H   0.893    O  444 0.870
   454  N   3.489    C  435 1.327    C  455 0.993    H  458 0.890    O  436 0.195
   455  C   3.965    N  454 0.993    C  456 0.958    H  459 0.955    H  460 0.949
   456  C   3.946    O  457 1.558    N  461 1.343    C  455 0.958
   457  O   1.951    C  456 1.558    N  461 0.188
   458  H   0.950    N  454 0.890
   459  H   0.991    C  455 0.955
   460  H   0.989    C  455 0.949
   461  N   3.493    C  456 1.343    C  462 0.978    H  466 0.888    O  457 0.188
   462  C   3.967    C  465 0.997    N  461 0.978    H  467 0.952    C  463 0.931    O  464 0.052
   463  C   3.947    O  464 1.622    N  471 1.311    C  462 0.931
   464  O   1.950    C  463 1.622    N  471 0.196    C  462 0.052
   465  C   3.985    C  462 0.997    H  469 0.980    H  468 0.977    H  470 0.977
   466  H   0.945    N  461 0.888
   467  H   0.994    C  462 0.952
   468  H   0.996    C  465 0.977
   469  H   0.995    C  465 0.980
   470  H   0.995    C  465 0.977
   471  N   3.479    C  463 1.311    C  472 0.976    H  480 0.913    O  464 0.196
   472  C   3.963    C  475 0.982    N  471 0.976    H  481 0.957    C  473 0.924
   473  C   3.950    O  474 1.626    N  486 1.320    C  472 0.924
   474  O   1.965    C  473 1.626    N  486 0.202
   475  C   3.989    C  476 1.002    C  472 0.982    H  483 0.976    H  482 0.961
   476  C   3.987    C  475 1.002    H  484 0.982    H  485 0.965    C  477 0.919
   477  C   3.937    O  479 1.527    O  478 1.463    C  476 0.919
   478  O   1.830    C  477 1.463    O  479 0.215
   479  O   1.815    C  477 1.527    O  478 0.215
   480  H   0.956    N  471 0.913
   481  H   0.997    C  472 0.957
   482  H   0.995    C  475 0.961
   483  H   0.998    C  475 0.976
   484  H   1.000    C  476 0.982
   485  H   0.999    C  476 0.965
   486  N   3.464    C  473 1.320    C  487 0.971    H  494 0.873    O  474 0.202
   487  C   3.959    C  490 0.977    N  486 0.971    H  495 0.948    C  488 0.939    O  489 0.050
   488  C   3.946    O  489 1.612    N  505 1.311    C  487 0.939
   489  O   1.945    C  488 1.612    N  505 0.192    C  487 0.050
   490  C   3.982    C  491 0.992    C  487 0.977    H  497 0.970    H  496 0.967
   491  C   3.991    C  492 1.010    C  493 1.007    C  490 0.992    H  498 0.969
   492  C   3.992    C  491 1.010    H  500 0.982    H  499 0.982    H  501 0.982
   493  C   3.993    C  491 1.007    H  504 0.986    H  503 0.985    H  502 0.983
   494  H   0.943    N  486 0.873
   495  H   0.995    C  487 0.948
   496  H   0.996    C  490 0.967
   497  H   0.998    C  490 0.970
   498  H   0.999    C  491 0.969
   499  H   0.996    C  492 0.982
   500  H   0.999    C  492 0.982
   501  H   0.997    C  492 0.982
   502  H   0.996    C  493 0.983
   503  H   0.998    C  493 0.985
   504  H   0.999    C  493 0.986
   505  N   3.465    C  488 1.311    C  506 0.979    H  512 0.883    O  489 0.192
   506  C   3.965    N  505 0.979    C  509 0.952    H  513 0.952    C  507 0.937    O  508 0.051
   507  C   3.948    O  508 1.628    N  519 1.304    C  506 0.937
   508  O   1.956    C  507 1.628    N  519 0.198    C  506 0.051
   509  C   3.960    C  511 1.004    O  510 1.003    H  514 0.954    C  506 0.952
   510  O   1.951    C  509 1.003    H  515 0.846
   511  C   3.988    C  509 1.004    H  517 0.984    H  518 0.983    H  516 0.982
   512  H   0.950    N  505 0.883
   513  H   0.994    C  506 0.952
   514  H   0.999    C  509 0.954
   515  H   0.896    O  510 0.846
   516  H   0.994    C  511 0.982
   517  H   0.998    C  511 0.984
   518  H   0.995    C  511 0.983
   519  N   3.473    C  507 1.304    C  520 0.975    H  524 0.914    O  508 0.198
   520  C   3.967    C  523 0.997    N  519 0.975    H  525 0.954    C  521 0.936
   521  C   3.950    O  522 1.617    N  529 1.318    C  520 0.936
   522  O   1.937    C  521 1.617    N  529 0.197
   523  C   3.986    C  520 0.997    H  526 0.982    H  528 0.980    H  527 0.979
   524  H   0.957    N  519 0.914
   525  H   0.996    C  520 0.954
   526  H   0.995    C  523 0.982
   527  H   0.995    C  523 0.979
   528  H   0.995    C  523 0.980
   529  N   3.478    C  521 1.318    C  530 0.978    H  537 0.905    O  522 0.197
   530  C   3.965    C  533 0.984    N  529 0.978    H  538 0.955    C  531 0.928
   531  C   3.951    O  532 1.636    N  543 1.310    C  530 0.928
   532  O   1.961    C  531 1.636    N  543 0.199
   533  C   3.988    C  530 0.984    H  540 0.966    C  534 0.965    H  539 0.938    O  535 0.055
   534  C   3.948    O  535 1.648    N  536 1.307    C  533 0.965
   535  O   1.962    C  534 1.648    N  536 0.202    C  533 0.055
   536  N   3.390    C  534 1.307    H  541 0.923    H  542 0.923    O  535 0.202
   537  H   0.951    N  529 0.905
   538  H   0.996    C  530 0.955
   539  H   0.990    C  533 0.938
   540  H   0.992    C  533 0.966
   541  H   0.944    N  536 0.923
   542  H   0.942    N  536 0.923
   543  N   3.474    C  531 1.310    C  544 0.974    H  550 0.906    O  532 0.199
   544  C   3.955    C  545 0.980    N  543 0.974    C  547 0.945    H  551 0.943    O  546 0.058
   545  C   3.901    O  546 1.880    C  544 0.980    H  579 0.958
   546  O   2.025    C  545 1.880    C  544 0.058
   547  C   3.980    C  548 1.007    C  549 1.004    H  552 0.967    C  544 0.945
   548  C   3.989    C  547 1.007    H  554 0.985    H  555 0.984    H  553 0.983
   549  C   3.990    C  547 1.004    H  557 0.982    H  556 0.978    H  558 0.976
   550  H   0.953    N  543 0.906
   551  H   0.991    C  544 0.943
   552  H   0.998    C  547 0.967
   553  H   0.995    C  548 0.983
   554  H   0.998    C  548 0.985
   555  H   0.996    C  548 0.984
   556  H   0.993    C  549 0.978
   557  H   0.997    C  549 0.982
   558  H   0.998    C  549 0.976
   559  N   2.993    C  560 1.021    H  580 0.952    H  566 0.945
   560  C   3.987    N  559 1.021    C  561 0.976    H  567 0.957    C  563 0.934    O  562 0.058
   561  C   3.893    O  562 1.889    C  560 0.976    H  581 0.952
   562  O   2.032    C  561 1.889    C  560 0.058
   563  C   3.957    O  564 1.001    C  565 0.991    H  568 0.957    C  560 0.934
   564  O   1.942    C  563 1.001    H  569 0.862
   565  C   3.992    C  563 0.991    H  571 0.985    H  570 0.981    H  572 0.980
   566  H   0.970    N  559 0.945
   567  H   0.998    C  560 0.957
   568  H   0.999    C  563 0.957
   569  H   0.882    O  564 0.862
   570  H   0.996    C  565 0.981
   571  H   0.997    C  565 0.985
   572  H   0.996    C  565 0.980
   573  H   0.994    C   22 0.951
   574  H   0.969    N   27 0.958
   575  H   0.995    C   39 0.954
   576  H   0.964    N   61 0.952
   577  H   0.994    C  281 0.954
   578  H   0.965    N  298 0.956
   579  H   0.997    C  545 0.958
   580  H   0.964    N  559 0.952
   581  H   0.993    C  561 0.952
 MOs/occ written to file <molden.input>
 
molecular dipole:
                 x           y           z       tot (Debye)
 q only:      113.605      67.821     106.125
   full:      111.127      68.482     107.552     429.906
molecular quadrupole (traceless):
                xx          xy          yy          xz          yz          zz
 q only:     2366.556    7272.318   -3828.935    7558.576    4438.272    1462.379
  q+dip:     2126.991    7134.882   -3742.681    7473.811    4624.544    1615.690
   full:     2128.026    7133.688   -3742.447    7477.126    4626.236    1614.421
speedup  0.88
cpu  time for grad   22.10 s
wall time for grad   25.05 s

SCC energy    :    -900.2501791
rep           :      10.7924837
ES            :       2.8225710
AES           :      -0.1230128
AXC           :       0.2788144
disp          :      -0.7605371
XB            :       0.0000000
fix           :       0.0000000
Gborn         :       0.0000000
Gsasa         :       0.0000000
Ghb           :       0.0000000
Gshift        :       0.0000000
Gsolv         :      -0.7946871     -498.67
Etot ala COSMO:    -900.2501791
grad norm     :       0.4615907
total E       :    -889.3904539
atomizationE  :     163.0690914   102327.40
(atE without considering molecular charge,
 total energy contains solvation terms)
H-L gap (eV)  :          1.8303

------------------------------------------------------------------------
 * finished run on 2019/03/14 at 16:03:44.221     
------------------------------------------------------------------------
 total:
 * wall-time:     0 d,  0 h,  0 min, 26.361 sec
 *  cpu-time:     0 d,  0 h,  0 min, 23.272 sec
 * ratio c/w:     0.883 speedup
 SCF:
 * wall-time:     0 d,  0 h,  0 min, 25.984 sec
 *  cpu-time:     0 d,  0 h,  0 min, 23.031 sec
 * ratio c/w:     0.886 speedup

