      -----------------------------------------------------------      
     |                   =====================                   |     
     |                           x T B                           |     
     |                   =====================                   |     
     |                         S. Grimme                         |     
     |          Mulliken Center for Theoretical Chemistry        |     
     |                    University of Bonn                     |     
     |                Version 6.1 RC1 (SAW190329)                |     
      -----------------------------------------------------------      

   This program is distributed in the hope that it will be useful,
   but WITHOUT ANY WARRANTY; without even the implied warranty of
   MERCHANTABILITY or FITNESS FOR A PARTICULAR PURPOSE.
   
   FOR NON-COMMERCIAL, ACADEMIA USE ONLY.
   
   Cite this work as:
   S. Grimme, C. Bannwarth, P. Shushkov, J. Comput. Theory Chem., 2017,
   13, 1989-2009. DOI: 10.1021/acs.jctc.7b00118
   C. Bannwarth, S. Ehlert and S. Grimme., J. Comput. Theory Chem., 2019,
   just accepted. DOI: 10.1021/acs.jctc.8b01176
   
   for sTDA-xTB:
   S. Grimme and C. Bannwarth, J. Chem. Phys., 2016, 145, 054103.
   DOI: 10.1063/1.4959605
   
   in the mass-spec context:
   V. Asgeirsson, C. Bauer and S. Grimme, Chem. Sci., 2017, 8, 4879.
   DOI: 10.1039/c7sc00601b
   
   for metadynamics refer to:
   S. Grimme, ChemRxiv, Preprint. DOI: 10.26434/chemrxiv.7660532.v1
   
   with help from (in alphabetical order)
   C. Bannwarth, F. Bohle, G. Brandenburg, E. Caldeweyher, M. Checinski,
   S. Dohm, S. Ehlert, S. Ehrlich, F. März, H. Neugebauer, J. Pisarek,
   P. Pracht, P. Shushkov, and S. Spicher.
   
 * started run on 2019/05/31 at 07:36:14.058     

           -------------------------------------------------
          |                Calculation Setup                |
           -------------------------------------------------

          program call               : /home/lum/install/xtb/xtb-190329/bin/xtb xtb_tmp.xyz --chrg 0 --grad --gfn 2 --etemp 500 --acc 0.1 --gbsa h2o --parallel 1
          hostname                   : cu05
          coordinate file            : xtb_tmp.xyz
          omp threads                :                     1
          number of atoms            :                   627
          number of electrons        :                  1672
          charge                     :                     0
          spin                       :                   0.0
          first test random number   :      0.14129282534583


molecular fragmentation (1/2 indicates fragments):
111111111111112222222222222222222222222222222222222222222222222222222222
222222222222222222222222222222222222222222222222222222222222222222222222
222222222222222222222222222222222222222222222222222222222222222222222222
222222222222222222222222222222222222222222222222222222222222222222222222
222222222222222222222222222222222222222222222222222222222222222222222222
222222222222222222222222222222222222222222222222222222222222222222222222
222222222222222222222222222222222222222222222222222222222222222222222222
222222222222222222222222222222222222222222222222222222222222222222222222
222222222222222222222222222222211222222222222222222
# atoms in fragment 1/2:    16   611
 fragment masses (1/2) :       99.13     4144.06
CMA distance (Bohr)    :  28.054
constraining FC (au)   :  0.0500

########################################################################
# WARNING! Please study the warnings concerning your input carefully
#  - XTBPATH is not set, using XTBHOME instead
########################################################################

           ------------------------------------------------- 
          |                 G F N 2 - x T B                 |
          | Geometry, Frequencies, Noncovalent interactions |
          |            JCTC 2018 parametrisation            |
           ------------------------------------------------- 
 
             k(s)              :                1.8500
             k(p)              :                2.2300
             k(d)              :                2.2300
             k(f)              :                2.0000
             kEN (H0ij)        :               -2.0000
             D4 a1             :                0.5200
             D4 a2             :                5.0000
             D4 s6             :                1.0000
             D4 s8             :                2.7000
             D4 s9             :                5.0000
             alphaj            :                2.0000

  Z AO/shell   Hii/eV     exponent
  1     Wed Apr 25 08:07:45 CEST 2018   EN: 2.200 GM2: 0.406  GM3: 0.0800  RAES: 1.40
     1s    -10.707211    1.230000
  6     Wed Apr 25 08:07:45 CEST 2018   EN: 2.550 GM2: 0.538  GM3: 0.1500  RAES: 3.00
     2s    -13.970922    2.096432
     2p    -10.063292    1.800000
  7     Wed Apr 25 08:07:45 CEST 2018   EN: 3.040 GM2: 0.461  GM3:-0.0640  RAES: 1.90
     2s    -16.686243    2.339881
     2p    -12.523956    2.014332
  8     Wed Apr 25 08:07:45 CEST 2018   EN: 3.440 GM2: 0.452  GM3:-0.0517  RAES: 1.80
     2s    -20.229985    2.439742
     2p    -15.503117    2.137023
 16     Tue Apr 24 11:44:34 CEST 2018   EN: 2.580 GM2: 0.340  GM3:-0.0502  RAES: 3.10
     3s    -20.029654    1.981333
     3p    -11.377694    2.025643
     3d     -0.420282    1.702555

 Solvent             : h2o
 Using internal parameter file: .param_gbsa2_h2o
 Gsolv ref. state (COSMO-RS): gsolv [1 M gas/solution]
 temperature (mdtemp)       :    298.150000000000     
 dielectric constant        :    80.2000000000000     
 rho                        :    1.00000000000000     
 mass                       :    18.0000000000000     
 surface tension            :    15.5689454083859     
 probe radius               :   0.975313790000000     
 vdW radii scaling          :    1.00000000000000     
 Gshift (Eh)                :   1.857443126794793E-003
 c1                         :    1.55243817000000     
 soset                      :   0.130326360000000     
 HB correction              :  T
 Number of grid points      :          230

            Z     q(EN)     CN     RAES       Cart. coordinates
     1  N   5.0   -0.54    3.02    1.93    75.57328    63.68187    71.31848
     2  C   4.0    0.06    4.01    3.63    74.79112    61.26468    70.25987
     3  C   4.0    0.07    3.00    3.02    74.00293    61.49976    67.49146
     4  O   6.0   -0.41    1.00    1.80    74.67131    59.94190    65.91899
     5  C   4.0   -0.14    4.01    3.63    72.61579    60.37609    71.96099
     6  C   4.0   -0.15    4.01    3.63    71.68837    62.79293    73.24163
     7  C   4.0   -0.05    4.01    3.64    74.09775    64.35266    73.53888
     8  H   1.0    0.12    0.99    1.43    76.38804    59.94842    70.28746
     9  H   1.0    0.10    0.99    1.43    71.14174    59.44714    70.87327
    10  H   1.0    0.09    0.99    1.43    73.33872    59.05281    73.36233
    11  H   1.0    0.10    0.99    1.43    70.33315    63.78146    72.04671
    12  H   1.0    0.09    0.99    1.43    70.78778    62.41835    75.04808
    13  H   1.0    0.10    0.99    1.43    73.71430    66.37306    73.62705
    14  H   1.0    0.09    0.99    1.43    75.12502    63.79691    75.24729
    15  N   5.0   -0.71    3.00    1.93    37.49369    58.96822    54.80929
    16  C   4.0    0.06    3.98    3.58    39.13494    56.77073    54.92145
    17  C   4.0    0.08    3.00    3.02    37.88289    54.57335    53.50369
    18  O   6.0   -0.41    1.00    1.80    39.00940    53.39382    51.85785
    19  C   4.0   -0.15    3.99    3.60    39.64650    56.11353    57.68649
    20  C   4.0   -0.15    3.98    3.59    40.80053    53.49403    58.05412
    21  C   4.0   -0.04    3.99    3.60    41.85588    53.22362    60.72466
    22  N   5.0   -0.48    3.02    1.93    44.28687    54.47804    60.89715
    23  C   4.0    0.36    3.00    3.02    45.32116    55.52759    62.93180
    24  N   5.0   -0.64    3.01    1.93    44.03599    55.93980    65.03691
    25  N   5.0   -0.65    3.02    1.93    47.79284    56.08236    62.82913
    26  H   1.0    0.25    1.00    1.43    37.12495    59.89873    56.44740
    27  H   1.0    0.12    0.99    1.43    40.91321    57.16658    53.92591
    28  H   1.0    0.12    0.99    1.43    40.90775    57.54565    58.46462
    29  H   1.0    0.11    0.99    1.43    37.86356    56.19037    58.71588
    30  H   1.0    0.12    0.99    1.43    39.36617    52.04369    57.76288
    31  H   1.0    0.12    0.99    1.43    42.29390    53.16607    56.67080
    32  H   1.0    0.11    0.99    1.43    40.53884    54.04172    62.08169
    33  H   1.0    0.11    0.99    1.43    42.08529    51.21801    61.17251
    34  H   1.0    0.23    1.00    1.43    45.41044    54.20732    59.37237
    35  H   1.0    0.24    1.00    1.43    42.08565    55.96349    65.10631
    36  H   1.0    0.25    1.00    1.43    44.89084    56.85668    66.47041
    37  H   1.0    0.26    1.00    1.43    48.75434    55.88650    61.19900
    38  H   1.0    0.26    1.00    1.43    48.68291    56.92847    64.28243
    39  N   5.0   -0.73    3.00    1.93    64.60911    70.52218    78.37844
    40  C   4.0    0.06    3.99    3.60    65.86888    68.16494    77.76778
    41  C   4.0    0.27    3.01    3.02    64.03555    65.95335    78.06052
    42  O   6.0   -0.48    1.00    1.80    63.93273    64.19478    76.55745
    43  C   4.0   -0.22    3.99    3.60    68.08522    67.72055    79.54805
    44  H   1.0    0.25    1.00    1.43    65.45754    71.69416    79.63370
    45  H   1.0    0.09    0.99    1.43    66.52779    68.22363    75.80480
    46  H   1.0    0.09    0.99    1.43    68.82189    65.82448    79.27177
    47  H   1.0    0.09    0.99    1.43    69.60033    69.05429    79.17165
    48  H   1.0    0.10    0.99    1.43    67.45008    67.91813    81.49122
    49  N   5.0   -0.48    3.01    1.93    62.69418    66.05804    80.19180
    50  C   4.0    0.06    3.99    3.61    61.06642    64.01389    80.99067
    51  C   4.0    0.29    3.01    3.02    58.95587    63.62596    79.05953
    52  O   6.0   -0.48    1.00    1.80    58.29690    61.52283    78.37553
    53  C   4.0   -0.23    3.98    3.59    59.96380    64.54504    83.59254
    54  H   1.0    0.24    1.00    1.43    62.94795    67.55555    81.36134
    55  H   1.0    0.12    0.99    1.43    62.15296    62.24371    81.02490
    56  H   1.0    0.12    0.99    1.43    58.86587    62.91696    84.19397
    57  H   1.0    0.10    0.99    1.43    61.49084    64.86345    84.92769
    58  H   1.0    0.10    0.99    1.43    58.76483    66.21042    83.51942
    59  N   5.0   -0.49    3.01    1.93    57.88078    65.76192    78.25042
    60  C   4.0    0.07    4.00    3.61    55.90928    65.78315    76.35021
    61  C   4.0    0.29    3.01    3.02    56.86794    64.46786    73.96816
    62  O   6.0   -0.48    1.00    1.80    55.56094    62.98478    72.74683
    63  C   4.0   -0.10    3.98    3.58    55.10296    68.51736    75.74759
    64  C   4.0   -0.17    3.98    3.58    53.58963    69.69663    77.92587
    65  C   4.0   -0.22    3.98    3.59    53.65020    68.66586    73.25764
    66  C   4.0   -0.23    3.98    3.58    50.98698    68.54605    78.38433
    67  H   1.0    0.23    1.00    1.43    58.44622    67.42535    79.01123
    68  H   1.0    0.11    0.99    1.43    54.28148    64.68254    77.01864
    69  H   1.0    0.10    0.99    1.43    56.84727    69.60858    75.53873
    70  H   1.0    0.10    0.99    1.43    54.70137    69.56048    79.65485
    71  H   1.0    0.10    0.99    1.43    53.34708    71.70120    77.50025
    72  H   1.0    0.10    0.99    1.43    53.00255    70.58992    72.93934
    73  H   1.0    0.11    0.99    1.43    54.85066    68.12729    71.67963
    74  H   1.0    0.11    0.99    1.43    52.02543    67.41206    73.29912
    75  H   1.0    0.10    0.99    1.43    50.12309    69.42685    80.02790
    76  H   1.0    0.10    0.99    1.43    49.74469    68.84944    76.77851
    77  H   1.0    0.10    0.99    1.43    51.09944    66.52747    78.75032
    78  N   5.0   -0.47    3.01    1.93    59.19620    65.10961    73.26073
    79  C   4.0    0.08    4.00    3.62    60.29038    64.09776    70.95809
    80  C   4.0    0.30    3.01    3.02    60.35390    61.21333    71.15941
    81  O   6.0   -0.47    1.00    1.80    59.58629    59.82246    69.45392
    82  C   4.0   -0.09    3.98    3.58    62.94629    65.18549    70.49185
    83  C   4.0   -0.16    3.98    3.59    62.75345    68.03890    70.00636
    84  C   4.0   -0.22    3.98    3.59    64.17900    63.83259    68.25816
    85  C   4.0   -0.24    3.98    3.58    65.30901    69.33612    69.71578
    86  H   1.0    0.25    1.00    1.43    60.16575    66.46359    74.21149
    87  H   1.0    0.12    0.99    1.43    59.06813    64.57724    69.35060
    88  H   1.0    0.13    0.99    1.43    64.06591    64.85601    72.19957
    89  H   1.0    0.10    0.99    1.43    61.63122    68.35400    68.30415
    90  H   1.0    0.10    0.99    1.43    61.76103    68.93482    71.57402
    91  H   1.0    0.10    0.99    1.43    66.16172    64.33219    68.13331
    92  H   1.0    0.12    0.99    1.43    64.05554    61.79216    68.45099
    93  H   1.0    0.11    0.99    1.43    63.24556    64.37332    66.50626
    94  H   1.0    0.10    0.99    1.43    65.02222    71.36370    69.52194
    95  H   1.0    0.09    0.99    1.43    66.49262    69.01710    71.36356
    96  H   1.0    0.10    0.99    1.43    66.28835    68.68260    68.03641
    97  N   5.0   -0.47    3.01    1.93    61.33962    60.35133    73.30376
    98  C   4.0    0.07    3.99    3.61    61.60835    57.66850    73.79102
    99  C   4.0    0.29    3.01    3.02    59.01018    56.39399    73.79122
   100  O   6.0   -0.44    1.00    1.80    58.59652    54.49871    72.51394
   101  C   4.0   -0.14    3.99    3.60    62.95813    57.25004    76.30401
   102  C   4.0   -0.10    3.98    3.58    65.78221    57.90435    76.22300
   103  C   4.0   -0.23    3.98    3.59    66.81509    57.99862    78.91668
   104  C   4.0   -0.23    3.98    3.59    67.26352    55.97401    74.67304
   105  H   1.0    0.29    1.00    1.43    62.07363    61.56813    74.59634
   106  H   1.0    0.12    0.99    1.43    62.67256    56.79483    72.23977
   107  H   1.0    0.13    0.99    1.43    62.01759    58.41142    77.72577
   108  H   1.0    0.10    0.99    1.43    62.74597    55.26862    76.82835
   109  H   1.0    0.13    0.99    1.43    66.01336    59.77338    75.36848
   110  H   1.0    0.09    0.99    1.43    68.82918    58.39574    78.89557
   111  H   1.0    0.10    0.99    1.43    65.87840    59.47383    79.99654
   112  H   1.0    0.09    0.99    1.43    66.52520    56.19407    79.85437
   113  H   1.0    0.09    0.99    1.43    69.26877    56.41247    74.71428
   114  H   1.0    0.10    0.99    1.43    66.99780    54.08522    75.43883
   115  H   1.0    0.10    0.99    1.43    66.66871    55.95716    72.70687
   116  N   5.0   -0.48    3.01    1.93    57.25520    57.48790    75.22305
   117  C   4.0    0.08    4.00    3.62    54.71001    56.47243    75.30765
   118  C   4.0    0.31    3.02    3.02    53.86478    55.82500    72.63289
   119  O   6.0   -0.46    1.00    1.80    52.94849    53.77565    72.09553
   120  C   4.0   -0.13    3.99    3.60    52.78069    58.34582    76.40233
   121  C   4.0   -0.11    3.97    3.58    51.88130    57.82124    79.11115
   122  C   4.0   -0.23    3.98    3.59    51.10188    55.06436    79.48577
   123  C   4.0   -0.21    3.98    3.59    53.82908    58.61443    81.07658
   124  H   1.0    0.31    1.00    1.43    57.65699    59.00952    76.32521
   125  H   1.0    0.11    0.99    1.43    54.71759    54.69632    76.36956
   126  H   1.0    0.13    0.99    1.43    53.59433    60.23494    76.30636
   127  H   1.0    0.12    0.99    1.43    51.10738    58.32235    75.19347
   128  H   1.0    0.10    0.99    1.43    50.18790    58.98384    79.36609
   129  H   1.0    0.09    0.99    1.43    49.84211    54.91238    81.10127
   130  H   1.0    0.12    0.99    1.43    50.11435    54.36589    77.82604
   131  H   1.0    0.10    0.99    1.43    52.73093    53.86112    79.84461
   132  H   1.0    0.11    0.99    1.43    53.18683    58.10742    82.96010
   133  H   1.0    0.13    0.99    1.43    55.63577    57.70922    80.72711
   134  H   1.0    0.12    0.99    1.43    54.13222    60.64307    81.02664
   135  N   5.0   -0.47    3.01    1.93    54.02508    57.74208    70.98842
   136  C   4.0    0.08    4.00    3.62    53.06596    57.47145    68.44182
   137  C   4.0    0.29    3.01    3.02    54.40954    55.34353    67.03148
   138  O   6.0   -0.43    1.00    1.80    53.21145    53.80732    65.78198
   139  C   4.0   -0.13    3.98    3.59    53.27111    59.97996    66.98938
   140  C   4.0    0.08    3.22    3.04    51.10076    61.62755    67.67854
   141  N   5.0   -0.47    3.15    1.95    51.10245    63.14198    69.77245
   142  C   4.0    0.05    3.35    3.07    48.70114    61.79274    66.72100
   143  C   4.0    0.16    3.41    3.08    48.77174    64.14923    69.97523
   144  N   5.0   -0.43    2.10    1.90    47.28344    63.37097    68.16386
   145  H   1.0    0.30    1.00    1.43    54.77849    59.42333    71.51158
   146  H   1.0    0.12    0.99    1.43    51.07832    56.88614    68.57399
   147  H   1.0    0.14    0.99    1.43    55.06121    60.87655    67.47814
   148  H   1.0    0.10    0.99    1.43    53.28473    59.60281    64.96329
   149  H   1.0    0.27    1.00    1.43    52.59383    63.38351    70.95146
   150  H   1.0    0.11    1.00    1.43    47.91385    60.94361    65.06432
   151  H   1.0    0.10    1.00    1.43    48.21173    65.42528    71.44392
   152  N   5.0   -0.47    3.01    1.93    56.90612    55.31375    67.28966
   153  C   4.0    0.09    4.00    3.62    58.42429    53.35414    66.13039
   154  C   4.0    0.29    3.01    3.02    57.19229    50.79232    66.67014
   155  O   6.0   -0.44    1.00    1.80    56.64126    49.28982    64.99879
   156  C   4.0    0.04    3.98    3.58    61.16639    53.50251    67.11378
   157  O   6.0   -0.49    1.99    1.82    62.24855    55.85431    66.47874
   158  C   4.0   -0.20    3.98    3.59    62.78212    51.43113    65.93441
   159  H   1.0    0.29    1.00    1.43    57.77160    56.70087    68.28899
   160  H   1.0    0.13    0.99    1.43    58.46163    53.61889    64.07551
   161  H   1.0    0.14    0.99    1.43    61.13004    53.26669    69.17844
   162  H   1.0    0.29    0.99    1.43    61.37178    57.20841    67.34928
   163  H   1.0    0.11    0.99    1.43    64.73743    51.69341    66.49713
   164  H   1.0    0.11    0.99    1.43    62.13215    49.58872    66.55591
   165  H   1.0    0.12    0.99    1.43    62.66777    51.51858    63.88530
   166  N   5.0   -0.47    3.01    1.93    56.77935    50.34621    69.12090
   167  C   4.0    0.07    4.00    3.61    55.86711    47.91146    69.97938
   168  C   4.0    0.29    3.01    3.02    53.10617    47.46944    69.22637
   169  O   6.0   -0.47    1.00    1.80    52.42145    45.41579    68.37550
   170  C   4.0   -0.13    3.99    3.60    56.20443    47.73495    72.84350
   171  C   4.0   -0.02    3.03    3.02    58.90948    48.13201    73.64024
   172  C   4.0   -0.10    3.03    3.02    60.88744    46.90045    72.42191
   173  C   4.0   -0.07    3.03    3.02    59.46513    49.69155    75.67637
   174  C   4.0   -0.11    3.03    3.02    63.36004    47.25282    73.19749
   175  C   4.0   -0.10    3.03    3.02    61.93084    50.00755    76.48478
   176  C   4.0   -0.11    3.03    3.02    63.88904    48.80615    75.23593
   177  H   1.0    0.30    1.00    1.43    57.26208    51.65096    70.43899
   178  H   1.0    0.12    0.99    1.43    56.94091    46.41528    69.01988
   179  H   1.0    0.12    0.99    1.43    55.00347    49.15438    73.73636
   180  H   1.0    0.11    0.99    1.43    55.57627    45.86919    73.47094
   181  H   1.0    0.11    1.00    1.43    60.50300    45.63587    70.86700
   182  H   1.0    0.12    1.00    1.43    57.95331    50.65174    76.65180
   183  H   1.0    0.11    1.00    1.43    64.86763    46.29164    72.21607
   184  H   1.0    0.11    1.00    1.43    62.31315    51.17686    78.11143
   185  H   1.0    0.10    1.00    1.43    65.81779    49.04588    75.85247
   186  N   5.0   -0.48    3.01    1.93    51.54946    49.41108    69.55210
   187  C   4.0    0.08    4.00    3.62    48.91787    49.22579    68.82933
   188  C   4.0    0.30    3.02    3.02    48.65293    48.41152    66.07740
   189  O   6.0   -0.48    1.00    1.80    46.90746    47.02742    65.44447
   190  C   4.0   -0.13    3.99    3.60    47.52367    51.73761    69.20174
   191  C   4.0   -0.03    3.12    3.03    46.75264    52.22773    71.88133
   192  C   4.0    0.01    3.22    3.04    46.05211    50.50175    73.67070
   193  C   4.0    0.02    3.18    3.03    46.49048    54.65707    73.03300
   194  N   5.0   -0.48    3.11    1.94    45.38789    51.69798    75.85729
   195  C   4.0    0.11    3.22    3.04    45.64243    54.23769    75.54225
   196  C   4.0   -0.10    3.02    3.02    46.88695    57.13669    72.22930
   197  C   4.0   -0.11    3.02    3.02    45.26499    56.21238    77.23360
   198  C   4.0   -0.10    3.03    3.02    46.53880    59.07954    73.92258
   199  C   4.0   -0.12    3.03    3.02    45.75065    58.63354    76.40494
   200  H   1.0    0.31    1.00    1.43    52.15663    51.05640    70.34204
   201  H   1.0    0.12    0.99    1.43    48.01696    47.72713    69.93691
   202  H   1.0    0.13    0.99    1.43    48.76824    53.23893    68.53732
   203  H   1.0    0.12    0.99    1.43    45.83080    51.68576    68.01606
   204  H   1.0    0.10    1.00    1.43    46.01428    48.47773    73.58373
   205  H   1.0    0.23    1.00    1.43    44.77209    50.81097    77.42179
   206  H   1.0    0.12    1.00    1.43    47.47851    57.54061    70.31999
   207  H   1.0    0.11    1.00    1.43    44.61762    55.85100    79.13477
   208  H   1.0    0.13    1.00    1.43    46.86006    61.00478    73.33841
   209  H   1.0    0.13    0.99    1.43    45.52276    60.21865    77.67278
   210  N   5.0   -0.46    3.00    1.93    50.27270    49.41436    64.42469
   211  C   4.0    0.03    4.00    3.62    50.15682    48.66703    61.79551
   212  C   4.0    0.29    3.01    3.02    50.58184    45.82762    61.49508
   213  O   6.0   -0.39    1.00    1.80    49.13094    44.49068    60.28401
   214  H   1.0    0.31    1.00    1.43    51.63041    50.64428    64.98981
   215  H   1.0    0.13    0.99    1.43    48.29077    49.09275    61.01458
   216  H   1.0    0.11    0.99    1.43    51.60533    49.65707    60.72558
   217  N   5.0   -0.47    3.01    1.93    52.64477    44.94451    62.64409
   218  C   4.0    0.08    4.00    3.63    53.23406    42.26750    62.58500
   219  C   4.0    0.30    3.01    3.02    50.81666    40.78067    63.19643
   220  O   6.0   -0.41    1.00    1.80    49.97203    39.12366    61.81765
   221  C   4.0   -0.10    3.98    3.58    55.37363    41.60258    64.42811
   222  C   4.0   -0.21    3.98    3.59    55.77406    38.74266    64.44707
   223  C   4.0   -0.22    3.98    3.59    57.81657    42.93851    63.65535
   224  H   1.0    0.28    1.00    1.43    53.81440    46.12649    63.58912
   225  H   1.0    0.13    0.99    1.43    53.80023    41.73430    60.66480
   226  H   1.0    0.13    0.99    1.43    54.81105    42.23931    66.31155
   227  H   1.0    0.11    0.99    1.43    57.31814    38.23747    65.70037
   228  H   1.0    0.13    0.99    1.43    54.09113    37.74140    65.07123
   229  H   1.0    0.12    0.99    1.43    56.23083    38.08275    62.55616
   230  H   1.0    0.10    0.99    1.43    59.33985    42.37253    64.90952
   231  H   1.0    0.11    0.99    1.43    58.32632    42.40711    61.73752
   232  H   1.0    0.13    0.99    1.43    57.63058    44.98314    63.75178
   233  N   5.0   -0.48    3.01    1.93    49.77691    41.45332    65.40097
   234  C   4.0    0.08    4.00    3.62    47.66492    40.07427    66.45230
   235  C   4.0    0.30    3.01    3.02    45.39175    40.25884    64.67172
   236  O   6.0   -0.45    1.00    1.80    44.05984    38.42581    64.17760
   237  C   4.0   -0.09    3.98    3.59    46.97678    41.08494    69.08578
   238  C   4.0   -0.23    3.98    3.59    44.68655    39.67318    70.12130
   239  C   4.0   -0.22    3.98    3.59    49.19475    40.81559    70.91443
   240  H   1.0    0.29    1.00    1.43    50.58300    42.84071    66.44766
   241  H   1.0    0.12    0.99    1.43    48.15945    38.05668    66.55961
   242  H   1.0    0.13    0.99    1.43    46.51220    43.08962    68.86976
   243  H   1.0    0.09    0.99    1.43    44.14125    40.47093    71.92952
   244  H   1.0    0.12    0.99    1.43    43.09860    39.78208    68.82605
   245  H   1.0    0.11    0.99    1.43    45.14754    37.68690    70.38630
   246  H   1.0    0.10    0.99    1.43    48.61127    41.40081    72.79499
   247  H   1.0    0.10    0.99    1.43    49.81171    38.85565    71.00053
   248  H   1.0    0.13    0.99    1.43    50.78653    41.97430    70.33867
   249  N   5.0   -0.47    3.01    1.93    44.89310    42.58213    63.85198
   250  C   4.0    0.07    3.99    3.61    42.64323    43.16131    62.40792
   251  C   4.0    0.11    3.00    3.02    42.37084    41.31079    60.22444
   252  O   6.0   -0.39    1.00    1.80    40.45464    40.05375    59.88793
   253  C   4.0   -0.13    3.99    3.60    42.78024    45.87150    61.38072
   254  C   4.0   -0.04    3.03    3.02    40.34972    46.49959    60.04758
   255  C   4.0   -0.08    3.03    3.02    39.99078    45.86518    57.52386
   256  C   4.0   -0.11    3.03    3.02    38.38210    47.61646    61.37950
   257  C   4.0   -0.08    3.03    3.02    37.66591    46.24029    56.38395
   258  C   4.0   -0.11    3.03    3.02    36.08389    48.06756    60.22001
   259  C   4.0   -0.09    3.03    3.02    35.70843    47.32677    57.74028
   260  H   1.0    0.31    1.00    1.43    45.95598    44.09396    64.39301
   261  H   1.0    0.13    0.99    1.43    40.96291    42.93708    63.60993
   262  H   1.0    0.12    0.99    1.43    43.08618    47.11859    62.99180
   263  H   1.0    0.13    0.99    1.43    44.38453    46.01541    60.09575
   264  H   1.0    0.12    0.99    1.43    41.52190    45.04968    56.44537
   265  H   1.0    0.10    1.00    1.43    38.63973    48.11652    63.34029
   266  H   1.0    0.13    0.99    1.43    37.37672    45.65321    54.44975
   267  H   1.0    0.11    1.00    1.43    34.57972    48.96024    61.26290
   268  H   1.0    0.12    1.00    1.43    33.88135    47.56686    56.87315
   269  N   5.0   -0.68    3.00    1.93    45.28171    36.02096    58.83560
   270  C   4.0    0.09    3.99    3.60    45.05479    33.35078    59.42688
   271  C   4.0    0.30    3.01    3.02    42.34147    32.76326    60.22759
   272  O   6.0   -0.35    1.00    1.80    41.08868    31.08583    59.23399
   273  C   4.0   -0.09    3.98    3.58    46.90683    32.50894    61.45694
   274  C   4.0    0.32    2.99    3.02    47.12863    29.56401    61.27345
   275  O   6.0   -0.36    1.00    1.80    48.31947    28.71069    59.44736
   276  O   6.0   -0.36    1.00    1.80    46.07321    28.30385    62.96411
   277  H   1.0    0.31    1.00    1.43    46.64047    37.05133    59.70202
   278  H   1.0    0.14    0.99    1.43    45.41746    32.26804    57.68687
   279  H   1.0    0.13    0.99    1.43    48.75719    33.33675    61.08089
   280  H   1.0    0.13    0.99    1.43    46.25458    33.06680    63.32756
   281  N   5.0   -0.47    3.01    1.93    41.50935    34.14474    62.16521
   282  C   4.0    0.08    3.99    3.60    39.03576    33.77096    63.27949
   283  C   4.0    0.10    3.00    3.02    36.94563    33.88934    61.28449
   284  O   6.0   -0.38    1.00    1.80    35.21670    32.34496    61.25240
   285  C   4.0   -0.21    3.99    3.60    38.56479    35.77789    65.28963
   286  H   1.0    0.31    1.00    1.43    42.53982    35.63301    62.80112
   287  H   1.0    0.15    0.99    1.43    38.96147    31.86795    64.10434
   288  H   1.0    0.11    0.99    1.43    36.66171    35.60381    66.03741
   289  H   1.0    0.11    0.99    1.43    39.92282    35.57585    66.81419
   290  H   1.0    0.14    0.99    1.43    38.78037    37.64205    64.45537
   291  N   5.0   -0.71    3.00    1.93    26.24066    34.53816    71.60232
   292  C   4.0    0.07    3.98    3.59    26.69673    35.39730    74.16474
   293  C   4.0    0.28    3.01    3.02    29.29060    36.64601    74.45309
   294  O   6.0   -0.48    1.00    1.80    29.57117    38.43596    75.90605
   295  C   4.0   -0.13    3.98    3.59    26.43537    33.17867    76.02849
   296  C   4.0   -0.02    3.12    3.03    28.31840    31.12870    75.58155
   297  C   4.0    0.01    3.21    3.04    27.97238    28.96928    74.20743
   298  C   4.0    0.03    3.18    3.03    30.83523    31.01781    76.56688
   299  N   5.0   -0.48    3.10    1.94    30.12295    27.53819    74.23577
   300  C   4.0    0.12    3.22    3.04    31.89370    28.72039    75.69799
   301  C   4.0   -0.10    3.02    3.02    32.26072    32.59052    78.13415
   302  C   4.0   -0.10    3.02    3.02    34.34104    28.00012    76.32647
   303  C   4.0   -0.12    3.03    3.02    34.68421    31.86747    78.74955
   304  C   4.0   -0.12    3.03    3.02    35.71380    29.60287    77.85278
   305  H   1.0    0.26    1.00    1.43    25.72845    32.71758    71.34288
   306  H   1.0    0.11    0.99    1.43    25.30695    36.86065    74.65461
   307  H   1.0    0.11    0.99    1.43    26.67037    33.93468    77.93379
   308  H   1.0    0.10    0.99    1.43    24.51888    32.43164    75.86371
   309  H   1.0    0.11    1.00    1.43    26.31357    28.32666    73.23219
   310  H   1.0    0.24    1.00    1.43    30.21415    25.73000    73.65558
   311  H   1.0    0.12    0.99    1.43    31.47342    34.33304    78.85596
   312  H   1.0    0.12    1.00    1.43    35.11237    26.22629    75.69447
   313  H   1.0    0.10    0.99    1.43    35.80904    33.05997    79.96636
   314  H   1.0    0.11    1.00    1.43    37.61408    29.10928    78.40166
   315  N   5.0   -0.47    3.01    1.93    31.19095    35.59963    73.16578
   316  C   4.0    0.06    3.99    3.60    33.74492    36.58633    73.32821
   317  C   4.0    0.07    3.00    3.02    33.94815    39.16278    72.03143
   318  O   6.0   -0.47    1.00    1.80    35.19374    40.89070    72.93692
   319  C   4.0   -0.22    3.98    3.59    35.60731    34.71410    72.18556
   320  H   1.0    0.26    1.00    1.43    30.84456    34.31517    71.77834
   321  H   1.0    0.13    0.99    1.43    34.18322    36.90566    75.32647
   322  H   1.0    0.10    0.99    1.43    37.49304    35.52497    72.22321
   323  H   1.0    0.12    0.99    1.43    35.58912    32.98523    73.29398
   324  H   1.0    0.11    0.99    1.43    35.07927    34.33135    70.24120
   325  N   5.0   -0.69    3.00    1.93    31.66460    43.25815    76.76885
   326  C   4.0    0.07    3.98    3.59    33.64410    43.67275    78.62422
   327  C   4.0    0.29    3.01    3.02    35.31597    45.86217    77.77398
   328  O   6.0   -0.50    1.00    1.80    35.84148    47.60733    79.22940
   329  C   4.0   -0.13    3.99    3.60    35.11742    41.20607    78.98522
   330  C   4.0   -0.11    3.97    3.58    37.08291    41.26703    81.12052
   331  C   4.0   -0.23    3.98    3.59    37.45428    38.60553    82.18077
   332  C   4.0   -0.21    3.98    3.59    39.61841    42.29529    80.20492
   333  H   1.0    0.33    1.00    1.43    31.19444    41.43580    76.34544
   334  H   1.0    0.11    0.99    1.43    32.79589    44.26363    80.42865
   335  H   1.0    0.11    0.99    1.43    33.70764    39.76011    79.41378
   336  H   1.0    0.14    0.99    1.43    36.03913    40.72868    77.20519
   337  H   1.0    0.11    0.99    1.43    36.38032    42.49309    82.63253
   338  H   1.0    0.10    0.99    1.43    38.82557    38.64098    83.70799
   339  H   1.0    0.10    0.99    1.43    35.68570    37.85644    82.91239
   340  H   1.0    0.10    0.99    1.43    38.17236    37.36862    80.70761
   341  H   1.0    0.11    0.99    1.43    40.94678    42.41732    81.76624
   342  H   1.0    0.11    0.99    1.43    40.42216    41.05630    78.77757
   343  H   1.0    0.13    0.99    1.43    39.42446    44.17566    79.40640
   344  N   5.0   -0.49    3.01    1.93    36.21092    45.70404    75.43457
   345  C   4.0    0.07    3.99    3.61    37.88898    47.59259    74.37850
   346  C   4.0    0.08    3.00    3.02    36.65593    50.20729    74.38810
   347  O   6.0   -0.46    1.00    1.80    37.71936    52.03297    75.36270
   348  C   4.0   -0.09    3.98    3.59    38.70248    46.82623    71.70322
   349  C   4.0   -0.22    3.98    3.59    40.12322    48.97723    70.40744
   350  C   4.0   -0.22    3.98    3.59    40.35252    44.46399    71.82797
   351  H   1.0    0.29    1.00    1.43    35.67106    44.24968    74.30446
   352  H   1.0    0.13    0.99    1.43    39.56816    47.74965    75.59630
   353  H   1.0    0.12    0.99    1.43    36.98420    46.42084    70.62483
   354  H   1.0    0.10    0.99    1.43    40.88511    48.34641    68.60537
   355  H   1.0    0.11    0.99    1.43    38.91000    50.59773    70.03042
   356  H   1.0    0.12    0.99    1.43    41.68820    49.62955    71.57193
   357  H   1.0    0.10    0.99    1.43    40.96573    43.95815    69.93631
   358  H   1.0    0.10    0.99    1.43    42.01471    44.83164    72.97906
   359  H   1.0    0.13    0.99    1.43    39.30729    42.89059    72.62870
   360  N   5.0   -0.69    3.00    1.93    35.89455    52.66008    80.82020
   361  C   4.0    0.09    3.98    3.59    38.36543    53.37816    81.73360
   362  C   4.0    0.28    3.02    3.02    39.06940    56.02659    80.83757
   363  O   6.0   -0.47    1.00    1.80    40.07206    57.54279    82.28186
   364  C   4.0   -0.01    3.98    3.59    40.40323    51.52874    80.80481
   365  O   6.0   -0.51    1.99    1.82    40.18429    49.11258    81.84660
   366  H   1.0    0.33    1.00    1.43    35.73470    51.01801    79.83715
   367  H   1.0    0.12    0.99    1.43    38.34571    53.39580    83.81064
   368  H   1.0    0.15    0.99    1.43    40.31645    51.48440    78.73152
   369  H   1.0    0.10    0.99    1.43    42.24364    52.25665    81.40448
   370  H   1.0    0.31    0.99    1.43    38.61627    48.36008    81.24310
   371  N   5.0   -0.48    3.01    1.93    38.60631    56.51446    78.41938
   372  C   4.0    0.08    3.99    3.61    39.25368    58.94388    77.32566
   373  C   4.0    0.11    3.00    3.02    37.94684    61.00424    78.86751
   374  O   6.0   -0.41    1.00    1.80    39.12204    62.63435    80.03021
   375  C   4.0   -0.13    3.98    3.59    38.55766    59.01446    74.51934
   376  C   4.0    0.11    3.34    3.06    40.07596    60.94403    73.13244
   377  N   5.0   -0.36    2.10    1.90    40.32815    63.37296    73.96509
   378  C   4.0    0.03    3.24    3.04    41.47727    60.62742    70.97550
   379  C   4.0    0.17    3.43    3.09    41.85102    64.46720    72.35044
   380  N   5.0   -0.47    3.13    1.94    42.58836    62.89788    70.49001
   381  H   1.0    0.29    1.00    1.43    37.88985    55.16986    77.25774
   382  H   1.0    0.14    0.99    1.43    41.29624    59.24999    77.51199
   383  H   1.0    0.11    0.99    1.43    38.95536    57.16839    73.68241
   384  H   1.0    0.11    0.99    1.43    36.53691    59.37148    74.29640
   385  H   1.0    0.10    1.00    1.43    41.68816    59.01803    69.76365
   386  H   1.0    0.11    1.00    1.43    42.46265    66.39291    72.46631
   387  H   1.0    0.27    1.00    1.43    43.93108    63.26742    69.14003
   388  N   5.0   -0.69    3.00    1.93    40.66004    62.04771    85.43943
   389  C   4.0    0.08    3.98    3.58    43.02022    63.40511    85.66345
   390  C   4.0    0.09    3.00    3.02    42.56865    66.25595    85.60247
   391  O   6.0   -0.44    1.00    1.80    43.64022    67.66682    87.09981
   392  C   4.0    0.04    3.98    3.58    44.97928    62.59571    83.66128
   393  O   6.0   -0.49    1.99    1.82    44.30046    63.28572    81.19451
   394  C   4.0   -0.22    3.98    3.59    45.56139    59.77123    83.91058
   395  H   1.0    0.33    1.00    1.43    40.38980    60.81414    84.00111
   396  H   1.0    0.10    0.99    1.43    43.82227    63.01332    87.54078
   397  H   1.0    0.11    0.99    1.43    46.70818    63.67794    84.04986
   398  H   1.0    0.32    0.99    1.43    42.57985    62.75606    80.80105
   399  H   1.0    0.10    0.99    1.43    47.03657    59.26660    82.57384
   400  H   1.0    0.08    0.99    1.43    46.19584    59.34625    85.81555
   401  H   1.0    0.14    0.99    1.43    43.89049    58.65643    83.48994
   402  N   5.0   -0.73    3.00    1.93    52.12774    61.38292    94.32365
   403  C   4.0    0.06    3.98    3.59    52.55352    61.31224    91.61430
   404  C   4.0    0.07    3.00    3.02    54.90712    59.76117    91.02174
   405  O   6.0   -0.52    1.00    1.80    54.90036    58.21185    89.28363
   406  C   4.0   -0.09    3.98    3.59    52.75592    63.97959    90.47732
   407  C   4.0   -0.16    3.98    3.59    50.10224    65.12250    90.31934
   408  C   4.0   -0.22    3.98    3.59    54.01451    63.87184    87.88007
   409  C   4.0   -0.23    3.98    3.58    50.07931    67.92810    89.69461
   410  H   1.0    0.25    1.00    1.43    52.17916    63.07774    95.20070
   411  H   1.0    0.11    0.99    1.43    50.96968    60.30216    90.73060
   412  H   1.0    0.11    0.99    1.43    53.92030    65.11626    91.75296
   413  H   1.0    0.10    0.99    1.43    49.03428    64.09354    88.88522
   414  H   1.0    0.10    0.99    1.43    49.17413    64.87845    92.13967
   415  H   1.0    0.09    0.99    1.43    54.01665    65.72290    86.99845
   416  H   1.0    0.11    0.99    1.43    55.96758    63.25164    88.01956
   417  H   1.0    0.11    0.99    1.43    53.02295    62.55973    86.64820
   418  H   1.0    0.13    0.99    1.43    48.13795    68.54800    89.46149
   419  H   1.0    0.10    0.99    1.43    50.91821    68.99561    91.23549
   420  H   1.0    0.10    0.99    1.43    51.10538    68.31709    87.96119
   421  N   5.0   -0.71    3.00    1.93    53.61834    52.92997    91.65275
   422  C   4.0    0.07    3.99    3.60    52.11165    52.07280    89.53377
   423  C   4.0    0.28    3.01    3.02    53.80637    51.70651    87.22548
   424  O   6.0   -0.48    1.00    1.80    53.60038    49.85086    85.84806
   425  C   4.0   -0.09    3.98    3.58    49.96035    53.93562    88.93973
   426  C   4.0   -0.23    3.98    3.59    48.56307    53.10864    86.55337
   427  C   4.0   -0.23    3.98    3.59    48.10656    54.09596    91.14546
   428  H   1.0    0.27    1.00    1.43    53.15928    54.60213    92.47287
   429  H   1.0    0.10    0.99    1.43    51.31810    50.20708    89.98136
   430  H   1.0    0.13    0.99    1.43    50.82517    55.78748    88.61802
   431  H   1.0    0.09    0.99    1.43    47.08525    54.45834    86.10009
   432  H   1.0    0.11    0.99    1.43    49.84471    52.97596    84.95434
   433  H   1.0    0.10    0.99    1.43    47.69825    51.26561    86.83236
   434  H   1.0    0.09    0.99    1.43    46.56288    55.35760    90.65493
   435  H   1.0    0.10    0.99    1.43    47.32147    52.24201    91.54969
   436  H   1.0    0.10    0.99    1.43    49.02181    54.81245    92.83425
   437  N   5.0   -0.49    3.01    1.93    55.46463    53.55384    86.81998
   438  C   4.0    0.08    4.00    3.61    57.23387    53.47420    84.73303
   439  C   4.0    0.29    3.01    3.02    58.52217    50.88703    84.68905
   440  O   6.0   -0.45    1.00    1.80    58.61682    49.57464    82.78250
   441  C   4.0    0.03    3.98    3.58    59.23933    55.58621    84.98996
   442  O   6.0   -0.51    1.99    1.82    58.15582    58.00823    85.07041
   443  C   4.0   -0.21    3.98    3.59    61.04748    55.50965    82.75132
   444  H   1.0    0.29    1.00    1.43    55.45930    55.08873    87.97156
   445  H   1.0    0.12    0.99    1.43    56.22209    53.70255    82.93484
   446  H   1.0    0.11    0.99    1.43    60.29953    55.23522    86.74179
   447  H   1.0    0.30    0.99    1.43    56.97019    58.11852    86.47382
   448  H   1.0    0.10    0.99    1.43    62.49807    56.93843    82.99528
   449  H   1.0    0.10    0.99    1.43    61.92821    53.66219    82.59520
   450  H   1.0    0.11    0.99    1.43    60.02341    55.91521    81.01811
   451  N   5.0   -0.49    3.01    1.93    59.58803    50.23684    86.88413
   452  C   4.0    0.07    4.00    3.62    60.95887    47.88398    87.18054
   453  C   4.0    0.29    3.01    3.02    59.21491    45.65482    86.59125
   454  O   6.0   -0.45    1.00    1.80    59.82410    43.97204    85.11983
   455  C   4.0   -0.10    3.98    3.59    62.06275    47.66627    89.85797
   456  C   4.0   -0.23    3.98    3.59    63.30900    45.08701    90.20662
   457  C   4.0   -0.23    3.98    3.59    63.97414    49.77597    90.33681
   458  H   1.0    0.23    1.00    1.43    59.39830    51.36851    88.41641
   459  H   1.0    0.12    0.99    1.43    62.48323    47.81194    85.77002
   460  H   1.0    0.11    0.99    1.43    60.49528    47.85062    91.19557
   461  H   1.0    0.09    0.99    1.43    64.07729    44.92196    92.10299
   462  H   1.0    0.11    0.99    1.43    61.95768    43.56861    89.90719
   463  H   1.0    0.10    0.99    1.43    64.83787    44.84943    88.85477
   464  H   1.0    0.10    0.99    1.43    64.82727    49.52709    92.18731
   465  H   1.0    0.10    0.99    1.43    65.46307    49.72554    88.92203
   466  H   1.0    0.10    0.99    1.43    63.07036    51.61823    90.28026
   467  N   5.0   -0.49    3.01    1.93    57.02246    45.66854    87.83788
   468  C   4.0    0.10    4.00    3.61    55.18758    43.67306    87.49377
   469  C   4.0    0.32    3.01    3.02    54.69133    43.17061    84.68129
   470  O   6.0   -0.45    1.00    1.80    54.71989    41.03036    83.80401
   471  C   4.0   -0.03    3.98    3.59    52.70952    44.38223    88.80908
   472  O   6.0   -0.48    1.99    1.83    51.02558    42.34615    88.55919
   473  H   1.0    0.24    1.00    1.43    56.60774    47.09664    89.05386
   474  H   1.0    0.13    0.99    1.43    55.89380    41.88899    88.28546
   475  H   1.0    0.09    0.99    1.43    53.11970    44.77817    90.80727
   476  H   1.0    0.12    0.99    1.43    51.96311    46.09678    87.91155
   477  H   1.0    0.25    0.99    1.43    49.43393    42.77183    89.34588
   478  N   5.0   -0.48    3.01    1.93    54.14167    45.23072    83.34266
   479  C   4.0    0.08    4.00    3.61    53.45767    45.10681    80.69369
   480  C   4.0    0.30    3.01    3.02    55.64745    43.98725    79.17469
   481  O   6.0   -0.46    1.00    1.80    55.32992    42.32780    77.59208
   482  C   4.0   -0.14    4.00    3.62    52.73696    47.73654    79.72566
   483  C   4.0   -0.14    3.98    3.58    50.78618    47.63028    77.61677
   484  S   6.0   -0.16    2.01    3.10    47.78137    46.20001    78.56426
   485  C   4.0   -0.21    3.98    3.58    46.99310    48.10331    81.32336
   486  H   1.0    0.30    1.00    1.43    54.14233    46.95850    84.17856
   487  H   1.0    0.13    0.99    1.43    51.85139    43.80748    80.47623
   488  H   1.0    0.12    0.99    1.43    51.99504    48.83349    81.30772
   489  H   1.0    0.11    0.99    1.43    54.42897    48.69056    79.03164
   490  H   1.0    0.11    0.99    1.43    50.39107    49.52057    76.90117
   491  H   1.0    0.12    0.99    1.43    51.43872    46.44585    76.06373
   492  H   1.0    0.12    0.99    1.43    44.98285    47.85762    81.65966
   493  H   1.0    0.11    0.99    1.43    48.04363    47.43037    82.95243
   494  H   1.0    0.10    0.99    1.43    47.42443    50.07374    80.95126
   495  N   5.0   -0.47    3.00    1.93    57.90715    44.97076    79.71611
   496  C   4.0    0.03    4.00    3.62    60.17633    43.99622    78.55121
   497  C   4.0    0.30    3.01    3.02    60.33889    41.12695    78.79258
   498  O   6.0   -0.46    1.00    1.80    60.84366    39.77570    76.97667
   499  H   1.0    0.30    1.00    1.43    58.07740    46.41687    80.96381
   500  H   1.0    0.13    0.99    1.43    60.23067    44.45402    76.53633
   501  H   1.0    0.11    0.99    1.43    61.80468    44.83918    79.48629
   502  N   5.0   -0.47    3.01    1.93    59.97200    40.26575    81.12678
   503  C   4.0    0.07    3.99    3.61    60.20457    37.61300    81.75599
   504  C   4.0    0.29    3.01    3.02    58.21937    36.05536    80.33959
   505  O   6.0   -0.47    1.00    1.80    58.76308    34.05436    79.29846
   506  C   4.0   -0.14    3.99    3.60    59.97653    37.24659    84.61918
   507  C   4.0   -0.11    3.98    3.58    61.48188    34.96229    85.58272
   508  C   4.0   -0.23    3.98    3.59    64.30056    35.57864    85.70517
   509  C   4.0   -0.23    3.98    3.59    60.53486    34.17669    88.19397
   510  H   1.0    0.30    1.00    1.43    59.63790    41.50065    82.55634
   511  H   1.0    0.12    0.99    1.43    62.05005    36.94165    81.08569
   512  H   1.0    0.12    0.99    1.43    60.68102    38.95276    85.54177
   513  H   1.0    0.12    0.99    1.43    57.98260    37.04827    85.10636
   514  H   1.0    0.11    0.99    1.43    61.18987    33.38839    84.27036
   515  H   1.0    0.10    0.99    1.43    65.36234    33.94210    86.34657
   516  H   1.0    0.10    0.99    1.43    65.02623    36.12085    83.86159
   517  H   1.0    0.10    0.99    1.43    64.62782    37.12565    87.01857
   518  H   1.0    0.10    0.99    1.43    61.62780    32.58619    88.89599
   519  H   1.0    0.10    0.99    1.43    60.72556    35.73452    89.51997
   520  H   1.0    0.10    0.99    1.43    58.55983    33.61752    88.11298
   521  N   5.0   -0.47    3.01    1.93    55.89456    37.01962    80.35971
   522  C   4.0    0.07    4.00    3.61    53.79843    35.72196    79.15659
   523  C   4.0    0.30    3.01    3.02    54.38211    35.39207    76.34083
   524  O   6.0   -0.46    1.00    1.80    54.17413    33.34600    75.26450
   525  C   4.0   -0.13    3.98    3.59    51.31288    37.15724    79.61998
   526  C   4.0   -0.03    3.12    3.03    49.09046    35.44015    79.96517
   527  C   4.0    0.01    3.22    3.04    48.96817    33.38576    81.52665
   528  C   4.0    0.02    3.18    3.03    46.64944    35.67190    78.82634
   529  N   5.0   -0.48    3.10    1.94    46.61842    32.32288    81.43265
   530  C   4.0    0.12    3.22    3.04    45.15757    33.66831    79.79338
   531  C   4.0   -0.12    3.02    3.02    45.55828    37.36230    77.12105
   532  C   4.0   -0.11    3.02    3.02    42.65159    33.32715    79.08662
   533  C   4.0   -0.12    3.03    3.02    43.07316    37.01647    76.43319
   534  C   4.0   -0.12    3.03    3.02    41.63291    35.02132    77.39475
   535  H   1.0    0.30    1.00    1.43    55.52753    38.62374    81.35019
   536  H   1.0    0.12    0.99    1.43    53.67439    33.80422    79.93558
   537  H   1.0    0.13    0.99    1.43    51.56336    38.27958    81.34027
   538  H   1.0    0.12    0.99    1.43    50.95719    38.45383    78.05855
   539  H   1.0    0.10    1.00    1.43    50.39508    32.60421    82.73810
   540  H   1.0    0.23    1.00    1.43    46.08367    30.75315    82.35879
   541  H   1.0    0.11    1.00    1.43    46.64756    38.90906    76.35965
   542  H   1.0    0.11    1.00    1.43    41.54876    31.78588    79.84171
   543  H   1.0    0.10    1.00    1.43    42.20011    38.29932    75.10952
   544  H   1.0    0.10    1.00    1.43    39.69669    34.80092    76.78717
   545  N   5.0   -0.47    3.01    1.93    55.15065    37.49089    75.17536
   546  C   4.0    0.07    3.99    3.61    55.93207    37.47786    72.54653
   547  C   4.0    0.30    3.02    3.02    57.97688    35.46958    72.17233
   548  O   6.0   -0.43    1.00    1.80    57.82584    33.83613    70.51948
   549  C   4.0   -0.21    3.98    3.59    56.92374    40.07793    71.81451
   550  H   1.0    0.30    1.00    1.43    55.24605    39.17042    76.10529
   551  H   1.0    0.12    0.99    1.43    54.33309    36.94108    71.33487
   552  H   1.0    0.10    0.99    1.43    57.62200    40.03071    69.88606
   553  H   1.0    0.11    0.99    1.43    55.40040    41.44949    71.93308
   554  H   1.0    0.14    0.99    1.43    58.45042    40.62716    73.07522
   555  N   5.0   -0.47    3.01    1.93    59.93774    35.62734    73.73541
   556  C   4.0    0.08    4.00    3.62    62.00402    33.84441    73.54574
   557  C   4.0    0.32    3.01    3.02    60.96676    31.15544    73.30011
   558  O   6.0   -0.36    1.00    1.80    61.69603    29.72963    71.63345
   559  C   4.0   -0.13    3.99    3.60    63.75332    34.02122    75.84738
   560  C   4.0   -0.03    3.03    3.02    65.80384    32.06832    75.60690
   561  C   4.0   -0.08    3.03    3.02    65.53547    29.70786    76.72045
   562  C   4.0   -0.09    3.03    3.02    67.94394    32.55744    74.16702
   563  C   4.0   -0.09    3.03    3.02    67.36607    27.86693    76.39825
   564  C   4.0   -0.09    3.03    3.02    69.78253    30.72577    73.84935
   565  C   4.0   -0.09    3.03    3.02    69.49424    28.37191    74.95841
   566  H   1.0    0.30    1.00    1.43    60.09872    37.05709    75.01359
   567  H   1.0    0.13    0.99    1.43    63.07842    34.20697    71.80484
   568  H   1.0    0.11    0.99    1.43    64.54732    35.92358    75.91486
   569  H   1.0    0.14    0.99    1.43    62.62963    33.68398    77.54120
   570  H   1.0    0.12    1.00    1.43    63.88017    29.30271    77.84407
   571  H   1.0    0.11    1.00    1.43    68.16785    34.38816    73.29265
   572  H   1.0    0.11    0.99    1.43    67.10795    26.03995    77.27239
   573  H   1.0    0.11    1.00    1.43    71.43876    31.13282    72.73052
   574  H   1.0    0.11    1.00    1.43    70.93311    26.94531    74.71142
   575  N   5.0   -0.48    3.01    1.93    59.32039    30.47467    75.08871
   576  C   4.0    0.08    4.00    3.62    58.26291    27.94994    75.11669
   577  C   4.0    0.30    3.01    3.02    57.17288    27.31872    72.51435
   578  O   6.0   -0.38    1.00    1.80    57.79299    25.41439    71.35173
   579  C   4.0   -0.09    3.98    3.59    56.24091    27.66531    77.18387
   580  C   4.0   -0.16    3.98    3.59    57.45891    27.90239    79.80487
   581  C   4.0   -0.22    3.98    3.59    54.89081    25.13172    76.88195
   582  C   4.0   -0.23    3.98    3.58    55.52917    27.89002    81.94649
   583  H   1.0    0.30    1.00    1.43    58.72446    31.73742    76.39893
   584  H   1.0    0.13    0.99    1.43    59.79541    26.58074    75.43376
   585  H   1.0    0.14    0.99    1.43    54.87358    29.19793    76.92782
   586  H   1.0    0.10    0.99    1.43    58.79846    26.35379    80.06080
   587  H   1.0    0.13    0.99    1.43    58.50801    29.67324    79.88634
   588  H   1.0    0.10    0.99    1.43    53.38264    24.94668    78.25986
   589  H   1.0    0.12    0.99    1.43    54.07050    24.95609    75.00472
   590  H   1.0    0.11    0.99    1.43    56.22254    23.58500    77.12544
   591  H   1.0    0.10    0.99    1.43    56.45182    28.35549    83.72144
   592  H   1.0    0.10    0.99    1.43    54.05978    29.28011    81.58088
   593  H   1.0    0.10    0.99    1.43    54.64791    26.04736    82.13872
   594  N   5.0   -0.47    3.00    1.93    55.46453    28.97173    71.63600
   595  C   4.0    0.08    3.99    3.60    54.00562    28.38765    69.39822
   596  C   4.0    0.13    3.00    3.02    55.67652    27.55458    67.19318
   597  O   6.0   -0.36    1.00    1.80    54.97293    25.92324    65.71165
   598  C   4.0    0.04    3.98    3.58    52.34955    30.62218    68.49425
   599  O   6.0   -0.47    1.99    1.82    53.77845    32.63920    67.53767
   600  C   4.0   -0.21    3.98    3.58    50.51582    31.47706    70.56333
   601  H   1.0    0.29    1.00    1.43    54.98581    30.49627    72.68876
   602  H   1.0    0.13    0.99    1.43    52.73494    26.78818    69.78965
   603  H   1.0    0.14    0.99    1.43    51.24020    29.91231    66.88295
   604  H   1.0    0.32    0.99    1.43    55.11490    33.08766    68.75069
   605  H   1.0    0.11    0.99    1.43    49.28051    32.92183    69.78508
   606  H   1.0    0.11    0.99    1.43    49.35824    29.89529    71.16470
   607  H   1.0    0.14    0.99    1.43    51.51614    32.24654    72.18425
   608  H   1.0    0.26    1.00    1.43    77.18614    63.57476    71.84743
   609  H   1.0    0.13    1.00    1.43    72.92135    62.94660    66.93658
   610  H   1.0    0.30    1.00    1.43    38.17902    60.13676    53.78099
   611  H   1.0    0.14    1.00    1.43    36.10738    54.07335    53.91436
   612  H   1.0    0.28    1.00    1.43    64.42233    71.44891    76.96463
   613  H   1.0    0.16    1.00    1.43    43.78849    41.08397    58.99566
   614  H   1.0    0.31    1.00    1.43    45.59837    36.20987    57.17530
   615  H   1.0    0.16    1.00    1.43    36.97027    35.24635    59.96958
   616  H   1.0    0.29    1.00    1.43    24.98279    35.45177    70.91264
   617  H   1.0    0.14    1.00    1.43    33.04925    39.47207    70.39821
   618  H   1.0    0.30    1.00    1.43    30.22025    43.97491    77.30985
   619  H   1.0    0.13    1.00    1.43    34.95899    50.45462    73.59419
   620  H   1.0    0.30    1.00    1.43    34.83031    52.48982    82.13586
   621  H   1.0    0.14    1.00    1.43    36.06024    61.06266    78.95911
   622  H   1.0    0.30    1.00    1.43    40.41185    61.10650    86.83409
   623  H   1.0    0.16    1.00    1.43    41.38542    66.99816    84.32962
   624  H   1.0    0.28    1.00    1.43    50.58599    60.75540    94.67261
   625  H   1.0    0.13    1.00    1.43    56.47656    59.99607    92.04777
   626  H   1.0    0.28    1.00    1.43    53.53283    51.78708    92.90936
   627  H   1.0    0.17    1.00    1.43    57.37456    28.34527    66.94309

           ------------------------------------------------- 
          |        Self-Consistent Charge Iterations        |
           ------------------------------------------------- 

          ...................................................
          :                      SETUP                      :
          :.................................................:
          :  # basis functions                1536          :
          :  # atomic orbitals                1535          :
          :  # shells                          929          :
          :  # electrons                      1672          :
          :  max. iterations                   250          :
          :  Hamiltonian                  GFN2-xTB          :
          :  restarted?                      false          :
          :  GBSA solvation                   true          :
          :  PC potential                    false          :
          :  electronic temp.          500.0000000     K    :
          :  accuracy                    0.1000000          :
          :  -> integral cutoff          0.3500000E+02      :
          :  -> integral neglect         0.1000000E-08      :
          :  -> SCF convergence          0.1000000E-06 Eh   :
          :  -> wf. convergence          0.1000000E-04 e    :
          :  Broyden damping             0.4000000          :
          ...................................................

 iter      E             dE          RMSdq      gap      omega  full diag
   1   -948.4955093 -0.948496E+03  0.402E+00    1.28       0.0  T
   2   -950.7407885 -0.224528E+01  0.216E+00    1.47       1.0  T
   3   -950.8321399 -0.913513E-01  0.115E+00    1.82       1.0  T
   4   -950.8634209 -0.312810E-01  0.314E-01    0.82       1.0  T
   5   -950.9047049 -0.412840E-01  0.116E-01    0.94       1.0  T
   6   -950.9064996 -0.179469E-02  0.627E-02    1.04       1.0  T
   7   -950.9071685 -0.668934E-03  0.291E-02    1.07       1.0  T
   8   -950.9072619 -0.934523E-04  0.122E-02    1.09       1.0  T
   9   -950.9072836 -0.216616E-04  0.669E-03    1.10       1.0  T
  10   -950.9072911 -0.746055E-05  0.337E-03    1.09       1.2  T
  11   -950.9072927 -0.163019E-05  0.159E-03    1.09       2.5  T
  12   -950.9072932 -0.460347E-06  0.723E-04    1.09       5.5  T
  13   -950.9072932 -0.628820E-07  0.414E-04    1.09       9.6  T
  14   -950.9072932 -0.314578E-07  0.205E-04    1.09      19.5  T
  15   -950.9072933 -0.528530E-08  0.107E-04    1.09      37.3  T
  16   -950.9072933 -0.200100E-08  0.520E-05    1.09      76.7  T
  17   -950.9072933 -0.392788E-09  0.287E-05    1.09     138.9  T

   *** convergence criteria satisfied after 17 iterations ***

         #    Occupation            Energy/Eh            Energy/eV
      -------------------------------------------------------------
         1        2.0000           -0.7429053             -20.2155
       ...           ...                  ...                  ...
       830        2.0000           -0.3570495              -9.7158
       831        2.0000           -0.3559242              -9.6852
       832        2.0000           -0.3544493              -9.6451
       833        2.0000           -0.3543181              -9.6415
       834        2.0000           -0.3540039              -9.6329
       835        2.0000           -0.3521369              -9.5821
       836        2.0000           -0.3464183              -9.4265 (HOMO)
       837        0.0000           -0.3062443              -8.3333 (LUMO)
       838                         -0.2880543              -7.8384
       839                         -0.2865516              -7.7975
       840                         -0.2849302              -7.7533
       841                         -0.2797538              -7.6125
       ...                                ...                  ...
      1535                          0.7270283              19.7834
      -------------------------------------------------------------
                  HL-Gap            0.0401740 Eh            1.0932 eV
             Fermi-level           -0.3262903 Eh           -8.8788 eV

 SCC (total)                   0 d,  0 h,  0 min, 47.576 sec
 SCC setup                      ...        0 min,  0.364 sec (  0.764%)
 Dispersion                     ...        0 min,  0.333 sec (  0.699%)
 integral evaluation            ...        0 min,  1.625 sec (  3.416%)
 zeroth order Hamiltonian       ...        0 min,  0.014 sec (  0.030%)
 iterations                     ...        0 min, 39.443 sec ( 82.904%)
 molecular gradient             ...        0 min,  5.561 sec ( 11.689%)
 printout                       ...        0 min,  0.236 sec (  0.497%)

         :::::::::::::::::::::::::::::::::::::::::::::::::::::
         ::                     SUMMARY                     ::
         :::::::::::::::::::::::::::::::::::::::::::::::::::::
         :: total energy             -938.647874850766 Eh   ::
         :: total w/o Gsasa/hb       -938.570171508284 Eh   ::
         :: gradient norm               0.700850850922 Eh/α ::
         :: HOMO-LUMO gap               1.093191029632 eV   ::
         ::.................................................::
         :: SCC energy               -950.939117886888 Eh   ::
         :: -> isotropic ES             2.328341314212 Eh   ::
         :: -> anisotropic ES          -0.081445283515 Eh   ::
         :: -> anisotropic XC           0.353225040291 Eh   ::
         :: -> dispersion              -0.888851859702 Eh   ::
         :: -> Gsolv                   -0.546839843884 Eh   ::
         ::    -> Gborn                -0.469136501402 Eh   ::
         ::    -> Gsasa                -0.033682075900 Eh   ::
         ::    -> Ghb                  -0.045878709709 Eh   ::
         ::    -> Gshift                0.001857443127 Eh   ::
         :: repulsion energy           12.192695932082 Eh   ::
         :: add. restraining            0.000000000000 Eh   ::
         :::::::::::::::::::::::::::::::::::::::::::::::::::::

           -------------------------------------------------
          |                Property Printout                |
           -------------------------------------------------

    * Orbital Energies and Occupations

         #    Occupation            Energy/Eh            Energy/eV
      -------------------------------------------------------------
         1        2.0000           -0.7429053             -20.2155
       ...           ...                  ...                  ...
       824        2.0000           -0.3651678              -9.9367
       825        2.0000           -0.3615563              -9.8384
       826        2.0000           -0.3612826              -9.8310
       827        2.0000           -0.3604027              -9.8071
       828        2.0000           -0.3589917              -9.7687
       829        2.0000           -0.3589054              -9.7663
       830        2.0000           -0.3570495              -9.7158
       831        2.0000           -0.3559242              -9.6852
       832        2.0000           -0.3544493              -9.6451
       833        2.0000           -0.3543181              -9.6415
       834        2.0000           -0.3540039              -9.6329
       835        2.0000           -0.3521369              -9.5821
       836        2.0000           -0.3464183              -9.4265 (HOMO)
       837        0.0000           -0.3062443              -8.3333 (LUMO)
       838                         -0.2880543              -7.8384
       839                         -0.2865516              -7.7975
       840                         -0.2849302              -7.7533
       841                         -0.2797538              -7.6125
       842                         -0.2780433              -7.5659
       843                         -0.2774457              -7.5497
       844                         -0.2755502              -7.4981
       845                         -0.2746109              -7.4725
       846                         -0.2700852              -7.3494
       847                         -0.2526716              -6.8755
       ...                                ...                  ...
      1535                          0.7270283              19.7834
      -------------------------------------------------------------
                  HL-Gap            0.0401740 Eh            1.0932 eV
             Fermi-level           -0.3262903 Eh           -8.8788 eV

   #   Z        covCN         q      C6AA      α(0)
   1   7 N      2.702    -0.297    27.653     7.810
   2   6 C      3.808     0.033    20.017     6.369
   3   6 C      2.763     0.203    23.685     7.970
   4   8 O      0.856    -0.391    21.496     6.216
   5   6 C      3.827    -0.058    21.604     6.614
   6   6 C      3.827    -0.063    21.683     6.626
   7   6 C      3.763     0.009    20.470     6.449
   8   1 H      0.924     0.038     2.469     2.457
   9   1 H      0.925     0.045     2.387     2.416
  10   1 H      0.925     0.052     2.291     2.367
  11   1 H      0.925     0.051     2.307     2.376
  12   1 H      0.925     0.053     2.283     2.363
  13   1 H      0.925     0.050     2.320     2.382
  14   1 H      0.924     0.021     2.717     2.578
  15   7 N      2.637    -0.396    30.250     8.169
  16   6 C      3.782     0.038    19.947     6.362
  17   6 C      2.765     0.203    23.691     7.971
  18   8 O      0.856    -0.393    21.535     6.222
  19   6 C      3.808    -0.088    22.174     6.703
  20   6 C      3.804    -0.081    22.042     6.684
  21   6 C      3.739    -0.034    21.265     6.580
  22   7 N      2.703    -0.133    23.890     7.259
  23   6 C      2.735     0.222    23.324     7.907
  24   7 N      2.647    -0.225    25.926     7.562
  25   7 N      2.655    -0.244    26.365     7.626
  26   1 H      0.860     0.180     1.212     1.725
  27   1 H      0.923     0.047     2.360     2.402
  28   1 H      0.924     0.083     1.947     2.182
  29   1 H      0.925     0.076     2.021     2.223
  30   1 H      0.924     0.054     2.268     2.355
  31   1 H      0.924     0.058     2.222     2.331
  32   1 H      0.924     0.103     1.754     2.071
  33   1 H      0.924     0.083     1.951     2.184
  34   1 H      0.860     0.226     0.983     1.553
  35   1 H      0.859     0.257     0.859     1.452
  36   1 H      0.860     0.234     0.946     1.524
  37   1 H      0.860     0.240     0.922     1.504
  38   1 H      0.860     0.227     0.980     1.551
  39   7 N      2.636    -0.397    30.289     8.174
  40   6 C      3.789     0.032    20.050     6.377
  41   6 C      2.760     0.261    22.596     7.784
  42   8 O      0.858    -0.493    23.625     6.517
  43   6 C      3.760    -0.124    22.932     6.827
  44   1 H      0.860     0.169     1.277     1.771
  45   1 H      0.924     0.035     2.512     2.479
  46   1 H      0.925     0.049     2.336     2.390
  47   1 H      0.925     0.058     2.224     2.332
  48   1 H      0.925     0.060     2.197     2.318
  49   7 N      2.694    -0.176    24.807     7.397
  50   6 C      3.797     0.018    20.268     6.410
  51   6 C      2.757     0.273    22.382     7.747
  52   8 O      0.858    -0.465    23.020     6.433
  53   6 C      3.757    -0.141    23.277     6.879
  54   1 H      0.860     0.224     0.991     1.560
  55   1 H      0.923     0.077     2.006     2.215
  56   1 H      0.925     0.086     1.915     2.164
  57   1 H      0.925     0.080     1.980     2.200
  58   1 H      0.925     0.067     2.115     2.274
  59   7 N      2.692    -0.180    24.891     7.410
  60   6 C      3.798     0.012    20.374     6.427
  61   6 C      2.760     0.274    22.362     7.744
  62   8 O      0.859    -0.485    23.454     6.493
  63   6 C      3.853    -0.028    21.045     6.525
  64   6 C      3.802    -0.068    21.800     6.647
  65   6 C      3.754    -0.118    22.825     6.812
  66   6 C      3.751    -0.115    22.756     6.803
  67   1 H      0.860     0.213     1.044     1.601
  68   1 H      0.923     0.086     1.923     2.169
  69   1 H      0.924     0.050     2.326     2.385
  70   1 H      0.925     0.045     2.377     2.411
  71   1 H      0.924     0.054     2.267     2.355
  72   1 H      0.925     0.062     2.172     2.305
  73   1 H      0.925     0.038     2.478     2.462
  74   1 H      0.925     0.054     2.269     2.356
  75   1 H      0.925     0.042     2.424     2.435
  76   1 H      0.925     0.046     2.374     2.410
  77   1 H      0.925     0.042     2.421     2.433
  78   7 N      2.692    -0.170    24.680     7.378
  79   6 C      3.805     0.017    20.281     6.411
  80   6 C      2.758     0.278    22.290     7.731
  81   8 O      0.858    -0.510    24.013     6.570
  82   6 C      3.852    -0.031    21.092     6.532
  83   6 C      3.804    -0.064    21.726     6.636
  84   6 C      3.756    -0.115    22.756     6.802
  85   6 C      3.751    -0.112    22.701     6.795
  86   1 H      0.860     0.204     1.087     1.633
  87   1 H      0.923     0.074     2.042     2.234
  88   1 H      0.924     0.064     2.154     2.295
  89   1 H      0.924     0.046     2.366     2.405
  90   1 H      0.924     0.039     2.467     2.456
  91   1 H      0.925     0.054     2.265     2.353
  92   1 H      0.925     0.034     2.527     2.486
  93   1 H      0.925     0.051     2.310     2.377
  94   1 H      0.925     0.045     2.382     2.414
  95   1 H      0.925     0.039     2.465     2.455
  96   1 H      0.925     0.045     2.380     2.412
  97   7 N      2.692    -0.176    24.819     7.399
  98   6 C      3.798     0.023    20.194     6.399
  99   6 C      2.760     0.271    22.423     7.755
 100   8 O      0.859    -0.504    23.868     6.550
 101   6 C      3.811    -0.084    22.092     6.690
 102   6 C      3.849    -0.014    20.796     6.486
 103   6 C      3.758    -0.117    22.796     6.807
 104   6 C      3.756    -0.116    22.782     6.805
 105   1 H      0.860     0.235     0.946     1.523
 106   1 H      0.924     0.063     2.160     2.298
 107   1 H      0.924     0.069     2.095     2.264
 108   1 H      0.924     0.057     2.229     2.335
 109   1 H      0.924     0.047     2.357     2.401
 110   1 H      0.925     0.045     2.384     2.415
 111   1 H      0.925     0.042     2.428     2.437
 112   1 H      0.925     0.046     2.365     2.405
 113   1 H      0.925     0.044     2.394     2.420
 114   1 H      0.925     0.041     2.429     2.437
 115   1 H      0.925     0.029     2.603     2.523
 116   7 N      2.690    -0.191    25.136     7.446
 117   6 C      3.801     0.022    20.205     6.400
 118   6 C      2.764     0.280    22.258     7.726
 119   8 O      0.859    -0.477    23.280     6.469
 120   6 C      3.809    -0.083    22.072     6.688
 121   6 C      3.849    -0.016    20.821     6.490
 122   6 C      3.754    -0.113    22.716     6.796
 123   6 C      3.755    -0.118    22.815     6.811
 124   1 H      0.860     0.247     0.896     1.483
 125   1 H      0.924     0.069     2.095     2.264
 126   1 H      0.925     0.068     2.106     2.269
 127   1 H      0.924     0.056     2.242     2.342
 128   1 H      0.924     0.044     2.392     2.419
 129   1 H      0.925     0.039     2.461     2.453
 130   1 H      0.925     0.041     2.441     2.443
 131   1 H      0.925     0.029     2.596     2.520
 132   1 H      0.925     0.045     2.382     2.413
 133   1 H      0.925     0.051     2.309     2.376
 134   1 H      0.925     0.044     2.397     2.421
 135   7 N      2.690    -0.187    25.052     7.434
 136   6 C      3.805     0.016    20.300     6.414
 137   6 C      2.759     0.268    22.474     7.763
 138   8 O      0.858    -0.480    23.338     6.477
 139   6 C      3.807    -0.086    22.137     6.698
 140   6 C      3.086     0.021    27.431     8.585
 141   7 N      2.822    -0.098    23.147     7.146
 142   6 C      3.161    -0.011    27.965     8.644
 143   6 C      3.152     0.087    25.802     8.307
 144   7 N      1.917    -0.278    28.048     7.852
 145   1 H      0.860     0.221     1.003     1.569
 146   1 H      0.923     0.082     1.958     2.188
 147   1 H      0.924     0.076     2.025     2.225
 148   1 H      0.924     0.079     1.988     2.205
 149   1 H      0.860     0.210     1.056     1.610
 150   1 H      0.927     0.057     2.240     2.340
 151   1 H      0.926     0.043     2.415     2.430
 152   7 N      2.693    -0.177    24.822     7.400
 153   6 C      3.801     0.006    20.479     6.443
 154   6 C      2.758     0.278    22.302     7.733
 155   8 O      0.858    -0.493    23.631     6.518
 156   6 C      3.726     0.114    18.804     6.192
 157   8 O      1.655    -0.471    22.277     6.371
 158   6 C      3.754    -0.126    22.972     6.834
 159   1 H      0.860     0.225     0.989     1.558
 160   1 H      0.924     0.075     2.028     2.227
 161   1 H      0.923     0.037     2.490     2.468
 162   1 H      0.804     0.323     0.656     1.272
 163   1 H      0.925     0.071     2.080     2.255
 164   1 H      0.925     0.041     2.440     2.443
 165   1 H      0.925     0.060     2.200     2.320
 166   7 N      2.692    -0.184    24.995     7.425
 167   6 C      3.799     0.026    20.145     6.391
 168   6 C      2.759     0.266    22.511     7.770
 169   8 O      0.859    -0.512    24.054     6.576
 170   6 C      3.812    -0.077    21.969     6.672
 171   6 C      2.969     0.009    27.821     8.652
 172   6 C      2.924    -0.043    29.064     8.841
 173   6 C      2.925    -0.036    28.889     8.814
 174   6 C      2.919    -0.035    28.868     8.811
 175   6 C      2.919    -0.034    28.839     8.806
 176   6 C      2.920    -0.038    28.944     8.822
 177   1 H      0.860     0.229     0.969     1.542
 178   1 H      0.923     0.062     2.172     2.305
 179   1 H      0.924     0.070     2.081     2.256
 180   1 H      0.924     0.058     2.225     2.333
 181   1 H      0.926     0.027     2.629     2.536
 182   1 H      0.926     0.040     2.452     2.448
 183   1 H      0.926     0.039     2.463     2.454
 184   1 H      0.926     0.048     2.344     2.394
 185   1 H      0.926     0.047     2.360     2.402
 186   7 N      2.689    -0.179    24.871     7.407
 187   6 C      3.801     0.011    20.388     6.429
 188   6 C      2.764     0.267    22.487     7.766
 189   8 O      0.859    -0.479    23.322     6.475
 190   6 C      3.809    -0.086    22.128     6.696
 191   6 C      3.052    -0.034    28.792     8.800
 192   6 C      3.038    -0.011    28.258     8.719
 193   6 C      3.119    -0.022    28.366     8.723
 194   7 N      2.779    -0.096    23.118     7.141
 195   6 C      3.087     0.041    26.990     8.516
 196   6 C      2.912    -0.048    29.191     8.859
 197   6 C      2.909    -0.050    29.247     8.868
 198   6 C      2.920    -0.047    29.173     8.857
 199   6 C      2.922    -0.041    29.029     8.836
 200   1 H      0.860     0.250     0.885     1.473
 201   1 H      0.924     0.085     1.930     2.173
 202   1 H      0.925     0.078     2.005     2.214
 203   1 H      0.924     0.091     1.874     2.141
 204   1 H      0.926     0.048     2.341     2.393
 205   1 H      0.860     0.178     1.227     1.735
 206   1 H      0.926     0.032     2.555     2.499
 207   1 H      0.926     0.019     2.754     2.595
 208   1 H      0.926     0.032     2.552     2.498
 209   1 H      0.926     0.040     2.448     2.447
 210   7 N      2.686    -0.164    24.557     7.360
 211   6 C      3.752    -0.044    21.416     6.599
 212   6 C      2.756     0.277    22.318     7.736
 213   8 O      0.858    -0.494    23.657     6.521
 214   1 H      0.860     0.233     0.950     1.527
 215   1 H      0.924     0.107     1.720     2.051
 216   1 H      0.925     0.102     1.769     2.080
 217   7 N      2.692    -0.181    24.919     7.414
 218   6 C      3.806     0.023    20.187     6.396
 219   6 C      2.758     0.294    22.015     7.684
 220   8 O      0.858    -0.525    24.344     6.615
 221   6 C      3.852    -0.023    20.942     6.509
 222   6 C      3.757    -0.105    22.561     6.772
 223   6 C      3.756    -0.124    22.929     6.827
 224   1 H      0.860     0.222     0.998     1.565
 225   1 H      0.924     0.050     2.315     2.379
 226   1 H      0.924     0.061     2.188     2.313
 227   1 H      0.925     0.046     2.371     2.408
 228   1 H      0.925     0.022     2.705     2.572
 229   1 H      0.925     0.034     2.534     2.489
 230   1 H      0.925     0.051     2.308     2.376
 231   1 H      0.925     0.046     2.370     2.408
 232   1 H      0.925     0.068     2.113     2.273
 233   7 N      2.692    -0.197    25.275     7.467
 234   6 C      3.802     0.033    20.022     6.371
 235   6 C      2.757     0.282    22.233     7.722
 236   8 O      0.859    -0.506    23.922     6.558
 237   6 C      3.853    -0.023    20.943     6.509
 238   6 C      3.757    -0.119    22.831     6.812
 239   6 C      3.756    -0.118    22.808     6.809
 240   1 H      0.860     0.236     0.942     1.520
 241   1 H      0.923     0.031     2.577     2.510
 242   1 H      0.924     0.065     2.138     2.287
 243   1 H      0.925     0.077     2.007     2.216
 244   1 H      0.925     0.043     2.404     2.425
 245   1 H      0.925     0.034     2.528     2.486
 246   1 H      0.925     0.064     2.148     2.292
 247   1 H      0.925     0.025     2.652     2.547
 248   1 H      0.925     0.055     2.258     2.350
 249   7 N      2.692    -0.184    24.981     7.423
 250   6 C      3.797     0.037    19.955     6.361
 251   6 C      2.768     0.219    23.379     7.919
 252   8 O      0.856    -0.380    21.279     6.185
 253   6 C      3.813    -0.088    22.161     6.700
 254   6 C      2.973     0.007    27.859     8.658
 255   6 C      2.924    -0.037    28.911     8.818
 256   6 C      2.925    -0.048    29.195     8.861
 257   6 C      2.918    -0.030    28.737     8.791
 258   6 C      2.919    -0.036    28.906     8.817
 259   6 C      2.922    -0.036    28.885     8.814
 260   1 H      0.860     0.253     0.873     1.463
 261   1 H      0.923     0.079     1.986     2.204
 262   1 H      0.924     0.102     1.766     2.078
 263   1 H      0.924     0.070     2.082     2.257
 264   1 H      0.926     0.014     2.823     2.628
 265   1 H      0.926     0.073     2.058     2.243
 266   1 H      0.926     0.022     2.709     2.574
 267   1 H      0.926     0.063     2.168     2.303
 268   1 H      0.926     0.037     2.489     2.467
 269   7 N      2.635    -0.392    30.144     8.154
 270   6 C      3.791     0.061    19.571     6.300
 271   6 C      2.757     0.277    22.307     7.734
 272   8 O      0.858    -0.535    24.564     6.645
 273   6 C      3.801    -0.087    22.165     6.703
 274   6 C      2.686     0.372    20.701     7.446
 275   8 O      0.856    -0.647    27.305     7.006
 276   8 O      0.856    -0.650    27.392     7.017
 277   1 H      0.860     0.162     1.324     1.802
 278   1 H      0.923    -0.001     3.074     2.742
 279   1 H      0.924     0.016     2.793     2.613
 280   1 H      0.925     0.018     2.757     2.597
 281   7 N      2.692    -0.182    24.932     7.416
 282   6 C      3.791     0.038    19.940     6.359
 283   6 C      2.766     0.213    23.502     7.939
 284   8 O      0.856    -0.372    21.127     6.163
 285   6 C      3.758    -0.129    23.018     6.840
 286   1 H      0.860     0.244     0.908     1.493
 287   1 H      0.923     0.069     2.102     2.267
 288   1 H      0.925     0.082     1.955     2.186
 289   1 H      0.925     0.080     1.975     2.198
 290   1 H      0.925     0.083     1.953     2.185
 291   7 N      2.634    -0.398    30.310     8.177
 292   6 C      3.785     0.035    20.005     6.371
 293   6 C      2.756     0.271    22.414     7.753
 294   8 O      0.858    -0.500    23.774     6.537
 295   6 C      3.807    -0.063    21.712     6.633
 296   6 C      3.055    -0.035    28.827     8.805
 297   6 C      3.031    -0.008    28.189     8.709
 298   6 C      3.112    -0.022    28.399     8.730
 299   7 N      2.775    -0.116    23.529     7.204
 300   6 C      3.088     0.044    26.908     8.503
 301   6 C      2.911    -0.038    28.944     8.822
 302   6 C      2.908    -0.056    29.397     8.891
 303   6 C      2.919    -0.045    29.128     8.850
 304   6 C      2.924    -0.040    28.994     8.830
 305   1 H      0.860     0.164     1.308     1.791
 306   1 H      0.923     0.034     2.526     2.485
 307   1 H      0.924     0.045     2.389     2.417
 308   1 H      0.924     0.049     2.336     2.390
 309   1 H      0.926     0.040     2.446     2.446
 310   1 H      0.860     0.191     1.153     1.682
 311   1 H      0.925     0.020     2.728     2.583
 312   1 H      0.926     0.025     2.651     2.546
 313   1 H      0.926     0.031     2.567     2.505
 314   1 H      0.926     0.025     2.653     2.547
 315   7 N      2.689    -0.164    24.539     7.357
 316   6 C      3.792     0.030    20.085     6.382
 317   6 C      2.765     0.197    23.799     7.989
 318   8 O      0.856    -0.339    20.505     6.071
 319   6 C      3.757    -0.128    23.002     6.838
 320   1 H      0.860     0.217     1.023     1.585
 321   1 H      0.924     0.093     1.853     2.129
 322   1 H      0.925     0.073     2.048     2.238
 323   1 H      0.925     0.076     2.020     2.223
 324   1 H      0.925     0.065     2.145     2.291
 325   7 N      2.637    -0.413    30.747     8.235
 326   6 C      3.786     0.042    19.884     6.351
 327   6 C      2.757     0.269    22.449     7.759
 328   8 O      0.858    -0.520    24.230     6.600
 329   6 C      3.809    -0.075    21.926     6.666
 330   6 C      3.849    -0.010    20.715     6.474
 331   6 C      3.757    -0.111    22.681     6.790
 332   6 C      3.756    -0.115    22.747     6.800
 333   1 H      0.860     0.180     1.215     1.727
 334   1 H      0.923     0.012     2.860     2.645
 335   1 H      0.924     0.040     2.448     2.447
 336   1 H      0.924     0.062     2.179     2.308
 337   1 H      0.924     0.022     2.708     2.573
 338   1 H      0.925     0.038     2.476     2.461
[...]
   292  C   3.984        N  291 1.017    H  306 0.962    C  295 0.956    C  293 0.942
   293  C   3.943        O  294 1.604    N  315 1.310    C  292 0.942
   294  O   1.953        C  293 1.604    N  315 0.190
   295  C   3.994        C  296 1.021    H  307 0.969    H  308 0.969    C  292 0.956
   296  C   3.975        C  297 1.577    C  298 1.201    C  295 1.021
   297  C   3.952        C  296 1.577    N  299 1.203    H  309 0.968
   298  C   3.984        C  301 1.329    C  300 1.250    C  296 1.201
   299  N   3.542        C  297 1.203    C  300 1.179    H  310 0.935
   300  C   3.961        C  302 1.337    C  298 1.250    N  299 1.179
   301  C   3.992        C  303 1.505    C  298 1.329    H  311 0.968    C  302 0.114
   302  C   3.990        C  304 1.495    C  300 1.337    H  312 0.969    C  301 0.114
   303  C   3.991        C  301 1.505    C  304 1.368    H  313 0.970
   304  C   3.991        C  302 1.495    C  303 1.368    H  314 0.971
   305  H   0.973        N  291 0.951
   306  H   0.998        C  292 0.962
   307  H   0.998        C  295 0.969
   308  H   0.997        C  295 0.969
   309  H   0.998        C  297 0.968
   310  H   0.963        N  299 0.935
   311  H   0.999        C  301 0.968
   312  H   0.999        C  302 0.969
   313  H   0.999        C  303 0.970
   314  H   0.999        C  304 0.971
   315  N   3.479        C  293 1.310    C  316 0.979    H  320 0.917    O  294 0.190
   316  C   3.967        C  319 0.980    N  315 0.979    C  317 0.974    H  321 0.943
   317  C   3.900        O  318 1.888    C  316 0.974    H  617 0.953
   318  O   2.070        C  317 1.888
   319  C   3.983        C  316 0.980    H  324 0.980    H  322 0.979    H  323 0.975
   320  H   0.953        N  315 0.917
   321  H   0.991        C  316 0.943
   322  H   0.994        C  319 0.979
   323  H   0.994        C  319 0.975
   324  H   0.996        C  319 0.980
   325  N   2.982        C  326 1.011    H  618 0.960    H  333 0.915
   326  C   3.986        N  325 1.011    C  329 0.978    H  334 0.962    C  327 0.944
   327  C   3.943        O  328 1.552    N  344 1.347    C  326 0.944
   328  O   1.931        C  327 1.552    N  344 0.187
   329  C   3.991        C  330 0.994    C  326 0.978    H  335 0.969    H  336 0.965
   330  C   3.996        C  332 1.011    C  331 1.008    C  329 0.994    H  337 0.969
   331  C   3.996        C  330 1.008    H  339 0.987    H  338 0.986    H  340 0.983
   332  C   3.995        C  330 1.011    H  341 0.986    H  342 0.983    H  343 0.981
   333  H   0.967        N  325 0.915
   334  H   0.999        C  326 0.962
   335  H   0.998        C  329 0.969
   336  H   0.996        C  329 0.965
   337  H   0.999        C  330 0.969
   338  H   0.998        C  331 0.986
   339  H   0.999        C  331 0.987
   340  H   0.998        C  331 0.983
   341  H   0.998        C  332 0.986
   342  H   0.998        C  332 0.983
   343  H   0.999        C  332 0.981
   344  N   3.500        C  327 1.347    C  345 0.973    H  351 0.886    O  328 0.187
   345  C   3.960        C  346 0.977    N  344 0.973    C  348 0.950    H  352 0.946
   346  C   3.900        O  347 1.875    C  345 0.977    H  619 0.954
   347  O   2.063        C  346 1.875
   348  C   3.984        C  350 1.007    C  349 1.007    H  353 0.963    C  345 0.950
   349  C   3.988        C  348 1.007    H  354 0.982    H  355 0.981    H  356 0.979
   350  C   3.991        C  348 1.007    H  358 0.983    H  357 0.979    H  359 0.978
   351  H   0.943        N  344 0.886
   352  H   0.993        C  345 0.946
   353  H   0.996        C  348 0.963
   354  H   0.995        C  349 0.982
   355  H   0.997        C  349 0.981
   356  H   0.996        C  349 0.979
   357  H   0.995        C  350 0.979
   358  H   0.997        C  350 0.983
   359  H   0.997        C  350 0.978
   360  N   2.988        C  361 1.019    H  620 0.960    H  366 0.915
   361  C   3.987        N  360 1.019    H  367 0.964    C  364 0.960    C  362 0.939
   362  C   3.948        O  363 1.586    N  371 1.334    C  361 0.939
   363  O   1.935        C  362 1.586    N  371 0.196
   364  C   3.959        O  365 1.011    H  369 0.970    C  361 0.960    H  368 0.956
   365  O   1.950        C  364 1.011    H  370 0.847
   366  H   0.966        N  360 0.915
   367  H   0.999        C  361 0.964
   368  H   0.998        C  364 0.956
   369  H   0.998        C  364 0.970
   370  H   0.895        O  365 0.847
   371  N   3.488        C  362 1.334    C  372 0.968    H  381 0.885    O  363 0.196
   372  C   3.959        C  373 0.973    N  371 0.968    C  375 0.965    H  382 0.939
   373  C   3.897        O  374 1.887    C  372 0.973    H  621 0.954
   374  O   2.074        C  373 1.887
   375  C   3.985        C  376 1.012    C  372 0.965    H  383 0.962    H  384 0.962
   376  C   3.971        C  378 1.545    N  377 1.281    C  375 1.012
   377  N   3.011        C  379 1.530    C  376 1.281    N  380 0.104
   378  C   3.940        C  376 1.545    N  380 1.226    H  385 0.967    C  379 0.113
   379  C   3.965        N  377 1.530    N  380 1.295    H  386 0.966    C  378 0.113
   380  N   3.602        C  379 1.295    C  378 1.226    H  387 0.867    N  377 0.104
   381  H   0.942        N  371 0.885
   382  H   0.992        C  372 0.939
   383  H   0.994        C  375 0.962
   384  H   0.996        C  375 0.962
   385  H   0.997        C  378 0.967
   386  H   0.999        C  379 0.966
   387  H   0.950        N  380 0.867
   388  N   2.998        C  389 1.018    H  622 0.957    H  395 0.922
   389  C   3.986        N  388 1.018    C  390 0.981    H  396 0.958    C  392 0.930
   390  C   3.891        O  391 1.880    C  389 0.981    H  623 0.955
   391  O   2.021        C  390 1.880
   392  C   3.960        O  393 1.009    C  394 0.991    H  397 0.962    C  389 0.930
   393  O   1.954        C  392 1.009    H  398 0.841
   394  C   3.992        C  392 0.991    H  400 0.985    H  399 0.979    H  401 0.973
   395  H   0.966        N  388 0.922
   396  H   0.998        C  389 0.958
   397  H   0.998        C  392 0.962
   398  H   0.894        O  393 0.841
   399  H   0.995        C  394 0.979
   400  H   0.999        C  394 0.985
   401  H   0.996        C  394 0.973
   402  N   3.000        C  403 1.011    H  624 0.956    H  410 0.952
   403  C   3.983        N  402 1.011    C  404 0.990    H  411 0.955    C  406 0.938
   404  C   3.878        O  405 1.825    C  403 0.990    H  625 0.952
   405  O   2.057        C  404 1.825
   406  C   3.989        C  408 1.008    C  407 0.994    H  412 0.963    C  403 0.938
   407  C   3.996        C  409 1.017    C  406 0.994    H  413 0.976    H  414 0.975
   408  C   3.993        C  406 1.008    H  417 0.985    H  415 0.979    H  416 0.978
   409  C   3.993        C  407 1.017    H  419 0.988    H  418 0.984    H  420 0.982
   410  H   0.972        N  402 0.952
   411  H   0.997        C  403 0.955
   412  H   0.997        C  406 0.963
   413  H   0.999        C  407 0.976
   414  H   0.999        C  407 0.975
   415  H   0.997        C  408 0.979
   416  H   0.998        C  408 0.978
   417  H   0.997        C  408 0.985
   418  H   0.997        C  409 0.984
   419  H   0.999        C  409 0.988
   420  H   0.998        C  409 0.982
   421  N   2.995        C  422 1.014    H  626 0.956    H  428 0.952
   422  C   3.984        N  421 1.014    C  425 0.962    H  429 0.960    C  423 0.941
   423  C   3.942        O  424 1.583    N  437 1.327    C  422 0.941
   424  O   1.959        C  423 1.583    N  437 0.193
   425  C   3.993        C  426 1.009    C  427 1.008    H  430 0.962    C  422 0.962
   426  C   3.994        C  425 1.009    H  433 0.986    H  431 0.984    H  432 0.980
   427  C   3.994        C  425 1.008    H  435 0.986    H  434 0.984    H  436 0.982
   428  H   0.975        N  421 0.952
   429  H   0.998        C  422 0.960
   430  H   0.997        C  425 0.962
   431  H   0.998        C  426 0.984
   432  H   0.999        C  426 0.980
   433  H   0.998        C  426 0.986
   434  H   0.997        C  427 0.984
   435  H   0.998        C  427 0.986
   436  H   0.998        C  427 0.982
   437  N   3.474        C  423 1.327    C  438 0.981    H  444 0.869    O  424 0.193
   438  C   3.964        N  437 0.981    C  441 0.949    H  445 0.946    C  439 0.938
   439  C   3.947        O  440 1.629    N  451 1.292    C  438 0.938
   440  O   1.978        C  439 1.629    N  451 0.192
   441  C   3.962        O  442 1.009    C  443 1.004    H  446 0.955    C  438 0.949
   442  O   1.963        C  441 1.009    H  447 0.844
   443  C   3.987        C  441 1.004    H  449 0.982    H  448 0.980    H  450 0.979
   444  H   0.940        N  437 0.869
   445  H   0.993        C  438 0.946
   446  H   0.999        C  441 0.955
   447  H   0.894        O  442 0.844
   448  H   0.994        C  443 0.980
   449  H   0.998        C  443 0.982
   450  H   0.996        C  443 0.979
   451  N   3.461        C  439 1.292    C  452 0.977    H  458 0.915    O  440 0.192
   452  C   3.960        N  451 0.977    C  455 0.965    H  459 0.950    C  453 0.935
   453  C   3.942        O  454 1.623    N  467 1.296    C  452 0.935
   454  O   1.982        C  453 1.623    N  467 0.193
   455  C   3.987        C  456 1.008    C  457 1.007    C  452 0.965    H  460 0.963
   456  C   3.991        C  455 1.008    H  463 0.985    H  462 0.984    H  461 0.983
   457  C   3.990        C  455 1.007    H  465 0.984    H  464 0.981    H  466 0.981
   458  H   0.955        N  451 0.915
   459  H   0.992        C  452 0.950
   460  H   0.997        C  455 0.963
   461  H   0.996        C  456 0.983
   462  H   0.999        C  456 0.984
   463  H   0.997        C  456 0.985
   464  H   0.995        C  457 0.981
   465  H   0.997        C  457 0.984
   466  H   0.997        C  457 0.981
   467  N   3.466        C  453 1.296    C  468 0.982    H  473 0.920    O  454 0.193
   468  C   3.964        N  467 0.982    C  471 0.978    H  474 0.951    C  469 0.930
   469  C   3.950        O  470 1.611    N  478 1.325    C  468 0.930
   470  O   1.973        C  469 1.611    N  478 0.199
   471  C   3.957        O  472 1.008    C  468 0.978    H  475 0.964    H  476 0.961
   472  O   1.922        C  471 1.008    H  477 0.859
   473  H   0.957        N  467 0.920
   474  H   0.993        C  468 0.951
   475  H   0.997        C  471 0.964
   476  H   0.997        C  471 0.961
   477  H   0.872        O  472 0.859
   478  N   3.473        C  469 1.325    C  479 0.978    H  486 0.870    O  470 0.199
   479  C   3.964        C  482 0.981    N  478 0.978    H  487 0.947    C  480 0.935
   480  C   3.946        O  481 1.609    N  495 1.316    C  479 0.935
   481  O   1.973        C  480 1.609    N  495 0.197
   482  C   3.987        C  483 1.016    C  479 0.981    H  489 0.964    H  488 0.959
   483  C   3.981        C  482 1.016    S  484 0.989    H  491 0.971    H  490 0.969
   484  S   2.088        C  485 1.009    C  483 0.989
   485  C   3.976        S  484 1.009    H  493 0.984    H  494 0.979    H  492 0.976
   486  H   0.942        N  478 0.870
   487  H   0.993        C  479 0.947
   488  H   0.993        C  482 0.959
   489  H   0.997        C  482 0.964
   490  H   0.995        C  483 0.969
   491  H   0.997        C  483 0.971
   492  H   0.994        C  485 0.976
   493  H   0.997        C  485 0.984
   494  H   0.996        C  485 0.979
   495  N   3.479        C  480 1.316    C  496 0.995    H  499 0.891    O  481 0.197
   496  C   3.967        N  495 0.995    H  501 0.956    H  500 0.952    C  497 0.949
   497  C   3.949        O  498 1.593    N  502 1.331    C  496 0.949
   498  O   1.962        C  497 1.593    N  502 0.196
   499  H   0.945        N  495 0.891
   500  H   0.993        C  496 0.952
   501  H   0.991        C  496 0.956
   502  N   3.482        C  497 1.331    C  503 0.979    H  510 0.882    O  498 0.196
   503  C   3.964        N  502 0.979    C  506 0.978    H  511 0.947    C  504 0.936
   504  C   3.946        O  505 1.595    N  521 1.328    C  503 0.936
   505  O   1.955        C  504 1.595    N  521 0.195
   506  C   3.984        C  507 0.993    C  503 0.978    H  513 0.973    H  512 0.964
   507  C   3.994        C  508 1.010    C  509 1.008    C  506 0.993    H  514 0.969
   508  C   3.994        C  507 1.010    H  515 0.985    H  517 0.985    H  516 0.983
   509  C   3.994        C  507 1.008    H  520 0.986    H  519 0.986    H  518 0.985
   510  H   0.944        N  502 0.882
   511  H   0.995        C  503 0.947
   512  H   0.995        C  506 0.964
   513  H   0.997        C  506 0.973
   514  H   0.999        C  507 0.969
   515  H   0.998        C  508 0.985
   516  H   0.999        C  508 0.983
   517  H   0.997        C  508 0.985
   518  H   0.997        C  509 0.985
   519  H   0.997        C  509 0.986
   520  H   0.999        C  509 0.986
   521  N   3.478        C  504 1.328    C  522 0.978    H  535 0.877    O  505 0.195
   522  C   3.963        N  521 0.978    C  525 0.969    H  536 0.949    C  523 0.937
   523  C   3.942        O  524 1.598    N  545 1.322    C  522 0.937
   524  O   1.949        C  523 1.598    N  545 0.194
   525  C   3.985        C  526 1.014    H  538 0.972    C  522 0.969    H  537 0.951
   526  C   3.973        C  527 1.575    C  528 1.208    C  525 1.014
   527  C   3.954        C  526 1.575    N  529 1.207    H  539 0.967
   528  C   3.984        C  531 1.329    C  530 1.245    C  526 1.208
   529  N   3.548        C  527 1.207    C  530 1.182    H  540 0.934
   530  C   3.960        C  532 1.336    C  528 1.245    N  529 1.182
   531  C   3.992        C  533 1.506    C  528 1.329    H  541 0.966    C  532 0.113
   532  C   3.988        C  534 1.495    C  530 1.336    H  542 0.967    C  531 0.113
   533  C   3.990        C  531 1.506    C  534 1.368    H  543 0.967
   534  C   3.991        C  532 1.495    C  533 1.368    H  544 0.969
   535  H   0.944        N  521 0.877
   536  H   0.995        C  522 0.949
   537  H   0.994        C  525 0.951
   538  H   0.996        C  525 0.972
   539  H   0.998        C  527 0.967
   540  H   0.961        N  529 0.934
   541  H   0.999        C  531 0.966
   542  H   0.999        C  532 0.967
   543  H   0.998        C  533 0.967
   544  H   0.998        C  534 0.969
   545  N   3.470        C  523 1.322    C  546 0.980    H  550 0.876    O  524 0.194
   546  C   3.970        C  549 0.995    N  545 0.980    H  551 0.953    C  547 0.936
   547  C   3.940        O  548 1.582    N  555 1.339    C  546 0.936
   548  O   1.975        C  547 1.582    N  555 0.193
   549  C   3.983        C  546 0.995    H  552 0.979    H  553 0.976    H  554 0.976
   550  H   0.940        N  545 0.876
   551  H   0.996        C  546 0.953
   552  H   0.996        C  549 0.979
   553  H   0.994        C  549 0.976
   554  H   0.994        C  549 0.976
   555  N   3.479        C  547 1.339    C  556 0.977    H  566 0.868    O  548 0.193
   556  C   3.966        N  555 0.977    C  559 0.966    H  567 0.954    C  557 0.934
   557  C   3.943        O  558 1.628    N  575 1.301    C  556 0.934
   558  O   1.943        C  557 1.628    N  575 0.193
   559  C   3.984        C  560 1.006    C  556 0.966    H  568 0.966    H  569 0.961
   560  C   3.987        C  561 1.414    C  562 1.414    C  559 1.006    C  565 0.110
   561  C   3.991        C  563 1.445    C  560 1.414    H  570 0.969    C  564 0.111
   562  C   3.990        C  564 1.445    C  560 1.414    H  571 0.969    C  563 0.111
   563  C   3.992        C  561 1.445    C  565 1.439    H  572 0.971    C  562 0.111
   564  C   3.991        C  562 1.445    C  565 1.438    H  573 0.970    C  561 0.111
   565  C   3.991        C  563 1.439    C  564 1.438    H  574 0.971    C  560 0.110
   566  H   0.940        N  555 0.868
   567  H   0.997        C  556 0.954
   568  H   0.994        C  559 0.966
   569  H   0.995        C  559 0.961
   570  H   0.999        C  561 0.969
   571  H   0.998        C  562 0.969
   572  H   0.998        C  563 0.971
   573  H   0.998        C  564 0.970
   574  H   0.998        C  565 0.971
   575  N   3.457        C  557 1.301    C  576 0.980    H  583 0.888    O  558 0.193
   576  C   3.962        N  575 0.980    C  579 0.965    H  584 0.953    C  577 0.935
   577  C   3.936        O  578 1.631    N  594 1.288    C  576 0.935
   578  O   1.964        C  577 1.631    N  594 0.189
   579  C   3.983        C  581 1.008    C  580 0.993    C  576 0.965    H  585 0.959
   580  C   3.993        C  582 1.018    C  579 0.993    H  586 0.976    H  587 0.969
   581  C   3.993        C  579 1.008    H  590 0.985    H  589 0.983    H  588 0.980
   582  C   3.994        C  580 1.018    H  591 0.986    H  593 0.985    H  592 0.985
   583  H   0.948        N  575 0.888
   584  H   0.996        C  576 0.953
   585  H   0.997        C  579 0.959
   586  H   0.998        C  580 0.976
   587  H   0.998        C  580 0.969
   588  H   0.995        C  581 0.980
   589  H   1.000        C  581 0.983
   590  H   0.998        C  581 0.985
   591  H   0.997        C  582 0.986
   592  H   0.999        C  582 0.985
   593  H   0.997        C  582 0.985
   594  N   3.454        C  577 1.288    C  595 0.991    H  601 0.894    O  578 0.189
   595  C   3.974        N  594 0.991    C  596 0.981    H  602 0.946    C  598 0.932
   596  C   3.901        O  597 1.874    C  595 0.981    H  627 0.955
   597  O   2.024        C  596 1.874
   598  C   3.956        O  599 1.010    C  600 0.990    H  603 0.963    C  595 0.932
   599  O   1.932        C  598 1.010    H  604 0.815
   600  C   3.988        C  598 0.990    H  606 0.985    H  605 0.982    H  607 0.969
   601  H   0.948        N  594 0.894
   602  H   0.996        C  595 0.946
   603  H   0.999        C  598 0.963
   604  H   0.887        O  599 0.815
   605  H   0.997        C  600 0.982
   606  H   0.997        C  600 0.985
   607  H   0.994        C  600 0.969
   608  H   0.969        N    1 0.952
   609  H   0.994        C    3 0.952
   610  H   0.968        N   15 0.957
   611  H   0.995        C   17 0.954
   612  H   0.968        N   39 0.957
   613  H   0.997        C  251 0.956
   614  H   0.968        N  269 0.959
   615  H   0.995        C  283 0.954
   616  H   0.967        N  291 0.956
   617  H   0.993        C  317 0.953
   618  H   0.972        N  325 0.960
   619  H   0.994        C  346 0.954
   620  H   0.971        N  360 0.960
   621  H   0.995        C  373 0.954
   622  H   0.969        N  388 0.957
   623  H   0.995        C  390 0.955
   624  H   0.968        N  402 0.956
   625  H   0.992        C  404 0.952
   626  H   0.966        N  421 0.956
   627  H   0.995        C  596 0.955
 
molecular dipole:
                 x           y           z       tot (Debye)
 q only:        4.066      59.098      29.051
   full:        5.807      60.170      31.937     173.777
molecular quadrupole (traceless):
                xx          xy          yy          xz          yz          zz
 q only:    -4212.548    5096.403    2911.651    2946.086    7891.793    1300.897
  q+dip:    -4286.267    5394.251    2684.504    3322.408    8242.087    1601.763
   full:    -4286.184    5393.320    2683.474    3320.454    8231.836    1602.710


           -------------------------------------------------
          | TOTAL ENERGY             -938.647874850766 Eh   |
          | GRADIENT NORM               0.700850850922 Eh/α |
          | HOMO-LUMO GAP               1.093191029632 eV   |
           -------------------------------------------------

------------------------------------------------------------------------
 * finished run on 2019/05/31 at 07:37:02.991     
------------------------------------------------------------------------
 total:
 * wall-time:     0 d,  0 h,  0 min, 48.933 sec
 *  cpu-time:     0 d,  0 h,  0 min, 26.351 sec
 * ratio c/w:     0.539 speedup
 SCF:
 * wall-time:     0 d,  0 h,  0 min, 47.577 sec
 *  cpu-time:     0 d,  0 h,  0 min, 25.507 sec
 * ratio c/w:     0.536 speedup

