      -----------------------------------------------------------      
     |                   =====================                   |     
     |                           x T B                           |     
     |                   =====================                   |     
     |                         S. Grimme                         |     
     |          Mulliken Center for Theoretical Chemistry        |     
     |                    University of Bonn                     |     
     |                 Version 6.0.1 (SAW181210)                 |     
      -----------------------------------------------------------      

   This program is distributed in the hope that it will be useful,
   but WITHOUT ANY WARRANTY; without even the implied warranty of
   MERCHANTABILITY or FITNESS FOR A PARTICULAR PURPOSE.
   
   FOR NON-COMMERCIAL, ACADEMIA USE ONLY.
   
   Cite this work as:
   S. Grimme, C. Bannwarth, P. Shushkov, J. Comput. Theory Chem., 2017,
   13, 1989-2009.
   C. Bannwarth, S. Ehlert and S. Grimme., ChemRxiv, 2018, preprint.
   http://doi.org/10.26434/chemrxiv.7246238.v1
   
   for sTDA-xTB:
   S. Grimme and C. Bannwarth, J. Chem. Phys., 2016, 145, 054103.
   
   in the mass-spec context:
   V. Asgeirsson, C. Bauer and S. Grimme, Chem. Sci., 2017, 8, 4879.
   
   if GBSA is used:
   P. Shushkov, F. März and S. Grimme, unpublished.
   
   for ANC optimizer:
   S. Grimme, unpublished.
   Rational Function algorithm used in ANCopt:
   F. Eckert, P. Pulay, H.-J. Werner, J. Comput. Chem., 1997, 18, 1473.
   
   with help from (in alphabetical order)
   C. Bannwarth, F. Bohle, G. Brandenburg, E. Caldeweyher, M. Checinski,
   S. Dohm, S. Ehlert, S. Ehrlich, F. März, H. Neugebauer, J. Pisarek,
   P. Pracht, P. Shushkov, and S. Spicher.
   
 * started run on 2019/03/15 at 00:15:16.959     
========================================================================
 # omp threads = 1
========================================================================
number of atoms            : 335
number of electrons        : 924
charge                     : 0
spin                       : .0
first test random number   : .5730
           ------------------------------------------------- 
          |                 G F N 2 - x T B                 |
          | Geometry, Frequencies, Noncovalent interactions |
          |            JCTC 2018 parametrisation            |
           ------------------------------------------------- 
 
      method parameters     
 k(s)        :  1.8500
 k(p)        :  2.2300
 k(d)        :  2.2300
 k(f)        :  2.0000
 kEN (H0ij)  : -2.0000
 D4 a1       :  0.5200
 D4 a2       :  5.0000
 D4 s6       :  1.0000
 D4 s8       :  2.7000
 D4 s9       :  5.0000
 alphaj      :  2.0000

 Solvent             : h2o
 Using internal parameter file: .param_gbsa2_h2o
 Gsolv ref. state (COSMO-RS): gsolv [1 M gas/solution]
 temperature (mdtemp)       :    298.150000000000     
 dielectric constant        :    80.2000000000000     
 rho                        :    1.00000000000000     
 mass                       :    18.0000000000000     
 surface tension            :    15.5689454083859     
 probe radius               :   0.975313790000000     
 vdW radii scaling          :    1.00000000000000     
 Gshift (Eh)                :   1.857443126794793E-003
 c1                         :    1.55243817000000     
 soset                      :   0.130326360000000     
 HB correction              :  T

            Z     q(EN)     CN     RAES       Cart. coordinates
     1  N   5.0   -0.22    3.20    1.96    78.34646    77.50229    52.54767
     2  C   4.0    0.04    4.31    4.22    78.31461    74.83746    53.03911
     3  C   4.0    0.10    3.21    3.04    75.83621    73.84736    54.22846
     4  O   6.0   -0.26    1.21    1.80    74.98104    71.93451    53.69038
     5  C   4.0   -0.04    4.36    4.31    80.90866    73.86924    53.81619
     6  C   4.0   -0.03    4.34    4.28    81.06185    71.29645    54.94279
     7  C   4.0    0.17    3.29    3.05    80.06885    69.21120    53.27074
     8  O   6.0   -0.26    1.36    1.80    78.32984    69.64286    51.87222
     9  N   5.0   -0.21    3.34    2.00    81.13619    67.10194    53.43684
    10  H   1.0    0.09    1.07    1.44    79.97555    78.17024    52.59165
    11  H   1.0    0.08    1.18    1.46    78.05838    73.74165    51.46348
    12  H   1.0    0.05    1.08    1.44    82.06479    73.91076    52.26045
    13  H   1.0    0.04    1.08    1.44    81.68595    75.15590    55.02623
    14  H   1.0    0.04    1.08    1.44    82.88381    70.89573    55.44994
    15  H   1.0    0.05    1.07    1.44    80.08430    71.28865    56.61198
    16  H   1.0    0.09    1.08    1.44    82.51438    66.74319    54.51419
    17  H   1.0    0.10    1.09    1.44    80.63990    65.68825    52.46480
    18  N   5.0   -0.21    3.26    1.97    82.30338    63.97945    42.54624
    19  C   4.0    0.04    4.49    4.52    84.50430    65.50769    42.81196
    20  C   4.0    0.14    3.49    3.11    84.80348    66.46454    45.48056
    21  O   6.0   -0.29    1.26    1.80    83.24516    67.85605    46.39989
    22  C   4.0    0.06    4.35    4.30    84.59093    67.70262    40.96054
    23  O   6.0   -0.27    2.17    1.85    84.09001    66.78200    38.51485
    24  C   4.0   -0.07    4.21    4.01    87.07175    69.03613    41.06309
    25  H   1.0    0.11    1.07    1.44    80.98593    64.39729    43.63490
    26  H   1.0    0.05    1.12    1.45    85.99051    64.34934    42.36295
    27  H   1.0    0.06    1.09    1.44    83.19978    68.95028    41.49399
    28  H   1.0    0.14    1.06    1.44    84.09386    68.09493    37.42595
    29  H   1.0    0.05    1.04    1.43    87.11077    70.53230    39.85744
    30  H   1.0    0.06    1.04    1.43    87.45904    69.69359    42.82305
    31  H   1.0    0.05    1.06    1.44    88.48634    67.84479    40.55662
    32  N   5.0   -0.15    3.63    2.19    86.82233    65.69027    46.71709
    33  C   4.0    0.04    4.55    4.60    87.39854    66.35648    49.24858
    34  C   4.0    0.15    3.53    3.13    90.16588    66.93216    49.29801
    35  O   6.0   -0.31    1.31    1.80    91.58169    65.59300    48.09082
    36  C   4.0   -0.05    4.47    4.49    86.70658    64.21946    50.98699
    37  C   4.0   -0.04    4.38    4.35    84.15662    63.13314    50.52820
    38  C   4.0   -0.02    4.35    4.29    83.21042    61.34227    52.45314
    39  N   5.0   -0.14    3.64    2.20    83.08065    62.43780    54.90048
    40  C   4.0    0.09    3.48    3.10    85.03410    62.69831    56.51968
    41  N   5.0   -0.19    3.45    2.04    84.68859    63.73029    58.52715
    42  N   5.0   -0.19    3.55    2.11    87.03768    61.88167    55.89433
    43  H   1.0    0.10    1.13    1.45    88.02799    64.62475    46.00200
    44  H   1.0    0.06    1.11    1.45    86.35941    67.89280    49.81488
    45  H   1.0    0.05    1.08    1.44    88.03786    62.83179    50.81800
    46  H   1.0    0.05    1.10    1.44    86.82604    64.80769    52.82162
    47  H   1.0    0.06    1.10    1.44    82.89475    64.58450    50.35841
    48  H   1.0    0.05    1.08    1.44    84.14599    62.28887    48.78828
    49  H   1.0    0.04    1.07    1.44    81.48693    60.62874    51.92947
    50  H   1.0    0.04    1.08    1.44    84.36393    59.79545    52.52037
    51  H   1.0    0.08    1.12    1.45    81.50514    63.05236    55.40784
    52  H   1.0    0.08    1.06    1.44    83.11684    64.41225    59.16647
    53  H   1.0    0.08    1.08    1.44    85.97366    63.98669    59.77726
    54  H   1.0    0.08    1.08    1.44    87.43461    61.01570    54.32320
    55  H   1.0    0.08    1.08    1.44    88.54978    61.96340    56.88710
    56  N   5.0   -0.15    3.57    2.13    90.99773    68.85469    50.64423
    57  C   4.0    0.04    4.59    4.65    93.60713    69.50967    50.73725
    58  C   4.0    0.14    3.54    3.14    95.09126    68.48390    52.94214
    59  O   6.0   -0.31    1.44    1.80    96.75702    69.72044    53.90781
    60  C   4.0   -0.03    4.53    4.58    93.92968    72.27725    50.45921
    61  C   4.0    0.16    3.32    3.06    93.10191    73.29454    47.96614
    62  O   6.0   -0.29    1.30    1.80    91.29671    72.27679    46.93303
    63  N   5.0   -0.21    3.30    1.98    94.30509    75.05827    47.10895
    64  H   1.0    0.09    1.11    1.45    89.95543    69.92377    51.57651
    65  H   1.0    0.06    1.15    1.45    94.33756    68.61431    49.17922
    66  H   1.0    0.05    1.08    1.44    92.95073    73.16508    51.86963
    67  H   1.0    0.05    1.09    1.44    95.76869    72.77223    50.75723
    68  H   1.0    0.10    1.07    1.44    93.94681    75.84743    45.53091
    69  H   1.0    0.08    1.07    1.44    95.70621    75.85571    47.91338
    70  N   5.0   -0.16    3.55    2.11    94.48725    66.20194    53.72394
    71  C   4.0    0.03    4.53    4.58    95.71849    64.93923    55.76179
    72  C   4.0    0.17    3.59    3.16    98.38094    65.90454    56.20396
    73  O   6.0   -0.32    1.27    1.80    99.20272    66.08120    58.33152
    74  C   4.0   -0.06    4.41    4.40    95.75665    62.10578    55.42689
    75  C   4.0   -0.05    4.35    4.29    97.43500    60.69290    57.16486
    76  C   4.0   -0.01    4.37    4.34    96.70465    60.94125    59.84254
    77  N   5.0   -0.14    3.57    2.13    98.62975    60.37501    61.65333
    78  C   4.0    0.09    3.46    3.10    98.40507    60.48499    64.17758
    79  N   5.0   -0.18    3.50    2.08    96.45061    61.05938    65.06094
    80  N   5.0   -0.19    3.45    2.04   100.26491    59.99534    65.48765
    81  H   1.0    0.09    1.12    1.45    93.20570    65.25933    52.97206
    82  H   1.0    0.05    1.11    1.45    94.71054    65.37857    57.36393
    83  H   1.0    0.04    1.08    1.44    93.96190    61.41147    55.60742
    84  H   1.0    0.04    1.08    1.44    96.24282    61.72773    53.59453
    85  H   1.0    0.04    1.07    1.44    97.49468    58.82024    56.67985
    86  H   1.0    0.05    1.09    1.44    99.25446    61.30727    56.94197
    87  H   1.0    0.05    1.09    1.44    96.07592    62.74273    60.14475
    88  H   1.0    0.04    1.08    1.44    95.17359    59.81598    60.19203
    89  H   1.0    0.08    1.12    1.45   100.18777    59.89989    60.97197
    90  H   1.0    0.08    1.08    1.44    94.92416    61.50016    64.14454
    91  H   1.0    0.08    1.08    1.44    96.09770    61.19236    66.83943
    92  H   1.0    0.08    1.06    1.44   101.91875    59.54569    64.89614
    93  H   1.0    0.08    1.08    1.44   100.24550    60.03306    67.28758
    94  N   5.0   -0.14    3.62    2.18    99.73137    66.52330    54.17577
    95  C   4.0    0.03    4.61    4.67   102.30348    67.39369    54.21298
    96  C   4.0    0.15    3.61    3.17   103.08500    70.09143    54.89334
    97  O   6.0   -0.30    1.28    1.80   104.75748    70.43110    56.44713
    98  C   4.0   -0.03    4.50    4.53   103.77474    66.64519    51.86561
    99  C   4.0   -0.05    4.36    4.30   105.06965    64.16030    52.28073
   100  C   4.0   -0.07    4.43    4.42   105.67379    68.56328    51.18382
   101  C   4.0   -0.08    4.19    3.98   106.91881    64.18305    54.34617
   102  H   1.0    0.09    1.14    1.45    99.04882    66.46489    52.55784
   103  H   1.0    0.06    1.17    1.46   102.82375    66.45475    55.82434
   104  H   1.0    0.04    1.11    1.45   102.49833    66.53044    50.40156
   105  H   1.0    0.04    1.08    1.44   103.74988    62.78667    52.61571
   106  H   1.0    0.04    1.08    1.44   105.94194    63.60290    50.64525
   107  H   1.0    0.04    1.04    1.43   106.61999    68.09673    49.58240
   108  H   1.0    0.04    1.10    1.44   104.87637    70.28084    50.90628
   109  H   1.0    0.06    1.06    1.44   106.96638    68.75503    52.59257
   110  H   1.0    0.04    1.04    1.43   107.76809    62.47425    54.58152
   111  H   1.0    0.04    1.05    1.44   108.30539    65.47369    54.01468
   112  H   1.0    0.04    1.05    1.44   106.08249    64.65103    56.01102
   113  N   5.0   -0.16    3.63    2.19   102.02141    72.01681    53.73469
   114  C   4.0    0.04    4.62    4.69   102.67798    74.57879    54.34076
   115  C   4.0    0.16    3.44    3.09   101.40886    75.42052    56.79266
   116  O   6.0   -0.28    1.28    1.80   101.36332    77.62516    57.42332
   117  C   4.0   -0.02    4.48    4.50   102.10150    76.49059    52.26427
   118  C   4.0   -0.05    4.40    4.38   101.87017    75.20772    49.73547
   119  C   4.0   -0.06    4.26    4.13   104.05367    78.50319    52.17452
   120  C   4.0   -0.08    4.21    4.01   104.19279    74.12214    48.73625
   121  H   1.0    0.09    1.13    1.45   100.78839    71.85238    52.49215
   122  H   1.0    0.07    1.12    1.45   104.61171    74.56466    54.56492
   123  H   1.0    0.06    1.12    1.45   100.39056    77.31082    52.69961
   124  H   1.0    0.04    1.09    1.44   100.52452    73.82419    49.84264
   125  H   1.0    0.04    1.08    1.44   101.16489    76.46526    48.44816
   126  H   1.0    0.05    1.04    1.43   103.66444    79.81186    50.82505
   127  H   1.0    0.07    1.04    1.43   104.20758    79.42957    53.85331
   128  H   1.0    0.06    1.05    1.44   105.77587    77.74817    51.77511
   129  H   1.0    0.04    1.04    1.43   103.92635    73.27714    47.03133
   130  H   1.0    0.05    1.05    1.44   105.54124    75.47019    48.51554
   131  H   1.0    0.05    1.08    1.44   104.89582    72.80436    49.93561
   132  N   5.0   -0.14    3.61    2.17   100.31590    73.61902    58.16737
   133  C   4.0    0.04    4.50    4.54    99.01472    73.97072    60.51524
   134  C   4.0    0.15    3.42    3.09   100.02884    72.22124    62.57361
   135  O   6.0   -0.29    1.26    1.80    98.71580    71.47630    64.28436
   136  C   4.0   -0.03    4.40    4.39    96.19593    73.66252    60.19619
   137  C   4.0   -0.03    4.30    4.19    95.00471    75.29935    58.26194
   138  C   4.0    0.26    3.16    3.03    95.57907    78.08970    58.58654
   139  O   6.0   -0.27    1.18    1.80    94.95216    79.09859    60.62883
   140  O   6.0   -0.26    1.19    1.80    96.65368    79.23463    56.83090
   141  H   1.0    0.11    1.15    1.45   100.32389    71.93728    57.65203
   142  H   1.0    0.07    1.12    1.45    99.33315    75.80735    61.06810
   143  H   1.0    0.06    1.08    1.44    95.84364    71.80421    59.79362
   144  H   1.0    0.07    1.08    1.44    95.32281    73.96456    61.89499
   145  H   1.0    0.06    1.08    1.44    95.57834    74.74232    56.50414
   146  H   1.0    0.05    1.07    1.44    93.08646    75.05346    58.25188
   147  N   5.0   -0.15    3.55    2.11   102.42039    71.51325    62.34871
   148  C   4.0    0.04    4.58    4.65   103.71557    69.85242    64.04040
   149  C   4.0    0.14    3.54    3.13   106.40461    70.79216    64.32531
   150  O   6.0   -0.30    1.25    1.80   107.08358    72.03826    66.13319
   151  C   4.0   -0.02    4.41    4.39   103.61941    67.06518    63.22047
   152  C   4.0   -0.08    4.28    4.16   105.40131    65.49090    64.70888
   153  C   4.0   -0.06    4.28    4.15   101.03329    66.02243    63.42709
   154  H   1.0    0.10    1.13    1.45   103.43190    72.05947    61.01929
   155  H   1.0    0.07    1.11    1.45   102.80121    69.91718    65.75528
   156  H   1.0    0.05    1.11    1.45   104.17007    67.02405    61.35746
   157  H   1.0    0.04    1.04    1.43   105.37689    63.66218    64.12608
   158  H   1.0    0.05    1.05    1.44   107.20660    66.12756    64.55832
   159  H   1.0    0.05    1.04    1.44   104.92306    65.52366    66.56659
   160  H   1.0    0.05    1.06    1.44   100.96678    64.19961    62.83493
   161  H   1.0    0.05    1.05    1.44   100.43859    66.07889    65.24919
   162  H   1.0    0.08    1.05    1.44    99.78273    67.02454    62.37008
   163  N   5.0   -0.16    3.62    2.17   107.98798    70.21807    62.47288
   164  C   4.0    0.04    4.50    4.54   110.55997    71.02209    62.41590
   165  C   4.0    0.17    3.48    3.11   110.80643    73.87000    62.01677
   166  O   6.0   -0.28    1.25    1.80   112.84980    74.89782    61.86781
   167  C   4.0   -0.04    4.38    4.35   112.05881    69.59397    60.45263
   168  C   4.0   -0.03    4.29    4.18   111.02388    69.62051    57.83192
   169  C   4.0    0.26    3.14    3.03   111.23238    72.14261    56.45200
   170  O   6.0   -0.25    1.18    1.80   113.38088    73.08236    56.21710
   171  O   6.0   -0.27    1.18    1.80   109.25371    73.14518    55.63494
   172  H   1.0    0.09    1.13    1.45   107.51181    69.28137    61.06446
   173  H   1.0    0.06    1.11    1.45   111.30607    70.63736    64.17322
   174  H   1.0    0.07    1.08    1.44   113.85842    70.30328    60.40030
   175  H   1.0    0.04    1.07    1.44   112.28215    67.76238    61.03729
   176  H   1.0    0.05    1.07    1.44   111.88600    68.26274    56.75465
   177  H   1.0    0.06    1.08    1.44   109.16730    69.09536    57.87671
   178  N   5.0   -0.14    3.60    2.16   108.65915    75.16992    61.86012
   179  C   4.0    0.04    4.50    4.53   108.53578    77.84234    61.46959
   180  C   4.0    0.16    3.51    3.12   109.49404    79.32694    63.73165
   181  O   6.0   -0.27    1.27    1.80   109.88812    81.58893    63.60064
   182  C   4.0   -0.02    4.42    4.42   105.93418    78.78324    60.76770
   183  C   4.0    0.19    3.30    3.05   105.72688    81.63615    60.34697
   184  O   6.0   -0.27    1.24    1.80   107.04020    82.64142    58.73610
   185  N   5.0   -0.18    3.28    1.98   104.22124    82.79435    61.70457
   186  H   1.0    0.10    1.15    1.45   107.08271    74.40608    61.99701
   187  H   1.0    0.08    1.11    1.45   109.73602    78.20926    59.98728
   188  H   1.0    0.07    1.07    1.44   105.31276    77.85755    59.18357
   189  H   1.0    0.05    1.08    1.44   104.69341    78.25788    62.15110
   190  H   1.0    0.11    1.07    1.44   103.96584    84.56597    61.61283
   191  H   1.0    0.10    1.07    1.44   103.18840    82.03816    62.95728
   192  N   5.0   -0.15    3.59    2.15   109.84659    78.04420    65.84587
   193  C   4.0    0.04    4.55    4.61   110.73600    79.16163    68.14482
   194  C   4.0    0.16    3.44    3.09   113.61318    79.27603    68.24511
   195  O   6.0   -0.29    1.26    1.80   114.74332    79.28629    70.22964
   196  C   4.0   -0.03    4.42    4.42   109.71266    77.90169    70.47264
   197  C   4.0   -0.03    4.36    4.32   109.44538    79.60756    72.67382
   198  C   4.0    0.16    3.32    3.06   108.11909    82.06649    72.04801
   199  O   6.0   -0.27    1.25    1.80   105.99836    81.99610    71.09796
   200  N   5.0   -0.20    3.28    1.98   109.27515    84.03725    72.50289
   201  H   1.0    0.10    1.13    1.45   109.55863    76.31149    65.97648
   202  H   1.0    0.07    1.14    1.45   110.07704    80.98971    68.14373
   203  H   1.0    0.06    1.08    1.44   107.99855    77.10497    70.07096
   204  H   1.0    0.06    1.08    1.44   110.85362    76.40440    70.91706
   205  H   1.0    0.05    1.07    1.44   108.50987    78.70343    74.10768
   206  H   1.0    0.06    1.08    1.44   111.19295    79.98891    73.40046
   207  H   1.0    0.10    1.07    1.44   110.91168    84.11289    73.23093
   208  H   1.0    0.11    1.07    1.44   108.63058    85.67236    72.15175
   209  N   5.0   -0.14    3.57    2.13   114.75291    79.32591    66.01828
   210  C   4.0    0.04    4.42    4.42   117.42061    79.40400    65.59531
   211  C   4.0    0.16    3.45    3.10   118.10202    81.49475    63.71796
   212  O   6.0   -0.29    1.30    1.80   119.64955    83.09865    64.25559
   213  C   4.0   -0.06    4.22    4.05   118.40362    76.90523    64.77543
   214  H   1.0    0.11    1.15    1.45   113.84826    79.29784    64.50994
   215  H   1.0    0.07    1.12    1.45   118.27153    79.83194    67.29144
   216  H   1.0    0.05    1.04    1.43   120.30781    76.93844    64.53935
   217  H   1.0    0.06    1.04    1.43   117.99765    75.53542    66.05935
   218  H   1.0    0.07    1.04    1.43   117.61159    76.39475    63.10268
   219  N   5.0   -0.14    3.48    2.06   116.91505    81.44897    61.50403
   220  C   4.0    0.04    4.49    4.52   117.29879    83.27256    59.49433
   221  C   4.0    0.15    3.48    3.11   116.49792    82.47782    56.81236
   222  O   6.0   -0.24    1.22    1.80   117.10967    80.40064    56.00008
   223  C   4.0   -0.01    4.51    4.56   120.00324    84.15048    59.37957
   224  C   4.0    0.17    3.31    3.06   120.53907    86.13716    57.40163
   225  O   6.0   -0.28    1.25    1.80   119.47390    88.19568    57.55364
   226  N   5.0   -0.19    3.29    1.98   122.03157    85.56590    55.71853
   227  H   1.0    0.11    1.11    1.45   115.73906    80.20741    61.09674
   228  H   1.0    0.06    1.13    1.45   116.12323    84.72616    59.99443
   229  H   1.0    0.08    1.10    1.44   120.54003    84.79569    61.12485
   230  H   1.0    0.06    1.08    1.44   121.13239    82.61543    59.06722
   231  H   1.0    0.11    1.07    1.44   122.47417    86.65623    54.36464
   232  H   1.0    0.10    1.07    1.44   122.86018    83.98046    55.58029
   233  N   5.0   -0.08    3.70    2.26   115.16727    84.16481    55.43541
   234  C   4.0    0.04    4.65    4.72   114.30256    83.74699    52.82939
   235  C   4.0    0.16    3.42    3.08   116.38006    84.11787    50.86421
   236  O   6.0   -0.28    1.31    1.80   118.55590    83.53070    51.28277
   237  C   4.0   -0.04    4.56    4.62   112.14409    85.55387    52.52873
   238  C   4.0   -0.04    4.46    4.47   111.36783    86.16456    55.10110
   239  C   4.0   -0.00    4.55    4.60   113.74614    86.26093    56.48849
   240  H   1.0    0.09    1.12    1.45   113.76766    81.88716    52.57670
   241  H   1.0    0.05    1.08    1.44   112.70047    87.14204    51.56990
   242  H   1.0    0.05    1.07    1.44   110.69989    84.82783    51.46460
   243  H   1.0    0.05    1.07    1.44   110.35561    87.80996    55.21121
   244  H   1.0    0.07    1.08    1.44   110.17464    84.81508    55.82062
   245  H   1.0    0.06    1.06    1.44   114.66309    87.95613    56.25900
   246  H   1.0    0.05    1.07    1.44   113.52224    86.10565    58.40853
   247  N   5.0   -0.15    3.50    2.08   115.67227    85.17521    48.68290
   248  C   4.0    0.04    4.42    4.41   117.30046    85.76849    46.58006
   249  C   4.0    0.07    3.30    3.05   115.93447    86.39142    44.12619
   250  O   6.0   -0.29    1.13    1.80   113.88552    85.47100    43.65117
   251  C   4.0    0.07    4.36    4.31   119.28752    83.71288    46.08166
   252  O   6.0   -0.25    2.16    1.85   121.55833    84.25836    47.34679
   253  C   4.0   -0.07    4.25    4.11   119.80603    83.38428    43.32542
   254  H   1.0    0.09    1.13    1.45   113.99225    85.59320    48.38011
   255  H   1.0    0.05    1.11    1.45   118.22879    87.37197    47.15267
   256  H   1.0    0.06    1.10    1.44   118.52748    82.04242    46.72988
   257  H   1.0    0.16    1.10    1.44   121.28332    84.19477    49.02978
   258  H   1.0    0.05    1.04    1.43   121.07473    81.97917    43.01808
   259  H   1.0    0.05    1.05    1.44   118.20681    82.95257    42.35289
   260  H   1.0    0.05    1.04    1.43   120.52600    85.00046    42.58871
   261  N   5.0   -0.21    3.21    1.96   114.19512    80.01314    40.32269
   262  C   4.0    0.03    4.30    4.20   112.60964    78.59024    42.01715
   263  C   4.0    0.08    3.26    3.05   109.91130    79.53177    42.39650
   264  O   6.0   -0.30    1.13    1.80   108.15867    78.03490    42.51154
   265  C   4.0   -0.04    4.39    4.37   113.82239    78.25039    44.56910
   266  C   4.0   -0.03    4.33    4.25   112.20802    77.22517    46.61313
   267  C   4.0    0.26    3.14    3.03   113.24848    77.56721    49.26420
   268  O   6.0   -0.25    1.18    1.80   115.28038    76.49959    49.78175
   269  O   6.0   -0.28    1.20    1.80   112.04362    78.93271    50.75908
   270  H   1.0    0.09    1.07    1.44   115.82063    80.22777    40.95719
   271  H   1.0    0.05    1.12    1.45   112.38275    76.89541    41.09654
   272  H   1.0    0.05    1.08    1.44   115.38761    77.12893    44.39905
   273  H   1.0    0.06    1.08    1.44   114.51121    79.96368    45.14351
   274  H   1.0    0.06    1.10    1.44   110.46145    78.04172    46.51801
   275  H   1.0    0.05    1.07    1.44   111.88773    75.34537    46.30743
   276  N   5.0   -0.22    3.23    1.96   101.43630    78.04239    39.39573
   277  C   4.0    0.03    4.22    4.04    99.36252    77.63971    41.11458
   278  C   4.0    0.08    3.20    3.04    97.25434    79.61764    40.78197
   279  O   6.0   -0.31    1.12    1.80    95.02463    79.05422    40.90290
   280  C   4.0   -0.08    4.21    4.03   100.23171    77.52660    43.79246
   281  H   1.0    0.10    1.07    1.44   102.99723    78.11143    40.20233
   282  H   1.0    0.04    1.11    1.44    98.57719    75.92444    40.63839
   283  H   1.0    0.04    1.04    1.43    98.77129    77.21373    44.99901
   284  H   1.0    0.04    1.04    1.43   101.51877    76.12499    44.06160
   285  H   1.0    0.05    1.04    1.43   101.06158    79.18358    44.29723
   286  N   5.0   -0.21    3.28    1.98    93.48361    77.30567    34.40526
   287  C   4.0    0.03    4.40    4.38    91.72187    75.28849    34.80726
   288  C   4.0    0.15    3.48    3.11    89.34085    76.12684    36.17184
   289  O   6.0   -0.28    1.28    1.80    87.24896    75.54495    35.38711
   290  C   4.0   -0.05    4.53    4.58    92.87841    73.12871    36.22324
   291  C   4.0   -0.05    4.37    4.34    95.47052    72.31469    35.58398
   292  C   4.0   -0.02    4.39    4.36    96.25574    70.39515    37.40419
   293  N   5.0   -0.14    3.68    2.24    94.29428    68.55989    37.69838
   294  C   4.0    0.10    3.44    3.09    93.81597    67.11381    39.73254
   295  N   5.0   -0.17    3.50    2.07    95.08171    67.28652    41.51956
   296  N   5.0   -0.19    3.47    2.06    91.98951    65.65544    39.60131
   297  H   1.0    0.09    1.08    1.44    95.09855    76.94456    35.00150
   298  H   1.0    0.05    1.11    1.45    91.20679    74.72662    33.02181
   299  H   1.0    0.05    1.10    1.44    92.84935    73.57197    38.10371
   300  H   1.0    0.05    1.10    1.44    91.71903    71.58947    36.06945
   301  H   1.0    0.04    1.08    1.44    95.55101    71.62150    33.78026
   302  H   1.0    0.04    1.08    1.44    96.67583    73.82809    35.56965
   303  H   1.0    0.04    1.07    1.44    97.91440    69.54866    36.87821
   304  H   1.0    0.04    1.08    1.44    96.64821    71.20856    39.11486
   305  H   1.0    0.08    1.13    1.45    93.24435    68.38455    36.28936
   306  H   1.0    0.08    1.08    1.44    96.53874    68.39768    41.74680
   307  H   1.0    0.09    1.08    1.44    94.89166    66.33348    43.06385
   308  H   1.0    0.08    1.06    1.44    90.86731    65.42692    38.18975
   309  H   1.0    0.09    1.07    1.44    91.50495    64.55642    40.94320
   310  N   5.0   -0.15    3.50    2.08    89.60005    77.43279    38.26366
   311  C   4.0    0.04    4.52    4.56    87.47929    78.30615    39.72335
   312  C   4.0    0.10    3.36    3.07    85.40671    79.43839    38.10787
   313  O   6.0   -0.27    1.13    1.80    83.26259    78.60979    38.21252
   314  C   4.0   -0.03    4.38    4.35    88.15741    80.08315    41.88844
   315  C   4.0   -0.07    4.30    4.20    85.96444    81.69498    42.59263
   316  C   4.0   -0.07    4.24    4.07    89.09577    78.64204    44.11188
   317  H   1.0    0.10    1.11    1.45    91.16204    77.90356    38.92481
   318  H   1.0    0.06    1.12    1.45    86.74427    76.68745    40.50735
   319  H   1.0    0.05    1.11    1.45    89.57307    81.25392    41.25493
   320  H   1.0    0.05    1.04    1.43    86.41919    82.92469    43.99400
   321  H   1.0    0.05    1.05    1.44    85.33021    82.72271    41.09799
   322  H   1.0    0.06    1.04    1.44    84.51082    80.60650    43.21264
   323  H   1.0    0.05    1.04    1.43    89.59531    79.81342    45.54952
   324  H   1.0    0.05    1.04    1.43    87.73100    77.46128    44.76437
   325  H   1.0    0.06    1.04    1.43    90.62968    77.57740    43.66670
   326  H   1.0    0.10    1.08    1.44    77.69573    77.80298    51.00537
   327  H   1.0    0.06    1.05    1.44    74.92372    74.88837    55.51483
   328  H   1.0    0.11    1.10    1.44    81.69907    64.12475    40.96312
   329  H   1.0    0.05    1.05    1.44   116.72286    87.57264    42.87951
   330  H   1.0    0.10    1.08    1.44   114.31264    79.19691    38.83523
   331  H   1.0    0.07    1.04    1.44   109.56996    81.38386    42.55244
   332  H   1.0    0.10    1.08    1.44   101.49506    76.76980    38.26896
   333  H   1.0    0.06    1.05    1.44    97.69773    81.42547    40.45604
   334  H   1.0    0.10    1.08    1.44    93.61111    77.62457    32.73954
   335  H   1.0    0.06    1.05    1.44    85.79438    80.87657    36.94493

  Z AO/shell   Hii/eV     exponent
  1     Wed Apr 25 08:07:45 CEST 2018   EN: 2.200 GM2: 0.406  GM3: 0.0800  RAES: 1.40
     1s    -10.707211    1.230000
  6     Wed Apr 25 08:07:45 CEST 2018   EN: 2.550 GM2: 0.538  GM3: 0.1500  RAES: 3.00
     2s    -13.970922    2.096432
     2p    -10.063292    1.800000
  7     Wed Apr 25 08:07:45 CEST 2018   EN: 3.040 GM2: 0.461  GM3:-0.0640  RAES: 1.90
     2s    -16.686243    2.339881
     2p    -12.523956    2.014332
  8     Wed Apr 25 08:07:45 CEST 2018   EN: 3.440 GM2: 0.452  GM3:-0.0517  RAES: 1.80
     2s    -20.229985    2.439742
     2p    -15.503117    2.137023
 no old-style atom pair restraining (fixing) potential

molecular fragmentation (1/2 indicates fragments):
111111111111111112222222222222222222222222222222222222222222222222222222
222222222222222222222222222222222222222222222222222222222222222222222222
222222222222222222222222222222222222222222222222222222222222222222222222
222222222222222222222222222222222222222222222222222222222222222222222222
22222222222222222222222222222222222221122222222
# atoms in fragment 1/2:    19   316
 fragment masses (1/2) :      130.15     2200.48
CMA distance (Bohr)    :  23.683
constraining FC (au)   :  0.0500
           ------------------------------------------------- 
          |        Self-Consistent Charge Iterations        |
           ------------------------------------------------- 

 Ncao       : 824
 Nao        : 824
 Nshell     : 498
 Nel        : 924
 T(el)      :   500.0
 intcut     :    35.0
 scfconv/Eh :  0.100E-06
   qconv/e  :  0.100E-04
 intneglect :  0.100E-08
 broydamp   :      0.400
 iter      E             dE          RMSdq      gap      omega  full diag
   1   -533.5256346 -0.533526E+03  0.479E+00    3.35       0.0  T
   2   -534.9952967 -0.146966E+01  0.222E+00    1.79       1.0  T
   3   -535.0771985 -0.819018E-01  0.121E+00    1.99       1.0  T
   4   -535.1389673 -0.617688E-01  0.267E-01    1.37       1.0  T
   5   -535.1447709 -0.580356E-02  0.134E-01    1.49       1.0  T
   6   -535.1455179 -0.746988E-03  0.535E-02    1.48       1.0  T
   7   -535.1456801 -0.162268E-03  0.232E-02    1.50       1.0  T
   8   -535.1457027 -0.225183E-04  0.109E-02    1.50       1.0  T
   9   -535.1457109 -0.827579E-05  0.388E-03    1.50       1.4  T
  10   -535.1457116 -0.622652E-06  0.158E-03    1.50       3.5  T
  11   -535.1457117 -0.188433E-06  0.639E-04    1.50       8.5  T
  12   -535.1457118 -0.230194E-07  0.261E-04    1.50      20.9  T
  13   -535.1457118 -0.354873E-08  0.119E-04    1.50      46.0  T
  14   -535.1457118 -0.646992E-09  0.459E-05    1.50     119.0  T
  15   -535.1457118 -0.175191E-09  0.166E-05    1.50     328.4  T
speedup  1.00
cpu  time for SCC    3.71 s
wall time for SCC    3.71 s

   *** convergence criteria satisfied after 15 iterations ***

          eigenvalues
 #    :         450        451        452        453        454        455        456        457
 occ. :        2.000      2.000      2.000      2.000      2.000      2.000      2.000      2.000
 eps  :       -10.530    -10.330    -10.302    -10.164    -10.118    -10.026    -10.006     -9.990
 #    :         458        459        460        461        462        463        464        465
 occ. :        2.000      2.000      2.000      2.000      2.000      0.000      0.000      0.000
 eps  :        -9.879     -9.750     -9.744     -9.619     -9.574     -8.071     -7.918     -7.915
 #    :         466        467        468        469        470        471        472        473
 occ. :        0.000      0.000      0.000      0.000      0.000      0.000      0.000      0.000
 eps  :        -7.599     -6.808     -6.742     -6.653     -6.542     -6.482     -6.466     -6.404


   #   Z            q   n(s)   n(p)   n(d)      C6AA      α(0)
   1   7 N     -0.410  1.304  4.106  0.000    30.658     8.223
   2   6 C      0.008  1.032  2.960  0.000    20.462     6.443
   3   6 C      0.217  1.068  2.716  0.000    23.424     7.926
   4   8 O     -0.334  1.718  4.616  0.000    20.397     6.055
   5   6 C     -0.065  1.019  3.046  0.000    21.741     6.636
   6   6 C     -0.120  1.028  3.092  0.000    22.777     6.791
   7   6 C      0.295  1.010  2.695  0.000    21.987     7.678
   8   8 O     -0.511  1.756  4.755  0.000    24.034     6.573
   9   7 N     -0.271  1.216  4.055  0.000    27.013     7.719
  10   1 H      0.176  0.824  0.000  0.000     1.235     1.741
  11   1 H      0.080  0.920  0.000  0.000     1.977     2.199
  12   1 H      0.053  0.947  0.000  0.000     2.284     2.363
  13   1 H      0.055  0.945  0.000  0.000     2.255     2.348
  14   1 H      0.076  0.924  0.000  0.000     2.015     2.220
  15   1 H      0.071  0.929  0.000  0.000     2.074     2.252
  16   1 H      0.226  0.774  0.000  0.000     0.982     1.552
  17   1 H      0.234  0.766  0.000  0.000     0.949     1.526
  18   7 N     -0.394  1.292  4.103  0.000    30.215     8.164
  19   6 C      0.014  1.041  2.945  0.000    20.345     6.422
  20   6 C      0.270  1.035  2.694  0.000    22.436     7.757
  21   8 O     -0.496  1.747  4.749  0.000    23.691     6.526
  22   6 C      0.114  1.022  2.864  0.000    18.787     6.184
  23   8 O     -0.497  1.700  4.798  0.000    22.834     6.451
  24   6 C     -0.164  1.002  3.162  0.000    23.722     6.941
  25   1 H      0.167  0.833  0.000  0.000     1.288     1.778
  26   1 H      0.064  0.936  0.000  0.000     2.153     2.294
  27   1 H      0.016  0.984  0.000  0.000     2.802     2.617
  28   1 H      0.331  0.669  0.000  0.000     0.633     1.250
  29   1 H      0.052  0.948  0.000  0.000     2.297     2.370
  30   1 H      0.059  0.941  0.000  0.000     2.209     2.324
  31   1 H      0.075  0.925  0.000  0.000     2.034     2.230
  32   7 N     -0.165  1.209  3.956  0.000    24.557     7.360
  33   6 C      0.006  1.033  2.961  0.000    20.474     6.440
  34   6 C      0.262  1.035  2.703  0.000    22.586     7.784
  35   8 O     -0.462  1.723  4.739  0.000    22.961     6.425
  36   6 C     -0.113  1.025  3.088  0.000    22.638     6.770
  37   6 C     -0.111  1.015  3.096  0.000    22.608     6.766
  38   6 C     -0.040  1.017  3.023  0.000    21.348     6.588
  39   7 N     -0.212  1.188  4.024  0.000    25.604     7.515
  40   6 C      0.259  0.969  2.772  0.000    22.627     7.788
  41   7 N     -0.241  1.183  4.058  0.000    26.275     7.613
  42   7 N     -0.217  1.170  4.047  0.000    25.729     7.534
  43   1 H      0.227  0.773  0.000  0.000     0.976     1.547
  44   1 H      0.083  0.917  0.000  0.000     1.945     2.181
  45   1 H      0.091  0.909  0.000  0.000     1.867     2.137
  46   1 H      0.073  0.927  0.000  0.000     2.047     2.237
  47   1 H      0.070  0.930  0.000  0.000     2.087     2.259
  48   1 H      0.084  0.916  0.000  0.000     1.940     2.178
  49   1 H      0.096  0.904  0.000  0.000     1.823     2.111
  50   1 H      0.099  0.901  0.000  0.000     1.791     2.093
  51   1 H      0.212  0.788  0.000  0.000     1.044     1.601
  52   1 H      0.249  0.751  0.000  0.000     0.889     1.477
  53   1 H      0.270  0.730  0.000  0.000     0.810     1.410
  54   1 H      0.256  0.744  0.000  0.000     0.860     1.453
  55   1 H      0.258  0.742  0.000  0.000     0.852     1.446
  56   7 N     -0.162  1.212  3.950  0.000    24.495     7.351
  57   6 C      0.009  1.032  2.960  0.000    20.416     6.430
  58   6 C      0.258  1.032  2.710  0.000    22.651     7.794
  59   8 O     -0.504  1.763  4.742  0.000    23.878     6.552
  60   6 C     -0.114  1.019  3.095  0.000    22.642     6.768
  61   6 C      0.292  1.006  2.702  0.000    22.049     7.689
  62   8 O     -0.513  1.731  4.782  0.000    24.068     6.578
  63   7 N     -0.231  1.205  4.026  0.000    26.052     7.581
  64   1 H      0.215  0.785  0.000  0.000     1.034     1.593
  65   1 H      0.119  0.881  0.000  0.000     1.620     1.990
  66   1 H      0.077  0.923  0.000  0.000     2.010     2.217
  67   1 H      0.062  0.938  0.000  0.000     2.170     2.304
  68   1 H      0.233  0.767  0.000  0.000     0.952     1.528
  69   1 H      0.205  0.795  0.000  0.000     1.080     1.628
  70   7 N     -0.173  1.210  3.963  0.000    24.744     7.388
  71   6 C     -0.007  1.046  2.961  0.000    20.694     6.475
  72   6 C      0.281  1.032  2.687  0.000    22.252     7.725
  73   8 O     -0.471  1.741  4.730  0.000    23.144     6.450
  74   6 C     -0.108  1.025  3.083  0.000    22.540     6.756
  75   6 C     -0.095  1.011  3.084  0.000    22.288     6.719
  76   6 C     -0.040  1.014  3.027  0.000    21.346     6.587
  77   7 N     -0.199  1.184  4.015  0.000    25.315     7.473
  78   6 C      0.266  0.967  2.767  0.000    22.515     7.769
  79   7 N     -0.213  1.174  4.039  0.000    25.630     7.519
  80   7 N     -0.251  1.182  4.069  0.000    26.524     7.649
  81   1 H      0.236  0.764  0.000  0.000     0.940     1.519
  82   1 H      0.108  0.892  0.000  0.000     1.714     2.047
  83   1 H      0.105  0.895  0.000  0.000     1.736     2.060
  84   1 H      0.094  0.906  0.000  0.000     1.843     2.123
  85   1 H      0.097  0.903  0.000  0.000     1.811     2.104
  86   1 H      0.059  0.941  0.000  0.000     2.205     2.322
  87   1 H      0.080  0.920  0.000  0.000     1.974     2.197
  88   1 H      0.099  0.901  0.000  0.000     1.798     2.097
  89   1 H      0.209  0.791  0.000  0.000     1.063     1.615
  90   1 H      0.264  0.736  0.000  0.000     0.830     1.427
  91   1 H      0.260  0.740  0.000  0.000     0.846     1.441
  92   1 H      0.235  0.765  0.000  0.000     0.942     1.521
  93   1 H      0.252  0.748  0.000  0.000     0.874     1.465
  94   7 N     -0.177  1.217  3.960  0.000    24.838     7.402
  95   6 C     -0.003  1.041  2.961  0.000    20.620     6.464
  96   6 C      0.286  1.038  2.677  0.000    22.157     7.709
  97   8 O     -0.523  1.768  4.755  0.000    24.302     6.609
  98   6 C     -0.029  1.042  2.987  0.000    21.041     6.522
  99   6 C     -0.080  1.016  3.064  0.000    22.010     6.675
 100   6 C     -0.130  0.992  3.138  0.000    23.008     6.832
 101   6 C     -0.128  0.990  3.138  0.000    22.993     6.833
 102   1 H      0.207  0.793  0.000  0.000     1.070     1.621
 103   1 H      0.101  0.899  0.000  0.000     1.778     2.085
 104   1 H      0.075  0.925  0.000  0.000     2.033     2.229
 105   1 H      0.076  0.924  0.000  0.000     2.020     2.222
 106   1 H      0.061  0.939  0.000  0.000     2.185     2.311
 107   1 H      0.051  0.949  0.000  0.000     2.307     2.375
 108   1 H      0.045  0.955  0.000  0.000     2.382     2.413
 109   1 H      0.023  0.977  0.000  0.000     2.686     2.563
 110   1 H      0.063  0.937  0.000  0.000     2.164     2.300
 111   1 H      0.018  0.982  0.000  0.000     2.758     2.597
 112   1 H      0.042  0.958  0.000  0.000     2.416     2.430
 113   7 N     -0.194  1.222  3.971  0.000    25.205     7.456
 114   6 C      0.029  1.041  2.930  0.000    20.077     6.377
 115   6 C      0.282  1.038  2.681  0.000    22.233     7.721
 116   8 O     -0.505  1.764  4.741  0.000    23.897     6.554
 117   6 C     -0.012  1.035  2.978  0.000    20.755     6.478
 118   6 C     -0.078  1.017  3.062  0.000    21.973     6.670
 119   6 C     -0.115  0.991  3.124  0.000    22.721     6.791
 120   6 C     -0.134  0.990  3.144  0.000    23.111     6.851
 121   1 H      0.222  0.778  0.000  0.000     1.002     1.568
 122   1 H      0.066  0.934  0.000  0.000     2.132     2.283
 123   1 H      0.049  0.951  0.000  0.000     2.334     2.389
 124   1 H      0.055  0.945  0.000  0.000     2.258     2.349
 125   1 H      0.067  0.933  0.000  0.000     2.119     2.276
 126   1 H      0.058  0.942  0.000  0.000     2.218     2.329
 127   1 H      0.023  0.977  0.000  0.000     2.684     2.562
 128   1 H      0.030  0.970  0.000  0.000     2.591     2.517
 129   1 H      0.074  0.926  0.000  0.000     2.041     2.234
 130   1 H      0.025  0.975  0.000  0.000     2.655     2.548
 131   1 H      0.047  0.953  0.000  0.000     2.351     2.397
 132   7 N     -0.196  1.216  3.980  0.000    25.263     7.465
 133   6 C      0.031  1.035  2.934  0.000    20.053     6.376
 134   6 C      0.268  1.040  2.692  0.000    22.472     7.763
 135   8 O     -0.441  1.716  4.725  0.000    22.513     6.362
 136   6 C     -0.062  1.016  3.047  0.000    21.680     6.626
 137   6 C     -0.101  1.028  3.073  0.000    22.409     6.737
 138   6 C      0.372  1.020  2.609  0.000    20.701     7.446
 139   8 O     -0.675  1.777  4.898  0.000    28.024     7.097
 140   8 O     -0.661  1.783  4.879  0.000    27.673     7.053
 141   1 H      0.209  0.791  0.000  0.000     1.063     1.615
 142   1 H      0.049  0.951  0.000  0.000     2.331     2.387
 143   1 H      0.070  0.930  0.000  0.000     2.089     2.260
 144   1 H      0.070  0.930  0.000  0.000     2.090     2.261
 145   1 H      0.032  0.968  0.000  0.000     2.563     2.504
 146   1 H      0.055  0.945  0.000  0.000     2.262     2.352
 147   7 N     -0.180  1.211  3.969  0.000    24.888     7.409
 148   6 C      0.005  1.047  2.948  0.000    20.491     6.444
 149   6 C      0.268  1.041  2.692  0.000    22.476     7.764
 150   8 O     -0.496  1.746  4.749  0.000    23.685     6.525
 151   6 C     -0.028  1.037  2.992  0.000    21.033     6.522
 152   6 C     -0.153  1.000  3.153  0.000    23.485     6.904
 153   6 C     -0.158  1.000  3.157  0.000    23.575     6.917
 154   1 H      0.162  0.838  0.000  0.000     1.322     1.801
 155   1 H      0.108  0.892  0.000  0.000     1.713     2.046
 156   1 H      0.040  0.960  0.000  0.000     2.444     2.444
 157   1 H      0.090  0.910  0.000  0.000     1.875     2.141
 158   1 H      0.029  0.971  0.000  0.000     2.607     2.525
 159   1 H      0.071  0.929  0.000  0.000     2.075     2.253
 160   1 H      0.091  0.909  0.000  0.000     1.865     2.135
 161   1 H      0.070  0.930  0.000  0.000     2.090     2.260
 162   1 H      0.072  0.928  0.000  0.000     2.068     2.249
 163   7 N     -0.189  1.218  3.970  0.000    25.092     7.440
 164   6 C      0.025  1.041  2.935  0.000    20.158     6.391
 165   6 C      0.286  1.038  2.675  0.000    22.149     7.707
 166   8 O     -0.502  1.750  4.752  0.000    23.826     6.544
 167   6 C     -0.070  1.018  3.052  0.000    21.815     6.647
 168   6 C     -0.099  1.029  3.070  0.000    22.377     6.733
 169   6 C      0.372  1.021  2.607  0.000    20.694     7.445
 170   8 O     -0.679  1.795  4.884  0.000    28.154     7.114
 171   8 O     -0.664  1.775  4.889  0.000    27.733     7.060
 172   1 H      0.217  0.783  0.000  0.000     1.022     1.584
 173   1 H      0.095  0.905  0.000  0.000     1.829     2.115
 174   1 H      0.055  0.945  0.000  0.000     2.256     2.349
 175   1 H      0.082  0.918  0.000  0.000     1.958     2.188
 176   1 H      0.044  0.956  0.000  0.000     2.395     2.420
 177   1 H      0.051  0.949  0.000  0.000     2.307     2.375
 178   7 N     -0.202  1.220  3.982  0.000    25.387     7.483
 179   6 C      0.049  1.027  2.924  0.000    19.745     6.326
 180   6 C      0.271  1.038  2.691  0.000    22.421     7.754
 181   8 O     -0.496  1.743  4.753  0.000    23.694     6.526
 182   6 C     -0.091  1.026  3.065  0.000    22.213     6.706
 183   6 C      0.311  1.011  2.678  0.000    21.709     7.629
 184   8 O     -0.531  1.744  4.787  0.000    24.480     6.634
 185   7 N     -0.255  1.220  4.035  0.000    26.621     7.663
 186   1 H      0.195  0.805  0.000  0.000     1.130     1.665
 187   1 H      0.055  0.945  0.000  0.000     2.263     2.352
 188   1 H      0.063  0.937  0.000  0.000     2.163     2.300
 189   1 H      0.049  0.951  0.000  0.000     2.335     2.389
 190   1 H      0.263  0.737  0.000  0.000     0.835     1.431
 191   1 H      0.238  0.762  0.000  0.000     0.930     1.511
 192   7 N     -0.182  1.218  3.963  0.000    24.935     7.416
 193   6 C      0.016  1.039  2.945  0.000    20.302     6.414
 194   6 C      0.272  1.036  2.692  0.000    22.399     7.750
 195   8 O     -0.451  1.722  4.729  0.000    22.728     6.392
 196   6 C     -0.073  1.014  3.059  0.000    21.874     6.655
 197   6 C     -0.120  1.027  3.093  0.000    22.767     6.789
 198   6 C      0.296  1.015  2.688  0.000    21.975     7.676
 199   8 O     -0.554  1.756  4.798  0.000    25.011     6.705
 200   7 N     -0.259  1.221  4.037  0.000    26.714     7.676
 201   1 H      0.206  0.794  0.000  0.000     1.075     1.624
 202   1 H      0.089  0.911  0.000  0.000     1.886     2.147
 203   1 H      0.075  0.925  0.000  0.000     2.027     2.226
 204   1 H      0.077  0.923  0.000  0.000     2.009     2.216
 205   1 H      0.099  0.901  0.000  0.000     1.793     2.094
 206   1 H      0.079  0.921  0.000  0.000     1.992     2.207
 207   1 H      0.240  0.760  0.000  0.000     0.924     1.505
 208   1 H      0.243  0.757  0.000  0.000     0.911     1.495
 209   7 N     -0.180  1.212  3.968  0.000    24.891     7.410
 210   6 C      0.018  1.039  2.943  0.000    20.271     6.410
 211   6 C      0.274  1.039  2.687  0.000    22.361     7.744
 212   8 O     -0.458  1.729  4.729  0.000    22.869     6.412
 213   6 C     -0.144  0.998  3.146  0.000    23.296     6.877
 214   1 H      0.174  0.826  0.000  0.000     1.250     1.751
 215   1 H      0.109  0.891  0.000  0.000     1.708     2.044
 216   1 H      0.080  0.920  0.000  0.000     1.981     2.201
 217   1 H      0.084  0.916  0.000  0.000     1.938     2.177
 218   1 H      0.049  0.951  0.000  0.000     2.335     2.389
 219   7 N     -0.176  1.215  3.961  0.000    24.808     7.397
 220   6 C      0.035  1.037  2.928  0.000    19.995     6.367
 221   6 C      0.264  1.044  2.692  0.000    22.553     7.777
 222   8 O     -0.519  1.769  4.750  0.000    24.212     6.597
 223   6 C     -0.117  1.027  3.090  0.000    22.716     6.781
 224   6 C      0.296  1.013  2.691  0.000    21.985     7.677
 225   8 O     -0.537  1.740  4.796  0.000    24.611     6.652
 226   7 N     -0.243  1.216  4.027  0.000    26.345     7.623
 227   1 H      0.175  0.825  0.000  0.000     1.242     1.746
 228   1 H      0.070  0.930  0.000  0.000     2.082     2.256
 229   1 H      0.126  0.874  0.000  0.000     1.563     1.955
 230   1 H      0.057  0.943  0.000  0.000     2.229     2.334
 231   1 H      0.249  0.751  0.000  0.000     0.887     1.475
 232   1 H      0.230  0.770  0.000  0.000     0.965     1.539
 233   7 N     -0.095  1.241  3.854  0.000    23.092     7.137
 234   6 C      0.027  1.044  2.929  0.000    20.081     6.373
 235   6 C      0.280  1.043  2.677  0.000    22.259     7.725
 236   8 O     -0.489  1.734  4.755  0.000    23.537     6.505
 237   6 C     -0.079  1.016  3.062  0.000    21.945     6.660
 238   6 C     -0.075  1.007  3.068  0.000    21.883     6.651
 239   6 C     -0.012  1.018  2.994  0.000    20.763     6.483
 240   1 H      0.082  0.918  0.000  0.000     1.956     2.187
 241   1 H      0.070  0.930  0.000  0.000     2.086     2.258
 242   1 H      0.057  0.943  0.000  0.000     2.240     2.340
 243   1 H      0.086  0.914  0.000  0.000     1.921     2.168
 244   1 H      0.058  0.942  0.000  0.000     2.216     2.328
 245   1 H      0.090  0.910  0.000  0.000     1.881     2.145
 246   1 H      0.059  0.941  0.000  0.000     2.213     2.326
 247   7 N     -0.192  1.217  3.975  0.000    25.161     7.450
 248   6 C      0.003  1.050  2.946  0.000    20.528     6.452
 249   6 C      0.190  1.085  2.726  0.000    23.936     8.012
 250   8 O     -0.353  1.749  4.604  0.000    20.764     6.109
 251   6 C      0.133  1.018  2.848  0.000    18.497     6.137
 252   8 O     -0.466  1.680  4.786  0.000    22.178     6.357
 253   6 C     -0.151  1.001  3.150  0.000    23.460     6.903
 254   1 H      0.209  0.791  0.000  0.000     1.061     1.613
 255   1 H      0.106  0.894  0.000  0.000     1.728     2.055
 256   1 H      0.022  0.978  0.000  0.000     2.698     2.568
 257   1 H      0.328  0.672  0.000  0.000     0.643     1.259
 258   1 H      0.082  0.918  0.000  0.000     1.958     2.188
 259   1 H      0.059  0.941  0.000  0.000     2.207     2.323
 260   1 H      0.088  0.912  0.000  0.000     1.899     2.155
 261   7 N     -0.400  1.295  4.105  0.000    30.372     8.185
 262   6 C      0.036  1.036  2.929  0.000    19.981     6.366
 263   6 C      0.202  1.092  2.707  0.000    23.709     7.974
 264   8 O     -0.368  1.741  4.627  0.000    21.057     6.152
 265   6 C     -0.047  1.013  3.034  0.000    21.404     6.583
 266   6 C     -0.090  1.025  3.065  0.000    22.196     6.705
 267   6 C      0.373  1.020  2.607  0.000    20.677     7.442
 268   8 O     -0.665  1.780  4.886  0.000    27.780     7.067
 269   8 O     -0.663  1.777  4.886  0.000    27.724     7.059
 270   1 H      0.164  0.836  0.000  0.000     1.308     1.791
 271   1 H      0.063  0.937  0.000  0.000     2.165     2.301
 272   1 H      0.047  0.953  0.000  0.000     2.353     2.399
 273   1 H      0.031  0.969  0.000  0.000     2.572     2.508
 274   1 H      0.023  0.977  0.000  0.000     2.680     2.560
 275   1 H      0.030  0.970  0.000  0.000     2.585     2.514
 276   7 N     -0.406  1.298  4.108  0.000    30.538     8.207
 277   6 C      0.037  1.035  2.928  0.000    19.973     6.365
 278   6 C      0.193  1.098  2.710  0.000    23.879     8.003
 279   8 O     -0.359  1.737  4.623  0.000    20.885     6.127
 280   6 C     -0.138  0.999  3.139  0.000    23.185     6.861
 281   1 H      0.168  0.832  0.000  0.000     1.286     1.776
 282   1 H      0.075  0.925  0.000  0.000     2.036     2.231
 283   1 H      0.059  0.941  0.000  0.000     2.208     2.324
 284   1 H      0.072  0.928  0.000  0.000     2.066     2.248
 285   1 H      0.047  0.953  0.000  0.000     2.355     2.400
 286   7 N     -0.414  1.299  4.115  0.000    30.775     8.239
 287   6 C      0.028  1.034  2.938  0.000    20.104     6.385
 288   6 C      0.269  1.042  2.689  0.000    22.452     7.760
 289   8 O     -0.518  1.757  4.762  0.000    24.186     6.594
 290   6 C     -0.099  1.022  3.077  0.000    22.352     6.725
 291   6 C     -0.084  1.008  3.076  0.000    22.072     6.685
 292   6 C     -0.024  1.013  3.011  0.000    21.039     6.537
 293   7 N     -0.206  1.186  4.020  0.000    25.467     7.495
 294   6 C      0.270  0.965  2.765  0.000    22.444     7.756
 295   7 N     -0.199  1.169  4.030  0.000    25.317     7.473
 296   7 N     -0.252  1.182  4.070  0.000    26.545     7.652
 297   1 H      0.178  0.822  0.000  0.000     1.228     1.736
 298   1 H      0.049  0.951  0.000  0.000     2.336     2.390
 299   1 H      0.066  0.934  0.000  0.000     2.124     2.279
 300   1 H      0.069  0.931  0.000  0.000     2.091     2.261
 301   1 H      0.069  0.931  0.000  0.000     2.100     2.266
 302   1 H      0.061  0.939  0.000  0.000     2.192     2.315
 303   1 H      0.084  0.916  0.000  0.000     1.943     2.179
 304   1 H      0.072  0.928  0.000  0.000     2.068     2.249
 305   1 H      0.217  0.783  0.000  0.000     1.023     1.584
 306   1 H      0.254  0.746  0.000  0.000     0.869     1.460
 307   1 H      0.264  0.736  0.000  0.000     0.831     1.428
 308   1 H      0.245  0.755  0.000  0.000     0.904     1.489
 309   1 H      0.251  0.749  0.000  0.000     0.880     1.469
 310   7 N     -0.167  1.218  3.949  0.000    24.603     7.367
 311   6 C      0.014  1.044  2.942  0.000    20.332     6.418
 312   6 C      0.220  1.074  2.707  0.000    23.367     7.917
 313   8 O     -0.377  1.754  4.623  0.000    21.218     6.176
 314   6 C     -0.023  1.038  2.985  0.000    20.947     6.509
 315   6 C     -0.135  0.996  3.139  0.000    23.118     6.850
 316   6 C     -0.144  0.999  3.145  0.000    23.309     6.878
 317   1 H      0.227  0.773  0.000  0.000     0.979     1.550
 318   1 H      0.093  0.907  0.000  0.000     1.846     2.124
 319   1 H      0.066  0.934  0.000  0.000     2.127     2.281
 320   1 H      0.064  0.936  0.000  0.000     2.150     2.293
 321   1 H      0.043  0.957  0.000  0.000     2.413     2.429
 322   1 H      0.055  0.945  0.000  0.000     2.257     2.349
 323   1 H      0.059  0.941  0.000  0.000     2.206     2.323
 324   1 H      0.064  0.936  0.000  0.000     2.152     2.294
 325   1 H      0.063  0.937  0.000  0.000     2.166     2.301
 326   1 H      0.176  0.824  0.000  0.000     1.239     1.744
 327   1 H      0.036  0.964  0.000  0.000     2.508     2.477
 328   1 H      0.189  0.811  0.000  0.000     1.165     1.691
 329   1 H      0.110  0.890  0.000  0.000     1.695     2.036
 330   1 H      0.203  0.797  0.000  0.000     1.089     1.634
 331   1 H      0.073  0.927  0.000  0.000     2.057     2.243
 332   1 H      0.191  0.809  0.000  0.000     1.154     1.683
 333   1 H      0.068  0.932  0.000  0.000     2.107     2.270
 334   1 H      0.177  0.823  0.000  0.000     1.230     1.737
 335   1 H      0.058  0.942  0.000  0.000     2.221     2.330

 Mol. C6AA /au·bohr⁶  :    1017543.755435
 Mol. C8AA /au·bohr⁸  :   22404023.758207
 Mol. α(0) /au        :       1500.281944

 
molecular dipole:
                 x           y           z       tot (Debye)
 q only:      -39.196     -44.392      -7.311
   full:      -38.243     -43.942      -8.441     149.613
molecular quadrupole (traceless):
                xx          xy          yy          xz          yz          zz
 q only:    -4791.466  -10728.884   -1815.102   -4445.419   -4617.980    6606.568
  q+dip:    -4577.790  -10615.218   -1797.667   -4555.634   -4712.469    6375.458
   full:    -4577.539  -10615.393   -1800.348   -4554.922   -4712.397    6377.887
speedup  1.00
cpu  time for grad    4.88 s
wall time for grad    4.88 s

SCC energy    :    -535.1603193
rep           :       8.9489663
ES            :       2.3945183
AES           :      -0.0921890
AXC           :       0.0918403
disp          :      -0.4072859
XB            :       0.0000000
fix           :       0.0000000
Gborn         :       0.0000000
Gsasa         :       0.0000000
Ghb           :       0.0000000
Gshift        :       0.0000000
Gsolv         :      -0.8802526     -552.37
Etot ala COSMO:    -535.1603193
grad norm     :       1.2002100
total E       :    -526.1819060
atomizationE  :      92.3922813    57977.03
(atE without considering molecular charge,
 total energy contains solvation terms)
H-L gap (eV)  :          1.5033

------------------------------------------------------------------------
 * finished run on 2019/03/15 at 00:15:22.377     
------------------------------------------------------------------------
 total:
 * wall-time:     0 d,  0 h,  0 min,  5.417 sec
 *  cpu-time:     0 d,  0 h,  0 min,  5.316 sec
 * ratio c/w:     0.981 speedup
 SCF:
 * wall-time:     0 d,  0 h,  0 min,  5.220 sec
 *  cpu-time:     0 d,  0 h,  0 min,  5.219 sec
 * ratio c/w:     1.000 speedup

