      -----------------------------------------------------------      
     |                   =====================                   |     
     |                           x T B                           |     
     |                   =====================                   |     
     |                         S. Grimme                         |     
     |          Mulliken Center for Theoretical Chemistry        |     
     |                    University of Bonn                     |     
     |                Version 6.1 RC1 (SAW190329)                |     
      -----------------------------------------------------------      

   This program is distributed in the hope that it will be useful,
   but WITHOUT ANY WARRANTY; without even the implied warranty of
   MERCHANTABILITY or FITNESS FOR A PARTICULAR PURPOSE.
   
   FOR NON-COMMERCIAL, ACADEMIA USE ONLY.
   
   Cite this work as:
   S. Grimme, C. Bannwarth, P. Shushkov, J. Comput. Theory Chem., 2017,
   13, 1989-2009. DOI: 10.1021/acs.jctc.7b00118
   C. Bannwarth, S. Ehlert and S. Grimme., J. Comput. Theory Chem., 2019,
   just accepted. DOI: 10.1021/acs.jctc.8b01176
   
   for sTDA-xTB:
   S. Grimme and C. Bannwarth, J. Chem. Phys., 2016, 145, 054103.
   DOI: 10.1063/1.4959605
   
   in the mass-spec context:
   V. Asgeirsson, C. Bauer and S. Grimme, Chem. Sci., 2017, 8, 4879.
   DOI: 10.1039/c7sc00601b
   
   for metadynamics refer to:
   S. Grimme, ChemRxiv, Preprint. DOI: 10.26434/chemrxiv.7660532.v1
   
   with help from (in alphabetical order)
   C. Bannwarth, F. Bohle, G. Brandenburg, E. Caldeweyher, M. Checinski,
   S. Dohm, S. Ehlert, S. Ehrlich, F. März, H. Neugebauer, J. Pisarek,
   P. Pracht, P. Shushkov, and S. Spicher.
   
 * started run on 2019/05/31 at 05:35:11.592     

           -------------------------------------------------
          |                Calculation Setup                |
           -------------------------------------------------

          program call               : /home/lum/install/xtb/xtb-190329/bin/xtb xtb_tmp.xyz --chrg 3 --grad --gfn 2 --etemp 500 --acc 0.1 --gbsa h2o --parallel 2
          hostname                   : cpu02
          coordinate file            : xtb_tmp.xyz
          omp threads                :                     2
          number of atoms            :                   362
          number of electrons        :                   956
          charge                     :                     3
          spin                       :                   0.0
          first test random number   :      0.62293195396159


molecular fragmentation (1/2 indicates fragments):
111111111111111111111111111111111111111111111111111111111111111111111111
111111111111111111111111111111111111111111111111111111111111111111111111
111111111111111111111111111111111111111111111111111111111111111111111111
111111111222222222222222222222222222222222222222222222222222222222222222
222222222222222222222222222222222222222222222222222222222222221122222222
22
# atoms in fragment 1/2:   227   135
 fragment masses (1/2) :     1577.80      821.09
CMA distance (Bohr)    :  11.880
constraining FC (au)   :  0.0500

########################################################################
# WARNING! Please study the warnings concerning your input carefully
#  - XTBPATH is not set, using XTBHOME instead
#  - Process number higher than OMP_NUM_THREADS, I hope you know what you are doing.
########################################################################

           ------------------------------------------------- 
          |                 G F N 2 - x T B                 |
          | Geometry, Frequencies, Noncovalent interactions |
          |            JCTC 2018 parametrisation            |
           ------------------------------------------------- 
 
             k(s)              :                1.8500
             k(p)              :                2.2300
             k(d)              :                2.2300
             k(f)              :                2.0000
             kEN (H0ij)        :               -2.0000
             D4 a1             :                0.5200
             D4 a2             :                5.0000
             D4 s6             :                1.0000
             D4 s8             :                2.7000
             D4 s9             :                5.0000
             alphaj            :                2.0000

  Z AO/shell   Hii/eV     exponent
  1     Wed Apr 25 08:07:45 CEST 2018   EN: 2.200 GM2: 0.406  GM3: 0.0800  RAES: 1.40
     1s    -10.707211    1.230000
  6     Wed Apr 25 08:07:45 CEST 2018   EN: 2.550 GM2: 0.538  GM3: 0.1500  RAES: 3.00
     2s    -13.970922    2.096432
     2p    -10.063292    1.800000
  7     Wed Apr 25 08:07:45 CEST 2018   EN: 3.040 GM2: 0.461  GM3:-0.0640  RAES: 1.90
     2s    -16.686243    2.339881
     2p    -12.523956    2.014332
  8     Wed Apr 25 08:07:45 CEST 2018   EN: 3.440 GM2: 0.452  GM3:-0.0517  RAES: 1.80
     2s    -20.229985    2.439742
     2p    -15.503117    2.137023

 Solvent             : h2o
 Using internal parameter file: .param_gbsa2_h2o
 Gsolv ref. state (COSMO-RS): gsolv [1 M gas/solution]
 temperature (mdtemp)       :    298.150000000000     
 dielectric constant        :    80.2000000000000     
 rho                        :    1.00000000000000     
 mass                       :    18.0000000000000     
 surface tension            :    15.5689454083859     
 probe radius               :   0.975313790000000     
 vdW radii scaling          :    1.00000000000000     
 Gshift (Eh)                :   1.857443126794793E-003
 c1                         :    1.55243817000000     
 soset                      :   0.130326360000000     
 HB correction              :  T
 Number of grid points      :          230

            Z     q(EN)     CN     RAES       Cart. coordinates
     1  N   5.0   -0.71    3.00    1.93   222.86108   105.95303   278.22250
     2  C   4.0    0.06    3.98    3.59   222.44413   108.54659   277.41347
     3  C   4.0    0.28    3.01    3.02   224.86072   110.09641   277.84068
     4  O   6.0   -0.45    1.00    1.80   225.73114   111.50180   276.21684
     5  C   4.0   -0.19    3.98    3.59   220.28157   109.75363   278.87377
     6  H   1.0    0.27    1.00    1.43   221.47215   105.03010   279.16722
     7  H   1.0    0.11    0.99    1.43   222.05289   108.57389   275.37318
     8  H   1.0    0.11    0.99    1.43   219.98688   111.67205   278.20173
     9  H   1.0    0.12    0.99    1.43   218.54813   108.67819   278.61633
    10  H   1.0    0.14    0.99    1.43   220.75164   109.82712   280.87338
    11  N   5.0   -0.47    3.01    1.93   225.89253   109.80455   280.11733
    12  C   4.0    0.08    4.00    3.62   228.09078   111.23200   280.88859
    13  C   4.0    0.29    3.01    3.02   230.35191   110.59513   279.19895
    14  O   6.0   -0.46    1.00    1.80   231.82203   112.24308   278.48263
    15  C   4.0   -0.11    3.99    3.60   228.73829   110.63770   283.63441
    16  C   4.0    0.28    3.00    3.02   226.76085   111.68127   285.45465
    17  O   6.0   -0.37    1.00    1.80   224.92151   112.89362   284.79086
    18  N   5.0   -0.64    3.00    1.93   227.24412   111.14399   287.89013
    19  H   1.0    0.26    1.00    1.43   224.97782   108.79026   281.46160
    20  H   1.0    0.15    0.99    1.43   227.70260   113.25982   280.67263
    21  H   1.0    0.12    0.99    1.43   228.85440   108.58903   283.84974
    22  H   1.0    0.12    0.99    1.43   230.56651   111.47379   284.09336
    23  H   1.0    0.31    1.00    1.43   226.08886   111.84173   289.23175
    24  H   1.0    0.28    1.00    1.43   228.83398   110.25217   288.42311
    25  N   5.0   -0.48    3.01    1.93   230.63284   108.15562   278.67954
    26  C   4.0    0.07    4.00    3.61   232.57768   107.25352   276.98772
    27  C   4.0    0.30    3.01    3.02   232.28694   108.43421   274.36419
    28  O   6.0   -0.44    1.00    1.80   234.19523   108.99613   273.16288
    29  C   4.0   -0.16    3.98    3.59   232.55269   104.37268   276.81344
    30  C   4.0   -0.15    3.98    3.59   233.39409   103.17177   279.30281
    31  C   4.0   -0.03    3.98    3.59   233.20254   100.28884   279.21181
    32  N   5.0   -0.47    3.02    1.93   233.89036    99.25955   281.65943
    33  C   4.0    0.39    3.00    3.02   232.69372    97.50516   282.99662
    34  N   5.0   -0.63    3.02    1.93   230.72543    96.24127   282.07764
    35  N   5.0   -0.63    3.02    1.93   233.49333    96.99291   285.33056
    36  H   1.0    0.24    1.00    1.43   229.37805   106.87891   279.37793
    37  H   1.0    0.13    0.99    1.43   234.42236   107.90093   277.68741
    38  H   1.0    0.12    0.99    1.43   230.63704   103.79717   276.31717
    39  H   1.0    0.12    0.99    1.43   233.81123   103.81483   275.27889
    40  H   1.0    0.12    0.99    1.43   235.33879   103.73418   279.69019
    41  H   1.0    0.13    0.99    1.43   232.18444   103.87265   280.81577
    42  H   1.0    0.12    0.99    1.43   231.26386    99.77573   278.74230
    43  H   1.0    0.13    0.99    1.43   234.46273    99.53475   277.75652
    44  H   1.0    0.25    1.00    1.43   235.41106   100.10122   282.45437
    45  H   1.0    0.27    1.00    1.43   230.11492    96.49543   280.29587
    46  H   1.0    0.29    1.00    1.43   229.82990    94.93991   283.13742
    47  H   1.0    0.28    1.00    1.43   234.99972    97.88353   286.07766
    48  H   1.0    0.29    1.00    1.43   232.69656    95.59757   286.35054
    49  N   5.0   -0.46    3.01    1.93   229.94970   108.81575   273.54361
    50  C   4.0    0.08    4.00    3.61   229.46568   110.08152   271.16947
    51  C   4.0    0.29    3.02    3.02   230.37722   112.81567   271.30775
    52  O   6.0   -0.48    1.00    1.80   231.47082   113.78697   269.50087
    53  C   4.0   -0.13    3.99    3.60   226.66226   110.04349   270.49726
    54  C   4.0   -0.04    3.02    3.02   225.57872   107.49511   269.82337
    55  C   4.0   -0.10    3.04    3.02   222.96032   107.24255   269.79730
    56  C   4.0   -0.08    3.03    3.02   227.04413   105.43418   269.12914
    57  C   4.0   -0.09    3.03    3.02   221.82738   105.00404   269.07012
    58  C   4.0   -0.09    3.03    3.02   225.90882   103.18912   268.40209
    59  C   4.0   -0.08    3.03    3.02   223.30532   102.96542   268.35677
    60  H   1.0    0.26    1.00    1.43   228.45101   108.13590   274.52535
    61  H   1.0    0.15    0.99    1.43   230.59174   109.17593   269.68133
    62  H   1.0    0.14    0.99    1.43   225.61511   110.83578   272.09028
    63  H   1.0    0.10    0.99    1.43   226.39549   111.30157   268.87624
    64  H   1.0    0.11    0.99    1.43   221.79882   108.83638   270.33212
    65  H   1.0    0.15    1.00    1.43   229.07752   105.55863   269.11837
    66  H   1.0    0.13    1.00    1.43   219.79194   104.85116   269.05363
    67  H   1.0    0.13    1.00    1.43   227.07767   101.61067   267.84932
    68  H   1.0    0.13    1.00    1.43   222.43152   101.21740   267.77185
    69  N   5.0   -0.46    3.01    1.93   229.96151   114.04885   273.46451
    70  C   4.0    0.10    4.00    3.62   230.94700   116.58967   273.77458
    71  C   4.0    0.28    3.01    3.02   233.83893   116.50058   273.63411
    72  O   6.0   -0.48    1.00    1.80   235.05627   118.09220   272.46696
    73  C   4.0    0.03    3.98    3.58   230.06052   117.74506   276.28890
    74  O   6.0   -0.47    1.99    1.82   227.39466   117.56637   276.32731
    75  C   4.0   -0.22    3.98    3.59   230.92341   120.49434   276.49833
    76  H   1.0    0.31    1.00    1.43   228.68162   113.40081   274.74201
    77  H   1.0    0.12    0.99    1.43   230.28849   117.77801   272.20627
    78  H   1.0    0.14    0.99    1.43   230.86290   116.60156   277.82682
    79  H   1.0    0.27    0.99    1.43   226.80170   118.29982   277.88722
    80  H   1.0    0.11    0.99    1.43   230.49593   121.23756   278.36314
    81  H   1.0    0.11    0.99    1.43   232.93847   120.64543   276.15098
    82  H   1.0    0.11    0.99    1.43   229.94886   121.62053   275.08408
    83  N   5.0   -0.47    3.01    1.93   234.92561   114.62726   274.91539
    84  C   4.0    0.07    3.99    3.61   237.63251   114.20763   274.77716
    85  C   4.0    0.31    3.01    3.02   238.44279   113.83474   272.02624
    86  O   6.0   -0.46    1.00    1.80   240.36722   114.84497   271.21128
    87  C   4.0   -0.20    3.98    3.59   238.39109   111.94208   276.38049
    88  H   1.0    0.31    1.00    1.43   233.86779   113.42667   275.98284
    89  H   1.0    0.12    0.99    1.43   238.61313   115.91608   275.42433
    90  H   1.0    0.12    0.99    1.43   240.43594   111.76112   276.40740
    91  H   1.0    0.12    0.99    1.43   237.70025   112.18933   278.29836
    92  H   1.0    0.14    0.99    1.43   237.59361   110.23382   275.56755
    93  N   5.0   -0.45    3.01    1.93   236.92423   112.40727   270.61531
    94  C   4.0    0.08    4.00    3.62   237.43117   112.07117   267.95416
    95  C   4.0    0.29    3.02    3.02   237.44928   114.67026   266.67899
    96  O   6.0   -0.46    1.00    1.80   239.15893   115.21525   265.21348
    97  C   4.0   -0.11    3.99    3.60   235.48235   110.37944   266.65570
    98  C   4.0    0.28    2.99    3.02   235.45236   107.64327   267.55779
    99  O   6.0   -0.41    1.00    1.80   233.50398   106.59771   268.20666
   100  N   5.0   -0.64    3.00    1.93   237.68911   106.45825   267.54146
   101  H   1.0    0.32    1.00    1.43   235.54514   111.32859   271.41985
   102  H   1.0    0.14    0.99    1.43   239.35083   111.31852   267.69854
   103  H   1.0    0.14    0.99    1.43   233.60205   111.17959   266.93325
   104  H   1.0    0.10    0.99    1.43   235.88784   110.36790   264.63105
   105  H   1.0    0.29    1.00    1.43   237.76428   104.61824   268.02606
   106  H   1.0    0.26    1.00    1.43   239.24860   107.25705   266.80874
   107  N   5.0   -0.47    3.01    1.93   235.58735   116.24666   267.28110
   108  C   4.0    0.08    4.00    3.62   235.48540   118.75145   266.16595
   109  C   4.0    0.29    3.01    3.02   237.97788   120.11489   266.70378
   110  O   6.0   -0.47    1.00    1.80   239.16228   121.16342   265.00208
   111  C   4.0   -0.09    3.98    3.58   233.18993   120.26951   267.09548
   112  C   4.0   -0.16    3.98    3.59   230.75302   119.08139   266.06181
   113  C   4.0   -0.22    3.98    3.59   233.46098   123.02435   266.27119
   114  C   4.0   -0.24    3.98    3.58   228.35722   120.35985   267.03018
   115  H   1.0    0.30    1.00    1.43   234.11285   115.64118   268.35568
   116  H   1.0    0.11    0.99    1.43   235.38809   118.56768   264.09744
   117  H   1.0    0.14    0.99    1.43   233.18274   120.17858   269.15934
   118  H   1.0    0.09    0.99    1.43   230.78989   119.16251   263.99883
   119  H   1.0    0.13    0.99    1.43   230.70048   117.09108   266.59582
   120  H   1.0    0.10    0.99    1.43   231.87328   124.13931   266.93016
   121  H   1.0    0.12    0.99    1.43   235.18150   123.85074   267.02912
   122  H   1.0    0.10    0.99    1.43   233.55501   123.15746   264.22117
   123  H   1.0    0.10    0.99    1.43   226.70979   119.29557   266.42115
   124  H   1.0    0.11    0.99    1.43   228.36870   120.43197   269.08108
   125  H   1.0    0.09    0.99    1.43   228.18418   122.27000   266.29953
   126  N   5.0   -0.48    3.01    1.93   238.77819   120.09388   269.09109
   127  C   4.0    0.07    4.00    3.62   241.23613   121.14990   269.73676
   128  C   4.0    0.31    3.01    3.02   243.20171   120.08615   267.88775
   129  O   6.0   -0.47    1.00    1.80   244.60724   121.45497   266.62940
   130  C   4.0   -0.14    3.98    3.59   241.99284   120.50429   272.44876
   131  C   4.0   -0.16    3.98    3.59   240.17975   121.57748   274.42744
   132  C   4.0   -0.15    3.98    3.59   241.08727   120.89150   277.08759
   133  C   4.0   -0.06    3.98    3.58   239.04643   121.46232   279.04177
   134  N   5.0   -0.72    3.98    2.82   239.98198   120.87672   281.63122
   135  H   1.0    0.30    1.00    1.43   237.73516   119.21199   270.44141
   136  H   1.0    0.12    0.99    1.43   241.18589   123.20787   269.46714
   137  H   1.0    0.15    0.99    1.43   242.07542   118.45270   272.61886
   138  H   1.0    0.12    0.99    1.43   243.89626   121.24009   272.74783
   139  H   1.0    0.11    0.99    1.43   240.06790   123.62382   274.22534
   140  H   1.0    0.13    0.99    1.43   238.29926   120.79760   274.11032
   141  H   1.0    0.11    0.99    1.43   241.57077   118.88685   277.12054
   142  H   1.0    0.12    0.99    1.43   242.80085   121.96071   277.49520
   143  H   1.0    0.12    0.99    1.43   238.52658   123.45343   278.94001
   144  H   1.0    0.11    0.99    1.43   237.37514   120.31732   278.66012
   145  H   1.0    0.26    1.00    1.43   238.60736   121.22082   282.96693
   146  H   1.0    0.25    1.00    1.43   240.52589   119.00778   281.73871
   147  H   1.0    0.26    1.00    1.43   241.53534   121.98044   282.03640
   148  N   5.0   -0.46    3.00    1.93   243.20632   117.58304   267.74642
   149  C   4.0    0.05    3.99    3.61   244.90629   116.17764   266.14978
   150  C   4.0    0.29    3.00    3.02   244.79096   116.95138   263.38365
   151  O   6.0   -0.48    1.00    1.80   246.68426   116.75469   262.03807
   152  H   1.0    0.31    1.00    1.43   242.04604   116.56504   268.89382
   153  H   1.0    0.17    0.99    1.43   246.85643   116.42968   266.79941
   154  H   1.0    0.13    0.99    1.43   244.41315   114.18150   266.26857
   155  N   5.0   -0.46    3.01    1.93   242.57061   117.79044   262.58043
   156  C   4.0    0.08    3.99    3.61   242.04806   118.60550   260.04129
   157  C   4.0    0.28    3.02    3.02   242.71036   121.37932   259.63744
   158  O   6.0   -0.49    1.00    1.80   243.04974   122.17138   257.47541
   159  C   4.0   -0.14    3.99    3.60   239.27667   118.19379   259.31847
   160  C   4.0   -0.10    3.98    3.58   238.43363   115.42220   259.30219
   161  C   4.0   -0.23    3.98    3.59   235.59172   115.31485   258.80358
   162  C   4.0   -0.21    3.98    3.59   239.85091   113.85816   257.33828
   163  H   1.0    0.32    1.00    1.43   241.06326   117.63882   263.75968
   164  H   1.0    0.12    0.99    1.43   243.26951   117.56135   258.73703
   165  H   1.0    0.12    0.99    1.43   238.12342   119.26269   260.65478
   166  H   1.0    0.11    0.99    1.43   239.01193   119.00927   257.44090
   167  H   1.0    0.15    0.99    1.43   238.81920   114.62370   261.16718
   168  H   1.0    0.10    0.99    1.43   234.95310   113.36625   258.70765
   169  H   1.0    0.10    0.99    1.43   234.54961   116.27565   260.29044
   170  H   1.0    0.09    0.99    1.43   235.16149   116.23187   257.01569
   171  H   1.0    0.12    0.99    1.43   239.09140   111.95120   257.26160
   172  H   1.0    0.12    0.99    1.43   239.69565   114.67361   255.45855
   173  H   1.0    0.13    0.99    1.43   241.84857   113.70291   257.79078
   174  N   5.0   -0.47    3.01    1.93   242.92952   122.85477   261.66162
   175  C   4.0    0.08    4.00    3.62   244.03271   125.34436   261.37723
   176  C   4.0    0.31    3.01    3.02   246.85367   124.97001   260.84902
   177  O   6.0   -0.38    1.00    1.80   247.97991   126.20673   259.24682
   178  C   4.0    0.04    3.98    3.58   243.60745   127.10955   263.67473
   179  O   6.0   -0.44    1.99    1.82   245.17065   126.51889   265.72283
   180  C   4.0   -0.20    3.98    3.59   240.81345   127.19306   264.40416
   181  H   1.0    0.31    1.00    1.43   242.35995   122.24334   263.38661
   182  H   1.0    0.12    0.99    1.43   243.21064   126.23674   259.69791
   183  H   1.0    0.14    0.99    1.43   244.20546   128.99912   263.07027
   184  H   1.0    0.31    0.99    1.43   244.78333   124.81286   266.31966
   185  H   1.0    0.12    0.99    1.43   240.58454   128.44708   266.01353
   186  H   1.0    0.11    0.99    1.43   239.69625   127.90737   262.83895
   187  H   1.0    0.14    0.99    1.43   240.12046   125.32396   264.89526
   188  N   5.0   -0.46    3.01    1.93   247.95363   123.17604   262.24061
   189  C   4.0    0.08    3.99    3.61   250.51675   122.34963   261.73923
   190  C   4.0    0.30    3.02    3.02   250.66738   121.32891   259.02521
   191  O   6.0   -0.34    1.00    1.80   252.24316   122.11863   257.52409
   192  C   4.0   -0.13    3.98    3.59   251.33539   120.33770   263.64480
   193  C   4.0   -0.10    3.98    3.59   251.41351   121.34829   266.36586
   194  C   4.0    0.29    3.00    3.02   251.46637   119.11810   268.17606
   195  O   6.0   -0.38    1.00    1.80   249.55502   118.27215   269.15680
   196  N   5.0   -0.63    3.00    1.93   253.75356   118.11855   268.59367
   197  H   1.0    0.29    1.00    1.43   246.95761   122.25458   263.59625
   198  H   1.0    0.16    0.99    1.43   251.78486   123.98703   261.81236
   199  H   1.0    0.16    0.99    1.43   250.01696   118.75649   263.52996
   200  H   1.0    0.13    0.99    1.43   253.19418   119.64973   263.08051
   201  H   1.0    0.13    0.99    1.43   253.06979   122.53495   266.64274
   202  H   1.0    0.15    0.99    1.43   249.71303   122.44174   266.75886
   203  H   1.0    0.28    1.00    1.43   255.30302   118.74397   267.69104
   204  H   1.0    0.31    1.00    1.43   253.90301   116.56631   269.68736
   205  N   5.0   -0.47    3.00    1.93   248.91778   119.61512   258.39429
   206  C   4.0    0.08    4.00    3.62   249.04151   118.46017   255.91303
   207  C   4.0    0.30    3.01    3.02   248.59411   120.42912   253.84942
   208  O   6.0   -0.35    1.00    1.80   249.60254   120.17461   251.77783
   209  C   4.0   -0.20    3.98    3.59   247.19821   116.26426   255.64371
   210  H   1.0    0.30    1.00    1.43   247.92562   118.65236   259.74997
   211  H   1.0    0.16    0.99    1.43   250.97451   117.76580   255.60004
   212  H   1.0    0.12    0.99    1.43   247.74796   115.12293   254.02701
   213  H   1.0    0.14    0.99    1.43   247.27721   115.09935   257.33339
   214  H   1.0    0.12    0.99    1.43   245.28668   116.94911   255.33170
   215  N   5.0   -0.47    3.01    1.93   247.11617   122.37859   254.45590
   216  C   4.0    0.10    3.99    3.60   246.74839   124.50054   252.77018
   217  C   4.0    0.15    3.00    3.02   249.29149   125.80047   252.34031
   218  O   6.0   -0.30    1.00    1.80   250.08325   126.20803   250.20223
   219  C   4.0   -0.01    3.98    3.59   244.83783   126.35916   253.89528
   220  O   6.0   -0.43    1.99    1.82   244.60444   128.44015   252.24848
   221  H   1.0    0.31    1.00    1.43   245.88644   122.25045   255.93525
   222  H   1.0    0.16    0.99    1.43   246.08627   123.87931   250.90443
   223  H   1.0    0.13    0.99    1.43   243.03565   125.36447   254.11887
   224  H   1.0    0.15    0.99    1.43   245.52870   126.97725   255.75099
   225  H   1.0    0.27    0.99    1.43   243.15482   129.42235   252.76512
   226  N   5.0   -0.69    3.00    1.93   247.31978   109.15863   249.26881
   227  C   4.0    0.08    3.98    3.59   245.39654   111.09059   249.19608
   228  C   4.0    0.28    3.01    3.02   243.03381   110.44930   250.73080
   229  O   6.0   -0.46    1.00    1.80   241.69725   112.14343   251.55348
   230  C   4.0   -0.09    3.98    3.58   244.59571   111.81299   246.47848
   231  C   4.0   -0.21    3.98    3.59   246.86796   112.84291   245.03780
   232  C   4.0   -0.20    3.98    3.59   243.38304   109.61720   245.05446
   233  H   1.0    0.27    1.00    1.43   246.88418   107.44366   248.54303
   234  H   1.0    0.13    0.99    1.43   246.22856   112.77338   250.07497
   235  H   1.0    0.12    0.99    1.43   243.18422   113.31211   246.68892
   236  H   1.0    0.13    0.99    1.43   246.29218   113.43384   243.16000
   237  H   1.0    0.13    0.99    1.43   247.67847   114.44734   246.03350
   238  H   1.0    0.12    0.99    1.43   248.31244   111.39121   244.85311
   239  H   1.0    0.12    0.99    1.43   242.76108   110.25520   243.20438
   240  H   1.0    0.12    0.99    1.43   244.71783   108.07903   244.77537
   241  H   1.0    0.13    0.99    1.43   241.75369   108.88583   246.07087
   242  N   5.0   -0.47    3.00    1.93   242.45389   107.99270   250.97567
   243  C   4.0    0.02    4.00    3.62   240.36673   107.18634   252.52691
   244  C   4.0    0.26    3.01    3.02   241.25109   106.30965   255.12221
   245  O   6.0   -0.35    1.00    1.80   243.39065   106.72250   255.91461
   246  H   1.0    0.26    1.00    1.43   243.62055   106.63242   250.31258
   247  H   1.0    0.13    0.99    1.43   239.12564   108.82379   252.77391
   248  H   1.0    0.11    0.99    1.43   239.33416   105.64172   251.63053
   249  N   5.0   -0.51    3.01    1.93   239.45601   105.15812   256.48422
   250  C   4.0    0.07    3.99    3.60   239.95690   104.15740   258.97446
   251  C   4.0    0.09    3.00    3.02   241.22130   101.54846   259.01524
   252  O   6.0   -0.35    1.00    1.80   242.59068   100.95350   260.78463
   253  C   4.0   -0.20    3.99    3.60   237.48604   103.94303   260.44894
   254  H   1.0    0.23    1.00    1.43   237.94056   104.45600   255.55179
   255  H   1.0    0.16    0.99    1.43   241.27065   105.45878   259.90546
   256  H   1.0    0.13    0.99    1.43   237.86388   103.18544   262.31746
   257  H   1.0    0.11    0.99    1.43   236.59112   105.78233   260.60877
   258  H   1.0    0.12    0.99    1.43   236.22172   102.65149   259.47173
   259  N   5.0   -0.69    3.00    1.93   229.54980   119.20145   247.46451
   260  C   4.0    0.07    3.98    3.59   230.07740   119.14993   250.14951
   261  C   4.0    0.09    3.00    3.02   228.88363   121.40914   251.47411
   262  O   6.0   -0.49    1.00    1.80   227.90601   121.16418   253.57237
   263  C   4.0   -0.14    3.99    3.60   232.92313   119.11140   250.64422
   264  C   4.0   -0.10    3.98    3.58   234.23837   116.64922   249.85248
   265  C   4.0   -0.22    3.98    3.59   237.08635   116.97962   250.20211
   266  C   4.0   -0.22    3.98    3.59   233.29600   114.38572   251.37069
   267  H   1.0    0.27    1.00    1.43   231.04981   119.17952   246.26643
   268  H   1.0    0.12    0.99    1.43   229.17854   117.47362   250.97197
   269  H   1.0    0.12    0.99    1.43   233.77373   120.69499   249.63140
   270  H   1.0    0.10    0.99    1.43   233.22714   119.40879   252.66295
   271  H   1.0    0.12    0.99    1.43   233.86268   116.30178   247.84929
   272  H   1.0    0.13    0.99    1.43   238.08371   115.22365   249.82620
   273  H   1.0    0.11    0.99    1.43   237.81174   118.42933   248.93906
   274  H   1.0    0.10    0.99    1.43   237.51604   117.53943   252.13252
   275  H   1.0    0.11    0.99    1.43   234.35784   112.70368   250.85859
   276  H   1.0    0.10    0.99    1.43   233.55035   114.70962   253.38222
   277  H   1.0    0.11    0.99    1.43   231.30608   114.01606   251.02250
   278  N   5.0   -0.70    3.00    1.93   224.25342   121.31797   257.23324
   279  C   4.0    0.07    3.98    3.59   224.76646   122.72830   259.53387
   280  C   4.0    0.08    3.00    3.02   222.39514   124.14401   260.34187
   281  O   6.0   -0.48    1.00    1.80   221.51268   123.93489   262.47708
   282  C   4.0   -0.08    3.98    3.58   226.98976   124.56432   259.16687
   283  C   4.0   -0.22    3.98    3.59   227.05718   126.51815   261.29312
   284  C   4.0   -0.22    3.98    3.59   229.47415   123.10133   259.07348
   285  H   1.0    0.33    1.00    1.43   225.45528   121.59291   255.75993
   286  H   1.0    0.10    0.99    1.43   225.21203   121.40117   261.06901
   287  H   1.0    0.14    0.99    1.43   226.69117   125.55313   257.37616
   288  H   1.0    0.11    0.99    1.43   228.76870   127.64324   261.15504
   289  H   1.0    0.12    0.99    1.43   225.44982   127.79404   261.18316
   290  H   1.0    0.10    0.99    1.43   227.02771   125.59439   263.12894
   291  H   1.0    0.11    0.99    1.43   231.03908   124.39712   258.77515
   292  H   1.0    0.09    0.99    1.43   229.77396   122.11784   260.85162
   293  H   1.0    0.13    0.99    1.43   229.46032   121.73301   257.54547
   294  N   5.0   -0.68    3.00    1.93   217.51623   119.85084   262.85828
   295  C   4.0    0.08    3.98    3.59   218.34247   118.62443   265.16301
   296  C   4.0    0.29    3.02    3.02   218.03390   120.39865   267.41302
   297  O   6.0   -0.46    1.00    1.80   217.11555   119.66828   269.40961
   298  C   4.0   -0.14    3.99    3.60   221.11173   117.81773   264.94375
   299  C   4.0   -0.10    3.98    3.58   221.53448   115.54865   263.18404
   300  C   4.0   -0.23    3.98    3.59   224.33978   115.35163   262.52674
   301  C   4.0   -0.22    3.98    3.59   220.63387   113.09143   264.39659
   302  H   1.0    0.28    1.00    1.43   218.80414   119.98017   261.44157
   303  H   1.0    0.12    0.99    1.43   217.13098   116.98484   265.53650
   304  H   1.0    0.12    0.99    1.43   222.17829   119.44080   264.24999
   305  H   1.0    0.10    0.99    1.43   221.80849   117.34167   266.82558
   306  H   1.0    0.12    0.99    1.43   220.47855   115.85797   261.43358
   307  H   1.0    0.11    0.99    1.43   224.68158   113.73501   261.30561
   308  H   1.0    0.09    0.99    1.43   224.97806   117.04168   261.54815
   309  H   1.0    0.10    0.99    1.43   225.47287   115.11702   264.22571
   310  H   1.0    0.11    0.99    1.43   220.93237   111.51236   263.11678
   311  H   1.0    0.10    0.99    1.43   221.68398   112.71962   266.12401
   312  H   1.0    0.11    0.99    1.43   218.63378   113.16934   264.85235
   313  N   5.0   -0.49    3.01    1.93   218.88835   122.74931   267.08081
   314  C   4.0    0.08    3.99    3.61   218.66026   124.54080   269.14042
   315  C   4.0    0.12    3.00    3.02   215.89146   124.65669   269.95596
   316  O   6.0   -0.37    1.00    1.80   215.25254   124.41852   272.16667
   317  C   4.0    0.04    3.98    3.58   219.67028   127.21931   268.51509
   318  O   6.0   -0.43    1.99    1.82   218.08998   128.57600   266.87541
   319  C   4.0   -0.21    3.98    3.59   222.40326   127.10571   267.58073
   320  H   1.0    0.30    1.00    1.43   219.66216   123.28393   265.41297
   321  H   1.0    0.12    0.99    1.43   219.72466   123.82742   270.77182
   322  H   1.0    0.14    0.99    1.43   219.59539   128.29127   270.28847
   323  H   1.0    0.28    0.99    1.43   217.95570   127.73201   265.24728
   324  H   1.0    0.12    0.99    1.43   223.12949   129.01697   267.39338
   325  H   1.0    0.09    0.99    1.43   223.57007   126.07257   268.91103
   326  H   1.0    0.14    0.99    1.43   222.50943   126.18950   265.74761
   327  N   5.0   -0.67    3.00    1.93   213.60126   118.36248   273.33495
   328  C   4.0    0.08    3.98    3.58   214.34943   118.07710   275.95033
   329  C   4.0    0.11    3.00    3.02   213.11816   120.12099   277.58789
   330  O   6.0   -0.35    1.00    1.80   212.31068   119.58465   279.69783
   331  C   4.0   -0.15    3.98    3.59   217.20388   117.86494   276.31165
   332  C   4.0   -0.13    3.98    3.58   218.71807   120.21829   275.62249
   333  C   4.0   -0.04    3.99    3.60   221.51326   119.74036   276.24559
   334  N   5.0   -0.48    3.02    1.93   223.01043   122.03009   276.18020
   335  C   4.0    0.37    3.00    3.02   223.18445   123.71382   278.05375
   336  N   5.0   -0.61    3.01    1.93   222.29413   123.23580   280.32741
   337  N   5.0   -0.64    3.02    1.93   224.41810   125.87880   277.59555
   338  H   1.0    0.33    1.00    1.43   214.90976   118.79872   272.00347
   339  H   1.0    0.14    0.99    1.43   213.49078   116.31043   276.63973
   340  H   1.0    0.12    0.99    1.43   217.53784   117.46822   278.30944
   341  H   1.0    0.11    0.99    1.43   217.86652   116.26430   275.19417
   342  H   1.0    0.15    0.99    1.43   218.47039   120.67896   273.63131
   343  H   1.0    0.15    0.99    1.43   218.04116   121.80637   276.74948
   344  H   1.0    0.12    0.99    1.43   221.61822   118.91097   278.12827
   345  H   1.0    0.12    0.99    1.43   222.34900   118.41841   274.90472
   346  H   1.0    0.23    1.00    1.43   223.66118   122.55611   274.46768
   347  H   1.0    0.26    0.99    1.43   221.12394   121.71137   280.78124
   348  H   1.0    0.28    1.00    1.43   222.34054   124.57043   281.68263
   349  H   1.0    0.26    1.00    1.43   225.27351   126.19554   275.92786
   350  H   1.0    0.28    1.00    1.43   224.71009   127.12952   278.99661
   351  H   1.0    0.30    1.00    1.43   223.16677   104.97670   276.86387
   352  H   1.0    0.18    1.00    1.43   250.34127   126.33473   253.81801
   353  H   1.0    0.31    1.00    1.43   248.68191   109.68033   248.39417
   354  H   1.0    0.15    1.00    1.43   240.92760   100.33388   257.59763
   355  H   1.0    0.31    1.00    1.43   228.61814   117.84250   247.04282
   356  H   1.0    0.15    1.00    1.43   228.89015   123.10505   250.64051
   357  H   1.0    0.30    1.00    1.43   224.30877   119.65082   257.56505
   358  H   1.0    0.15    1.00    1.43   221.51177   125.28257   259.11941
   359  H   1.0    0.31    1.00    1.43   216.19565   119.00119   262.20505
   360  H   1.0    0.17    1.00    1.43   214.53766   124.93440   268.66709
   361  H   1.0    0.31    1.00    1.43   212.91958   116.90747   272.77745
   362  H   1.0    0.18    1.00    1.43   212.97197   121.89006   276.93975

           ------------------------------------------------- 
          |        Self-Consistent Charge Iterations        |
           ------------------------------------------------- 

          ...................................................
          :                      SETUP                      :
          :.................................................:
          :  # basis functions                 866          :
          :  # atomic orbitals                 866          :
          :  # shells                          530          :
          :  # electrons                       956          :
          :  max. iterations                   250          :
          :  Hamiltonian                  GFN2-xTB          :
          :  restarted?                      false          :
          :  GBSA solvation                   true          :
          :  PC potential                    false          :
          :  electronic temp.          500.0000000     K    :
          :  accuracy                    0.1000000          :
          :  -> integral cutoff          0.3500000E+02      :
          :  -> integral neglect         0.1000000E-08      :
          :  -> SCF convergence          0.1000000E-06 Eh   :
          :  -> wf. convergence          0.1000000E-04 e    :
          :  Broyden damping             0.4000000          :
          ...................................................

 iter      E             dE          RMSdq      gap      omega  full diag
   1   -546.9055974 -0.546906E+03  0.413E+00    1.03       0.0  T
   2   -548.2197406 -0.131414E+01  0.217E+00    1.36       1.0  T
   3   -548.2657465 -0.460059E-01  0.112E+00    1.96       1.0  T
   4   -548.2799637 -0.142172E-01  0.249E-01    1.47       1.0  T
   5   -548.2914519 -0.114882E-01  0.107E-01    1.57       1.0  T
   6   -548.2921007 -0.648822E-03  0.490E-02    1.52       1.0  T
   7   -548.2921530 -0.522882E-04  0.234E-02    1.50       1.0  T
   8   -548.2922098 -0.568160E-04  0.951E-03    1.50       1.0  T
   9   -548.2922169 -0.707790E-05  0.424E-03    1.49       1.2  T
  10   -548.2922178 -0.979423E-06  0.194E-03    1.49       2.7  T
  11   -548.2922180 -0.209974E-06  0.684E-04    1.49       7.7  T
  12   -548.2922181 -0.426618E-07  0.302E-04    1.49      17.4  T
  13   -548.2922181 -0.922103E-08  0.151E-04    1.49      34.8  T
  14   -548.2922181 -0.120463E-08  0.583E-05    1.49      90.1  T
  15   -548.2922181 -0.274667E-09  0.203E-05    1.49     258.3  T

   *** convergence criteria satisfied after 15 iterations ***

         #    Occupation            Energy/Eh            Energy/eV
      -------------------------------------------------------------
         1        2.0000           -0.7367349             -20.0476
       ...           ...                  ...                  ...
       472        2.0000           -0.3933597             -10.7039
       473        2.0000           -0.3790151             -10.3135
       474        2.0000           -0.3719096             -10.1202
       475        2.0000           -0.3705863             -10.0842
       476        2.0000           -0.3656745              -9.9505
       477        2.0000           -0.3606513              -9.8138
       478        2.0000           -0.3502082              -9.5297 (HOMO)
       479                         -0.2953670              -8.0373 (LUMO)
       480                         -0.2925450              -7.9606
       481                         -0.2878951              -7.8340
       482                         -0.2843912              -7.7387
       483                         -0.2785734              -7.5804
       ...                                ...                  ...
       866                          0.6650472              18.0969
      -------------------------------------------------------------
                  HL-Gap            0.0548412 Eh            1.4923 eV
             Fermi-level           -0.3229163 Eh           -8.7870 eV

 SCC (total)                   0 d,  0 h,  0 min,  4.365 sec
 SCC setup                      ...        0 min,  0.062 sec (  1.422%)
 Dispersion                     ...        0 min,  0.075 sec (  1.720%)
 integral evaluation            ...        0 min,  0.159 sec (  3.640%)
 zeroth order Hamiltonian       ...        0 min,  0.003 sec (  0.070%)
 iterations                     ...        0 min,  3.270 sec ( 74.904%)
 molecular gradient             ...        0 min,  0.774 sec ( 17.725%)
 printout                       ...        0 min,  0.023 sec (  0.517%)

         :::::::::::::::::::::::::::::::::::::::::::::::::::::
         ::                     SUMMARY                     ::
         :::::::::::::::::::::::::::::::::::::::::::::::::::::
         :: total energy             -541.613044309658 Eh   ::
         :: total w/o Gsasa/hb       -541.527640561869 Eh   ::
         :: gradient norm               0.549785819683 Eh/α ::
         :: HOMO-LUMO gap               1.492305247056 eV   ::
         ::.................................................::
         :: SCC energy               -548.315196603763 Eh   ::
         :: -> isotropic ES             1.821004158879 Eh   ::
         :: -> anisotropic ES          -0.070831309646 Eh   ::
         :: -> anisotropic XC           0.190966035708 Eh   ::
         :: -> dispersion              -0.444668448905 Eh   ::
         :: -> Gsolv                   -0.689123575372 Eh   ::
         ::    -> Gborn                -0.603719827583 Eh   ::
         ::    -> Gsasa                -0.024835947617 Eh   ::
         ::    -> Ghb                  -0.062425243299 Eh   ::
         ::    -> Gshift                0.001857443127 Eh   ::
         :: repulsion energy            6.667522182880 Eh   ::
         :: add. restraining            0.000000000000 Eh   ::
         :::::::::::::::::::::::::::::::::::::::::::::::::::::

           -------------------------------------------------
          |                Property Printout                |
           -------------------------------------------------

    * Orbital Energies and Occupations

         #    Occupation            Energy/Eh            Energy/eV
      -------------------------------------------------------------
         1        2.0000           -0.7367349             -20.0476
       ...           ...                  ...                  ...
       466        2.0000           -0.3993247             -10.8662
       467        2.0000           -0.3983156             -10.8387
       468        2.0000           -0.3980203             -10.8307
       469        2.0000           -0.3970996             -10.8056
       470        2.0000           -0.3964248             -10.7873
       471        2.0000           -0.3949657             -10.7476
       472        2.0000           -0.3933597             -10.7039
       473        2.0000           -0.3790151             -10.3135
       474        2.0000           -0.3719096             -10.1202
       475        2.0000           -0.3705863             -10.0842
       476        2.0000           -0.3656745              -9.9505
       477        2.0000           -0.3606513              -9.8138
       478        2.0000           -0.3502082              -9.5297 (HOMO)
       479                         -0.2953670              -8.0373 (LUMO)
       480                         -0.2925450              -7.9606
       481                         -0.2878951              -7.8340
       482                         -0.2843912              -7.7387
       483                         -0.2785734              -7.5804
       484                         -0.2769200              -7.5354
       485                         -0.2481495              -6.7525
       486                         -0.2408689              -6.5544
       487                         -0.2380996              -6.4790
       488                         -0.2364797              -6.4349
       489                         -0.2350848              -6.3970
       ...                                ...                  ...
       866                          0.6650472              18.0969
      -------------------------------------------------------------
                  HL-Gap            0.0548412 Eh            1.4923 eV
             Fermi-level           -0.3229163 Eh           -8.7870 eV

   #   Z        covCN         q      C6AA      α(0)
   1   7 N      2.635    -0.392    30.159     8.156
   2   6 C      3.785     0.031    20.075     6.382
   3   6 C      2.759     0.262    22.588     7.783
   4   8 O      0.858    -0.481    23.360     6.480
   5   6 C      3.757    -0.123    22.903     6.823
   6   1 H      0.860     0.165     1.305     1.789
   7   1 H      0.923     0.030     2.591     2.517
   8   1 H      0.925     0.052     2.294     2.368
   9   1 H      0.925     0.050     2.324     2.384
  10   1 H      0.925     0.059     2.206     2.323
  11   7 N      2.692    -0.162    24.510     7.353
  12   6 C      3.800     0.018    20.277     6.411
  13   6 C      2.759     0.264    22.539     7.775
  14   8 O      0.858    -0.465    23.020     6.433
  15   6 C      3.813    -0.123    22.848     6.804
  16   6 C      2.743     0.290    22.086     7.695
  17   8 O      0.859    -0.487    23.506     6.500
  18   7 N      2.640    -0.292    27.539     7.794
  19   1 H      0.860     0.218     1.018     1.581
  20   1 H      0.923     0.100     1.787     2.090
  21   1 H      0.924     0.097     1.815     2.107
  22   1 H      0.924     0.109     1.706     2.043
  23   1 H      0.860     0.224     0.991     1.560
  24   1 H      0.860     0.236     0.940     1.519
  25   7 N      2.691    -0.167    24.621     7.370
  26   6 C      3.799     0.003    20.529     6.451
  27   6 C      2.759     0.269    22.464     7.762
  28   8 O      0.859    -0.480    23.345     6.478
  29   6 C      3.807    -0.085    22.111     6.694
  30   6 C      3.805    -0.094    22.296     6.722
  31   6 C      3.737    -0.029    21.180     6.567
  32   7 N      2.701    -0.138    23.980     7.273
  33   6 C      2.734     0.234    23.099     7.869
  34   7 N      2.651    -0.248    26.450     7.638
  35   7 N      2.655    -0.260    26.745     7.681
  36   1 H      0.860     0.221     1.007     1.572
  37   1 H      0.923     0.105     1.737     2.061
  38   1 H      0.924     0.068     2.104     2.268
  39   1 H      0.924     0.075     2.030     2.228
  40   1 H      0.924     0.082     1.961     2.190
  41   1 H      0.925     0.084     1.936     2.176
  42   1 H      0.925     0.087     1.906     2.159
  43   1 H      0.924     0.086     1.918     2.166
  44   1 H      0.860     0.238     0.933     1.513
  45   1 H      0.860     0.246     0.900     1.486
  46   1 H      0.860     0.246     0.900     1.486
  47   1 H      0.860     0.250     0.885     1.474
  48   1 H      0.860     0.246     0.899     1.485
  49   7 N      2.689    -0.158    24.415     7.339
  50   6 C      3.799     0.012    20.370     6.426
  51   6 C      2.764     0.268    22.469     7.763
  52   8 O      0.859    -0.497    23.725     6.530
  53   6 C      3.813    -0.084    22.086     6.689
  54   6 C      2.967     0.010    27.780     8.645
  55   6 C      2.928    -0.044    29.100     8.847
  56   6 C      2.922    -0.047    29.164     8.856
  57   6 C      2.919    -0.034    28.851     8.808
  58   6 C      2.921    -0.033    28.822     8.804
  59   6 C      2.919    -0.036    28.906     8.817
  60   1 H      0.860     0.207     1.071     1.621
  61   1 H      0.924     0.098     1.802     2.099
  62   1 H      0.924     0.089     1.887     2.148
  63   1 H      0.924     0.063     2.161     2.299
  64   1 H      0.925     0.035     2.518     2.482
  65   1 H      0.926     0.060     2.200     2.320
  66   1 H      0.926     0.026     2.646     2.544
  67   1 H      0.926     0.034     2.525     2.485
  68   1 H      0.926     0.023     2.685     2.563
  69   7 N      2.690    -0.171    24.708     7.382
  70   6 C      3.803     0.010    20.408     6.431
  71   6 C      2.759     0.263    22.559     7.778
  72   8 O      0.859    -0.485    23.456     6.493
  73   6 C      3.726     0.099    19.040     6.230
  74   8 O      1.656    -0.470    22.247     6.367
  75   6 C      3.753    -0.154    23.537     6.918
  76   1 H      0.860     0.241     0.919     1.502
  77   1 H      0.923     0.084     1.941     2.179
  78   1 H      0.923     0.055     2.264     2.353
  79   1 H      0.805     0.332     0.633     1.250
  80   1 H      0.925     0.082     1.960     2.190
  81   1 H      0.925     0.062     2.180     2.309
  82   1 H      0.925     0.068     2.106     2.270
  83   7 N      2.690    -0.182    24.936     7.416
  84   6 C      3.798     0.014    20.339     6.422
  85   6 C      2.761     0.273    22.380     7.747
  86   8 O      0.859    -0.499    23.765     6.536
  87   6 C      3.756    -0.147    23.398     6.897
  88   1 H      0.860     0.241     0.921     1.503
  89   1 H      0.924     0.094     1.841     2.122
  90   1 H      0.925     0.073     2.054     2.241
  91   1 H      0.925     0.095     1.829     2.115
  92   1 H      0.925     0.072     2.062     2.246
  93   7 N      2.690    -0.193    25.194     7.455
  94   6 C      3.800     0.027    20.114     6.386
  95   6 C      2.763     0.272    22.413     7.753
  96   8 O      0.859    -0.501    23.813     6.543
  97   6 C      3.809    -0.113    22.659     6.776
  98   6 C      2.742     0.292    22.045     7.688
  99   8 O      0.859    -0.472    23.170     6.454
 100   7 N      2.638    -0.279    27.203     7.746
 101   1 H      0.860     0.246     0.899     1.485
 102   1 H      0.923     0.063     2.162     2.299
 103   1 H      0.924     0.097     1.812     2.105
 104   1 H      0.924     0.072     2.060     2.244
 105   1 H      0.860     0.234     0.947     1.524
 106   1 H      0.860     0.214     1.035     1.594
 107   7 N      2.689    -0.184    24.990     7.424
 108   6 C      3.804     0.022    20.196     6.398
 109   6 C      2.759     0.276    22.334     7.739
 110   8 O      0.859    -0.516    24.130     6.586
 111   6 C      3.852    -0.033    21.134     6.539
 112   6 C      3.803    -0.066    21.770     6.643
 113   6 C      3.756    -0.120    22.851     6.816
 114   6 C      3.751    -0.116    22.780     6.806
 115   1 H      0.860     0.245     0.904     1.489
 116   1 H      0.923     0.052     2.291     2.367
 117   1 H      0.924     0.079     1.989     2.206
 118   1 H      0.924     0.026     2.642     2.542
 119   1 H      0.924     0.050     2.316     2.380
 120   1 H      0.925     0.072     2.060     2.244
 121   1 H      0.925     0.036     2.497     2.471
 122   1 H      0.925     0.036     2.505     2.475
 123   1 H      0.925     0.045     2.389     2.417
 124   1 H      0.925     0.054     2.277     2.360
 125   1 H      0.925     0.045     2.384     2.415
 126   7 N      2.690    -0.184    24.986     7.424
 127   6 C      3.800     0.017    20.294     6.414
 128   6 C      2.758     0.277    22.315     7.736
 129   8 O      0.858    -0.516    24.150     6.589
 130   6 C      3.807    -0.090    22.210     6.709
 131   6 C      3.803    -0.083    22.084     6.690
 132   6 C      3.804    -0.097    22.345     6.730
 133   6 C      3.732    -0.054    21.640     6.640
 134   7 N      3.483    -0.150    24.231     7.311
 135   1 H      0.860     0.247     0.893     1.481
 136   1 H      0.923     0.072     2.068     2.249
 137   1 H      0.924     0.079     1.990     2.206
 138   1 H      0.924     0.061     2.187     2.313
 139   1 H      0.925     0.064     2.154     2.295
 140   1 H      0.924     0.074     2.046     2.237
 141   1 H      0.924     0.076     2.023     2.224
 142   1 H      0.924     0.077     2.011     2.218
 143   1 H      0.924     0.126     1.564     1.956
 144   1 H      0.924     0.120     1.609     1.984
 145   1 H      0.859     0.309     0.687     1.298
 146   1 H      0.859     0.301     0.710     1.320
 147   1 H      0.859     0.294     0.732     1.340
 148   7 N      2.688    -0.167    24.612     7.368
 149   6 C      3.747    -0.031    21.202     6.568
 150   6 C      2.751     0.276    22.336     7.739
 151   8 O      0.858    -0.519    24.206     6.596
 152   1 H      0.860     0.249     0.886     1.474
 153   1 H      0.924     0.103     1.762     2.076
 154   1 H      0.925     0.094     1.845     2.124
 155   7 N      2.690    -0.178    24.860     7.405
 156   6 C      3.794     0.024    20.177     6.396
 157   6 C      2.766     0.267    22.495     7.767
 158   8 O      0.859    -0.516    24.145     6.588
 159   6 C      3.811    -0.069    21.803     6.646
 160   6 C      3.849    -0.017    20.837     6.493
 161   6 C      3.758    -0.114    22.732     6.798
 162   6 C      3.755    -0.110    22.650     6.786
 163   1 H      0.860     0.250     0.882     1.471
 164   1 H      0.924     0.068     2.110     2.272
 165   1 H      0.924     0.061     2.185     2.312
 166   1 H      0.924     0.048     2.340     2.392
 167   1 H      0.924     0.055     2.254     2.348
 168   1 H      0.925     0.053     2.288     2.366
 169   1 H      0.925     0.043     2.412     2.429
 170   1 H      0.925     0.038     2.474     2.460
 171   1 H      0.925     0.042     2.418     2.431
 172   1 H      0.925     0.043     2.412     2.429
 173   1 H      0.925     0.021     2.720     2.579
 174   7 N      2.690    -0.179    24.881     7.408
 175   6 C      3.803     0.006    20.470     6.441
 176   6 C      2.760     0.277    22.313     7.735
 177   8 O      0.858    -0.510    23.997     6.568
 178   6 C      3.725     0.116    18.788     6.189
 179   8 O      1.655    -0.490    22.675     6.428
 180   6 C      3.752    -0.144    23.336     6.889
 181   1 H      0.860     0.245     0.904     1.490
 182   1 H      0.924     0.067     2.118     2.276
 183   1 H      0.924     0.041     2.430     2.438
 184   1 H      0.803     0.337     0.620     1.237
 185   1 H      0.925     0.077     2.015     2.220
 186   1 H      0.925     0.053     2.279     2.361
 187   1 H      0.925     0.073     2.052     2.240
 188   7 N      2.691    -0.183    24.961     7.420
 189   6 C      3.797     0.023    20.193     6.399
 190   6 C      2.763     0.279    22.272     7.729
 191   8 O      0.859    -0.512    24.057     6.576
 192   6 C      3.808    -0.073    21.886     6.660
 193   6 C      3.806    -0.105    22.496     6.752
 194   6 C      2.746     0.290    22.089     7.696
 195   8 O      0.859    -0.484    23.424     6.489
 196   7 N      2.639    -0.287    27.419     7.777
 197   1 H      0.860     0.231     0.961     1.536
 198   1 H      0.924     0.071     2.080     2.255
 199   1 H      0.924     0.071     2.077     2.254
 200   1 H      0.924     0.057     2.237     2.339
 201   1 H      0.925     0.067     2.119     2.276
 202   1 H      0.925     0.083     1.953     2.185
 203   1 H      0.860     0.222     1.001     1.567
 204   1 H      0.860     0.239     0.928     1.509
 205   7 N      2.688    -0.219    25.771     7.540
 206   6 C      3.802     0.034    19.997     6.367
 207   6 C      2.757     0.285    22.173     7.711
 208   8 O      0.859    -0.514    24.091     6.581
 209   6 C      3.755    -0.119    22.837     6.814
 210   1 H      0.859     0.242     0.916     1.499
 211   1 H      0.923     0.059     2.209     2.324
 212   1 H      0.925     0.062     2.173     2.305
 213   1 H      0.925     0.080     1.977     2.199
 214   1 H      0.925     0.057     2.235     2.338
 215   7 N      2.691    -0.196    25.253     7.463
 216   6 C      3.792     0.037    19.966     6.363
 217   6 C      2.767     0.221    23.348     7.913
 218   8 O      0.856    -0.362    20.938     6.135
 219   6 C      3.678     0.074    19.554     6.335
 220   8 O      1.655    -0.492    22.728     6.436
 221   1 H      0.860     0.233     0.953     1.529
 222   1 H      0.923     0.079     1.987     2.205
 223   1 H      0.924     0.065     2.137     2.286
 224   1 H      0.924     0.053     2.278     2.361
 225   1 H      0.805     0.362     0.560     1.175
 226   7 N      2.633    -0.394    30.195     8.161
 227   6 C      3.787     0.028    20.122     6.389
 228   6 C      2.757     0.272    22.405     7.751
 229   8 O      0.859    -0.487    23.496     6.499
 230   6 C      3.852    -0.019    20.875     6.499
 231   6 C      3.756    -0.110    22.663     6.788
 232   6 C      3.754    -0.115    22.759     6.803
 233   1 H      0.860     0.156     1.359     1.826
 234   1 H      0.924     0.040     2.443     2.444
 235   1 H      0.924     0.029     2.594     2.519
 236   1 H      0.925     0.045     2.381     2.413
 237   1 H      0.925     0.031     2.570     2.507
 238   1 H      0.925     0.040     2.443     2.444
 239   1 H      0.925     0.047     2.352     2.398
 240   1 H      0.925     0.043     2.414     2.429
 241   1 H      0.925     0.040     2.454     2.450
 242   7 N      2.686    -0.157    24.408     7.337
 243   6 C      3.750    -0.039    21.337     6.588
 244   6 C      2.754     0.272    22.406     7.751
 245   8 O      0.858    -0.487    23.489     6.498
 246   1 H      0.860     0.203     1.089     1.634
 247   1 H      0.924     0.110     1.699     2.038
 248   1 H      0.924     0.085     1.926     2.171
 249   7 N      2.691    -0.182    24.947     7.418
 250   6 C      3.792     0.025    20.156     6.394
 251   6 C      2.767     0.200    23.742     7.980
 252   8 O      0.856    -0.363    20.948     6.136
 253   6 C      3.760    -0.135    23.146     6.859
 254   1 H      0.860     0.220     1.009     1.574
 255   1 H      0.924     0.100     1.781     2.087
 256   1 H      0.925     0.082     1.960     2.189
 257   1 H      0.925     0.087     1.913     2.163
 258   1 H      0.925     0.075     2.036     2.231
 259   7 N      2.635    -0.393    30.175     8.158
 260   6 C      3.783     0.041    19.905     6.355
 261   6 C      2.767     0.195    23.841     7.997
 262   8 O      0.856    -0.369    21.066     6.154
 263   6 C      3.811    -0.066    21.757     6.639
 264   6 C      3.849    -0.006    20.658     6.465
 265   6 C      3.758    -0.108    22.619     6.781
 266   6 C      3.755    -0.116    22.782     6.806
 267   1 H      0.860     0.162     1.325     1.803
 268   1 H      0.924     0.059     2.211     2.325
 269   1 H      0.924     0.045     2.386     2.416
 270   1 H      0.924     0.046     2.376     2.410
 271   1 H      0.924     0.030     2.590     2.517
 272   1 H      0.925     0.046     2.376     2.411
 273   1 H      0.925     0.026     2.642     2.542
 274   1 H      0.925     0.036     2.508     2.477
 275   1 H      0.925     0.043     2.411     2.428
 276   1 H      0.925     0.050     2.321     2.382
 277   1 H      0.925     0.041     2.433     2.439
 278   7 N      2.635    -0.411    30.672     8.225
 279   6 C      3.786     0.040    19.919     6.357
 280   6 C      2.767     0.199    23.763     7.983
 281   8 O      0.856    -0.367    21.033     6.149
 282   6 C      3.853    -0.015    20.815     6.489
 283   6 C      3.756    -0.119    22.843     6.815
 284   6 C      3.757    -0.114    22.730     6.798
 285   1 H      0.860     0.191     1.154     1.683
 286   1 H      0.923     0.048     2.347     2.396
 287   1 H      0.924     0.037     2.495     2.470
 288   1 H      0.925     0.051     2.303     2.373
 289   1 H      0.925     0.033     2.540     2.492
 290   1 H      0.925     0.057     2.238     2.339
 291   1 H      0.925     0.038     2.472     2.459
 292   1 H      0.925     0.053     2.285     2.364
 293   1 H      0.925     0.047     2.358     2.401
 294   7 N      2.636    -0.393    30.169     8.158
 295   6 C      3.787     0.034    20.021     6.373
 296   6 C      2.765     0.266    22.516     7.771
 297   8 O      0.859    -0.494    23.652     6.520
 298   6 C      3.811    -0.077    21.956     6.670
 299   6 C      3.849    -0.008    20.691     6.470
 300   6 C      3.757    -0.112    22.702     6.793
 301   6 C      3.756    -0.112    22.692     6.792
 302   1 H      0.860     0.154     1.376     1.837
 303   1 H      0.924     0.031     2.566     2.505
 304   1 H      0.924     0.057     2.237     2.339
 305   1 H      0.924     0.053     2.287     2.365
 306   1 H      0.924     0.021     2.715     2.577
 307   1 H      0.925     0.038     2.477     2.461
 308   1 H      0.925     0.033     2.548     2.496
 309   1 H      0.925     0.048     2.341     2.393
 310   1 H      0.925     0.035     2.510     2.477
 311   1 H      0.925     0.046     2.365     2.405
 312   1 H      0.925     0.031     2.571     2.508
 313   7 N      2.690    -0.172    24.723     7.385
 314   6 C      3.798     0.009    20.437     6.437
 315   6 C      2.767     0.210    23.545     7.947
 316   8 O      0.856    -0.355    20.803     6.115
 317   6 C      3.724     0.111    18.852     6.200
 318   8 O      1.655    -0.483    22.539     6.409
 319   6 C      3.752    -0.149    23.444     6.905
 320   1 H      0.860     0.240     0.924     1.506
 321   1 H      0.924     0.096     1.826     2.113
 322   1 H      0.924     0.069     2.099     2.266
 323   1 H      0.804     0.329     0.641     1.258
 324   1 H      0.925     0.069     2.096     2.264
 325   1 H      0.925     0.076     2.018     2.221
 326   1 H      0.925     0.069     2.095     2.263
 327   7 N      2.634    -0.409    30.620     8.218
 328   6 C      3.782     0.044    19.863     6.349
 329   6 C      2.764     0.202    23.694     7.972
 330   8 O      0.856    -0.394    21.554     6.224
 331   6 C      3.806    -0.071    21.854     6.655
 332   6 C      3.801    -0.084    22.110     6.695
 333   6 C      3.741    -0.035    21.267     6.580
 334   7 N      2.700    -0.133    23.875     7.257
 335   6 C      2.736     0.231    23.150     7.878
 336   7 N      2.647    -0.233    26.114     7.590
 337   7 N      2.653    -0.258    26.691     7.673
 338   1 H      0.860     0.191     1.154     1.683
 339   1 H      0.923     0.044     2.392     2.419
 340   1 H      0.924     0.053     2.286     2.364
 341   1 H      0.924     0.060     2.204     2.322
 342   1 H      0.925     0.071     2.072     2.251
 343   1 H      0.924     0.055     2.263     2.353
 344   1 H      0.925     0.085     1.930     2.173
 345   1 H      0.925     0.101     1.775     2.084
 346   1 H      0.860     0.224     0.993     1.561
 347   1 H      0.858     0.244     0.909     1.494
 348   1 H      0.860     0.250     0.883     1.472
 349   1 H      0.860     0.249     0.886     1.475
 350   1 H      0.860     0.254     0.869     1.461
 351   1 H      0.862     0.175     1.243     1.746
 352   1 H      0.930     0.069     2.096     2.264
 353   1 H      0.862     0.181     1.206     1.720
 354   1 H      0.930     0.076     2.021     2.223
 355   1 H      0.862     0.182     1.200     1.716
 356   1 H      0.930     0.073     2.053     2.240
 357   1 H      0.862     0.173     1.254     1.754
 358   1 H      0.930     0.062     2.171     2.304
 359   1 H      0.862     0.171     1.265     1.762
 360   1 H      0.930     0.060     2.195     2.317
 361   1 H      0.862     0.168     1.285     1.776
 362   1 H      0.930     0.074     2.041     2.234

 Mol. C6AA /au·bohr⁶  :    1135465.176663
 Mol. C8AA /au·bohr⁸  :   24941058.758553
 Mol. α(0) /au        :       1591.802080


Wiberg/Mayer (AO) data.
largest (>0.10) Wiberg bond orders for each atom
          total WBO             WBO to atom ...
     1  N   2.987        C    2 1.011    H  351 0.958    H    6 0.953
     2  C   3.984        N    1 1.011    C    5 0.996    H    7 0.962    C    3 0.935
     3  C   3.947        O    4 1.617    N   11 1.311    C    2 0.935
     4  O   1.972        C    3 1.617    N   11 0.194
     5  C   3.991        C    2 0.996    H    8 0.984    H   10 0.982    H    9 0.981
     6  H   0.973        N    1 0.953
     7  H   0.999        C    2 0.962
     8  H   0.997        C    5 0.984
     9  H   0.997        C    5 0.981
    10  H   0.996        C    5 0.982
    11  N   3.477        C    3 1.311    C   12 0.980    H   19 0.916    O    4 0.194
    12  C   3.963        C   15 0.987    N   11 0.980    H   20 0.944    C   13 0.935
    13  C   3.952        O   14 1.615    N   25 1.312    C   12 0.935
    14  O   1.987        C   13 1.615    N   25 0.195
    15  C   3.987        C   12 0.987    C   16 0.959    H   21 0.953    H   22 0.951
    16  C   3.946        O   17 1.659    N   18 1.300    C   15 0.959
    17  O   1.969        C   16 1.659    N   18 0.203
    18  N   3.392        C   16 1.300    H   23 0.929    H   24 0.926    O   17 0.203
    19  H   0.952        N   11 0.916
    20  H   0.990        C   12 0.944
    21  H   0.991        C   15 0.953
    22  H   0.988        C   15 0.951
    23  H   0.949        N   18 0.929
    24  H   0.944        N   18 0.926
    25  N   3.479        C   13 1.312    C   26 0.981    H   36 0.913    O   14 0.195
    26  C   3.960        N   25 0.981    C   29 0.980    H   37 0.940    C   27 0.936
    27  C   3.945        O   28 1.591    N   49 1.326    C   26 0.936
    28  O   1.991        C   27 1.591    N   49 0.194
    29  C   3.983        C   30 1.004    C   26 0.980    H   38 0.970    H   39 0.969
    30  C   3.986        C   29 1.004    C   31 1.000    H   40 0.970    H   41 0.969
    31  C   3.952        C   30 1.000    N   32 0.985    H   42 0.961    H   43 0.960
    32  N   3.470        C   33 1.319    C   31 0.985    H   44 0.911    N   34 0.102    N   35 0.102
    33  C   3.977        N   32 1.319    N   34 1.319    N   35 1.308
    34  N   3.399        C   33 1.319    H   46 0.920    H   45 0.914    N   32 0.102    N   35 0.100
    35  N   3.387        C   33 1.308    H   48 0.920    H   47 0.918    N   32 0.102    N   34 0.100
    36  H   0.951        N   25 0.913
    37  H   0.989        C   26 0.940
    38  H   0.995        C   29 0.970
    39  H   0.994        C   29 0.969
    40  H   0.993        C   30 0.970
    41  H   0.993        C   30 0.969
    42  H   0.992        C   31 0.961
    43  H   0.993        C   31 0.960
    44  H   0.944        N   32 0.911
    45  H   0.940        N   34 0.914
    46  H   0.940        N   34 0.920
    47  H   0.938        N   35 0.918
    48  H   0.939        N   35 0.920
    49  N   3.494        C   27 1.326    C   50 0.978    H   60 0.918    O   28 0.194
    50  C   3.960        C   53 0.982    N   49 0.978    C   51 0.939    H   61 0.931
    51  C   3.949        O   52 1.584    N   69 1.333    C   50 0.939
    52  O   1.966        C   51 1.584    N   69 0.194
    53  C   3.986        C   54 1.006    C   50 0.982    H   63 0.954    H   62 0.951
    54  C   3.988        C   56 1.421    C   55 1.403    C   53 1.006    C   59 0.109
    55  C   3.990        C   57 1.453    C   54 1.403    H   64 0.968    C   58 0.112
    56  C   3.989        C   58 1.436    C   54 1.421    H   65 0.961    C   57 0.110
    57  C   3.992        C   55 1.453    C   59 1.431    H   66 0.971    C   56 0.110
    58  C   3.992        C   59 1.446    C   56 1.436    H   67 0.971    C   55 0.112
    59  C   3.993        C   58 1.446    C   57 1.431    H   68 0.972    C   54 0.109
    60  H   0.957        N   49 0.918
    61  H   0.990        C   50 0.931
    62  H   0.992        C   53 0.951
    63  H   0.995        C   53 0.954
    64  H   0.999        C   55 0.968
    65  H   0.996        C   56 0.961
    66  H   0.999        C   57 0.971
    67  H   0.999        C   58 0.971
    68  H   0.999        C   59 0.972
    69  N   3.480        C   51 1.333    C   70 0.978    H   76 0.886    O   52 0.194
    70  C   3.960        N   69 0.978    C   73 0.962    H   77 0.944    C   71 0.936
    71  C   3.952        O   72 1.595    N   83 1.334    C   70 0.936
    72  O   1.973        C   71 1.595    N   83 0.199
    73  C   3.952        C   75 0.999    O   74 0.990    C   70 0.962    H   78 0.954
    74  O   1.940        C   73 0.990    H   79 0.872
    75  C   3.985        C   73 0.999    H   82 0.983    H   80 0.980    H   81 0.980
    76  H   0.942        N   69 0.886
    77  H   0.993        C   70 0.944
    78  H   0.997        C   73 0.954
    79  H   0.890        O   74 0.872
    80  H   0.993        C   75 0.980
    81  H   0.996        C   75 0.980
    82  H   0.995        C   75 0.983
    83  N   3.482        C   71 1.334    C   84 0.978    H   88 0.871    O   72 0.199
    84  C   3.963        C   87 0.994    N   83 0.978    H   89 0.944    C   85 0.937
    85  C   3.939        O   86 1.588    N   93 1.325    C   84 0.937
    86  O   1.974        C   85 1.588    N   93 0.192
    87  C   3.978        C   84 0.994    H   90 0.980    H   91 0.975    H   92 0.974
    88  H   0.942        N   83 0.871
    89  H   0.991        C   84 0.944
    90  H   0.994        C   87 0.980
    91  H   0.990        C   87 0.975
    92  H   0.995        C   87 0.974
    93  N   3.469        C   85 1.325    C   94 0.989    H  101 0.849    O   86 0.192
    94  C   3.976        N   93 0.989    C   97 0.979    H  102 0.948    C   95 0.931
    95  C   3.949        O   96 1.586    N  107 1.338    C   94 0.931
    96  O   1.969        C   95 1.586    N  107 0.198
    97  C   3.985        C   94 0.979    C   98 0.962    H  103 0.958    H  104 0.953
    98  C   3.949        O   99 1.650    N  100 1.308    C   97 0.962
    99  O   1.971        C   98 1.650    N  100 0.200
   100  N   3.399        C   98 1.308    H  106 0.933    H  105 0.924    O   99 0.200
   101  H   0.939        N   93 0.849
   102  H   0.995        C   94 0.948
   103  H   0.991        C   97 0.958
   104  H   0.994        C   97 0.953
   105  H   0.945        N  100 0.924
   106  H   0.954        N  100 0.933
   107  N   3.480        C   95 1.338    C  108 0.976    H  115 0.865    O   96 0.198
   108  C   3.960        N  107 0.976    C  111 0.965    H  116 0.947    C  109 0.938
   109  C   3.945        O  110 1.582    N  126 1.332    C  108 0.938
   110  O   1.950        C  109 1.582    N  126 0.193
   111  C   3.982        C  113 1.008    C  112 0.994    C  108 0.965    H  117 0.954
   112  C   3.994        C  114 1.018    C  111 0.994    H  118 0.974    H  119 0.969
   113  C   3.992        C  111 1.008    H  122 0.986    H  121 0.982    H  120 0.979
   114  C   3.993        C  112 1.018    H  123 0.983    H  124 0.983    H  125 0.982
   115  H   0.940        N  107 0.865
   116  H   0.997        C  108 0.947
   117  H   0.993        C  111 0.954
   118  H   0.999        C  112 0.974
   119  H   0.997        C  112 0.969
   120  H   0.994        C  113 0.979
   121  H   0.999        C  113 0.982
   122  H   0.999        C  113 0.986
   123  H   0.997        C  114 0.983
   124  H   0.997        C  114 0.983
   125  H   0.998        C  114 0.982
   126  N   3.474        C  109 1.332    C  127 0.975    H  135 0.872    O  110 0.193
   127  C   3.961        C  130 0.979    N  126 0.975    H  136 0.952    C  128 0.935
   128  C   3.938        O  129 1.557    N  148 1.350    C  127 0.935
   129  O   1.963        C  128 1.557    N  148 0.188
   130  C   3.977        C  131 1.002    C  127 0.979    H  138 0.971    H  137 0.961
   131  C   3.987        C  130 1.002    C  132 1.002    H  139 0.975    H  140 0.965
   132  C   3.986        C  133 1.012    C  131 1.002    H  142 0.971    H  141 0.968
   133  C   3.913        C  132 1.012    H  144 0.962    H  143 0.962    N  134 0.958
   134  N   3.662        C  133 0.958    H  147 0.898    H  146 0.894    H  145 0.891
   135  H   0.939        N  126 0.872
   136  H   0.994        C  127 0.952
   137  H   0.994        C  130 0.961
   138  H   0.996        C  130 0.971
   139  H   0.996        C  131 0.975
   140  H   0.995        C  131 0.965
   141  H   0.994        C  132 0.968
   142  H   0.994        C  132 0.971
   143  H   0.984        C  133 0.962
   144  H   0.985        C  133 0.962
   145  H   0.904        N  134 0.891
   146  H   0.909        N  134 0.894
   147  H   0.914        N  134 0.898
   148  N   3.497        C  128 1.350    C  149 1.002    H  152 0.861    O  129 0.188
   149  C   3.968        N  148 1.002    C  150 0.960    H  154 0.949    H  153 0.938
   150  C   3.946        O  151 1.551    N  155 1.349    C  149 0.960
   151  O   1.955        C  150 1.551    N  155 0.187
   152  H   0.937        N  148 0.861
   153  H   0.989        C  149 0.938
   154  H   0.991        C  149 0.949
   155  N   3.494        C  150 1.349    C  156 0.991    H  163 0.856    O  151 0.187
   156  C   3.968        N  155 0.991    C  159 0.970    C  157 0.942    H  164 0.934
   157  C   3.943        O  158 1.564    N  174 1.332    C  156 0.942
   158  O   1.942        C  157 1.564    N  174 0.184
   159  C   3.983        C  160 0.992    H  166 0.971    C  156 0.970    H  165 0.967
   160  C   3.992        C  162 1.010    C  161 1.007    C  159 0.992    H  167 0.957
   161  C   3.994        C  160 1.007    H  168 0.985    H  169 0.983    H  170 0.982
   162  C   3.994        C  160 1.010    H  171 0.984    H  173 0.984    H  172 0.983
   163  H   0.937        N  155 0.856
   164  H   0.995        C  156 0.934
   165  H   0.996        C  159 0.967
   166  H   0.997        C  159 0.971
   167  H   0.997        C  160 0.957
   168  H   0.997        C  161 0.985
   169  H   0.998        C  161 0.983
   170  H   0.998        C  161 0.982
   171  H   0.998        C  162 0.984
   172  H   0.998        C  162 0.983
   173  H   1.000        C  162 0.984
   174  N   3.480        C  157 1.332    C  175 0.982    H  181 0.870    O  158 0.184
   175  C   3.963        N  174 0.982    H  182 0.952    C  178 0.945    C  176 0.933
   176  C   3.945        O  177 1.625    N  188 1.307    C  175 0.933
   177  O   1.949        C  176 1.625    N  188 0.196
   178  C   3.956        O  179 1.012    C  180 0.994    H  183 0.962    C  175 0.945
   179  O   1.940        C  178 1.012    H  184 0.822
   180  C   3.987        C  178 0.994    H  186 0.985    H  185 0.981    H  187 0.971
   181  H   0.940        N  174 0.870
   182  H   0.995        C  175 0.952
   183  H   0.997        C  178 0.962
   184  H   0.887        O  179 0.822
   185  H   0.993        C  180 0.981
   186  H   0.997        C  180 0.985
   187  H   0.995        C  180 0.971
   188  N   3.466        C  176 1.307    C  189 0.979    H  197 0.892    O  177 0.196
   189  C   3.966        C  192 0.983    N  188 0.979    H  198 0.955    C  190 0.929
   190  C   3.941        O  191 1.634    N  205 1.303    C  189 0.929
   191  O   1.944        C  190 1.634    N  205 0.195
   192  C   3.986        C  193 0.986    C  189 0.983    H  200 0.974    H  199 0.961
   193  C   3.990        C  192 0.986    H  201 0.970    C  194 0.966    H  202 0.965
   194  C   3.948        O  195 1.640    N  196 1.311    C  193 0.966
   195  O   1.953        C  194 1.640    N  196 0.199
   196  N   3.397        C  194 1.311    H  203 0.932    H  204 0.922    O  195 0.199
   197  H   0.947        N  188 0.892
   198  H   0.995        C  189 0.955
   199  H   0.995        C  192 0.961
   200  H   0.996        C  192 0.974
   201  H   0.995        C  193 0.970
   202  H   0.993        C  193 0.965
   203  H   0.951        N  196 0.932
   204  H   0.943        N  196 0.922
   205  N   3.436        C  190 1.303    C  206 0.983    H  210 0.844    O  191 0.195
   206  C   3.971        C  209 0.993    N  205 0.983    H  211 0.950    C  207 0.938
   207  C   3.944        O  208 1.625    N  215 1.304    C  206 0.938
   208  O   1.931        C  207 1.625    N  215 0.192
   209  C   3.985        C  206 0.993    H  212 0.981    H  214 0.979    H  213 0.976
   210  H   0.941        N  205 0.844
   211  H   0.996        C  206 0.950
   212  H   0.995        C  209 0.981
   213  H   0.993        C  209 0.976
   214  H   0.997        C  209 0.979
   215  N   3.451        C  207 1.304    C  216 0.980    H  221 0.854    O  208 0.192
   216  C   3.969        N  215 0.980    C  217 0.971    C  219 0.967    H  222 0.951
   217  C   3.896        O  218 1.908    C  216 0.971    H  352 0.955
   218  O   2.040        C  217 1.908
   219  C   3.953        O  220 1.004    C  216 0.967    H  223 0.963    H  224 0.960
   220  O   1.914        C  219 1.004    H  225 0.856
   221  H   0.946        N  215 0.854
   222  H   0.994        C  216 0.951
   223  H   0.996        C  219 0.963
   224  H   0.997        C  219 0.960
   225  H   0.868        O  220 0.856
   226  N   2.998        C  227 1.024    H  233 0.950    H  353 0.948
   227  C   3.983        N  226 1.024    H  234 0.954    C  228 0.951    C  230 0.946
   228  C   3.948        O  229 1.643    N  242 1.283    C  227 0.951
   229  O   1.954        C  228 1.643    N  242 0.191
   230  C   3.994        C  232 1.010    C  231 1.009    H  235 0.968    C  227 0.946
   231  C   3.995        C  230 1.009    H  237 0.987    H  236 0.984    H  238 0.981
   232  C   3.995        C  230 1.010    H  241 0.985    H  239 0.985    H  240 0.984
   233  H   0.976        N  226 0.950
   234  H   0.998        C  227 0.954
   235  H   0.999        C  230 0.968
   236  H   0.997        C  231 0.984
   237  H   0.999        C  231 0.987
   238  H   0.998        C  231 0.981
   239  H   0.998        C  232 0.985
   240  H   0.998        C  232 0.984
   241  H   0.998        C  232 0.985
   242  N   3.463        C  228 1.283    C  243 1.003    H  246 0.924    O  229 0.191
   243  C   3.965        N  242 1.003    H  248 0.955    C  244 0.951    H  247 0.940
   244  C   3.951        O  245 1.658    N  249 1.273    C  243 0.951
   245  O   1.967        C  244 1.658    N  249 0.191
   246  H   0.959        N  242 0.924
   247  H   0.988        C  243 0.940
   248  H   0.993        C  243 0.955
   249  N   3.440        C  244 1.273    C  250 0.984    H  254 0.918    O  245 0.191
   250  C   3.961        N  249 0.984    C  253 0.972    C  251 0.970    H  255 0.943
   251  C   3.898        O  252 1.905    C  250 0.970    H  354 0.953
   252  O   2.045        C  251 1.905
   253  C   3.977        H  258 0.981    H  256 0.979    H  257 0.976    C  250 0.972
   254  H   0.952        N  249 0.918
   255  H   0.990        C  250 0.943
   256  H   0.993        C  253 0.979
   257  H   0.992        C  253 0.976
   258  H   0.994        C  253 0.981
   259  N   2.997        C  260 1.013    H  355 0.956    H  267 0.953
   260  C   3.985        N  259 1.013    C  261 0.985    C  263 0.959    H  268 0.950
   261  C   3.892        O  262 1.854    C  260 0.985    H  356 0.955
   262  O   2.048        C  261 1.854
   263  C   3.991        C  264 0.989    H  269 0.973    H  270 0.973    C  260 0.959
   264  C   3.995        C  266 1.011    C  265 1.005    C  263 0.989    H  271 0.966
   265  C   3.992        C  264 1.005    H  273 0.987    H  274 0.985    H  272 0.983
   266  C   3.995        C  264 1.011    H  275 0.985    H  277 0.982    H  276 0.981
   267  H   0.974        N  259 0.953
   268  H   0.997        C  260 0.950
   269  H   0.998        C  263 0.973
   270  H   0.998        C  263 0.973
   271  H   0.999        C  264 0.966
   272  H   0.996        C  265 0.983
   273  H   0.999        C  265 0.987
   274  H   0.999        C  265 0.985
   275  H   0.998        C  266 0.985
   276  H   0.998        C  266 0.981
   277  H   0.998        C  266 0.982
   278  N   2.995        C  279 1.009    H  357 0.957    H  285 0.908
   279  C   3.984        N  278 1.009    C  280 0.981    H  286 0.955    C  282 0.949
   280  C   3.891        O  281 1.852    C  279 0.981    H  358 0.956
   281  O   2.047        C  280 1.852
   282  C   3.992        C  284 1.008    C  283 1.007    H  287 0.966    C  279 0.949
   283  C   3.994        C  282 1.007    H  288 0.984    H  290 0.983    H  289 0.982
   284  C   3.994        C  282 1.008    H  291 0.983    H  292 0.980    H  293 0.977
   285  H   0.963        N  278 0.908
   286  H   0.998        C  279 0.955
   287  H   0.998        C  282 0.966
   288  H   0.997        C  283 0.984
   289  H   0.999        C  283 0.982
   290  H   0.997        C  283 0.983
   291  H   0.997        C  284 0.983
   292  H   0.997        C  284 0.980
   293  H   0.998        C  284 0.977
   294  N   2.996        C  295 1.010    H  359 0.960    H  302 0.954
   295  C   3.983        N  294 1.010    C  298 0.977    H  303 0.960    C  296 0.940
   296  C   3.946        O  297 1.603    N  313 1.315    C  295 0.940
   297  O   1.961        C  296 1.603    N  313 0.195
   298  C   3.992        C  299 0.993    C  295 0.977    H  305 0.973    H  304 0.967
   299  C   3.996        C  301 1.010    C  300 1.007    C  298 0.993    H  306 0.967
   300  C   3.994        C  299 1.007    H  307 0.986    H  309 0.985    H  308 0.982
   301  C   3.995        C  299 1.010    H  310 0.986    H  311 0.985    H  312 0.983
   302  H   0.976        N  294 0.954
   303  H   0.998        C  295 0.960
   304  H   0.997        C  298 0.967
   305  H   0.997        C  298 0.973
   306  H   0.999        C  299 0.967
   307  H   0.998        C  300 0.986
   308  H   0.999        C  300 0.982
   309  H   0.998        C  300 0.985
   310  H   0.999        C  301 0.986
   311  H   0.998        C  301 0.985
   312  H   0.999        C  301 0.983
   313  N   3.474        C  296 1.315    C  314 0.982    H  320 0.882    O  297 0.195
   314  C   3.966        N  313 0.982    C  315 0.972    H  321 0.944    C  317 0.939
   315  C   3.906        O  316 1.900    C  314 0.972    H  360 0.956
   316  O   2.045        C  315 1.900
   317  C   3.946        O  318 1.000    C  319 0.994    H  322 0.958    C  314 0.939
   318  O   1.952        C  317 1.000    H  323 0.874
   319  C   3.986        C  317 0.994    H  325 0.981    H  324 0.981    H  326 0.968
   320  H   0.942        N  313 0.882
   321  H   0.991        C  314 0.944
   322  H   0.994        C  317 0.958
   323  H   0.892        O  318 0.874
   324  H   0.994        C  319 0.981
   325  H   0.994        C  319 0.981
   326  H   0.995        C  319 0.968
   327  N   2.997        C  328 1.017    H  361 0.959    H  338 0.920
   328  C   3.983        N  327 1.017    C  329 0.974    C  331 0.961    H  339 0.955
   329  C   3.883        O  330 1.884    C  328 0.974    H  362 0.954
   330  O   2.020        C  329 1.884
   331  C   3.991        C  332 1.006    H  340 0.973    H  341 0.971    C  328 0.961
   332  C   3.990        C  331 1.006    C  333 0.991    H  343 0.974    H  342 0.966
   333  C   3.955        C  332 0.991    N  334 0.991    H  345 0.965    H  344 0.959
   334  N   3.466        C  335 1.301    C  333 0.991    H  346 0.920    N  336 0.101
   335  C   3.977        N  336 1.338    N  337 1.306    N  334 1.301
   336  N   3.413        C  335 1.338    H  348 0.916    H  347 0.911    N  337 0.103    N  334 0.101
   337  N   3.384        C  335 1.306    H  349 0.919    H  350 0.917    N  336 0.103
   338  H   0.964        N  327 0.920
   339  H   0.997        C  328 0.955
   340  H   0.997        C  331 0.973
   341  H   0.996        C  331 0.971
   342  H   0.995        C  332 0.966
   343  H   0.997        C  332 0.974
   344  H   0.993        C  333 0.959
   345  H   0.990        C  333 0.965
   346  H   0.950        N  334 0.920
   347  H   0.941        N  336 0.911
   348  H   0.937        N  336 0.916
   349  H   0.938        N  337 0.919
   350  H   0.936        N  337 0.917
   351  H   0.969        N    1 0.958
   352  H   0.995        C  217 0.955
   353  H   0.967        N  226 0.948
   354  H   0.994        C  251 0.953
   355  H   0.967        N  259 0.956
   356  H   0.995        C  261 0.955
   357  H   0.970        N  278 0.957
   358  H   0.996        C  280 0.956
   359  H   0.971        N  294 0.960
   360  H   0.996        C  315 0.956
   361  H   0.972        N  327 0.959
   362  H   0.995        C  329 0.954
 
molecular dipole:
                 x           y           z       tot (Debye)
 q only:      686.037     328.853     854.977
   full:      685.365     326.183     853.723    2903.625
molecular quadrupole (traceless):
                xx          xy          yy          xz          yz          zz
 q only:    16775.384  112536.852 -163604.487  293969.080  140928.909  146829.103
  q+dip:    17092.357  111501.481 -163736.262  293269.955  139651.401  146643.905
   full:    17092.940  111500.955 -163737.240  293273.005  139652.402  146644.300


           -------------------------------------------------
          | TOTAL ENERGY             -541.613044309658 Eh   |
          | GRADIENT NORM               0.549785819683 Eh/α |
          | HOMO-LUMO GAP               1.492305247056 eV   |
           -------------------------------------------------

------------------------------------------------------------------------
 * finished run on 2019/05/31 at 05:35:16.509     
------------------------------------------------------------------------
 total:
 * wall-time:     0 d,  0 h,  0 min,  4.917 sec
 *  cpu-time:     0 d,  0 h,  0 min,  8.946 sec
 * ratio c/w:     1.819 speedup
 SCF:
 * wall-time:     0 d,  0 h,  0 min,  4.366 sec
 *  cpu-time:     0 d,  0 h,  0 min,  8.285 sec
 * ratio c/w:     1.898 speedup

