      -----------------------------------------------------------      
     |                   =====================                   |     
     |                           x T B                           |     
     |                   =====================                   |     
     |                         S. Grimme                         |     
     |          Mulliken Center for Theoretical Chemistry        |     
     |                    University of Bonn                     |     
     |                Version 6.1 RC1 (SAW190329)                |     
      -----------------------------------------------------------      

   This program is distributed in the hope that it will be useful,
   but WITHOUT ANY WARRANTY; without even the implied warranty of
   MERCHANTABILITY or FITNESS FOR A PARTICULAR PURPOSE.
   
   FOR NON-COMMERCIAL, ACADEMIA USE ONLY.
   
   Cite this work as:
   S. Grimme, C. Bannwarth, P. Shushkov, J. Comput. Theory Chem., 2017,
   13, 1989-2009. DOI: 10.1021/acs.jctc.7b00118
   C. Bannwarth, S. Ehlert and S. Grimme., J. Comput. Theory Chem., 2019,
   just accepted. DOI: 10.1021/acs.jctc.8b01176
   
   for sTDA-xTB:
   S. Grimme and C. Bannwarth, J. Chem. Phys., 2016, 145, 054103.
   DOI: 10.1063/1.4959605
   
   in the mass-spec context:
   V. Asgeirsson, C. Bauer and S. Grimme, Chem. Sci., 2017, 8, 4879.
   DOI: 10.1039/c7sc00601b
   
   for metadynamics refer to:
   S. Grimme, ChemRxiv, Preprint. DOI: 10.26434/chemrxiv.7660532.v1
   
   with help from (in alphabetical order)
   C. Bannwarth, F. Bohle, G. Brandenburg, E. Caldeweyher, M. Checinski,
   S. Dohm, S. Ehlert, S. Ehrlich, F. März, H. Neugebauer, J. Pisarek,
   P. Pracht, P. Shushkov, and S. Spicher.
   
 * started run on 2019/05/31 at 07:35:57.746     

           -------------------------------------------------
          |                Calculation Setup                |
           -------------------------------------------------

          program call               : /home/lum/install/xtb/xtb-190329/bin/xtb xtb_tmp.xyz --chrg 1 --grad --gfn 2 --etemp 500 --acc 0.1 --gbsa h2o --parallel 1
          hostname                   : cu05
          coordinate file            : xtb_tmp.xyz
          omp threads                :                     1
          number of atoms            :                   691
          number of electrons        :                  1820
          charge                     :                     1
          spin                       :                   0.0
          first test random number   :      0.23232664528664


molecular fragmentation (1/2 indicates fragments):
111111111111111111111111111111111111111111111111111111111111111111111111
111111111111111111111111111111111111111111111111111111111111111111111111
111111111111111111111111111111111111111111111111111111111111111111111111
111111111111111111111111111111111111111111111111111111111111111111111111
111111111111122222222222222222222222222222222222222222222222222222222222
222222222222222222222222222222222222222222222222222222222222222222222222
222222222222222222222222222222222222222222222222222222222222222222222222
222222222222222222222222222222222222222222222222222222222222222222222222
222222222222222222222222222222222222222222222222222222222222222222222222
2222222222222222222222211222222222222222222
# atoms in fragment 1/2:   303   388
 fragment masses (1/2) :     2002.51     2605.24
CMA distance (Bohr)    :  16.136
constraining FC (au)   :  0.0500

########################################################################
# WARNING! Please study the warnings concerning your input carefully
#  - XTBPATH is not set, using XTBHOME instead
########################################################################

           ------------------------------------------------- 
          |                 G F N 2 - x T B                 |
          | Geometry, Frequencies, Noncovalent interactions |
          |            JCTC 2018 parametrisation            |
           ------------------------------------------------- 
 
             k(s)              :                1.8500
             k(p)              :                2.2300
             k(d)              :                2.2300
             k(f)              :                2.0000
             kEN (H0ij)        :               -2.0000
             D4 a1             :                0.5200
             D4 a2             :                5.0000
             D4 s6             :                1.0000
             D4 s8             :                2.7000
             D4 s9             :                5.0000
             alphaj            :                2.0000

  Z AO/shell   Hii/eV     exponent
  1     Wed Apr 25 08:07:45 CEST 2018   EN: 2.200 GM2: 0.406  GM3: 0.0800  RAES: 1.40
     1s    -10.707211    1.230000
  6     Wed Apr 25 08:07:45 CEST 2018   EN: 2.550 GM2: 0.538  GM3: 0.1500  RAES: 3.00
     2s    -13.970922    2.096432
     2p    -10.063292    1.800000
  7     Wed Apr 25 08:07:45 CEST 2018   EN: 3.040 GM2: 0.461  GM3:-0.0640  RAES: 1.90
     2s    -16.686243    2.339881
     2p    -12.523956    2.014332
  8     Wed Apr 25 08:07:45 CEST 2018   EN: 3.440 GM2: 0.452  GM3:-0.0517  RAES: 1.80
     2s    -20.229985    2.439742
     2p    -15.503117    2.137023
 16     Tue Apr 24 11:44:34 CEST 2018   EN: 2.580 GM2: 0.340  GM3:-0.0502  RAES: 3.10
     3s    -20.029654    1.981333
     3p    -11.377694    2.025643
     3d     -0.420282    1.702555

 Solvent             : h2o
 Using internal parameter file: .param_gbsa2_h2o
 Gsolv ref. state (COSMO-RS): gsolv [1 M gas/solution]
 temperature (mdtemp)       :    298.150000000000     
 dielectric constant        :    80.2000000000000     
 rho                        :    1.00000000000000     
 mass                       :    18.0000000000000     
 surface tension            :    15.5689454083859     
 probe radius               :   0.975313790000000     
 vdW radii scaling          :    1.00000000000000     
 Gshift (Eh)                :   1.857443126794793E-003
 c1                         :    1.55243817000000     
 soset                      :   0.130326360000000     
 HB correction              :  T
 Number of grid points      :          230

            Z     q(EN)     CN     RAES       Cart. coordinates
     1  N   5.0   -0.73    3.00    1.93    59.89008    57.89025    38.67735
     2  C   4.0    0.07    3.99    3.60    57.89661    57.05669    40.36894
     3  C   4.0    0.28    3.01    3.02    57.76579    58.80695    42.66373
     4  O   6.0   -0.49    1.00    1.80    55.72784    59.46401    43.59167
     5  C   4.0   -0.09    3.98    3.58    58.30447    54.27448    41.12684
     6  C   4.0   -0.16    3.98    3.59    58.01046    52.59715    38.77712
     7  C   4.0   -0.22    3.98    3.59    56.44203    53.49835    43.19104
     8  C   4.0   -0.24    3.98    3.58    58.50587    49.80364    39.28534
     9  H   1.0    0.25    1.00    1.43    61.24828    56.64029    38.16560
    10  H   1.0    0.11    0.99    1.43    56.06842    57.23861    39.39875
    11  H   1.0    0.11    0.99    1.43    60.23763    54.12057    41.85275
    12  H   1.0    0.11    0.99    1.43    56.09877    52.81975    38.03665
    13  H   1.0    0.10    0.99    1.43    59.32793    53.23388    37.32631
    14  H   1.0    0.10    0.99    1.43    56.82542    51.57915    43.79955
    15  H   1.0    0.12    0.99    1.43    56.60283    54.73613    44.82271
    16  H   1.0    0.12    0.99    1.43    54.51684    53.59085    42.48052
    17  H   1.0    0.10    0.99    1.43    58.52385    48.78231    37.50315
    18  H   1.0    0.09    0.99    1.43    60.32818    49.54908    40.20328
    19  H   1.0    0.10    0.99    1.43    57.03074    48.99120    40.45752
    20  N   5.0   -0.48    3.01    1.93    59.96794    59.53102    43.61744
    21  C   4.0    0.06    4.00    3.61    60.11958    61.17922    45.79678
    22  C   4.0    0.29    3.01    3.02    58.84722    63.71723    45.26336
    23  O   6.0   -0.48    1.00    1.80    57.41807    64.70118    46.81679
    24  C   4.0   -0.15    3.99    3.60    62.88484    61.54308    46.55124
    25  C   4.0   -0.10    3.98    3.58    63.20392    63.25372    48.88372
    26  C   4.0   -0.24    3.98    3.59    65.08466    62.09487    50.73906
    27  C   4.0   -0.23    3.98    3.59    64.03919    65.90938    48.12183
    28  H   1.0    0.23    1.00    1.43    61.60939    58.84428    42.89965
    29  H   1.0    0.12    0.99    1.43    59.06316    60.31021    47.35970
    30  H   1.0    0.10    0.99    1.43    63.66452    59.67164    46.92520
    31  H   1.0    0.10    0.99    1.43    63.89107    62.33704    44.93725
    32  H   1.0    0.12    0.99    1.43    61.37550    63.41682    49.83829
    33  H   1.0    0.09    0.99    1.43    65.26394    63.28177    52.40700
    34  H   1.0    0.10    0.99    1.43    64.44886    60.23313    51.33296
    35  H   1.0    0.10    0.99    1.43    66.92848    61.92538    49.84994
    36  H   1.0    0.09    0.99    1.43    64.18688    67.11700    49.77772
    37  H   1.0    0.09    0.99    1.43    65.87041    65.85314    47.19187
    38  H   1.0    0.11    0.99    1.43    62.67932    66.75432    46.83521
    39  N   5.0   -0.49    3.01    1.93    59.44445    64.78206    43.07120
    40  C   4.0    0.07    4.00    3.62    58.42775    67.21182    42.31790
    41  C   4.0    0.29    3.01    3.02    55.55208    67.06349    42.05320
    42  O   6.0   -0.47    1.00    1.80    54.15406    68.68928    42.93920
    43  C   4.0   -0.10    3.98    3.59    59.66526    68.09207    39.84141
    44  C   4.0   -0.22    3.98    3.59    58.35477    70.45333    38.82556
    45  C   4.0   -0.23    3.98    3.59    62.47104    68.61576    40.27003
    46  H   1.0    0.23    1.00    1.43    60.66028    63.89415    41.88173
    47  H   1.0    0.12    0.99    1.43    58.79914    68.59715    43.82121
    48  H   1.0    0.11    0.99    1.43    59.45458    66.55551    38.47257
    49  H   1.0    0.10    0.99    1.43    59.28510    71.09080    37.10964
    50  H   1.0    0.12    0.99    1.43    56.38034    70.08222    38.39634
    51  H   1.0    0.10    0.99    1.43    58.43618    71.96441    40.21591
    52  H   1.0    0.10    0.99    1.43    63.32944    69.28502    38.52907
    53  H   1.0    0.10    0.99    1.43    62.71119    70.06474    41.70698
    54  H   1.0    0.10    0.99    1.43    63.45378    66.91462    40.86389
    55  N   5.0   -0.48    3.01    1.93    54.68559    65.07976    40.76331
    56  C   4.0    0.07    4.00    3.61    51.99169    64.79130    40.35492
    57  C   4.0    0.30    3.01    3.02    50.62851    64.50203    42.89341
    58  O   6.0   -0.47    1.00    1.80    48.61244    65.56954    43.30412
    59  C   4.0   -0.22    3.98    3.59    51.45536    62.58465    38.59386
    60  H   1.0    0.24    1.00    1.43    55.88705    63.78913    40.00703
    61  H   1.0    0.12    0.99    1.43    51.26427    66.54923    39.52003
    62  H   1.0    0.10    0.99    1.43    49.43902    62.48158    38.22236
    63  H   1.0    0.10    0.99    1.43    52.45612    62.85908    36.82131
    64  H   1.0    0.14    0.99    1.43    52.06067    60.81986    39.44653
    65  N   5.0   -0.47    3.00    1.93    51.77166    63.04579    44.60121
    66  C   4.0    0.02    4.00    3.62    50.71346    62.75331    47.10752
    67  C   4.0    0.30    3.01    3.02    50.37130    65.33072    48.35803
    68  O   6.0   -0.45    1.00    1.80    48.37744    65.99017    49.32926
    69  H   1.0    0.30    1.00    1.43    53.35920    62.06634    44.16647
    70  H   1.0    0.12    0.99    1.43    48.87393    61.81037    47.00810
    71  H   1.0    0.13    0.99    1.43    52.02404    61.65982    48.25954
    72  N   5.0   -0.46    3.01    1.93    52.43286    66.77979    48.28436
    73  C   4.0    0.07    4.00    3.61    52.44260    69.29051    49.37409
    74  C   4.0    0.30    3.01    3.02    50.15241    70.75239    48.38933
    75  O   6.0   -0.47    1.00    1.80    48.72048    71.87105    49.82415
    76  C   4.0   -0.22    3.98    3.59    54.88844    70.65722    48.72639
    77  H   1.0    0.30    1.00    1.43    54.08126    66.11795    47.57026
    78  H   1.0    0.12    0.99    1.43    52.22746    69.14539    51.43295
    79  H   1.0    0.09    0.99    1.43    54.85562    72.55583    49.50583
    80  H   1.0    0.11    0.99    1.43    56.48065    69.63276    49.52267
    81  H   1.0    0.14    0.99    1.43    55.10001    70.77322    46.68711
    82  N   5.0   -0.48    3.01    1.93    49.88216    70.71872    45.88390
    83  C   4.0    0.07    3.99    3.61    47.81002    71.98467    44.62128
    84  C   4.0    0.31    3.01    3.02    45.28181    71.23584    45.80893
    85  O   6.0   -0.46    1.00    1.80    43.79976    72.85379    46.56227
    86  C   4.0   -0.13    3.99    3.60    47.82482    71.34144    41.79740
    87  C   4.0   -0.03    3.03    3.02    45.47160    72.30055    40.52214
    88  C   4.0   -0.10    3.03    3.02    45.21743    74.84687    39.93557
    89  C   4.0   -0.09    3.03    3.02    43.50920    70.65684    39.94125
    90  C   4.0   -0.11    3.03    3.02    43.05320    75.73029    38.76508
    91  C   4.0   -0.11    3.03    3.02    41.34604    71.53590    38.76324
    92  C   4.0   -0.11    3.03    3.02    41.11789    74.07357    38.16609
    93  H   1.0    0.30    1.00    1.43    51.19293    69.84261    44.79205
    94  H   1.0    0.11    0.99    1.43    47.97580    74.04028    44.88632
    95  H   1.0    0.11    0.99    1.43    49.50411    72.18830    40.94912
    96  H   1.0    0.14    0.99    1.43    47.93379    69.29324    41.60509
    97  H   1.0    0.10    0.99    1.43    46.73060    76.14310    40.38283
    98  H   1.0    0.12    0.99    1.43    43.68042    68.67355    40.39707
    99  H   1.0    0.11    1.00    1.43    42.87920    77.71358    38.31595
   100  H   1.0    0.11    0.99    1.43    39.83895    70.23411    38.31193
   101  H   1.0    0.11    1.00    1.43    39.43346    74.76343    37.24521
   102  N   5.0   -0.47    3.01    1.93    44.80109    68.77043    45.92857
   103  C   4.0    0.07    4.00    3.61    42.43565    67.85269    46.97476
   104  C   4.0    0.30    3.01    3.02    41.95031    69.13552    49.53448
   105  O   6.0   -0.44    1.00    1.80    39.97213    70.23496    50.01990
   106  C   4.0   -0.13    3.99    3.60    42.48063    64.96119    47.29708
   107  C   4.0   -0.04    3.03    3.02    41.49429    63.60541    44.99662
   108  C   4.0   -0.09    3.03    3.02    42.87884    63.55694    42.76460
   109  C   4.0   -0.10    3.03    3.02    39.15755    62.40546    45.05934
   110  C   4.0   -0.11    3.03    3.02    41.92487    62.38356    40.63304
   111  C   4.0   -0.10    3.03    3.02    38.20821    61.21397    42.93126
   112  C   4.0   -0.11    3.03    3.02    39.58273    61.21778    40.70690
   113  H   1.0    0.29    1.00    1.43    46.09408    67.50294    45.30069
   114  H   1.0    0.12    0.99    1.43    40.87548    68.41681    45.72252
   115  H   1.0    0.14    0.99    1.43    44.42014    64.39834    47.71546
   116  H   1.0    0.10    0.99    1.43    41.30796    64.46755    48.91989
   117  H   1.0    0.15    1.00    1.43    44.72698    64.41188    42.70206
   118  H   1.0    0.12    0.99    1.43    38.07453    62.36574    46.79031
   119  H   1.0    0.11    1.00    1.43    43.01465    62.36734    38.90762
   120  H   1.0    0.11    0.99    1.43    36.39684    60.27583    43.01131
   121  H   1.0    0.10    0.99    1.43    38.84060    60.29817    39.04210
   122  N   5.0   -0.48    3.01    1.93    43.82518    68.85260    51.19803
   123  C   4.0    0.08    4.00    3.61    43.64154    69.85725    53.74281
   124  C   4.0    0.31    3.01    3.02    43.05324    72.67905    53.69057
   125  O   6.0   -0.48    1.00    1.80    41.40686    73.61760    55.06025
   126  C   4.0   -0.13    3.99    3.60    46.13058    69.34889    55.14482
   127  C   4.0   -0.03    3.12    3.03    46.00415    69.99983    57.88713
   128  C   4.0    0.02    3.23    3.04    45.25141    68.42067    59.79010
   129  C   4.0    0.02    3.18    3.03    46.68033    72.33421    59.06024
   130  N   5.0   -0.48    3.10    1.94    45.44347    69.59946    62.07230
   131  C   4.0    0.12    3.23    3.04    46.31382    71.99433    61.69615
   132  C   4.0   -0.11    3.02    3.02    47.58613    74.64992    58.17403
   133  C   4.0   -0.09    3.02    3.02    46.86294    73.89910    63.42189
   134  C   4.0   -0.11    3.03    3.02    48.12762    76.52604    59.89435
   135  C   4.0   -0.11    3.03    3.02    47.78299    76.15185    62.49092
   136  H   1.0    0.29    1.00    1.43    45.46545    68.01188    50.67242
   137  H   1.0    0.14    0.99    1.43    42.06372    68.92428    54.71430
   138  H   1.0    0.12    0.99    1.43    46.55663    67.34014    54.94084
   139  H   1.0    0.13    0.99    1.43    47.61389    70.43976    54.22019
   140  H   1.0    0.12    1.00    1.43    44.61101    66.50409    59.65149
   141  H   1.0    0.28    1.00    1.43    44.91548    68.85357    63.75525
   142  H   1.0    0.11    1.00    1.43    47.87324    74.95635    56.17677
   143  H   1.0    0.14    1.00    1.43    46.61710    73.61211    65.42566
   144  H   1.0    0.11    0.99    1.43    48.85114    78.32733    59.25347
   145  H   1.0    0.11    0.99    1.43    48.25764    77.66611    63.77868
   146  N   5.0   -0.48    3.01    1.93    44.43915    74.05032    52.12141
   147  C   4.0    0.07    4.00    3.62    44.04512    76.73992    51.86807
   148  C   4.0    0.30    3.02    3.02    41.32460    77.33621    51.13332
   149  O   6.0   -0.48    1.00    1.80    40.23236    79.16955    52.05525
   150  C   4.0   -0.14    3.99    3.60    45.81824    77.86901    49.88764
   151  C   4.0   -0.10    3.98    3.58    48.56377    78.04968    50.79392
   152  C   4.0   -0.23    3.98    3.59    50.29686    78.60644    48.55461
   153  C   4.0   -0.23    3.98    3.59    48.87064    80.09005    52.80845
   154  H   1.0    0.31    1.00    1.43    45.79264    73.22925    51.03416
   155  H   1.0    0.12    0.99    1.43    44.35065    77.64098    53.71216
   156  H   1.0    0.14    0.99    1.43    45.69926    76.68388    48.20356
   157  H   1.0    0.10    0.99    1.43    45.13918    79.75379    49.39355
   158  H   1.0    0.13    0.99    1.43    49.09950    76.21772    51.58928
   159  H   1.0    0.09    0.99    1.43    52.23740    78.81800    49.19037
   160  H   1.0    0.11    0.99    1.43    50.22890    77.07263    47.18860
   161  H   1.0    0.10    0.99    1.43    49.72707    80.34653    47.62207
   162  H   1.0    0.09    0.99    1.43    50.80354    80.14016    53.49424
   163  H   1.0    0.10    0.99    1.43    48.40443    81.93457    52.03164
   164  H   1.0    0.09    0.99    1.43    47.64903    79.75406    54.42450
   165  N   5.0   -0.47    3.01    1.93    40.26454    75.83730    49.41906
   166  C   4.0    0.08    4.00    3.63    37.69135    76.29672    48.61097
   167  C   4.0    0.29    3.02    3.02    35.94793    76.08827    50.90091
   168  O   6.0   -0.46    1.00    1.80    34.42451    77.75873    51.42108
   169  C   4.0   -0.09    3.98    3.58    36.87762    74.51774    46.47541
   170  C   4.0   -0.23    3.98    3.59    34.10040    74.98539    45.84808
   171  C   4.0   -0.22    3.98    3.59    38.50252    74.94413    44.13062
   172  H   1.0    0.31    1.00    1.43    41.24782    74.40041    48.62250
   173  H   1.0    0.12    0.99    1.43    37.54730    78.26589    47.96122
   174  H   1.0    0.14    0.99    1.43    37.12773    72.57665    47.14399
   175  H   1.0    0.09    0.99    1.43    33.52108    73.80387    44.27294
   176  H   1.0    0.11    0.99    1.43    32.90207    74.56771    47.46215
   177  H   1.0    0.10    0.99    1.43    33.81533    76.95140    45.32015
   178  H   1.0    0.10    0.99    1.43    37.88268    73.70430    42.61561
   179  H   1.0    0.10    0.99    1.43    38.34246    76.88875    43.48610
   180  H   1.0    0.15    0.99    1.43    40.47915    74.54656    44.50769
   181  N   5.0   -0.46    3.01    1.93    36.20440    74.01377    52.31931
   182  C   4.0    0.08    4.00    3.62    34.66300    73.78408    54.56243
   183  C   4.0    0.30    3.01    3.02    34.93166    76.16135    56.20519
   184  O   6.0   -0.46    1.00    1.80    33.06662    77.23256    57.06907
   185  C   4.0   -0.02    3.98    3.58    35.28301    71.40707    56.15911
   186  O   6.0   -0.48    1.99    1.82    37.62590    70.29992    55.72533
   187  H   1.0    0.30    1.00    1.43    37.40507    72.59353    51.84194
   188  H   1.0    0.11    0.99    1.43    32.66298    73.70616    54.00235
   189  H   1.0    0.11    0.99    1.43    35.08139    71.94275    58.16278
   190  H   1.0    0.12    0.99    1.43    33.89793    69.93803    55.72448
   191  H   1.0    0.32    0.99    1.43    38.97168    71.57802    55.74819
   192  N   5.0   -0.47    3.01    1.93    37.30026    76.84232    56.73095
   193  C   4.0    0.07    4.00    3.61    37.86743    78.97620    58.36373
   194  C   4.0    0.30    3.01    3.02    36.41739    81.30360    57.44910
   195  O   6.0   -0.46    1.00    1.80    35.14141    82.60417    58.88785
   196  C   4.0   -0.14    3.99    3.60    40.70759    79.51801    58.32900
   197  C   4.0   -0.10    3.98    3.58    41.44658    81.72242    60.08193
   198  C   4.0   -0.23    3.98    3.59    42.39992    80.73979    62.62168
   199  C   4.0   -0.23    3.98    3.59    43.44985    83.38561    58.83542
   200  H   1.0    0.30    1.00    1.43    38.79525    75.87266    56.01907
   201  H   1.0    0.12    0.99    1.43    37.21881    78.56392    60.29157
   202  H   1.0    0.12    0.99    1.43    41.71701    77.80802    58.88927
   203  H   1.0    0.13    0.99    1.43    41.23601    79.96512    56.38721
   204  H   1.0    0.13    0.99    1.43    39.76976    82.88761    60.41889
   205  H   1.0    0.10    0.99    1.43    42.85383    82.30460    63.87194
   206  H   1.0    0.10    0.99    1.43    40.98175    79.56832    63.53551
   207  H   1.0    0.11    0.99    1.43    44.09832    79.61643    62.34720
   208  H   1.0    0.10    0.99    1.43    43.90292    84.97943    60.04768
   209  H   1.0    0.10    0.99    1.43    45.18166    82.32587    58.51938
   210  H   1.0    0.10    0.99    1.43    42.77281    84.11394    57.03577
   211  N   5.0   -0.48    3.01    1.93    36.73284    81.81815    55.01332
   212  C   4.0    0.07    3.99    3.61    35.63551    84.02116    53.80660
   213  C   4.0    0.30    3.02    3.02    32.80148    84.03473    54.30335
   214  O   6.0   -0.49    1.00    1.80    31.73018    85.84893    55.30939
   215  C   4.0   -0.14    3.99    3.60    36.30909    83.91604    50.99373
   216  C   4.0   -0.11    3.97    3.58    35.47170    86.16948    49.37002
   217  C   4.0   -0.22    3.98    3.59    32.64151    86.12578    48.81186
   218  C   4.0   -0.22    3.98    3.59    36.24375    88.69798    50.52932
   219  H   1.0    0.31    1.00    1.43    37.83464    80.68635    53.92137
   220  H   1.0    0.12    0.99    1.43    36.41868    85.73174    54.68234
   221  H   1.0    0.11    0.99    1.43    38.36510    83.75871    50.89710
   222  H   1.0    0.13    0.99    1.43    35.51233    82.17923    50.21500
   223  H   1.0    0.10    0.99    1.43    36.46666    85.96707    47.56337
   224  H   1.0    0.09    0.99    1.43    32.16687    87.62181    47.48726
   225  H   1.0    0.10    0.99    1.43    32.08806    84.32478    47.99125
   226  H   1.0    0.12    0.99    1.43    31.55040    86.43661    50.52091
   227  H   1.0    0.10    0.99    1.43    35.91345    90.21656    49.18674
   228  H   1.0    0.12    0.99    1.43    35.14979    89.11012    52.21987
   229  H   1.0    0.10    0.99    1.43    38.23768    88.69323    51.02507
   230  N   5.0   -0.48    3.01    1.93    31.56027    81.97632    53.59548
   231  C   4.0    0.07    4.00    3.62    28.84361    81.82722    53.88812
   232  C   4.0    0.30    3.01    3.02    28.08455    82.46761    56.60596
   233  O   6.0   -0.47    1.00    1.80    26.35771    83.94602    57.07099
   234  C   4.0   -0.14    3.99    3.60    27.89334    79.20188    53.16152
   235  C   4.0   -0.10    3.98    3.58    28.13857    78.61668    50.33076
   236  C   4.0   -0.23    3.98    3.59    27.58130    75.81804    49.89856
   237  C   4.0   -0.23    3.98    3.59    26.36115    80.23209    48.73283
   238  H   1.0    0.29    1.00    1.43    32.49728    80.45970    52.88980
   239  H   1.0    0.11    0.99    1.43    27.96272    83.27770    52.69639
   240  H   1.0    0.12    0.99    1.43    28.98796    77.82307    54.23651
   241  H   1.0    0.10    0.99    1.43    25.91430    79.04498    53.72122
   242  H   1.0    0.13    0.99    1.43    30.08867    78.98324    49.74982
   243  H   1.0    0.09    0.99    1.43    27.70688    75.37165    47.89803
   244  H   1.0    0.10    0.99    1.43    28.93577    74.65039    50.91219
   245  H   1.0    0.10    0.99    1.43    25.68854    75.35457    50.54995
   246  H   1.0    0.10    0.99    1.43    26.53467    79.72078    46.75047
   247  H   1.0    0.10    0.99    1.43    24.41168    79.93602    49.31192
   248  H   1.0    0.09    0.99    1.43    26.79490    82.23124    48.91396
   249  N   5.0   -0.47    3.01    1.93    29.36945    81.24143    58.38934
   250  C   4.0    0.07    4.00    3.61    28.81954    81.60769    61.04762
   251  C   4.0    0.30    3.01    3.02    29.04159    84.40546    61.74719
   252  O   6.0   -0.41    1.00    1.80    27.43235    85.48720    63.01666
   253  C   4.0   -0.21    3.99    3.60    30.63959    80.05020    62.64067
   254  H   1.0    0.30    1.00    1.43    30.76434    80.01139    57.92616
   255  H   1.0    0.11    0.99    1.43    26.85429    81.04489    61.41073
   256  H   1.0    0.10    0.99    1.43    30.16969    80.23759    64.62950
   257  H   1.0    0.10    0.99    1.43    30.50237    78.07798    62.08510
   258  H   1.0    0.14    0.99    1.43    32.56504    80.69075    62.31816
   259  N   5.0   -0.48    3.01    1.93    31.14383    85.52709    60.93185
   260  C   4.0    0.08    3.99    3.61    31.67502    88.13896    61.54223
   261  C   4.0    0.32    3.01    3.02    29.54358    89.85394    60.61097
   262  O   6.0   -0.37    1.00    1.80    28.79291    91.63149    61.89739
   263  C   4.0   -0.01    3.98    3.58    34.23570    88.96636    60.43186
   264  O   6.0   -0.48    1.99    1.82    34.16972    89.59084    57.86483
   265  H   1.0    0.31    1.00    1.43    32.46354    84.52492    59.96028
   266  H   1.0    0.13    0.99    1.43    31.75880    88.34606    63.60679
   267  H   1.0    0.12    0.99    1.43    34.87391    90.66638    61.41625
   268  H   1.0    0.12    0.99    1.43    35.59541    87.43485    60.78653
   269  H   1.0    0.31    0.99    1.43    33.42961    88.18036    56.91494
   270  N   5.0   -0.46    3.01    1.93    28.60657    89.27978    58.35135
   271  C   4.0    0.09    4.00    3.62    26.56525    90.72119    57.23795
   272  C   4.0    0.29    3.01    3.02    24.23677    90.54679    58.93671
   273  O   6.0   -0.37    1.00    1.80    23.06837    92.44560    59.57773
   274  C   4.0   -0.09    3.98    3.59    26.00672    89.78972    54.54876
   275  C   4.0   -0.22    3.98    3.59    23.54950    90.93867    53.56668
   276  C   4.0   -0.22    3.98    3.59    28.19985    90.47298    52.80423
   277  H   1.0    0.30    1.00    1.43    29.31309    87.80851    57.35284
   278  H   1.0    0.14    0.99    1.43    27.10493    92.72681    57.18529
   279  H   1.0    0.14    0.99    1.43    25.80684    87.73208    54.63514
   280  H   1.0    0.10    0.99    1.43    23.22832    90.35264    51.62577
   281  H   1.0    0.12    0.99    1.43    21.94572    90.34055    54.70325
   282  H   1.0    0.12    0.99    1.43    23.65285    92.99096    53.61736
   283  H   1.0    0.09    0.99    1.43    27.84057    89.76088    50.91202
   284  H   1.0    0.11    0.99    1.43    28.41968    92.51340    52.69996
   285  H   1.0    0.13    0.99    1.43    29.95804    89.66437    53.48853
   286  N   5.0   -0.47    3.01    1.93    23.58352    88.22952    59.66978
   287  C   4.0    0.08    4.00    3.61    21.41801    87.84429    61.31003
   288  C   4.0    0.11    3.00    3.02    21.68642    89.53780    63.64380
   289  O   6.0   -0.37    1.00    1.80    20.00786    90.97947    64.33491
   290  C   4.0   -0.09    3.98    3.58    21.16516    85.04921    62.04855
   291  C   4.0   -0.22    3.98    3.59    19.09862    84.72273    64.03736
   292  C   4.0   -0.22    3.98    3.59    20.57074    83.44474    59.72340
   293  H   1.0    0.29    1.00    1.43    24.57530    86.70464    59.07187
   294  H   1.0    0.14    0.99    1.43    19.69857    88.46987    60.32332
   295  H   1.0    0.14    0.99    1.43    22.98027    84.44815    62.83772
   296  H   1.0    0.10    0.99    1.43    18.89112    82.73612    64.51242
   297  H   1.0    0.13    0.99    1.43    19.54443    85.76878    65.74726
   298  H   1.0    0.12    0.99    1.43    17.30056    85.40807    63.31606
   299  H   1.0    0.10    0.99    1.43    20.33501    81.47995    60.27369
   300  H   1.0    0.10    0.99    1.43    18.82878    84.08014    58.83762
   301  H   1.0    0.13    0.99    1.43    22.08502    83.54651    58.34057
   302  N   5.0   -0.71    3.00    1.93    28.97741    67.41442    63.68373
   303  C   4.0    0.07    3.98    3.59    29.51312    67.84147    61.03683
   304  C   4.0    0.28    3.01    3.02    32.07447    66.71681    60.31572
   305  O   6.0   -0.48    1.00    1.80    32.29075    65.42601    58.39493
   306  C   4.0   -0.15    3.99    3.60    29.40296    70.66378    60.41458
   307  C   4.0   -0.11    3.98    3.58    26.78021    71.56949    59.57180
   308  C   4.0   -0.23    3.98    3.59    24.72808    70.90081    61.48568
   309  C   4.0   -0.23    3.98    3.59    26.85654    74.42637    59.16100
   310  H   1.0    0.25    1.00    1.43    28.70477    68.94535    64.80352
   311  H   1.0    0.11    0.99    1.43    28.11788    66.80631    59.89828
   312  H   1.0    0.11    0.99    1.43    30.00918    71.71341    62.08181
   313  H   1.0    0.10    0.99    1.43    30.74497    71.06535    58.90187
   314  H   1.0    0.10    0.99    1.43    26.33963    70.64899    57.77152
   315  H   1.0    0.10    0.99    1.43    22.95048    71.76933    60.93331
   316  H   1.0    0.10    0.99    1.43    24.44368    68.87050    61.59890
   317  H   1.0    0.10    0.99    1.43    25.25452    71.58617    63.34679
   318  H   1.0    0.10    0.99    1.43    25.14557    75.06803    58.22632
   319  H   1.0    0.10    0.99    1.43    27.00076    75.38948    60.96926
   320  H   1.0    0.11    0.99    1.43    28.46873    74.96339    58.00601
   321  N   5.0   -0.48    3.01    1.93    34.01237    67.23434    61.82370
   322  C   4.0    0.06    3.99    3.61    36.48393    66.15717    61.33402
   323  C   4.0    0.09    3.00    3.02    36.22509    63.31713    60.82529
   324  O   6.0   -0.47    1.00    1.80    37.34107    62.29168    59.07029
   325  C   4.0   -0.14    3.99    3.60    38.24504    66.53138    63.59349
   326  C   4.0   -0.12    3.98    3.59    39.08487    69.28096    63.93916
   327  C   4.0    0.27    3.00    3.02    40.70932    69.49846    66.29513
   328  O   6.0   -0.42    1.00    1.80    42.60560    68.20662    66.61031
   329  N   5.0   -0.65    3.00    1.93    39.94383    71.18230    68.02055
   330  H   1.0    0.24    1.00    1.43    33.78627    68.33438    63.37841
   331  H   1.0    0.14    0.99    1.43    37.28897    67.01756    59.62229
   332  H   1.0    0.12    0.99    1.43    37.25463    65.88033    65.28268
   333  H   1.0    0.13    0.99    1.43    39.90834    65.33969    63.33919
   334  H   1.0    0.12    0.99    1.43    40.21735    69.85810    62.31366
   335  H   1.0    0.10    0.99    1.43    37.44329    70.50739    64.08573
   336  H   1.0    0.25    1.00    1.43    38.44068    72.31919    67.76359
   337  H   1.0    0.28    1.00    1.43    40.98705    71.44178    69.59447
   338  N   5.0   -0.71    3.00    1.93    32.91248    61.53808    54.82358
   339  C   4.0    0.07    3.99    3.60    34.61821    61.90697    52.72452
   340  C   4.0    0.28    3.01    3.02    36.62104    59.82874    52.61659
   341  O   6.0   -0.48    1.00    1.80    37.31005    58.99647    50.56344
   342  C   4.0   -0.11    3.99    3.60    35.80385    64.55688    52.79009
   343  C   4.0   -0.02    3.03    3.02    34.12477    66.38562    51.40769
   344  C   4.0   -0.09    3.03    3.02    31.87772    67.21901    52.48478
   345  C   4.0   -0.09    3.03    3.02    34.72174    67.14287    48.96830
   346  C   4.0   -0.11    3.03    3.02    30.27008    68.79462    51.15308
   347  C   4.0   -0.11    3.03    3.02    33.10487    68.69807    47.62624
   348  C   4.0   -0.11    3.03    3.02    30.87529    69.52574    48.71423
   349  H   1.0    0.33    1.00    1.43    32.94675    62.82983    56.23896
   350  H   1.0    0.11    0.99    1.43    33.53160    61.69922    50.96416
   351  H   1.0    0.15    0.99    1.43    36.08511    65.12373    54.75039
   352  H   1.0    0.11    0.99    1.43    37.65351    64.49574    51.88297
   353  H   1.0    0.13    1.00    1.43    31.38334    66.61527    54.36912
   354  H   1.0    0.12    1.00    1.43    36.46040    66.51013    48.10848
   355  H   1.0    0.10    0.99    1.43    28.53022    69.43545    52.00784
   356  H   1.0    0.10    1.00    1.43    33.58416    69.24724    45.72188
   357  H   1.0    0.10    1.00    1.43    29.60510    70.72513    47.66403
   358  N   5.0   -0.48    3.01    1.93    37.49369    58.96822    54.80929
   359  C   4.0    0.06    3.99    3.60    39.13494    56.77073    54.92145
   360  C   4.0    0.09    3.00    3.02    37.88289    54.57335    53.50369
   361  O   6.0   -0.41    1.00    1.80    39.00940    53.39382    51.85785
   362  C   4.0   -0.14    3.99    3.60    39.64650    56.11353    57.68649
   363  C   4.0   -0.15    3.98    3.59    40.80053    53.49403    58.05412
   364  C   4.0   -0.04    3.99    3.60    41.85588    53.22362    60.72466
   365  N   5.0   -0.47    3.02    1.93    44.28687    54.47804    60.89715
   366  C   4.0    0.37    3.00    3.02    45.32116    55.52759    62.93180
   367  N   5.0   -0.63    3.01    1.93    44.03599    55.93980    65.03691
   368  N   5.0   -0.64    3.02    1.93    47.79284    56.08236    62.82913
   369  H   1.0    0.30    1.00    1.43    37.12495    59.89873    56.44740
   370  H   1.0    0.13    0.99    1.43    40.91321    57.16658    53.92591
   371  H   1.0    0.13    0.99    1.43    40.90775    57.54565    58.46462
   372  H   1.0    0.12    0.99    1.43    37.86356    56.19037    58.71588
   373  H   1.0    0.11    0.99    1.43    39.36617    52.04369    57.76288
   374  H   1.0    0.12    0.99    1.43    42.29390    53.16607    56.67080
   375  H   1.0    0.11    0.99    1.43    40.53884    54.04172    62.08169
   376  H   1.0    0.11    0.99    1.43    42.08529    51.21801    61.17251
   377  H   1.0    0.24    1.00    1.43    45.41044    54.20732    59.37237
   378  H   1.0    0.25    1.00    1.43    42.08565    55.96349    65.10631
   379  H   1.0    0.26    1.00    1.43    44.89084    56.85668    66.47041
   380  H   1.0    0.27    1.00    1.43    48.75434    55.88650    61.19900
   381  H   1.0    0.26    1.00    1.43    48.68291    56.92847    64.28243
   382  N   5.0   -0.68    3.00    1.93    33.17737    54.77949    49.43626
   383  C   4.0    0.07    3.98    3.59    32.92129    55.39674    46.78107
   384  C   4.0    0.29    3.02    3.02    35.40454    54.84033    45.40384
   385  O   6.0   -0.47    1.00    1.80    35.43243    53.80323    43.33024
   386  C   4.0   -0.22    3.98    3.59    32.18864    58.16196    46.47646
   387  H   1.0    0.26    1.00    1.43    32.68030    56.09791    50.74057
   388  H   1.0    0.11    0.99    1.43    31.47542    54.16848    45.93832
   389  H   1.0    0.10    0.99    1.43    31.85661    58.59440    44.49803
   390  H   1.0    0.10    0.99    1.43    30.47450    58.54156    47.54269
   391  H   1.0    0.12    0.99    1.43    33.69791    59.36210    47.18540
   392  N   5.0   -0.47    3.01    1.93    37.48821    55.61563    46.57796
   393  C   4.0    0.08    4.00    3.61    39.92879    55.26083    45.40494
   394  C   4.0    0.10    3.00    3.02    40.44865    52.44006    45.08321
   395  O   6.0   -0.41    1.00    1.80    41.18706    51.61189    43.04592
   396  C   4.0   -0.12    3.99    3.60    42.01358    56.60151    46.88181
   397  C   4.0   -0.03    3.02    3.02    44.49680    56.74502    45.48900
   398  C   4.0   -0.08    3.03    3.02    44.63428    57.06966    42.88613
   399  C   4.0   -0.11    3.04    3.02    46.75278    56.65825    46.82872
   400  C   4.0   -0.07    3.03    3.02    46.92685    57.26375    41.66342
   401  C   4.0   -0.10    3.03    3.02    49.06732    56.87930    45.62854
   402  C   4.0    0.11    3.03    3.02    49.17414    57.17372    43.02164
   403  O   6.0   -0.50    1.99    1.83    51.37899    57.32629    41.71694
   404  H   1.0    0.32    1.00    1.43    37.40736    56.56098    48.24307
   405  H   1.0    0.13    0.99    1.43    39.81461    56.03587    43.48395
   406  H   1.0    0.13    0.99    1.43    41.35262    58.52472    47.25771
   407  H   1.0    0.13    0.99    1.43    42.26674    55.65426    48.69760
   408  H   1.0    0.12    1.00    1.43    42.94464    57.18530    41.75789
   409  H   1.0    0.11    1.00    1.43    46.68892    56.42435    48.85440
   410  H   1.0    0.12    1.00    1.43    47.01601    57.48016    39.63895
   411  H   1.0    0.11    0.99    1.43    50.80449    56.81184    46.69906
   412  H   1.0    0.29    0.99    1.43    52.79983    57.80640    42.80656
   413  N   5.0   -0.69    3.00    1.93    36.92564    50.18705    39.36960
   414  C   4.0    0.08    3.98    3.58    38.06873    51.02457    37.03685
   415  C   4.0    0.08    3.00    3.02    40.56407    49.66983    36.51854
   416  O   6.0   -0.41    1.00    1.80    41.13989    49.08328    34.34059
   417  C   4.0   -0.13    3.98    3.59    38.40398    53.90060    37.03423
   418  C   4.0   -0.11    3.97    3.58    36.09922    55.34986    36.01194
   419  C   4.0   -0.22    3.98    3.59    35.93285    55.14414    33.13546
   420  C   4.0   -0.22    3.98    3.59    33.64247    54.49979    37.26473
   421  H   1.0    0.32    1.00    1.43    36.88416    51.39643    40.85892
   422  H   1.0    0.12    0.99    1.43    36.83982    50.44428    35.47046
   423  H   1.0    0.12    0.99    1.43    38.80205    54.48054    38.97325
   424  H   1.0    0.11    0.99    1.43    40.05603    54.37328    35.89149
   425  H   1.0    0.10    0.99    1.43    36.40594    57.34321    36.47822
   426  H   1.0    0.10    0.99    1.43    34.29795    56.17443    32.44221
   427  H   1.0    0.10    0.99    1.43    37.60996    55.94820    32.26031
   428  H   1.0    0.11    0.99    1.43    35.80976    53.18462    32.53187
   429  H   1.0    0.10    0.99    1.43    32.10489    55.71793    36.66153
   430  H   1.0    0.11    0.99    1.43    33.21496    52.55768    36.76572
   431  H   1.0    0.13    0.99    1.43    33.82032    54.61927    39.30533
   432  N   5.0   -0.72    3.00    1.93    59.09349    42.06193    48.18898
   433  C   4.0    0.06    3.98    3.59    57.37492    44.14626    47.70622
   434  C   4.0    0.28    3.01    3.02    56.35561    45.13486    50.23626
   435  O   6.0   -0.47    1.00    1.80    56.49367    47.36187    50.82748
   436  C   4.0   -0.14    4.01    3.64    55.11268    43.42616    46.06177
   437  C   4.0   -0.15    3.98    3.58    55.75500    43.31684    43.25755
   438  S   6.0   -0.15    2.01    3.10    52.99146    43.92793    41.26308
   439  C   4.0   -0.20    3.98    3.58    51.30817    40.98305    41.68561
   440  H   1.0    0.25    1.00    1.43    58.73996    40.38042    47.36481
   441  H   1.0    0.09    0.99    1.43    58.40571    45.71379    46.82441
   442  H   1.0    0.11    0.99    1.43    54.32558    41.63006    46.70018
   443  H   1.0    0.12    0.99    1.43    53.66936    44.87815    46.33790
   444  H   1.0    0.10    0.99    1.43    57.06726    44.81867    42.75511
   445  H   1.0    0.10    0.99    1.43    56.53261    41.49789    42.69965
   446  H   1.0    0.12    0.99    1.43    49.84050    40.89210    40.25228
   447  H   1.0    0.10    0.99    1.43    52.62128    39.42597    41.43778
   448  H   1.0    0.10    0.99    1.43    50.44632    40.93349    43.54834
   449  N   5.0   -0.48    3.01    1.93    55.30732    43.37088    51.69971
   450  C   4.0    0.06    3.99    3.60    54.09805    44.02483    54.07414
   451  C   4.0    0.10    3.00    3.02    55.91573    45.62322    55.65708
   452  O   6.0   -0.46    1.00    1.80    55.24795    47.59204    56.68109
   453  C   4.0   -0.22    3.99    3.59    53.36032    41.60364    55.43727
   454  H   1.0    0.23    1.00    1.43    55.03856    41.57342    51.08352
   455  H   1.0    0.13    0.99    1.43    52.40401    45.17364    53.71537
   456  H   1.0    0.10    0.99    1.43    52.15304    42.03708    57.03723
   457  H   1.0    0.10    0.99    1.43    52.31135    40.40350    54.14213
   458  H   1.0    0.11    0.99    1.43    55.03109    40.59239    56.07613
   459  N   5.0   -0.70    3.00    1.93    61.32804    48.86441    53.91293
   460  C   4.0    0.08    3.99    3.60    61.99503    51.33058    52.95823
   461  C   4.0    0.27    3.01    3.02    59.74390    53.14483    52.90794
   462  O   6.0   -0.50    1.00    1.80    60.08278    55.42787    52.67607
   463  C   4.0   -0.09    3.98    3.58    63.28221    51.27853    50.34775
   464  C   4.0   -0.23    3.98    3.59    65.62226    49.58959    50.38336
   465  C   4.0   -0.21    3.98    3.59    61.46984    50.43670    48.27103
   466  H   1.0    0.27    1.00    1.43    61.29552    47.36145    52.72421
   467  H   1.0    0.09    0.99    1.43    63.32827    52.17112    54.31470
   468  H   1.0    0.11    0.99    1.43    63.84587    53.23581    49.97492
   469  H   1.0    0.09    0.99    1.43    66.65901    49.81163    48.62525
   470  H   1.0    0.09    0.99    1.43    66.87145    50.07856    51.94046
   471  H   1.0    0.10    0.99    1.43    65.07001    47.62048    50.55324
   472  H   1.0    0.09    0.99    1.43    62.39461    50.58874    46.44260
   473  H   1.0    0.11    0.99    1.43    60.91603    48.48727    48.57787
   474  H   1.0    0.12    0.99    1.43    59.78746    51.61387    48.24428
   475  N   5.0   -0.48    3.01    1.93    57.48541    52.05221    53.13066
   476  C   4.0    0.08    3.99    3.60    55.09861    53.39519    53.07903
   477  C   4.0    0.31    3.02    3.02    54.55078    54.49895    55.70275
   478  O   6.0   -0.44    1.00    1.80    54.10017    56.74459    56.04555
   479  C   4.0   -0.01    3.98    3.59    52.91168    51.62424    52.31798
   480  O   6.0   -0.49    1.99    1.82    50.54381    52.68055    52.85337
   481  H   1.0    0.31    1.00    1.43    57.45187    50.13382    53.02421
   482  H   1.0    0.12    0.99    1.43    55.24440    54.98697    51.75833
   483  H   1.0    0.11    0.99    1.43    53.09792    51.10789    50.32206
   484  H   1.0    0.16    0.99    1.43    53.02793    49.90257    53.44582
   485  H   1.0    0.25    0.99    1.43    50.23803    54.12064    51.77854
   486  N   5.0   -0.48    3.01    1.93    54.67707    52.83146    57.58460
   487  C   4.0    0.04    4.00    3.63    54.61582    53.71396    60.16842
   488  C   4.0    0.31    3.01    3.02    56.46180    55.91827    60.46931
   489  O   6.0   -0.45    1.00    1.80    55.86997    57.90881    61.49167
   490  H   1.0    0.30    1.00    1.43    55.05505    50.98327    57.23738
   491  H   1.0    0.14    0.99    1.43    52.73115    54.37030    60.69928
   492  H   1.0    0.13    0.99    1.43    55.18107    52.17930    61.42454
   493  N   5.0   -0.47    3.01    1.93    58.74951    55.40205    59.54872
   494  C   4.0    0.07    3.99    3.60    60.86797    57.14182    59.68111
   495  C   4.0    0.29    3.01    3.02    60.18456    59.59309    58.30256
   496  O   6.0   -0.46    1.00    1.80    60.37471    61.63212    59.38789
   497  C   4.0   -0.15    3.99    3.60    63.18839    55.73895    58.67792
   498  C   4.0   -0.11    3.97    3.58    65.76960    57.00265    59.07924
   499  C   4.0   -0.23    3.98    3.59    66.34552    58.82443    56.91973
   500  C   4.0   -0.23    3.98    3.59    65.97560    58.28060    61.65570
   501  H   1.0    0.25    1.00    1.43    59.10952    53.66624    58.81124
   502  H   1.0    0.12    0.99    1.43    61.15412    57.66605    61.66732
   503  H   1.0    0.10    0.99    1.43    63.19253    53.90683    59.62660
   504  H   1.0    0.12    0.99    1.43    62.91367    55.40760    56.66129
   505  H   1.0    0.10    0.99    1.43    67.17990    55.48677    59.00916
   506  H   1.0    0.09    0.99    1.43    68.15471    59.74775    57.21401
   507  H   1.0    0.09    0.99    1.43    66.42841    57.79368    55.14568
   508  H   1.0    0.11    0.99    1.43    64.88537    60.25784    56.75806
   509  H   1.0    0.10    0.99    1.43    67.91550    58.87716    61.96736
   510  H   1.0    0.11    0.99    1.43    64.77341    59.93867    61.75102
   511  H   1.0    0.10    0.99    1.43    65.42397    56.98445    63.15073
   512  N   5.0   -0.48    3.01    1.93    59.25261    59.36207    55.97251
   513  C   4.0    0.08    3.99    3.60    58.37693    61.50855    54.50418
   514  C   4.0    0.32    3.01    3.02    56.76054    63.30112    56.10503
   515  O   6.0   -0.44    1.00    1.80    57.27548    65.54841    56.33280
   516  C   4.0   -0.01    3.98    3.59    56.77318    60.46590    52.30263
   517  O   6.0   -0.49    1.99    1.82    55.35657    62.29213    51.01813
   518  H   1.0    0.30    1.00    1.43    59.42628    57.71954    54.97477
   519  H   1.0    0.11    0.99    1.43    59.98541    62.61561    53.79482
   520  H   1.0    0.11    0.99    1.43    58.02839    59.41002    51.03455
   521  H   1.0    0.16    0.99    1.43    55.39241    59.15526    53.10043
   522  H   1.0    0.30    0.99    1.43    56.41111    63.27794    49.87351
   523  N   5.0   -0.47    3.01    1.93    54.72813    62.21975    57.13070
   524  C   4.0    0.07    4.00    3.61    53.00134    63.66862    58.69052
   525  C   4.0    0.30    3.01    3.02    54.51541    64.94351    60.80529
   526  O   6.0   -0.45    1.00    1.80    54.25532    67.18496    61.32448
   527  C   4.0   -0.13    3.99    3.60    50.89836    61.99117    59.76626
   528  C   4.0   -0.03    3.02    3.02    48.58868    61.86274    58.09245
   529  C   4.0   -0.08    3.03    3.02    48.78124    61.78096    55.47355
   530  C   4.0   -0.09    3.03    3.02    46.19451    61.85175    59.18178
   531  C   4.0   -0.10    3.03    3.02    46.62861    61.72591    53.98313
   532  C   4.0   -0.10    3.03    3.02    44.03968    61.79678    57.69541
   533  C   4.0   -0.10    3.03    3.02    44.25576    61.74459    55.08710
   534  H   1.0    0.29    1.00    1.43    54.41396    60.34137    56.91246
   535  H   1.0    0.13    0.99    1.43    52.17535    65.20286    57.56266
   536  H   1.0    0.14    0.99    1.43    51.69353    60.10811    60.07129
   537  H   1.0    0.11    0.99    1.43    50.34582    62.75626    61.59855
   538  H   1.0    0.14    1.00    1.43    50.61165    61.79095    54.57437
   539  H   1.0    0.12    1.00    1.43    46.01353    61.94521    61.21103
   540  H   1.0    0.12    1.00    1.43    46.81488    61.71671    51.95119
   541  H   1.0    0.13    1.00    1.43    42.18855    61.86331    58.55283
   542  H   1.0    0.12    1.00    1.43    42.58379    61.75680    53.92000
   543  N   5.0   -0.47    3.00    1.93    56.07995    63.40752    62.05662
   544  C   4.0    0.03    4.00    3.61    57.71834    64.35863    64.01437
   545  C   4.0    0.29    3.01    3.02    59.17585    66.74904    63.27533
   546  O   6.0   -0.40    1.00    1.80    59.33419    68.51591    64.77499
   547  H   1.0    0.30    1.00    1.43    56.26727    61.57288    61.53420
   548  H   1.0    0.12    0.99    1.43    56.59297    64.86410    65.68057
   549  H   1.0    0.11    0.99    1.43    59.07144    62.87664    64.48915
   550  N   5.0   -0.48    3.01    1.93    60.37787    66.67054    61.07306
   551  C   4.0    0.09    4.00    3.61    61.96126    68.73943    60.22184
   552  C   4.0    0.30    3.02    3.02    60.42843    71.16907    60.06802
   553  O   6.0   -0.47    1.00    1.80    61.19665    73.12149    61.04306
   554  C   4.0   -0.09    3.98    3.58    63.24584    68.11434    57.67870
   555  C   4.0   -0.17    3.98    3.59    65.85912    66.94677    58.12505
   556  C   4.0   -0.23    3.98    3.59    63.54400    70.43476    55.97741
   557  C   4.0   -0.23    3.98    3.59    65.80220    64.69347    59.90716
   558  H   1.0    0.31    1.00    1.43    60.21277    65.11514    59.96663
   559  H   1.0    0.13    0.99    1.43    63.40325    69.11046    61.66849
   560  H   1.0    0.13    0.99    1.43    62.03386    66.74420    56.71236
   561  H   1.0    0.09    0.99    1.43    66.61621    66.34543    56.30356
   562  H   1.0    0.10    0.99    1.43    67.11368    68.40933    58.86511
   563  H   1.0    0.09    0.99    1.43    64.73475    69.95877    54.37198
   564  H   1.0    0.11    0.99    1.43    61.73416    71.08254    55.26176
   565  H   1.0    0.11    0.99    1.43    64.42994    71.97735    57.00558
   566  H   1.0    0.09    0.99    1.43    67.60827    63.71938    59.88312
   567  H   1.0    0.12    0.99    1.43    65.38619    65.26865    61.83131
   568  H   1.0    0.13    0.99    1.43    64.33858    63.38472    59.32386
   569  N   5.0   -0.49    3.01    1.93    58.32086    71.05520    58.68709
   570  C   4.0    0.08    4.01    3.63    56.95026    73.37172    58.20010
   571  C   4.0    0.29    3.01    3.02    55.71703    74.33519    60.63003
   572  O   6.0   -0.46    1.00    1.80    55.69784    76.58270    61.18098
   573  C   4.0   -0.09    3.98    3.59    55.12623    73.04340    55.97281
   574  C   4.0   -0.17    3.98    3.59    54.18257    75.60372    55.00425
   575  C   4.0   -0.21    3.98    3.59    52.91039    71.34193    56.67243
   576  C   4.0   -0.25    3.98    3.58    56.25234    77.23881    53.84038
   577  H   1.0    0.28    1.00    1.43    57.71802    69.39061    57.96502
   578  H   1.0    0.12    0.99    1.43    58.36784    74.80907    57.71730
   579  H   1.0    0.11    0.99    1.43    56.21226    72.13324    54.46061
   580  H   1.0    0.10    0.99    1.43    52.74126    75.24040    53.57450
   581  H   1.0    0.12    0.99    1.43    53.29101    76.62460    56.55829
   582  H   1.0    0.10    0.99    1.43    51.73676    71.02393    55.01892
   583  H   1.0    0.14    0.99    1.43    53.56220    69.52647    57.37321
   584  H   1.0    0.13    0.99    1.43    51.74859    72.22974    58.11230
   585  H   1.0    0.09    0.99    1.43    55.41739    78.85129    52.87948
   586  H   1.0    0.10    0.99    1.43    57.52887    77.96236    55.27788
   587  H   1.0    0.09    0.99    1.43    57.35240    76.16965    52.47208
   588  N   5.0   -0.48    3.01    1.93    54.71591    72.54691    62.10693
   589  C   4.0    0.10    3.99    3.61    53.62700    73.20510    64.52046
   590  C   4.0    0.13    3.00    3.02    55.61107    74.59948    66.10165
   591  O   6.0   -0.38    1.00    1.80    55.17085    76.64721    67.08567
   592  C   4.0   -0.01    3.98    3.59    52.67165    70.82373    65.84718
   593  O   6.0   -0.47    1.99    1.83    51.36573    71.55641    68.04307
   594  H   1.0    0.30    1.00    1.43    54.67738    70.70282    61.58984
   595  H   1.0    0.15    0.99    1.43    52.03112    74.50905    64.26644
   596  H   1.0    0.13    0.99    1.43    51.42017    69.81662    64.53462
   597  H   1.0    0.14    0.99    1.43    54.28430    69.60132    66.31348
   598  H   1.0    0.26    0.99    1.43    50.58697    70.08616    68.78759
   599  N   5.0   -0.68    3.00    1.93    60.96618    77.39834    64.39851
   600  C   4.0    0.08    3.99    3.60    61.68276    79.84975    63.40412
   601  C   4.0    0.29    3.01    3.02    59.91844    81.84137    64.52945
   602  O   6.0   -0.38    1.00    1.80    60.72026    83.71644    65.62573
   603  C   4.0   -0.09    3.98    3.58    61.59426    79.89022    60.50254
   604  C   4.0   -0.22    3.98    3.59    61.77889    82.60274    59.52941
   605  C   4.0   -0.23    3.98    3.59    63.74247    78.30260    59.41018
   606  H   1.0    0.32    1.00    1.43    60.83161    75.91323    63.19006
   607  H   1.0    0.12    0.99    1.43    63.59842    80.31401    64.05715
   608  H   1.0    0.13    0.99    1.43    59.77660    79.08618    59.92858
   609  H   1.0    0.10    0.99    1.43    61.77661    82.61623    57.47665
   610  H   1.0    0.12    0.99    1.43    60.20646    83.74740    60.19394
   611  H   1.0    0.11    0.99    1.43    63.52211    83.46994    60.18574
   612  H   1.0    0.09    0.99    1.43    63.67581    78.36520    57.35882
   613  H   1.0    0.10    0.99    1.43    65.55621    79.04343    60.02608
   614  H   1.0    0.13    0.99    1.43    63.59403    76.35080    60.02094
   615  N   5.0   -0.48    3.01    1.93    57.46478    81.41649    64.11153
   616  C   4.0    0.08    3.99    3.60    55.54672    83.18734    64.93141
   617  C   4.0    0.10    3.00    3.02    55.70519    83.62779    67.79341
   618  O   6.0   -0.37    1.00    1.80    55.74939    85.75586    68.70450
   619  C   4.0   -0.13    3.99    3.60    52.90937    82.24847    64.15447
   620  C   4.0   -0.04    3.03    3.02    52.24009    83.20432    61.55976
   621  C   4.0   -0.09    3.03    3.02    53.55332    82.36205    59.44471
   622  C   4.0   -0.10    3.03    3.02    50.38877    85.04038    61.25926
   623  C   4.0   -0.11    3.03    3.02    53.05748    83.37821    57.08822
   624  C   4.0   -0.11    3.03    3.02    49.86288    86.02774    58.89353
   625  C   4.0   -0.11    3.03    3.02    51.21200    85.21283    56.80709
   626  H   1.0    0.29    1.00    1.43    56.89108    79.75658    63.34718
   627  H   1.0    0.15    0.99    1.43    55.93207    85.03531    64.06095
   628  H   1.0    0.14    0.99    1.43    52.91467    80.18446    64.21431
   629  H   1.0    0.11    0.99    1.43    51.53141    82.92869    65.52976
   630  H   1.0    0.13    1.00    1.43    54.95557    80.89780    59.65213
   631  H   1.0    0.11    0.99    1.43    49.35398    85.70043    62.89304
   632  H   1.0    0.10    1.00    1.43    54.13176    82.74886    55.47251
   633  H   1.0    0.11    1.00    1.43    48.40872    87.44495    58.69049
   634  H   1.0    0.11    1.00    1.43    50.83190    86.01282    54.97139
   635  N   5.0   -0.71    3.00    1.93    54.02508    57.74208    70.98842
   636  C   4.0    0.07    3.98    3.59    53.06596    57.47145    68.44182
   637  C   4.0    0.08    3.00    3.02    54.40954    55.34353    67.03148
   638  O   6.0   -0.42    1.00    1.80    53.21145    53.80732    65.78198
   639  C   4.0   -0.13    3.98    3.59    53.27111    59.97996    66.98938
   640  C   4.0    0.07    3.22    3.04    51.10076    61.62755    67.67854
   641  N   5.0   -0.47    3.15    1.95    51.10245    63.14198    69.77245
   642  C   4.0    0.05    3.35    3.07    48.70114    61.79274    66.72100
   643  C   4.0    0.18    3.41    3.08    48.77174    64.14923    69.97523
   644  N   5.0   -0.36    2.10    1.90    47.28344    63.37097    68.16386
   645  H   1.0    0.26    1.00    1.43    54.77849    59.42333    71.51158
   646  H   1.0    0.13    0.99    1.43    51.07832    56.88614    68.57399
   647  H   1.0    0.11    0.99    1.43    55.06121    60.87655    67.47814
   648  H   1.0    0.13    0.99    1.43    53.28473    59.60281    64.96329
   649  H   1.0    0.22    1.00    1.43    52.59383    63.38351    70.95146
   650  H   1.0    0.10    1.00    1.43    47.91385    60.94361    65.06432
   651  H   1.0    0.12    1.00    1.43    48.21173    65.42528    71.44392
   652  N   5.0   -0.70    3.00    1.93    44.35392    41.27516    58.66087
   653  C   4.0    0.07    3.98    3.59    44.29649    39.76168    56.38939
   654  C   4.0    0.08    3.00    3.02    43.76823    37.01004    57.07376
   655  O   6.0   -0.39    1.00    1.80    42.09785    35.78184    56.03147
   656  C   4.0   -0.13    3.99    3.60    46.79061    39.97904    54.92859
   657  C   4.0   -0.04    3.03    3.02    46.88090    42.36516    53.37649
   658  C   4.0   -0.10    3.03    3.02    47.34355    44.69228    54.50609
   659  C   4.0   -0.10    3.03    3.02    46.45342    42.27565    50.78719
   660  C   4.0   -0.09    3.03    3.02    47.34754    46.88566    53.08078
   661  C   4.0   -0.10    3.03    3.02    46.47987    44.46538    49.35199
   662  C   4.0   -0.09    3.03    3.02    46.90957    46.77445    50.50373
   663  H   1.0    0.25    1.00    1.43    45.96622    42.19971    59.12336
   664  H   1.0    0.13    0.99    1.43    42.70756    40.37651    55.19731
   665  H   1.0    0.10    0.99    1.43    48.33128    39.91790    56.29756
   666  H   1.0    0.11    0.99    1.43    46.95261    38.34238    53.68336
   667  H   1.0    0.11    1.00    1.43    47.75657    44.78396    56.49861
   668  H   1.0    0.11    0.99    1.43    46.10871    40.47480    49.88344
   669  H   1.0    0.14    1.00    1.43    47.72949    48.68614    53.95730
   670  H   1.0    0.12    0.99    1.43    46.17021    44.36837    47.33281
   671  H   1.0    0.12    1.00    1.43    46.92148    48.48412    49.39312
   672  H   1.0    0.29    1.00    1.43    59.20809    58.40837    37.20799
   673  H   1.0    0.16    1.00    1.43    23.27511    89.49293    64.66611
   674  H   1.0    0.29    1.00    1.43    27.55274    66.49773    63.83392
   675  H   1.0    0.14    1.00    1.43    35.12644    62.25445    61.93649
   676  H   1.0    0.29    1.00    1.43    31.30833    61.53941    54.25856
   677  H   1.0    0.14    1.00    1.43    36.10738    54.07335    53.91436
   678  H   1.0    0.29    1.00    1.43    32.21192    53.42753    49.80052
   679  H   1.0    0.15    1.00    1.43    40.18771    51.25952    46.53555
   680  H   1.0    0.30    1.00    1.43    35.29584    49.78800    39.09196
   681  H   1.0    0.16    1.00    1.43    41.73063    49.25888    37.94728
   682  H   1.0    0.28    1.00    1.43    60.65597    42.48118    47.66414
   683  H   1.0    0.14    1.00    1.43    57.70906    45.07124    55.88151
   684  H   1.0    0.29    1.00    1.43    62.42870    48.40880    55.12682
   685  H   1.0    0.16    1.00    1.43    57.32270    73.83944    66.35409
   686  H   1.0    0.31    1.00    1.43    62.10379    76.90289    65.56166
   687  H   1.0    0.16    1.00    1.43    55.77574    82.15374    68.97377
   688  H   1.0    0.30    1.00    1.43    52.76801    57.46778    72.10067
   689  H   1.0    0.14    1.00    1.43    56.29099    55.19119    67.12101
   690  H   1.0    0.30    1.00    1.43    43.17757    42.49911    58.55745
   691  H   1.0    0.14    1.00    1.43    44.79712    36.15389    58.40773

           ------------------------------------------------- 
          |        Self-Consistent Charge Iterations        |
           ------------------------------------------------- 

          ...................................................
          :                      SETUP                      :
          :.................................................:
          :  # basis functions                1678          :
          :  # atomic orbitals                1677          :
          :  # shells                         1019          :
          :  # electrons                      1820          :
          :  max. iterations                   250          :
          :  Hamiltonian                  GFN2-xTB          :
          :  restarted?                      false          :
          :  GBSA solvation                   true          :
          :  PC potential                    false          :
          :  electronic temp.          500.0000000     K    :
          :  accuracy                    0.1000000          :
          :  -> integral cutoff          0.3500000E+02      :
          :  -> integral neglect         0.1000000E-08      :
          :  -> SCF convergence          0.1000000E-06 Eh   :
          :  -> wf. convergence          0.1000000E-04 e    :
          :  Broyden damping             0.4000000          :
          ...................................................

 iter      E             dE          RMSdq      gap      omega  full diag
   1  -1030.9866818 -0.103099E+04  0.405E+00    1.50       0.0  T
   2  -1033.3297101 -0.234303E+01  0.217E+00    1.64       1.0  T
   3  -1033.4102573 -0.805472E-01  0.113E+00    1.81       1.0  T
   4  -1033.4462855 -0.360282E-01  0.273E-01    1.19       1.0  T
   5  -1033.4779208 -0.316353E-01  0.105E-01    1.31       1.0  T
   6  -1033.4791204 -0.119958E-02  0.554E-02    1.34       1.0  T
   7  -1033.4795568 -0.436403E-03  0.288E-02    1.34       1.0  T
   8  -1033.4797218 -0.165013E-03  0.125E-02    1.36       1.0  T
   9  -1033.4797467 -0.248833E-04  0.722E-03    1.36       1.0  T
  10  -1033.4797576 -0.109100E-04  0.392E-03    1.37       1.0  T
  11  -1033.4797612 -0.361850E-05  0.190E-03    1.37       2.0  T
  12  -1033.4797622 -0.998306E-06  0.934E-04    1.37       4.1  T
  13  -1033.4797624 -0.173469E-06  0.478E-04    1.37       8.0  T
  14  -1033.4797625 -0.558525E-07  0.242E-04    1.37      15.7  T
  15  -1033.4797625 -0.122782E-07  0.109E-04    1.37      34.8  T
  16  -1033.4797625 -0.256819E-08  0.554E-05    1.37      68.6  T
  17  -1033.4797625 -0.525461E-09  0.280E-05    1.37     136.0  T

   *** convergence criteria satisfied after 17 iterations ***

         #    Occupation            Energy/Eh            Energy/eV
      -------------------------------------------------------------
         1        2.0000           -0.7378912             -20.0790
       ...           ...                  ...                  ...
       904        2.0000           -0.3639812              -9.9044
       905        2.0000           -0.3637923              -9.8993
       906        2.0000           -0.3613201              -9.8320
       907        2.0000           -0.3531252              -9.6090
       908        2.0000           -0.3524543              -9.5908
       909        2.0000           -0.3503319              -9.5330
       910        2.0000           -0.3498682              -9.5204 (HOMO)
       911        0.0000           -0.2994411              -8.1482 (LUMO)
       912                         -0.2872911              -7.8176
       913                         -0.2855085              -7.7691
       914                         -0.2820085              -7.6738
       915                         -0.2795685              -7.6074
       ...                                ...                  ...
      1677                          0.7247239              19.7207
      -------------------------------------------------------------
                  HL-Gap            0.0504271 Eh            1.3722 eV
             Fermi-level           -0.3240791 Eh           -8.8186 eV

 SCC (total)                   0 d,  0 h,  1 min,  2.288 sec
 SCC setup                      ...        0 min,  0.385 sec (  0.618%)
 Dispersion                     ...        0 min,  0.471 sec (  0.755%)
 integral evaluation            ...        0 min,  1.417 sec (  2.275%)
 zeroth order Hamiltonian       ...        0 min,  0.016 sec (  0.025%)
 iterations                     ...        0 min, 53.036 sec ( 85.147%)
 molecular gradient             ...        0 min,  6.684 sec ( 10.730%)
 printout                       ...        0 min,  0.280 sec (  0.449%)

         :::::::::::::::::::::::::::::::::::::::::::::::::::::
         ::                     SUMMARY                     ::
         :::::::::::::::::::::::::::::::::::::::::::::::::::::
         :: total energy            -1020.016012572594 Eh   ::
         :: total w/o Gsasa/hb      -1019.937499075285 Eh   ::
         :: gradient norm               0.701867293327 Eh/α ::
         :: HOMO-LUMO gap               1.372190909787 eV   ::
         ::.................................................::
         :: SCC energy              -1033.515724094862 Eh   ::
         :: -> isotropic ES             2.247319333504 Eh   ::
         :: -> anisotropic ES          -0.079595949970 Eh   ::
         :: -> anisotropic XC           0.388453816464 Eh   ::
         :: -> dispersion              -0.993496493432 Eh   ::
         :: -> Gsolv                   -0.419550800168 Eh   ::
         ::    -> Gborn                -0.341037302858 Eh   ::
         ::    -> Gsasa                -0.037819067300 Eh   ::
         ::    -> Ghb                  -0.042551873136 Eh   ::
         ::    -> Gshift                0.001857443127 Eh   ::
         :: repulsion energy           13.381749897827 Eh   ::
         :: add. restraining            0.000000000000 Eh   ::
         :::::::::::::::::::::::::::::::::::::::::::::::::::::

           -------------------------------------------------
          |                Property Printout                |
           -------------------------------------------------

    * Orbital Energies and Occupations

         #    Occupation            Energy/Eh            Energy/eV
      -------------------------------------------------------------
         1        2.0000           -0.7378912             -20.0790
       ...           ...                  ...                  ...
       898        2.0000           -0.3792857             -10.3209
       899        2.0000           -0.3758627             -10.2277
       900        2.0000           -0.3756828             -10.2229
       901        2.0000           -0.3717447             -10.1157
       902        2.0000           -0.3693428             -10.0503
       903        2.0000           -0.3684388             -10.0257
       904        2.0000           -0.3639812              -9.9044
       905        2.0000           -0.3637923              -9.8993
       906        2.0000           -0.3613201              -9.8320
       907        2.0000           -0.3531252              -9.6090
       908        2.0000           -0.3524543              -9.5908
       909        2.0000           -0.3503319              -9.5330
       910        2.0000           -0.3498682              -9.5204 (HOMO)
       911        0.0000           -0.2994411              -8.1482 (LUMO)
       912                         -0.2872911              -7.8176
       913                         -0.2855085              -7.7691
       914                         -0.2820085              -7.6738
       915                         -0.2795685              -7.6074
       916                         -0.2792270              -7.5982
       917                         -0.2773751              -7.5478
       918                         -0.2770340              -7.5385
       919                         -0.2764004              -7.5212
       920                         -0.2752436              -7.4898
       921                         -0.2554037              -6.9499
       ...                                ...                  ...
      1677                          0.7247239              19.7207
      -------------------------------------------------------------
                  HL-Gap            0.0504271 Eh            1.3722 eV
             Fermi-level           -0.3240791 Eh           -8.8186 eV

   #   Z        covCN         q      C6AA      α(0)
   1   7 N      2.635    -0.395    30.232     8.166
   2   6 C      3.790     0.018    20.275     6.413
   3   6 C      2.757     0.263    22.563     7.779
   4   8 O      0.859    -0.499    23.752     6.534
   5   6 C      3.852    -0.023    20.950     6.510
   6   6 C      3.804    -0.060    21.649     6.624
   7   6 C      3.755    -0.117    22.800     6.808
   8   6 C      3.751    -0.109    22.645     6.786
   9   1 H      0.860     0.164     1.307     1.791
  10   1 H      0.923     0.050     2.314     2.379
  11   1 H      0.924     0.042     2.419     2.432
  12   1 H      0.924     0.038     2.474     2.460
  13   1 H      0.924     0.034     2.527     2.486
  14   1 H      0.925     0.052     2.291     2.367
  15   1 H      0.925     0.034     2.536     2.490
  16   1 H      0.925     0.053     2.285     2.364
  17   1 H      0.925     0.036     2.508     2.477
  18   1 H      0.925     0.039     2.459     2.452
  19   1 H      0.925     0.043     2.410     2.428
  20   7 N      2.691    -0.165    24.559     7.360
  21   6 C      3.799     0.014    20.349     6.423
  22   6 C      2.757     0.273    22.391     7.749
  23   8 O      0.858    -0.482    23.392     6.485
  24   6 C      3.809    -0.090    22.201     6.707
  25   6 C      3.849    -0.013    20.767     6.482
  26   6 C      3.756    -0.119    22.836     6.814
  27   6 C      3.755    -0.118    22.810     6.810
  28   1 H      0.860     0.227     0.977     1.548
  29   1 H      0.923     0.080     1.982     2.202
  30   1 H      0.924     0.076     2.024     2.225
  31   1 H      0.924     0.065     2.137     2.286
  32   1 H      0.924     0.032     2.553     2.499
  33   1 H      0.925     0.039     2.459     2.452
  34   1 H      0.925     0.046     2.376     2.410
  35   1 H      0.925     0.050     2.316     2.380
  36   1 H      0.925     0.041     2.438     2.442
  37   1 H      0.925     0.049     2.333     2.389
  38   1 H      0.925     0.036     2.498     2.471
  39   7 N      2.690    -0.167    24.622     7.370
  40   6 C      3.801     0.010    20.408     6.432
  41   6 C      2.760     0.273    22.380     7.747
  42   8 O      0.859    -0.481    23.360     6.480
  43   6 C      3.853    -0.024    20.962     6.512
  44   6 C      3.756    -0.119    22.837     6.814
  45   6 C      3.757    -0.127    22.990     6.836
  46   1 H      0.860     0.218     1.020     1.582
  47   1 H      0.923     0.085     1.928     2.172
  48   1 H      0.924     0.053     2.278     2.360
  49   1 H      0.925     0.059     2.213     2.327
  50   1 H      0.925     0.038     2.480     2.463
  51   1 H      0.925     0.052     2.299     2.371
  52   1 H      0.925     0.060     2.194     2.316
  53   1 H      0.925     0.054     2.268     2.355
  54   1 H      0.925     0.054     2.275     2.359
  55   7 N      2.691    -0.176    24.810     7.398
  56   6 C      3.799     0.023    20.193     6.398
  57   6 C      2.759     0.272    22.396     7.750
  58   8 O      0.859    -0.489    23.542     6.505
  59   6 C      3.756    -0.136    23.172     6.863
  60   1 H      0.860     0.208     1.065     1.617
  61   1 H      0.923     0.073     2.052     2.240
  62   1 H      0.925     0.065     2.141     2.288
  63   1 H      0.925     0.072     2.061     2.245
  64   1 H      0.925     0.081     1.968     2.194
  65   7 N      2.687    -0.172    24.730     7.386
  66   6 C      3.751    -0.035    21.265     6.576
  67   6 C      2.756     0.280    22.259     7.726
  68   8 O      0.858    -0.484    23.435     6.490
  69   1 H      0.860     0.229     0.970     1.543
  70   1 H      0.924     0.085     1.926     2.170
  71   1 H      0.925     0.108     1.712     2.046
  72   7 N      2.694    -0.182    24.934     7.416
  73   6 C      3.798     0.026    20.147     6.391
  74   6 C      2.758     0.280    22.259     7.726
  75   8 O      0.858    -0.490    23.568     6.509
  76   6 C      3.757    -0.136    23.177     6.864
  77   1 H      0.860     0.228     0.973     1.545
  78   1 H      0.923     0.069     2.094     2.263
  79   1 H      0.925     0.064     2.149     2.292
  80   1 H      0.925     0.073     2.048     2.238
  81   1 H      0.925     0.075     2.029     2.227
  82   7 N      2.691    -0.184    24.996     7.425
  83   6 C      3.798     0.033    20.022     6.371
  84   6 C      2.759     0.281    22.249     7.724
  85   8 O      0.859    -0.503    23.848     6.547
  86   6 C      3.813    -0.086    22.124     6.695
  87   6 C      2.971     0.008    27.838     8.654
  88   6 C      2.924    -0.041    29.019     8.834
  89   6 C      2.924    -0.043    29.070     8.842
  90   6 C      2.919    -0.033    28.819     8.803
  91   6 C      2.919    -0.033    28.828     8.805
  92   6 C      2.920    -0.035    28.863     8.810
  93   1 H      0.860     0.230     0.966     1.540
  94   1 H      0.923     0.056     2.243     2.342
  95   1 H      0.924     0.065     2.140     2.288
  96   1 H      0.925     0.076     2.025     2.225
  97   1 H      0.926     0.038     2.482     2.464
  98   1 H      0.926     0.039     2.457     2.451
  99   1 H      0.926     0.038     2.479     2.462
 100   1 H      0.926     0.036     2.499     2.472
 101   1 H      0.926     0.037     2.492     2.469
 102   7 N      2.689    -0.177    24.843     7.403
 103   6 C      3.799     0.031    20.054     6.376
 104   6 C      2.757     0.279    22.281     7.730
 105   8 O      0.858    -0.490    23.561     6.508
 106   6 C      3.810    -0.078    21.974     6.673
 107   6 C      2.968     0.011    27.761     8.642
 108   6 C      2.924    -0.044    29.102     8.847
 109   6 C      2.925    -0.038    28.951     8.824
 110   6 C      2.919    -0.030    28.755     8.794
 111   6 C      2.918    -0.030    28.739     8.791
 112   6 C      2.920    -0.033    28.816     8.803
 113   1 H      0.860     0.234     0.948     1.525
 114   1 H      0.923     0.060     2.204     2.321
 115   1 H      0.924     0.081     1.967     2.193
 116   1 H      0.924     0.056     2.250     2.346
 117   1 H      0.926     0.054     2.268     2.355
 118   1 H      0.926     0.042     2.418     2.432
 119   1 H      0.926     0.033     2.545     2.495
 120   1 H      0.926     0.026     2.645     2.543
 121   1 H      0.926     0.024     2.671     2.556
 122   7 N      2.692    -0.183    24.965     7.421
 123   6 C      3.799     0.020    20.247     6.407
 124   6 C      2.760     0.280    22.255     7.725
 125   8 O      0.859    -0.512    24.042     6.574
 126   6 C      3.809    -0.075    21.930     6.666
 127   6 C      3.055    -0.042    28.976     8.828
 128   6 C      3.043    -0.016    28.362     8.735
 129   6 C      3.113    -0.024    28.445     8.737
 130   7 N      2.773    -0.104    23.287     7.167
 131   6 C      3.096     0.039    27.007     8.517
 132   6 C      2.911    -0.044    29.097     8.845
 133   6 C      2.908    -0.059    29.459     8.900
 134   6 C      2.918    -0.046    29.142     8.852
 135   6 C      2.923    -0.044    29.088     8.844
 136   1 H      0.860     0.229     0.968     1.541
 137   1 H      0.924     0.088     1.897     2.154
 138   1 H      0.924     0.070     2.082     2.257
 139   1 H      0.924     0.057     2.233     2.337
 140   1 H      0.926     0.072     2.068     2.249
 141   1 H      0.860     0.215     1.032     1.592
 142   1 H      0.926     0.020     2.736     2.586
 143   1 H      0.926     0.039     2.460     2.453
 144   1 H      0.925     0.010     2.890     2.659
 145   1 H      0.925     0.016     2.789     2.612
 146   7 N      2.691    -0.173    24.738     7.387
 147   6 C      3.801     0.029    20.093     6.382
 148   6 C      2.764     0.274    22.364     7.745
 149   8 O      0.859    -0.508    23.960     6.563
 150   6 C      3.812    -0.074    21.912     6.663
 151   6 C      3.850    -0.010    20.728     6.476
 152   6 C      3.757    -0.114    22.724     6.797
 153   6 C      3.756    -0.114    22.740     6.799
 154   1 H      0.860     0.240     0.925     1.506
 155   1 H      0.923     0.070     2.080     2.256
 156   1 H      0.924     0.059     2.207     2.323
 157   1 H      0.924     0.049     2.328     2.386
 158   1 H      0.924     0.043     2.410     2.428
 159   1 H      0.925     0.049     2.332     2.388
 160   1 H      0.925     0.033     2.545     2.495
 161   1 H      0.925     0.042     2.420     2.433
 162   1 H      0.925     0.049     2.336     2.390
 163   1 H      0.925     0.040     2.451     2.448
 164   1 H      0.925     0.032     2.551     2.498
 165   7 N      2.691    -0.179    24.873     7.407
 166   6 C      3.807     0.025    20.148     6.390
 167   6 C      2.767     0.280    22.263     7.727
 168   8 O      0.859    -0.493    23.621     6.516
 169   6 C      3.852    -0.019    20.877     6.499
 170   6 C      3.758    -0.115    22.761     6.802
 171   6 C      3.757    -0.118    22.819     6.811
 172   1 H      0.860     0.233     0.953     1.529
 173   1 H      0.923     0.065     2.144     2.290
 174   1 H      0.924     0.055     2.262     2.352
 175   1 H      0.925     0.056     2.243     2.342
 176   1 H      0.925     0.039     2.466     2.456
 177   1 H      0.925     0.047     2.357     2.401
 178   1 H      0.925     0.050     2.326     2.385
 179   1 H      0.925     0.044     2.396     2.420
 180   1 H      0.925     0.052     2.301     2.372
 181   7 N      2.688    -0.181    24.910     7.413
 182   6 C      3.801     0.016    20.309     6.416
 183   6 C      2.756     0.276    22.332     7.739
 184   8 O      0.858    -0.495    23.663     6.522
 185   6 C      3.675     0.075    19.554     6.336
 186   8 O      1.654    -0.464    22.137     6.351
 187   1 H      0.860     0.232     0.954     1.530
 188   1 H      0.923     0.058     2.222     2.331
 189   1 H      0.923     0.030     2.591     2.517
 190   1 H      0.924     0.065     2.138     2.287
 191   1 H      0.803     0.330     0.638     1.254
 192   7 N      2.690    -0.188    25.072     7.437
 193   6 C      3.798     0.024    20.176     6.396
 194   6 C      2.757     0.282    22.221     7.719
 195   8 O      0.858    -0.508    23.961     6.563
 196   6 C      3.809    -0.084    22.092     6.691
 197   6 C      3.849    -0.011    20.735     6.477
 198   6 C      3.756    -0.120    22.858     6.817
 199   6 C      3.756    -0.112    22.693     6.792
 200   1 H      0.860     0.229     0.969     1.542
 201   1 H      0.923     0.070     2.085     2.258
 202   1 H      0.924     0.068     2.102     2.267
 203   1 H      0.924     0.059     2.209     2.324
 204   1 H      0.924     0.024     2.672     2.556
 205   1 H      0.925     0.043     2.415     2.430
 206   1 H      0.925     0.045     2.385     2.415
 207   1 H      0.925     0.051     2.304     2.374
 208   1 H      0.925     0.042     2.426     2.436
 209   1 H      0.925     0.044     2.397     2.421
 210   1 H      0.925     0.033     2.540     2.492
 211   7 N      2.696    -0.189    25.090     7.439
 212   6 C      3.796     0.027    20.123     6.388
 213   6 C      2.762     0.284    22.190     7.714
 214   8 O      0.859    -0.514    24.089     6.580
 215   6 C      3.808    -0.080    22.023     6.680
 216   6 C      3.848    -0.015    20.802     6.487
 217   6 C      3.755    -0.117    22.801     6.809
 218   6 C      3.755    -0.119    22.834     6.814
 219   1 H      0.860     0.239     0.928     1.509
 220   1 H      0.923     0.068     2.109     2.271
 221   1 H      0.924     0.064     2.157     2.297
 222   1 H      0.924     0.060     2.197     2.318
 223   1 H      0.924     0.048     2.344     2.394
 224   1 H      0.925     0.049     2.336     2.390
 225   1 H      0.925     0.041     2.429     2.437
 226   1 H      0.925     0.033     2.543     2.494
 227   1 H      0.925     0.048     2.346     2.395
 228   1 H      0.925     0.038     2.481     2.463
 229   1 H      0.925     0.042     2.419     2.432
 230   7 N      2.692    -0.171    24.693     7.380
 231   6 C      3.802     0.025    20.152     6.391
 232   6 C      2.758     0.277    22.310     7.735
 233   8 O      0.858    -0.505    23.888     6.553
 234   6 C      3.810    -0.077    21.955     6.670
 235   6 C      3.849    -0.013    20.768     6.482
 236   6 C      3.758    -0.111    22.673     6.789
 237   6 C      3.755    -0.119    22.839     6.814
 238   1 H      0.860     0.237     0.935     1.515
 239   1 H      0.924     0.069     2.093     2.263
 240   1 H      0.924     0.059     2.212     2.326
 241   1 H      0.924     0.058     2.227     2.333
 242   1 H      0.924     0.042     2.424     2.435
 243   1 H      0.925     0.046     2.370     2.408
[...]
   359  C   3.959        N  358 0.972    C  362 0.971    C  360 0.968    H  370 0.947
   360  C   3.897        O  361 1.903    C  359 0.968    H  677 0.953
   361  O   2.045        C  360 1.903
   362  C   3.978        C  363 1.006    C  359 0.971    H  372 0.970    H  371 0.962
   363  C   3.989        C  362 1.006    C  364 1.006    H  373 0.970    H  374 0.968
   364  C   3.953        C  363 1.006    N  365 0.983    H  375 0.958    H  376 0.956
   365  N   3.475        C  366 1.322    C  364 0.983    H  377 0.909    N  367 0.104
   366  C   3.978        N  367 1.330    N  365 1.322    N  368 1.291
   367  N   3.402        C  366 1.330    H  379 0.920    H  378 0.905    N  365 0.104
   368  N   3.388        C  366 1.291    H  380 0.925    H  381 0.922
   369  H   0.940        N  358 0.878
   370  H   0.991        C  359 0.947
   371  H   0.991        C  362 0.962
   372  H   0.993        C  362 0.970
   373  H   0.995        C  363 0.970
   374  H   0.994        C  363 0.968
   375  H   0.991        C  364 0.958
   376  H   0.990        C  364 0.956
   377  H   0.944        N  365 0.909
   378  H   0.935        N  367 0.905
   379  H   0.941        N  367 0.920
   380  H   0.949        N  368 0.925
   381  H   0.948        N  368 0.922
   382  N   2.994        C  383 1.013    H  678 0.958    H  387 0.956
   383  C   3.987        N  382 1.013    C  386 0.995    H  388 0.965    C  384 0.935
   384  C   3.945        O  385 1.592    N  392 1.336    C  383 0.935
   385  O   1.935        C  384 1.592    N  392 0.198
   386  C   3.993        C  383 0.995    H  389 0.985    H  390 0.982    H  391 0.979
   387  H   0.975        N  382 0.956
   388  H   0.999        C  383 0.965
   389  H   0.999        C  386 0.985
   390  H   0.997        C  386 0.982
   391  H   0.997        C  386 0.979
   392  N   3.486        C  384 1.336    C  393 0.979    H  404 0.864    O  385 0.198
   393  C   3.968        N  392 0.979    C  394 0.973    C  396 0.965    H  405 0.941
   394  C   3.898        O  395 1.897    C  393 0.973    H  679 0.953
   395  O   2.040        C  394 1.897
   396  C   3.983        C  397 1.010    C  393 0.965    H  407 0.965    H  406 0.944
   397  C   3.987        C  399 1.412    C  398 1.401    C  396 1.010
   398  C   3.992        C  400 1.462    C  397 1.401    H  408 0.961    C  401 0.105
   399  C   3.988        C  401 1.445    C  397 1.412    H  409 0.966    C  400 0.107
   400  C   3.990        C  398 1.462    C  402 1.364    H  410 0.969    C  399 0.107
   401  C   3.985        C  399 1.445    C  402 1.372    H  411 0.965    C  398 0.105
   402  C   3.943        C  401 1.372    C  400 1.364    O  403 1.073
   403  O   2.086        C  402 1.073    H  412 0.818
   404  H   0.938        N  392 0.864
   405  H   0.996        C  393 0.941
   406  H   0.992        C  396 0.944
   407  H   0.992        C  396 0.965
   408  H   0.999        C  398 0.961
   409  H   0.996        C  399 0.966
   410  H   0.998        C  400 0.969
   411  H   0.997        C  401 0.965
   412  H   0.886        O  403 0.818
   413  N   2.997        C  414 1.021    H  680 0.954    H  421 0.929
   414  C   3.987        N  413 1.021    C  415 0.983    C  417 0.956    H  422 0.949
   415  C   3.887        O  416 1.875    C  414 0.983    H  681 0.954
   416  O   2.014        C  415 1.875
   417  C   3.993        C  418 0.991    H  424 0.974    H  423 0.969    C  414 0.956
   418  C   3.996        C  420 1.010    C  419 1.010    C  417 0.991    H  425 0.964
   419  C   3.996        C  418 1.010    H  427 0.987    H  426 0.986    H  428 0.983
   420  C   3.995        C  418 1.010    H  429 0.986    H  430 0.983    H  431 0.979
   421  H   0.969        N  413 0.929
   422  H   0.997        C  414 0.949
   423  H   0.998        C  417 0.969
   424  H   0.999        C  417 0.974
   425  H   0.999        C  418 0.964
   426  H   0.998        C  419 0.986
   427  H   0.999        C  419 0.987
   428  H   0.999        C  419 0.983
   429  H   0.999        C  420 0.986
   430  H   0.999        C  420 0.983
   431  H   0.997        C  420 0.979
   432  N   2.994        C  433 1.014    H  682 0.957    H  440 0.954
   433  C   3.985        N  432 1.014    C  436 0.977    H  441 0.958    C  434 0.929
   434  C   3.948        O  435 1.621    N  449 1.312    C  433 0.929
   435  O   1.990        C  434 1.621    N  449 0.197
   436  C   3.993        C  437 1.010    C  433 0.977    H  442 0.971    H  443 0.970
   437  C   3.977        C  436 1.010    S  438 0.988    H  445 0.975    H  444 0.967
   438  S   2.079        C  439 1.011    C  437 0.988
   439  C   3.978        S  438 1.011    H  448 0.985    H  447 0.983    H  446 0.982
   440  H   0.972        N  432 0.954
   441  H   0.998        C  433 0.958
   442  H   0.997        C  436 0.971
   443  H   0.997        C  436 0.970
   444  H   0.996        C  437 0.967
   445  H   0.997        C  437 0.975
   446  H   0.997        C  439 0.982
   447  H   0.997        C  439 0.983
   448  H   0.997        C  439 0.985
   449  N   3.476        C  434 1.312    C  450 0.970    H  454 0.917    O  435 0.197
   450  C   3.963        C  453 0.982    C  451 0.978    N  449 0.970    H  455 0.943
   451  C   3.896        O  452 1.866    C  450 0.978    H  683 0.952
   452  O   2.065        C  451 1.866
   453  C   3.979        C  450 0.982    H  458 0.982    H  456 0.977    H  457 0.972
   454  H   0.952        N  449 0.917
   455  H   0.992        C  450 0.943
   456  H   0.993        C  453 0.977
   457  H   0.994        C  453 0.972
   458  H   0.994        C  453 0.982
   459  N   3.014        C  460 1.024    H  684 0.954    H  466 0.952
   460  C   3.984        N  459 1.024    C  463 0.957    H  467 0.947    C  461 0.942
   461  C   3.944        O  462 1.571    N  475 1.332    C  460 0.942
   462  O   1.947        C  461 1.571    N  475 0.188
   463  C   3.993        C  465 1.010    C  464 1.008    H  468 0.967    C  460 0.957
   464  C   3.994        C  463 1.008    H  470 0.986    H  469 0.985    H  471 0.983
   465  C   3.995        C  463 1.010    H  472 0.985    H  474 0.984    H  473 0.977
   466  H   0.976        N  459 0.952
   467  H   0.998        C  460 0.947
   468  H   0.998        C  463 0.967
   469  H   0.998        C  464 0.985
   470  H   0.998        C  464 0.986
   471  H   0.998        C  464 0.983
   472  H   0.998        C  465 0.985
   473  H   0.998        C  465 0.977
   474  H   0.999        C  465 0.984
   475  N   3.483        C  461 1.332    C  476 0.983    H  481 0.876    O  462 0.188
   476  C   3.966        N  475 0.983    C  479 0.963    H  482 0.954    C  477 0.930
   477  C   3.953        O  478 1.610    N  486 1.329    C  476 0.930
   478  O   1.982        C  477 1.610    N  486 0.201
   479  C   3.954        O  480 1.016    H  483 0.967    C  476 0.963    H  484 0.958
   480  O   1.964        C  479 1.016    H  485 0.883
   481  H   0.941        N  475 0.876
   482  H   0.995        C  476 0.954
   483  H   0.997        C  479 0.967
   484  H   0.993        C  479 0.958
   485  H   0.897        O  480 0.883
   486  N   3.485        C  477 1.329    C  487 0.993    H  490 0.879    O  478 0.201
   487  C   3.959        N  486 0.993    H  491 0.951    H  492 0.949    C  488 0.948
   488  C   3.945        O  489 1.623    N  493 1.299    C  487 0.948
   489  O   1.976        C  488 1.623    N  493 0.190
   490  H   0.939        N  486 0.879
   491  H   0.988        C  487 0.951
   492  H   0.986        C  487 0.949
   493  N   3.461        C  488 1.299    C  494 0.973    H  501 0.920    O  489 0.190
   494  C   3.962        C  497 0.983    N  493 0.973    H  502 0.948    C  495 0.936
   495  C   3.946        O  496 1.597    N  512 1.323    C  494 0.936
   496  O   1.970        C  495 1.597    N  512 0.196
   497  C   3.988        C  498 0.992    C  494 0.983    H  503 0.969    H  504 0.964
   498  C   3.994        C  499 1.010    C  500 1.010    C  497 0.992    H  505 0.967
   499  C   3.995        C  498 1.010    H  507 0.985    H  506 0.984    H  508 0.979
   500  C   3.994        C  498 1.010    H  509 0.985    H  511 0.984    H  510 0.980
   501  H   0.957        N  493 0.920
   502  H   0.993        C  494 0.948
   503  H   0.995        C  497 0.969
   504  H   0.997        C  497 0.964
   505  H   0.998        C  498 0.967
   506  H   0.998        C  499 0.984
   507  H   0.998        C  499 0.985
   508  H   0.999        C  499 0.979
   509  H   0.998        C  500 0.985
   510  H   0.998        C  500 0.980
   511  H   0.998        C  500 0.984
   512  N   3.467        C  495 1.323    C  513 0.980    H  518 0.859    O  496 0.196
   513  C   3.967        N  512 0.980    C  516 0.961    H  519 0.950    C  514 0.937
   514  C   3.949        O  515 1.613    N  523 1.322    C  513 0.937
   515  O   1.948        C  514 1.613    N  523 0.198
   516  C   3.952        O  517 1.015    C  513 0.961    H  520 0.957    H  521 0.950
   517  O   1.951        C  516 1.015    H  522 0.842
   518  H   0.945        N  512 0.859
   519  H   0.996        C  513 0.950
   520  H   0.998        C  516 0.957
   521  H   0.993        C  516 0.950
   522  H   0.895        O  517 0.842
   523  N   3.478        C  514 1.322    C  524 0.977    H  534 0.887    O  515 0.198
   524  C   3.962        N  523 0.977    C  527 0.975    H  535 0.949    C  525 0.934
   525  C   3.944        O  526 1.608    N  543 1.313    C  524 0.934
   526  O   1.969        C  525 1.608    N  543 0.194
   527  C   3.981        C  528 1.007    C  524 0.975    H  537 0.963    H  536 0.949
   528  C   3.986        C  529 1.415    C  530 1.409    C  527 1.007    C  533 0.110
   529  C   3.992        C  531 1.442    C  528 1.415    H  538 0.967    C  532 0.111
   530  C   3.987        C  532 1.443    C  528 1.409    H  539 0.962    C  531 0.111
   531  C   3.992        C  529 1.442    C  533 1.440    H  540 0.970    C  530 0.111
   532  C   3.988        C  530 1.443    C  533 1.435    H  541 0.963    C  529 0.111
   533  C   3.991        C  531 1.440    C  532 1.435    H  542 0.970    C  528 0.110
   534  H   0.943        N  523 0.887
   535  H   0.994        C  524 0.949
   536  H   0.992        C  527 0.949
   537  H   0.993        C  527 0.963
   538  H   0.999        C  529 0.967
   539  H   0.996        C  530 0.962
   540  H   0.999        C  531 0.970
   541  H   0.995        C  532 0.963
   542  H   0.998        C  533 0.970
   543  N   3.475        C  525 1.313    C  544 1.000    H  547 0.887    O  526 0.194
   544  C   3.972        N  543 1.000    H  548 0.959    H  549 0.956    C  545 0.944
   545  C   3.948        O  546 1.612    N  550 1.325    C  544 0.944
   546  O   1.927        C  545 1.612    N  550 0.198
   547  H   0.945        N  543 0.887
   548  H   0.994        C  544 0.959
   549  H   0.992        C  544 0.956
   550  N   3.475        C  545 1.325    C  551 0.979    H  558 0.877    O  546 0.198
   551  C   3.965        N  550 0.979    C  554 0.964    H  559 0.952    C  552 0.940
   552  C   3.944        O  553 1.609    N  569 1.305    C  551 0.940
   553  O   1.960        C  552 1.609    N  569 0.190
   554  C   3.987        C  556 1.007    C  555 0.996    C  551 0.964    H  560 0.959
   555  C   3.995        C  557 1.019    C  554 0.996    H  562 0.977    H  561 0.974
   556  C   3.994        C  554 1.007    H  565 0.986    H  564 0.984    H  563 0.982
   557  C   3.994        C  555 1.019    H  567 0.986    H  566 0.984    H  568 0.971
   558  H   0.944        N  550 0.877
   559  H   0.996        C  551 0.952
   560  H   0.997        C  554 0.959
   561  H   0.997        C  555 0.974
   562  H   0.998        C  555 0.977
   563  H   0.996        C  556 0.982
   564  H   0.998        C  556 0.984
   565  H   0.999        C  556 0.986
   566  H   0.997        C  557 0.984
   567  H   0.999        C  557 0.986
   568  H   0.997        C  557 0.971
   569  N   3.468        C  552 1.305    C  570 0.978    H  577 0.907    O  553 0.190
   570  C   3.960        N  569 0.978    C  573 0.966    H  578 0.944    C  571 0.936
   571  C   3.944        O  572 1.620    N  588 1.304    C  570 0.936
   572  O   1.965        C  571 1.620    N  588 0.195
   573  C   3.987        C  575 1.009    C  574 0.995    C  570 0.966    H  579 0.961
   574  C   3.994        C  576 1.019    C  573 0.995    H  581 0.976    H  580 0.970
   575  C   3.991        C  573 1.009    H  584 0.978    H  583 0.974    H  582 0.973
   576  C   3.996        C  574 1.019    H  587 0.986    H  586 0.984    H  585 0.982
   577  H   0.951        N  569 0.907
   578  H   0.994        C  570 0.944
   579  H   0.996        C  573 0.961
   580  H   0.997        C  574 0.970
   581  H   0.998        C  574 0.976
   582  H   0.997        C  575 0.973
   583  H   0.997        C  575 0.974
   584  H   0.998        C  575 0.978
   585  H   0.998        C  576 0.982
   586  H   0.999        C  576 0.984
   587  H   0.998        C  576 0.986
   588  N   3.467        C  571 1.304    C  589 0.982    H  594 0.882    O  572 0.195
   589  C   3.968        N  588 0.982    C  592 0.969    C  590 0.967    H  595 0.942
   590  C   3.899        O  591 1.905    C  589 0.967    H  685 0.955
   591  O   2.045        C  590 1.905
   592  C   3.956        O  593 1.006    C  589 0.969    H  597 0.967    H  596 0.961
   593  O   1.928        C  592 1.006    H  598 0.868
   594  H   0.944        N  588 0.882
   595  H   0.992        C  589 0.942
   596  H   0.996        C  592 0.961
   597  H   0.998        C  592 0.967
   598  H   0.881        O  593 0.868
   599  N   2.988        C  600 1.012    H  686 0.961    H  606 0.921
   600  C   3.985        N  599 1.012    C  603 0.968    H  607 0.964    C  601 0.935
   601  C   3.938        O  602 1.618    N  615 1.305    C  600 0.935
   602  O   1.931        C  601 1.618    N  615 0.193
   603  C   3.993        C  605 1.009    C  604 1.008    C  600 0.968    H  608 0.962
   604  C   3.996        C  603 1.008    H  611 0.987    H  609 0.985    H  610 0.985
   605  C   3.994        C  603 1.009    H  613 0.986    H  612 0.984    H  614 0.975
   606  H   0.967        N  599 0.921
   607  H   0.999        C  600 0.964
   608  H   0.998        C  603 0.962
   609  H   0.997        C  604 0.985
   610  H   0.999        C  604 0.985
   611  H   0.999        C  604 0.987
   612  H   0.997        C  605 0.984
   613  H   0.999        C  605 0.986
   614  H   0.997        C  605 0.975
   615  N   3.473        C  601 1.305    C  616 0.982    H  626 0.897    O  602 0.193
   616  C   3.969        N  615 0.982    C  617 0.969    C  619 0.953    H  627 0.952
   617  C   3.895        O  618 1.890    C  616 0.969    H  687 0.954
   618  O   2.032        C  617 1.890
   619  C   3.983        C  620 1.007    H  629 0.970    H  628 0.957    C  616 0.953
   620  C   3.987        C  622 1.418    C  621 1.406    C  619 1.007    C  625 0.110
   621  C   3.989        C  623 1.450    C  620 1.406    H  630 0.963    C  624 0.112
   622  C   3.991        C  624 1.440    C  620 1.418    H  631 0.968    C  623 0.110
   623  C   3.991        C  621 1.450    C  625 1.433    H  632 0.967    C  622 0.110
   624  C   3.992        C  625 1.442    C  622 1.440    H  633 0.970    C  621 0.112
   625  C   3.989        C  624 1.442    C  623 1.433    H  634 0.971    C  620 0.110
   626  H   0.947        N  615 0.897
   627  H   0.995        C  616 0.952
   628  H   0.994        C  619 0.957
   629  H   0.996        C  619 0.970
   630  H   0.998        C  621 0.963
   631  H   0.999        C  622 0.968
   632  H   0.998        C  623 0.967
   633  H   0.998        C  624 0.970
   634  H   0.998        C  625 0.971
   635  N   3.003        C  636 1.016    H  688 0.954    H  645 0.953
   636  C   3.984        N  635 1.016    C  637 0.973    H  646 0.957    C  639 0.944
   637  C   3.898        O  638 1.901    C  636 0.973    H  689 0.954
   638  O   2.040        C  637 1.901
   639  C   3.990        C  640 1.019    H  647 0.964    H  648 0.960    C  636 0.944
   640  C   3.938        C  642 1.537    N  641 1.194    C  639 1.019    C  643 0.112
   641  N   3.590        C  643 1.265    C  640 1.194    H  649 0.934    N  644 0.101
   642  C   3.965        C  640 1.537    N  644 1.299    H  650 0.959
   643  C   3.956        N  644 1.549    N  641 1.265    H  651 0.966    C  640 0.112
   644  N   3.023        C  643 1.549    C  642 1.299    N  641 0.101
   645  H   0.975        N  635 0.953
   646  H   0.996        C  636 0.957
   647  H   0.997        C  639 0.964
   648  H   0.993        C  639 0.960
   649  H   0.966        N  641 0.934
   650  H   0.997        C  642 0.959
   651  H   0.999        C  643 0.966
   652  N   3.006        C  653 1.016    H  690 0.953    H  663 0.942
   653  C   3.985        N  652 1.016    C  654 0.972    H  664 0.961    C  656 0.947
   654  C   3.881        O  655 1.884    C  653 0.972    H  691 0.953
   655  O   2.018        C  654 1.884
   656  C   3.990        C  657 1.008    H  666 0.971    H  665 0.960    C  653 0.947
   657  C   3.987        C  659 1.413    C  658 1.407    C  656 1.008    C  662 0.109
   658  C   3.988        C  660 1.444    C  657 1.407    H  667 0.962    C  661 0.110
   659  C   3.992        C  661 1.444    C  657 1.413    H  668 0.969    C  660 0.111
   660  C   3.988        C  658 1.444    C  662 1.436    H  669 0.966    C  659 0.111
   661  C   3.992        C  659 1.444    C  662 1.440    H  670 0.972    C  658 0.110
   662  C   3.988        C  661 1.440    C  660 1.436    H  671 0.971    C  657 0.109
   663  H   0.967        N  652 0.942
   664  H   0.998        C  653 0.961
   665  H   0.995        C  656 0.960
   666  H   0.998        C  656 0.971
   667  H   0.997        C  658 0.962
   668  H   1.000        C  659 0.969
   669  H   0.995        C  660 0.966
   670  H   0.999        C  661 0.972
   671  H   0.998        C  662 0.971
   672  H   0.967        N    1 0.956
   673  H   0.997        C  288 0.957
   674  H   0.968        N  302 0.956
   675  H   0.992        C  323 0.952
   676  H   0.973        N  338 0.960
   677  H   0.995        C  360 0.953
   678  H   0.968        N  382 0.958
   679  H   0.994        C  394 0.953
   680  H   0.970        N  413 0.954
   681  H   0.995        C  415 0.954
   682  H   0.968        N  432 0.957
   683  H   0.993        C  451 0.952
   684  H   0.966        N  459 0.954
   685  H   0.996        C  590 0.955
   686  H   0.972        N  599 0.961
   687  H   0.995        C  617 0.954
   688  H   0.965        N  635 0.954
   689  H   0.995        C  637 0.954
   690  H   0.964        N  652 0.953
   691  H   0.994        C  654 0.953
 
molecular dipole:
                 x           y           z       tot (Debye)
 q only:       66.093      19.518      52.821
   full:       69.347      16.451      50.104     221.444
molecular quadrupole (traceless):
                xx          xy          yy          xz          yz          zz
 q only:     3548.276    3318.163   -5525.944    4979.954     748.378    1977.669
  q+dip:     4244.311    3416.187   -6008.933    5049.259     260.493    1764.622
   full:     4244.612    3421.188   -6006.092    5049.738     252.818    1761.480


           -------------------------------------------------
          | TOTAL ENERGY            -1020.016012572594 Eh   |
          | GRADIENT NORM               0.701867293327 Eh/α |
          | HOMO-LUMO GAP               1.372190909787 eV   |
           -------------------------------------------------

------------------------------------------------------------------------
 * finished run on 2019/05/31 at 07:37:01.742     
------------------------------------------------------------------------
 total:
 * wall-time:     0 d,  0 h,  1 min,  3.996 sec
 *  cpu-time:     0 d,  0 h,  0 min, 33.528 sec
 * ratio c/w:     0.524 speedup
 SCF:
 * wall-time:     0 d,  0 h,  1 min,  2.290 sec
 *  cpu-time:     0 d,  0 h,  0 min, 32.514 sec
 * ratio c/w:     0.522 speedup

