      -----------------------------------------------------------      
     |                   =====================                   |     
     |                           x T B                           |     
     |                   =====================                   |     
     |                         S. Grimme                         |     
     |          Mulliken Center for Theoretical Chemistry        |     
     |                    University of Bonn                     |     
     |                Version 6.1 RC1 (SAW190329)                |     
      -----------------------------------------------------------      

   This program is distributed in the hope that it will be useful,
   but WITHOUT ANY WARRANTY; without even the implied warranty of
   MERCHANTABILITY or FITNESS FOR A PARTICULAR PURPOSE.
   
   FOR NON-COMMERCIAL, ACADEMIA USE ONLY.
   
   Cite this work as:
   S. Grimme, C. Bannwarth, P. Shushkov, J. Comput. Theory Chem., 2017,
   13, 1989-2009. DOI: 10.1021/acs.jctc.7b00118
   C. Bannwarth, S. Ehlert and S. Grimme., J. Comput. Theory Chem., 2019,
   just accepted. DOI: 10.1021/acs.jctc.8b01176
   
   for sTDA-xTB:
   S. Grimme and C. Bannwarth, J. Chem. Phys., 2016, 145, 054103.
   DOI: 10.1063/1.4959605
   
   in the mass-spec context:
   V. Asgeirsson, C. Bauer and S. Grimme, Chem. Sci., 2017, 8, 4879.
   DOI: 10.1039/c7sc00601b
   
   for metadynamics refer to:
   S. Grimme, ChemRxiv, Preprint. DOI: 10.26434/chemrxiv.7660532.v1
   
   with help from (in alphabetical order)
   C. Bannwarth, F. Bohle, G. Brandenburg, E. Caldeweyher, M. Checinski,
   S. Dohm, S. Ehlert, S. Ehrlich, F. März, H. Neugebauer, J. Pisarek,
   P. Pracht, P. Shushkov, and S. Spicher.
   
 * started run on 2019/05/31 at 06:33:47.540     

           -------------------------------------------------
          |                Calculation Setup                |
           -------------------------------------------------

          program call               : /home/lum/qr/xtb-190329/bin/xtb xtb_tmp.xyz --chrg -1 --grad --gfn 2 --etemp 500 --acc 0.1 --gbsa h2o --parallel 2
          hostname                   : cu39
          coordinate file            : xtb_tmp.xyz
          omp threads                :                     2
          number of atoms            :                   148
          number of electrons        :                   426
          charge                     :                    -1
          spin                       :                   0.0
          first test random number   :      0.33026606872334


molecular fragmentation (1/2 indicates fragments):
111111111111111111111111111111111111111111111111111111111111111111111111
111111111111111111111122222222222222222222222222222222222222222222222222
1122
# atoms in fragment 1/2:    96    52
 fragment masses (1/2) :      671.75      416.41
CMA distance (Bohr)    :  18.911
constraining FC (au)   :  0.0500

########################################################################
# WARNING! Please study the warnings concerning your input carefully
#  - XTBPATH is not set, using XTBHOME instead
#  - Process number higher than OMP_NUM_THREADS, I hope you know what you are doing.
########################################################################

           ------------------------------------------------- 
          |                 G F N 2 - x T B                 |
          | Geometry, Frequencies, Noncovalent interactions |
          |            JCTC 2018 parametrisation            |
           ------------------------------------------------- 
 
             k(s)              :                1.8500
             k(p)              :                2.2300
             k(d)              :                2.2300
             k(f)              :                2.0000
             kEN (H0ij)        :               -2.0000
             D4 a1             :                0.5200
             D4 a2             :                5.0000
             D4 s6             :                1.0000
             D4 s8             :                2.7000
             D4 s9             :                5.0000
             alphaj            :                2.0000

  Z AO/shell   Hii/eV     exponent
  1     Wed Apr 25 08:07:45 CEST 2018   EN: 2.200 GM2: 0.406  GM3: 0.0800  RAES: 1.40
     1s    -10.707211    1.230000
  6     Wed Apr 25 08:07:45 CEST 2018   EN: 2.550 GM2: 0.538  GM3: 0.1500  RAES: 3.00
     2s    -13.970922    2.096432
     2p    -10.063292    1.800000
  7     Wed Apr 25 08:07:45 CEST 2018   EN: 3.040 GM2: 0.461  GM3:-0.0640  RAES: 1.90
     2s    -16.686243    2.339881
     2p    -12.523956    2.014332
  8     Wed Apr 25 08:07:45 CEST 2018   EN: 3.440 GM2: 0.452  GM3:-0.0517  RAES: 1.80
     2s    -20.229985    2.439742
     2p    -15.503117    2.137023

 Solvent             : h2o
 Using internal parameter file: .param_gbsa2_h2o
 Gsolv ref. state (COSMO-RS): gsolv [1 M gas/solution]
 temperature (mdtemp)       :    298.150000000000     
 dielectric constant        :    80.2000000000000     
 rho                        :    1.00000000000000     
 mass                       :    18.0000000000000     
 surface tension            :    15.5689454083859     
 probe radius               :   0.975313790000000     
 vdW radii scaling          :    1.00000000000000     
 Gshift (Eh)                :   1.857443126794793E-003
 c1                         :    1.55243817000000     
 soset                      :   0.130326360000000     
 HB correction              :  T
 Number of grid points      :          230

            Z     q(EN)     CN     RAES       Cart. coordinates
     1  N   5.0   -0.71    3.00    1.93   104.08785    97.11024    90.85087
     2  C   4.0    0.07    3.98    3.59   105.14505    98.62881    88.84483
     3  C   4.0    0.27    3.02    3.02   106.23013   100.99274    90.10385
     4  O   6.0   -0.43    1.00    1.80   105.19488   101.97146    91.92252
     5  C   4.0   -0.09    3.98    3.59   103.11624    99.48702    86.90929
     6  C   4.0   -0.17    3.98    3.59   101.82257    97.19397    85.69456
     7  C   4.0   -0.23    3.98    3.59   104.30143   101.17515    84.88682
     8  C   4.0   -0.24    3.98    3.58    99.36512    97.91026    84.37006
     9  H   1.0    0.29    1.00    1.43   103.25845    98.13834    92.23412
    10  H   1.0    0.11    0.99    1.43   106.59194    97.50097    87.89121
    11  H   1.0    0.12    0.99    1.43   101.70602   100.58312    87.96016
    12  H   1.0    0.10    0.99    1.43   103.12155    96.32938    84.34480
    13  H   1.0    0.09    0.99    1.43   101.39766    95.80293    87.15646
    14  H   1.0    0.10    0.99    1.43   102.90832   101.62005    83.44649
    15  H   1.0    0.12    0.99    1.43   104.94642   102.95726    85.68126
    16  H   1.0    0.10    0.99    1.43   105.88393   100.22246    83.98447
    17  H   1.0    0.09    0.99    1.43    98.43315    96.23568    83.63397
    18  H   1.0    0.10    0.99    1.43    98.09935    98.85516    85.68968
    19  H   1.0    0.09    0.99    1.43    99.70480    99.19159    82.80132
    20  N   5.0   -0.49    3.01    1.93   108.34625   101.90703    89.05806
    21  C   4.0    0.07    3.99    3.60   109.18100   104.48344    89.41963
    22  C   4.0    0.25    3.01    3.02   110.93713   105.08218    87.20814
    23  O   6.0   -0.45    1.00    1.80   112.00724   103.40626    86.03284
    24  C   4.0   -0.13    3.98    3.58   110.48074   104.93628    91.98859
    25  C   4.0   -0.15    3.98    3.58   113.17669   103.88288    92.22626
    26  C   4.0   -0.16    3.98    3.58   114.96931   105.83581    93.39713
    27  C   4.0   -0.04    3.98    3.58   115.58952   107.90983    91.48591
    28  N   5.0   -0.73    3.98    2.81   116.56174   110.24271    92.70227
    29  H   1.0    0.25    1.00    1.43   109.20429   101.00241    87.60566
    30  H   1.0    0.12    0.99    1.43   107.50963   105.71437    89.35688
    31  H   1.0    0.10    0.99    1.43   110.47295   106.97126    92.30399
    32  H   1.0    0.13    0.99    1.43   109.25299   104.09283    93.41182
    33  H   1.0    0.11    0.99    1.43   113.15313   102.19182    93.39970
    34  H   1.0    0.13    0.99    1.43   113.89026   103.32911    90.37569
    35  H   1.0    0.10    0.99    1.43   114.05284   106.64083    95.05931
    36  H   1.0    0.10    0.99    1.43   116.69565   104.89371    94.00103
    37  H   1.0    0.12    0.99    1.43   116.99695   107.23673    90.14230
    38  H   1.0    0.14    0.99    1.43   113.89518   108.42305    90.43417
    39  H   1.0    0.32    0.99    1.43   116.61466   111.71409    91.38335
    40  H   1.0    0.25    1.00    1.43   115.38149   110.80449    94.13847
    41  H   1.0    0.25    1.00    1.43   118.36182   110.00155    93.42954
    42  N   5.0   -0.50    3.01    1.93   111.31370   107.54087    86.77286
    43  C   4.0    0.07    3.99    3.61   113.05775   108.45969    84.87546
    44  C   4.0    0.29    3.02    3.02   113.45729   111.26836    85.42226
    45  O   6.0   -0.37    1.00    1.80   111.88465   112.51345    86.56434
    46  C   4.0   -0.13    3.98    3.59   112.08453   108.03806    82.16752
    47  C   4.0   -0.10    3.97    3.58   109.56633   109.32773    81.64752
    48  C   4.0    0.33    2.99    3.02   109.76334   112.26251    81.39059
    49  O   6.0   -0.38    1.00    1.80   107.77158   113.46937    81.76594
    50  O   6.0   -0.40    1.00    1.80   111.85517   113.15687    80.77380
    51  H   1.0    0.26    1.00    1.43   110.20571   108.90662    87.52994
    52  H   1.0    0.12    0.99    1.43   114.83421   107.41329    85.08868
    53  H   1.0    0.12    0.99    1.43   113.46661   108.78166    80.82907
    54  H   1.0    0.12    0.99    1.43   111.90587   106.00264    81.88171
    55  H   1.0    0.10    0.99    1.43   108.80821   108.66283    79.84342
    56  H   1.0    0.13    0.99    1.43   108.16079   108.90817    83.09705
    57  N   5.0   -0.47    3.01    1.93   115.74946   112.14006    84.76898
    58  C   4.0    0.03    4.00    3.61   116.28900   114.81631    84.89492
    59  C   4.0    0.29    3.01    3.02   116.35860   115.68722    87.64298
    60  O   6.0   -0.43    1.00    1.80   116.38930   114.21658    89.41888
    61  H   1.0    0.22    1.00    1.43   116.86253   111.06002    83.66412
    62  H   1.0    0.10    0.99    1.43   118.11623   115.17063    84.01450
    63  H   1.0    0.14    0.99    1.43   114.82253   115.85513    83.86504
    64  N   5.0   -0.51    3.01    1.93   116.42673   118.20184    87.97328
    65  C   4.0    0.08    4.00    3.61   116.55365   119.32492    90.48058
    66  C   4.0    0.27    3.01    3.02   115.42631   122.00537    90.42054
    67  O   6.0   -0.39    1.00    1.80   116.61233   123.85856    91.07267
    68  C   4.0   -0.09    3.99    3.60   119.24840   119.42884    91.52910
    69  C   4.0    0.28    3.00    3.02   119.15001   119.70025    94.39465
    70  O   6.0   -0.39    1.00    1.80   117.41361   118.84636    95.65483
    71  N   5.0   -0.65    3.00    1.93   121.15489   120.85204    95.41810
    72  H   1.0    0.23    1.00    1.43   116.55382   119.35956    86.46288
    73  H   1.0    0.16    0.99    1.43   115.43459   118.14087    91.76670
    74  H   1.0    0.12    0.99    1.43   120.21291   117.65736    91.09892
    75  H   1.0    0.12    0.99    1.43   120.26662   121.01684    90.70687
    76  H   1.0    0.29    1.00    1.43   121.23598   121.07777    97.30804
    77  H   1.0    0.26    1.00    1.43   122.50140   121.65484    94.34635
    78  N   5.0   -0.49    3.01    1.93   113.05084   122.04465    89.51402
    79  C   4.0    0.08    3.98    3.59   111.73688   124.36933    88.87734
    80  C   4.0    0.06    3.00    3.02   108.85560   124.09897    88.88251
    81  O   6.0   -0.40    1.00    1.80   107.50199   125.70669    89.84328
    82  C   4.0   -0.13    3.98    3.59   112.67786   125.29846    86.27415
    83  C   4.0   -0.12    3.98    3.59   111.42726   127.74830    85.41665
    84  C   4.0    0.28    3.00    3.02   112.47289   130.05775    86.77588
    85  O   6.0   -0.38    1.00    1.80   114.17494   129.98481    88.32945
    86  N   5.0   -0.66    3.00    1.93   111.38003   132.23476    86.05231
    87  H   1.0    0.25    1.00    1.43   112.23044   120.35938    89.16034
    88  H   1.0    0.18    0.99    1.43   112.23319   125.79999    90.29342
    89  H   1.0    0.15    0.99    1.43   114.70377   125.63653    86.47501
    90  H   1.0    0.11    0.99    1.43   112.37954   123.82156    84.86462
    91  H   1.0    0.10    0.99    1.43   111.74452   128.01367    83.39646
    92  H   1.0    0.13    0.99    1.43   109.39686   127.67541    85.76044
    93  H   1.0    0.25    1.00    1.43   109.92863   132.25803    84.82654
    94  H   1.0    0.28    1.00    1.43   111.89004   133.85706    86.89977
    95  N   5.0   -0.69    3.00    1.93   120.19821   109.37558   103.04803
    96  C   4.0    0.08    3.99    3.60   121.75741   109.73896   100.82774
    97  C   4.0    0.30    3.01    3.02   123.66464   111.84216   101.33834
    98  O   6.0   -0.39    1.00    1.80   123.10466   113.68457   102.62043
    99  C   4.0   -0.14    3.99    3.60   120.03206   110.46228    98.59871
   100  C   4.0   -0.04    3.03    3.02   121.53600   110.98157    96.24185
   101  C   4.0   -0.12    3.03    3.02   122.30479   109.00439    94.67448
   102  C   4.0   -0.06    3.03    3.02   122.22667   113.43675    95.60823
   103  C   4.0   -0.07    3.02    3.02   123.70601   109.46423    92.51856
   104  C   4.0   -0.06    3.02    3.02   123.62317   113.92012    93.45440
   105  C   4.0    0.12    3.03    3.02   124.37045   111.93657    91.89853
   106  O   6.0   -0.45    1.99    1.83   125.70301   112.31779    89.74372
   107  H   1.0    0.28    1.00    1.43   119.37821   110.97173   103.72149
   108  H   1.0    0.12    0.99    1.43   122.76417   107.97714   100.44012
   109  H   1.0    0.09    0.99    1.43   118.73139   108.88683    98.32190
   110  H   1.0    0.12    0.99    1.43   118.97694   112.14140    99.16515
   111  H   1.0    0.11    1.00    1.43   121.85319   107.08153    95.18634
   112  H   1.0    0.15    1.00    1.43   121.67015   114.98030    96.81847
   113  H   1.0    0.13    1.00    1.43   124.32507   107.92484    91.33216
   114  H   1.0    0.13    0.99    1.43   124.19946   115.82760    93.00987
   115  H   1.0    0.26    0.99    1.43   126.08651   114.08970    89.50757
   116  N   5.0   -0.46    3.01    1.93   125.85605   111.56225   100.12045
   117  C   4.0    0.08    4.00    3.62   128.00106   113.13015   100.71507
   118  C   4.0    0.27    3.01    3.02   128.78935   114.65051    98.40564
   119  O   6.0   -0.38    1.00    1.80   128.65398   113.80861    96.25147
   120  C   4.0   -0.10    3.98    3.59   130.24480   111.49344   101.50270
   121  C   4.0    0.32    2.99    3.02   129.45305   109.37239   103.44051
   122  O   6.0   -0.36    1.00    1.80   127.82035   109.92042   105.03453
   123  O   6.0   -0.39    1.00    1.80   130.60525   107.33865   103.18387
   124  H   1.0    0.25    1.00    1.43   126.25559   109.89979    99.25040
   125  H   1.0    0.15    0.99    1.43   127.44238   114.36784   102.27591
   126  H   1.0    0.13    0.99    1.43   131.03765   110.53131    99.85958
   127  H   1.0    0.11    0.99    1.43   131.70426   112.64466   102.39434
   128  N   5.0   -0.49    3.01    1.93   129.85323   116.86969    98.97470
   129  C   4.0    0.08    3.98    3.59   130.81018   118.64887    97.12628
   130  C   4.0    0.09    3.00    3.02   132.09088   117.33761    94.88089
   131  O   6.0   -0.40    1.00    1.80   131.83098   118.09986    92.72506
   132  C   4.0   -0.13    3.99    3.60   132.75689   120.40544    98.38389
   133  C   4.0    0.11    3.33    3.06   132.00805   121.31224   100.96090
   134  N   5.0   -0.40    2.10    1.90   129.58162   121.27693   101.85692
   135  C   4.0    0.02    3.23    3.04   133.56969   122.29662   102.77487
   136  C   4.0    0.17    3.40    3.08   129.68353   122.23961   104.13103
   137  N   5.0   -0.48    3.13    1.94   132.05837   122.89452   104.77785
   138  H   1.0    0.27    1.00    1.43   129.49048   117.69006   100.67344
   139  H   1.0    0.14    0.99    1.43   129.25331   119.78798    96.37569
   140  H   1.0    0.10    0.99    1.43   134.56436   119.42722    98.55613
   141  H   1.0    0.11    0.99    1.43   133.03923   122.02405    97.13362
   142  H   1.0    0.10    1.00    1.43   135.56602   122.60203   102.79071
   143  H   1.0    0.11    1.00    1.43   128.08991   122.47687   105.35502
   144  H   1.0    0.22    1.00    1.43   132.62591   123.66331   106.42570
   145  H   1.0    0.28    1.00    1.43   102.90312    96.07067    90.21191
   146  H   1.0    0.13    1.00    1.43   108.04714   122.58591    88.08999
   147  H   1.0    0.29    1.00    1.43   118.93845   108.29186   102.68592
   148  H   1.0    0.14    1.00    1.43   133.17283   115.81501    95.16748

           ------------------------------------------------- 
          |        Self-Consistent Charge Iterations        |
           ------------------------------------------------- 

          ...................................................
          :                      SETUP                      :
          :.................................................:
          :  # basis functions                 379          :
          :  # atomic orbitals                 379          :
          :  # shells                          225          :
          :  # electrons                       426          :
          :  max. iterations                   250          :
          :  Hamiltonian                  GFN2-xTB          :
          :  restarted?                      false          :
          :  GBSA solvation                   true          :
          :  PC potential                    false          :
          :  electronic temp.          500.0000000     K    :
          :  accuracy                    0.1000000          :
          :  -> integral cutoff          0.3500000E+02      :
          :  -> integral neglect         0.1000000E-08      :
          :  -> SCF convergence          0.1000000E-06 Eh   :
          :  -> wf. convergence          0.1000000E-04 e    :
          :  Broyden damping             0.4000000          :
          ...................................................

 iter      E             dE          RMSdq      gap      omega  full diag
   1   -245.4158573 -0.245416E+03  0.455E+00    2.20       0.0  T
   2   -246.1720818 -0.756224E+00  0.231E+00    1.53       1.0  T
   3   -246.1977258 -0.256441E-01  0.126E+00    1.99       1.0  T
   4   -246.2044468 -0.672097E-02  0.354E-01    1.21       1.0  T
   5   -246.2145220 -0.100752E-01  0.130E-01    1.37       1.0  T
   6   -246.2148159 -0.293900E-03  0.688E-02    1.44       1.0  T
   7   -246.2149542 -0.138357E-03  0.277E-02    1.47       1.0  T
   8   -246.2149830 -0.287351E-04  0.882E-03    1.49       1.0  T
   9   -246.2149848 -0.188221E-05  0.471E-03    1.49       1.7  T
  10   -246.2149854 -0.601209E-06  0.174E-03    1.49       4.7  T
  11   -246.2149855 -0.906739E-07  0.675E-04    1.49      12.2  T
  12   -246.2149855 -0.222257E-07  0.267E-04    1.49      30.7  T
  13   -246.2149856 -0.165440E-08  0.115E-04    1.49      71.6  T
  14   -246.2149856 -0.312127E-09  0.497E-05    1.49     165.5  T
  15   -246.2149856 -0.773070E-10  0.231E-05    1.49     355.8  T

   *** convergence criteria satisfied after 15 iterations ***

         #    Occupation            Energy/Eh            Energy/eV
      -------------------------------------------------------------
         1        2.0000           -0.7402714             -20.1438
       ...           ...                  ...                  ...
       207        2.0000           -0.3844424             -10.4612
       208        2.0000           -0.3788190             -10.3082
       209        2.0000           -0.3748262             -10.1995
       210        2.0000           -0.3651295              -9.9357
       211        2.0000           -0.3596133              -9.7856
       212        2.0000           -0.3572455              -9.7211
       213        2.0000           -0.3549096              -9.6576 (HOMO)
       214                         -0.3000853              -8.1657 (LUMO)
       215                         -0.2836978              -7.7198
       216                         -0.2367940              -6.4435
       217                         -0.2325149              -6.3271
       218                         -0.2317908              -6.3073
       ...                                ...                  ...
       379                          0.6556054              17.8399
      -------------------------------------------------------------
                  HL-Gap            0.0548243 Eh            1.4918 eV
             Fermi-level           -0.3273011 Eh           -8.9063 eV

 SCC (total)                   0 d,  0 h,  0 min,  1.236 sec
 SCC setup                      ...        0 min,  0.018 sec (  1.473%)
 Dispersion                     ...        0 min,  0.008 sec (  0.644%)
 integral evaluation            ...        0 min,  0.049 sec (  3.992%)
 zeroth order Hamiltonian       ...        0 min,  0.002 sec (  0.171%)
 iterations                     ...        0 min,  0.975 sec ( 78.932%)
 molecular gradient             ...        0 min,  0.178 sec ( 14.396%)
 printout                       ...        0 min,  0.005 sec (  0.385%)

         :::::::::::::::::::::::::::::::::::::::::::::::::::::
         ::                     SUMMARY                     ::
         :::::::::::::::::::::::::::::::::::::::::::::::::::::
         :: total energy             -243.321924914122 Eh   ::
         :: total w/o Gsasa/hb       -243.283498676844 Eh   ::
         :: gradient norm               0.314750187585 Eh/α ::
         :: HOMO-LUMO gap               1.491844282457 eV   ::
         ::.................................................::
         :: SCC energy               -246.220296365030 Eh   ::
         :: -> isotropic ES             0.958720588554 Eh   ::
         :: -> anisotropic ES          -0.018605236240 Eh   ::
         :: -> anisotropic XC           0.072688808624 Eh   ::
         :: -> dispersion              -0.168554765864 Eh   ::
         :: -> Gsolv                   -0.269553738649 Eh   ::
         ::    -> Gborn                -0.231127501371 Eh   ::
         ::    -> Gsasa                -0.007168257681 Eh   ::
         ::    -> Ghb                  -0.033115422724 Eh   ::
         ::    -> Gshift                0.001857443127 Eh   ::
         :: repulsion energy            2.893001966528 Eh   ::
         :: add. restraining            0.000000000000 Eh   ::
         :::::::::::::::::::::::::::::::::::::::::::::::::::::

           -------------------------------------------------
          |                Property Printout                |
           -------------------------------------------------

    * Orbital Energies and Occupations

         #    Occupation            Energy/Eh            Energy/eV
      -------------------------------------------------------------
         1        2.0000           -0.7402714             -20.1438
       ...           ...                  ...                  ...
       201        2.0000           -0.3966948             -10.7946
       202        2.0000           -0.3960482             -10.7770
       203        2.0000           -0.3942437             -10.7279
       204        2.0000           -0.3910658             -10.6414
       205        2.0000           -0.3903945             -10.6232
       206        2.0000           -0.3897894             -10.6067
       207        2.0000           -0.3844424             -10.4612
       208        2.0000           -0.3788190             -10.3082
       209        2.0000           -0.3748262             -10.1995
       210        2.0000           -0.3651295              -9.9357
       211        2.0000           -0.3596133              -9.7856
       212        2.0000           -0.3572455              -9.7211
       213        2.0000           -0.3549096              -9.6576 (HOMO)
       214                         -0.3000853              -8.1657 (LUMO)
       215                         -0.2836978              -7.7198
       216                         -0.2367940              -6.4435
       217                         -0.2325149              -6.3271
       218                         -0.2317908              -6.3073
       219                         -0.2294994              -6.2450
       220                         -0.2239387              -6.0937
       221                         -0.2236890              -6.0869
       222                         -0.2204451              -5.9986
       223                         -0.2161702              -5.8823
       224                         -0.2122613              -5.7759
       ...                                ...                  ...
       379                          0.6556054              17.8399
      -------------------------------------------------------------
                  HL-Gap            0.0548243 Eh            1.4918 eV
             Fermi-level           -0.3273011 Eh           -8.9063 eV

   #   Z        covCN         q      C6AA      α(0)
   1   7 N      2.640    -0.394    30.207     8.163
   2   6 C      3.788     0.024    20.184     6.399
   3   6 C      2.762     0.277    22.310     7.735
   4   8 O      0.859    -0.490    23.563     6.508
   5   6 C      3.853    -0.022    20.937     6.508
   6   6 C      3.803    -0.060    21.644     6.623
   7   6 C      3.755    -0.111    22.673     6.790
   8   6 C      3.752    -0.108    22.623     6.783
   9   1 H      0.860     0.163     1.319     1.799
  10   1 H      0.924     0.039     2.461     2.453
  11   1 H      0.924     0.029     2.606     2.524
  12   1 H      0.924     0.041     2.431     2.438
  13   1 H      0.924     0.037     2.490     2.468
  14   1 H      0.925     0.049     2.331     2.388
  15   1 H      0.925     0.018     2.764     2.600
  16   1 H      0.925     0.040     2.450     2.448
  17   1 H      0.925     0.045     2.383     2.414
  18   1 H      0.925     0.036     2.500     2.473
  19   1 H      0.925     0.036     2.498     2.472
  20   7 N      2.694    -0.182    24.932     7.416
  21   6 C      3.794     0.023    20.199     6.400
  22   6 C      2.760     0.273    22.389     7.749
  23   8 O      0.859    -0.471    23.144     6.450
  24   6 C      3.802    -0.083    22.087     6.691
  25   6 C      3.801    -0.076    21.956     6.671
  26   6 C      3.801    -0.092    22.246     6.715
  27   6 C      3.732    -0.043    21.434     6.608
  28   7 N      3.481    -0.152    24.283     7.319
  29   1 H      0.860     0.207     1.070     1.620
  30   1 H      0.923     0.046     2.376     2.411
  31   1 H      0.925     0.066     2.135     2.285
  32   1 H      0.925     0.078     2.002     2.213
  33   1 H      0.925     0.067     2.121     2.278
  34   1 H      0.925     0.056     2.241     2.341
  35   1 H      0.924     0.078     2.001     2.212
  36   1 H      0.925     0.081     1.971     2.195
  37   1 H      0.925     0.108     1.716     2.049
  38   1 H      0.925     0.091     1.871     2.139
  39   1 H      0.858     0.301     0.711     1.321
  40   1 H      0.859     0.280     0.776     1.380
  41   1 H      0.858     0.258     0.852     1.446
  42   7 N      2.694    -0.169    24.657     7.375
  43   6 C      3.796     0.014    20.337     6.422
  44   6 C      2.763     0.286    22.149     7.707
  45   8 O      0.858    -0.483    23.421     6.488
  46   6 C      3.803    -0.057    21.601     6.617
  47   6 C      3.797    -0.089    22.198     6.709
  48   6 C      2.683     0.373    20.680     7.442
  49   8 O      0.856    -0.660    27.648     7.050
  50   8 O      0.856    -0.639    27.099     6.979
  51   1 H      0.860     0.204     1.085     1.631
  52   1 H      0.924     0.079     1.992     2.207
  53   1 H      0.924     0.051     2.304     2.374
  54   1 H      0.924     0.057     2.235     2.338
  55   1 H      0.924     0.018     2.762     2.599
  56   1 H      0.924     0.014     2.824     2.628
  57   7 N      2.689    -0.162    24.500     7.351
  58   6 C      3.749    -0.032    21.201     6.567
  59   6 C      2.753     0.282    22.232     7.721
  60   8 O      0.859    -0.449    22.681     6.385
  61   1 H      0.860     0.218     1.020     1.582
  62   1 H      0.925     0.107     1.725     2.054
  63   1 H      0.924     0.083     1.946     2.182
  64   7 N      2.689    -0.175    24.792     7.395
  65   6 C      3.799     0.012    20.382     6.428
  66   6 C      2.753     0.274    22.372     7.745
  67   8 O      0.858    -0.452    22.740     6.393
  68   6 C      3.809    -0.107    22.529     6.756
  69   6 C      2.745     0.294    22.007     7.681
  70   8 O      0.859    -0.498    23.732     6.531
  71   7 N      2.639    -0.282    27.274     7.756
  72   1 H      0.860     0.207     1.071     1.621
  73   1 H      0.923     0.105     1.743     2.065
  74   1 H      0.924     0.092     1.860     2.133
  75   1 H      0.925     0.085     1.933     2.174
  76   1 H      0.860     0.229     0.971     1.544
  77   1 H      0.860     0.228     0.974     1.546
  78   7 N      2.690    -0.181    24.917     7.414
  79   6 C      3.788     0.024    20.187     6.399
  80   6 C      2.763     0.201    23.718     7.976
  81   8 O      0.856    -0.353    20.770     6.110
  82   6 C      3.805    -0.065    21.738     6.637
  83   6 C      3.807    -0.104    22.481     6.750
  84   6 C      2.743     0.291    22.061     7.690
  85   8 O      0.859    -0.493    23.635     6.518
  86   7 N      2.640    -0.297    27.650     7.810
  87   1 H      0.860     0.206     1.075     1.624
  88   1 H      0.924     0.101     1.774     2.083
  89   1 H      0.924     0.081     1.969     2.194
  90   1 H      0.924     0.061     2.183     2.311
  91   1 H      0.924     0.087     1.912     2.163
  92   1 H      0.924     0.066     2.126     2.280
  93   1 H      0.860     0.228     0.975     1.547
  94   1 H      0.860     0.231     0.960     1.535
  95   7 N      2.638    -0.400    30.372     8.185
  96   6 C      3.790     0.039    19.922     6.357
  97   6 C      2.761     0.287    22.131     7.704
  98   8 O      0.858    -0.491    23.589     6.512
  99   6 C      3.812    -0.088    22.167     6.702
 100   6 C      2.968    -0.022    28.549     8.764
 101   6 C      2.923    -0.061    29.513     8.909
 102   6 C      2.923    -0.039    28.960     8.825
 103   6 C      2.915    -0.064    29.580     8.919
 104   6 C      2.916    -0.066    29.649     8.929
 105   6 C      2.847     0.151    24.724     8.149
 106   8 O      1.660    -0.424    21.321     6.233
 107   1 H      0.860     0.164     1.310     1.793
 108   1 H      0.924     0.030     2.593     2.518
 109   1 H      0.924     0.069     2.092     2.262
 110   1 H      0.924     0.057     2.229     2.335
 111   1 H      0.926     0.061     2.184     2.311
 112   1 H      0.926     0.032     2.559     2.502
 113   1 H      0.926     0.064     2.148     2.292
 114   1 H      0.926     0.038     2.469     2.457
 115   1 H      0.805     0.345     0.599     1.216
 116   7 N      2.693    -0.175    24.782     7.394
 117   6 C      3.804     0.038    19.928     6.355
 118   6 C      2.758     0.268    22.474     7.763
 119   8 O      0.858    -0.483    23.406     6.487
 120   6 C      3.804    -0.099    22.380     6.735
 121   6 C      2.681     0.377    20.619     7.431
 122   8 O      0.856    -0.629    26.840     6.946
 123   8 O      0.856    -0.640    27.119     6.982
 124   1 H      0.860     0.184     1.192     1.710
 125   1 H      0.924     0.062     2.177     2.307
 126   1 H      0.924     0.028     2.611     2.527
 127   1 H      0.924     0.034     2.528     2.487
 128   7 N      2.691    -0.181    24.931     7.416
 129   6 C      3.788     0.031    20.065     6.380
 130   6 C      2.766     0.215    23.455     7.931
 131   8 O      0.856    -0.365    21.001     6.144
 132   6 C      3.809    -0.076    21.951     6.669
 133   6 C      3.185     0.054    26.344     8.376
 134   7 N      1.918    -0.306    28.775     7.953
 135   6 C      3.042    -0.030    28.705     8.787
 136   6 C      3.144     0.088    25.808     8.312
 137   7 N      2.809    -0.093    23.059     7.132
 138   1 H      0.860     0.219     1.014     1.577
 139   1 H      0.924     0.088     1.903     2.158
 140   1 H      0.924     0.065     2.143     2.289
 141   1 H      0.924     0.084     1.937     2.176
 142   1 H      0.927     0.058     2.226     2.333
 143   1 H      0.926     0.048     2.348     2.396
 144   1 H      0.860     0.216     1.029     1.589
 145   1 H      0.862     0.183     1.199     1.715
 146   1 H      0.930     0.082     1.956     2.187
 147   1 H      0.862     0.199     1.113     1.652
 148   1 H      0.930     0.067     2.121     2.277

 Mol. C6AA /au·bohr⁶  :     219551.365210
 Mol. C8AA /au·bohr⁸  :    4933318.931038
 Mol. α(0) /au        :        703.560754


Wiberg/Mayer (AO) data.
largest (>0.10) Wiberg bond orders for each atom
          total WBO             WBO to atom ...
     1  N   2.995        C    2 1.025    H    9 0.951    H  145 0.941
     2  C   3.986        N    1 1.025    H   10 0.958    C    3 0.947    C    5 0.946
     3  C   3.942        O    4 1.642    N   20 1.286    C    2 0.947
     4  O   1.957        C    3 1.642    N   20 0.189
     5  C   3.993        C    7 1.010    C    6 0.995    H   11 0.968    C    2 0.946
     6  C   3.996        C    8 1.019    C    5 0.995    H   12 0.977    H   13 0.964
     7  C   3.996        C    5 1.010    H   15 0.986    H   16 0.985    H   14 0.980
     8  C   3.995        C    6 1.019    H   18 0.987    H   17 0.986    H   19 0.984
     9  H   0.974        N    1 0.951
    10  H   0.998        C    2 0.958
    11  H   0.999        C    5 0.968
    12  H   0.998        C    6 0.977
    13  H   0.999        C    6 0.964
    14  H   0.998        C    7 0.980
    15  H   1.000        C    7 0.986
    16  H   0.998        C    7 0.985
    17  H   0.997        C    8 0.986
    18  H   0.999        C    8 0.987
    19  H   0.999        C    8 0.984
    20  N   3.453        C    3 1.286    C   21 0.986    H   29 0.912    O    4 0.189
    21  C   3.969        N   20 0.986    C   24 0.961    H   30 0.952    C   22 0.946
    22  C   3.949        O   23 1.638    N   42 1.294    C   21 0.946
    23  O   1.977        C   22 1.638    N   42 0.194
    24  C   3.982        C   25 1.005    H   32 0.970    H   31 0.969    C   21 0.961
    25  C   3.991        C   24 1.005    C   26 1.004    H   33 0.977    H   34 0.972
    26  C   3.985        C   27 1.008    C   25 1.004    H   36 0.973    H   35 0.969
    27  C   3.920        C   26 1.008    H   37 0.967    H   38 0.960    N   28 0.958
    28  N   3.656        C   27 0.958    H   40 0.904    H   41 0.883    H   39 0.835
    29  H   0.957        N   20 0.912
    30  H   0.998        C   21 0.952
    31  H   0.995        C   24 0.969
    32  H   0.994        C   24 0.970
    33  H   0.995        C   25 0.977
    34  H   0.997        C   25 0.972
    35  H   0.994        C   26 0.969
    36  H   0.993        C   26 0.973
    37  H   0.988        C   27 0.967
    38  H   0.992        C   27 0.960
    39  H   0.909        N   28 0.835
    40  H   0.921        N   28 0.904
    41  H   0.933        N   28 0.883
    42  N   3.471        C   22 1.294    C   43 0.985    H   51 0.914    O   23 0.194
    43  C   3.969        N   42 0.985    C   46 0.966    H   52 0.950    C   44 0.944
    44  C   3.947        O   45 1.649    N   57 1.283    C   43 0.944
    45  O   1.974        C   44 1.649    N   57 0.187
    46  C   3.992        C   47 1.014    H   54 0.971    H   53 0.970    C   43 0.966
    47  C   3.988        C   46 1.014    H   56 0.976    H   55 0.964    C   48 0.913
    48  C   3.932        O   49 1.499    O   50 1.495    C   47 0.913
    49  O   1.785        C   48 1.499    O   50 0.212
    50  O   1.795        C   48 1.495    O   49 0.212
    51  H   0.958        N   42 0.914
    52  H   0.994        C   43 0.950
    53  H   0.997        C   46 0.970
    54  H   0.996        C   46 0.971
    55  H   1.000        C   47 0.964
    56  H   1.000        C   47 0.976
    57  N   3.447        C   44 1.283    C   58 0.998    H   61 0.925    O   45 0.187
    58  C   3.966        N   57 0.998    C   59 0.958    H   62 0.950    H   63 0.948
    59  C   3.951        O   60 1.624    N   64 1.291    C   58 0.958
    60  O   2.012        C   59 1.624    N   64 0.188
    61  H   0.952        N   57 0.925
    62  H   0.988        C   58 0.950
    63  H   0.993        C   58 0.948
    64  N   3.461        C   59 1.291    C   65 0.975    H   72 0.928    O   60 0.188
    65  C   3.959        C   68 0.985    N   64 0.975    H   73 0.935    C   66 0.932
    66  C   3.951        O   67 1.680    N   78 1.273    C   65 0.932
    67  O   2.001        C   66 1.680    N   78 0.202
    68  C   3.990        C   65 0.985    H   75 0.965    C   69 0.963    H   74 0.947
    69  C   3.946        O   70 1.644    N   71 1.312    C   68 0.963
    70  O   1.951        C   69 1.644    N   71 0.199
    71  N   3.399        C   69 1.312    H   77 0.929    H   76 0.926    O   70 0.199
    72  H   0.957        N   64 0.928
    73  H   0.989        C   65 0.935
    74  H   0.991        C   68 0.947
    75  H   0.993        C   68 0.965
    76  H   0.947        N   71 0.926
    77  H   0.948        N   71 0.929
    78  N   3.453        C   66 1.273    C   79 0.978    H   87 0.926    O   67 0.202
    79  C   3.961        C   80 0.984    N   78 0.978    H   88 0.948    C   82 0.947
    80  C   3.901        O   81 1.908    C   79 0.984    H  146 0.951
    81  O   2.048        C   80 1.908
    82  C   3.987        C   83 1.011    H   90 0.975    H   89 0.966    C   79 0.947
    83  C   3.995        C   82 1.011    C   84 0.967    H   92 0.958    H   91 0.955
    84  C   3.945        O   85 1.657    N   86 1.294    C   83 0.967
    85  O   1.962        C   84 1.657    N   86 0.198
    86  N   3.380        C   84 1.294    H   93 0.930    H   94 0.926    O   85 0.198
    87  H   0.957        N   78 0.926
    88  H   0.990        C   79 0.948
    89  H   0.993        C   82 0.966
    90  H   0.996        C   82 0.975
    91  H   0.992        C   83 0.955
    92  H   0.996        C   83 0.958
    93  H   0.948        N   86 0.930
    94  H   0.946        N   86 0.926
    95  N   2.995        C   96 1.022    H  107 0.955    H  147 0.948
    96  C   3.985        N   95 1.022    H  108 0.961    C   99 0.946    C   97 0.946
    97  C   3.936        O   98 1.645    N  116 1.280    C   96 0.946
    98  O   1.951        C   97 1.645    N  116 0.186
    99  C   3.991        C  100 1.012    H  110 0.972    H  109 0.966    C   96 0.946
   100  C   3.986        C  102 1.400    C  101 1.383    C   99 1.012
   101  C   3.988        C  103 1.454    C  100 1.383    H  111 0.965    C  104 0.101
   102  C   3.991        C  104 1.456    C  100 1.400    H  112 0.969    C  103 0.106
   103  C   3.986        C  101 1.454    C  105 1.358    H  113 0.966    C  102 0.106
   104  C   3.988        C  102 1.456    C  105 1.366    H  114 0.964    C  101 0.101
   105  C   3.938        C  104 1.366    C  103 1.358    O  106 1.084
   106  O   2.106        C  105 1.084    H  115 0.860
   107  H   0.973        N   95 0.955
   108  H   0.999        C   96 0.961
   109  H   0.994        C   99 0.966
   110  H   0.996        C   99 0.972
   111  H   0.996        C  101 0.965
   112  H   0.999        C  102 0.969
   113  H   0.996        C  103 0.966
   114  H   0.998        C  104 0.964
   115  H   0.881        O  106 0.860
   116  N   3.453        C   97 1.280    C  117 0.984    H  124 0.932    O   98 0.186
   117  C   3.967        N  116 0.984    C  120 0.970    H  125 0.953    C  118 0.938
   118  C   3.953        O  119 1.624    N  128 1.300    C  117 0.938
   119  O   1.970        C  118 1.624    N  128 0.195
   120  C   3.981        H  126 0.978    C  117 0.970    H  127 0.967    C  121 0.888
   121  C   3.936        O  122 1.521    O  123 1.502    C  120 0.888
   122  O   1.822        C  121 1.521    O  123 0.222
   123  O   1.803        C  121 1.502    O  122 0.222
   124  H   0.966        N  116 0.932
   125  H   0.996        C  117 0.953
   126  H   0.999        C  120 0.978
   127  H   0.998        C  120 0.967
   128  N   3.453        C  118 1.300    C  129 0.977    H  138 0.888    O  119 0.195
   129  C   3.964        C  130 0.978    N  128 0.977    C  132 0.959    H  139 0.947
   130  C   3.906        O  131 1.888    C  129 0.978    H  148 0.954
   131  O   2.035        C  130 1.888
   132  C   3.987        C  133 1.008    H  140 0.967    C  129 0.959    H  141 0.957
   133  C   3.973        C  135 1.554    N  134 1.267    C  132 1.008
   134  N   3.029        C  136 1.527    C  133 1.267    N  137 0.102
   135  C   3.939        C  133 1.554    N  137 1.216    H  142 0.969    C  136 0.117
   136  C   3.960        N  134 1.527    N  137 1.286    H  143 0.964    C  135 0.117
   137  N   3.604        C  136 1.286    C  135 1.216    H  144 0.926    N  134 0.102
   138  H   0.952        N  128 0.888
   139  H   0.992        C  129 0.947
   140  H   0.996        C  132 0.967
   141  H   0.992        C  132 0.957
   142  H   0.997        C  135 0.969
   143  H   0.998        C  136 0.964
   144  H   0.953        N  137 0.926
   145  H   0.966        N    1 0.941
   146  H   0.993        C   80 0.951
   147  H   0.960        N   95 0.948
   148  H   0.996        C  130 0.954
 
molecular dipole:
                 x           y           z       tot (Debye)
 q only:     -118.642    -108.312     -95.939
   full:     -118.784    -107.780     -96.478     475.760
molecular quadrupole (traceless):
                xx          xy          yy          xz          yz          zz
 q only:    -3699.611  -19176.359     114.306  -17270.957  -15546.053    3585.306
  q+dip:    -3723.766  -19096.193     274.854  -17356.839  -15545.635    3448.911
   full:    -3722.723  -19095.386     272.492  -17353.764  -15548.399    3450.231


           -------------------------------------------------
          | TOTAL ENERGY             -243.321924914122 Eh   |
          | GRADIENT NORM               0.314750187585 Eh/α |
          | HOMO-LUMO GAP               1.491844282457 eV   |
           -------------------------------------------------

------------------------------------------------------------------------
 * finished run on 2019/05/31 at 06:33:49.007     
------------------------------------------------------------------------
 total:
 * wall-time:     0 d,  0 h,  0 min,  1.466 sec
 *  cpu-time:     0 d,  0 h,  0 min,  2.759 sec
 * ratio c/w:     1.883 speedup
 SCF:
 * wall-time:     0 d,  0 h,  0 min,  1.236 sec
 *  cpu-time:     0 d,  0 h,  0 min,  2.471 sec
 * ratio c/w:     1.999 speedup

