      -----------------------------------------------------------      
     |                   =====================                   |     
     |                           x T B                           |     
     |                   =====================                   |     
     |                         S. Grimme                         |     
     |          Mulliken Center for Theoretical Chemistry        |     
     |                    University of Bonn                     |     
     |                 Version 6.0.1 (SAW181210)                 |     
      -----------------------------------------------------------      

   This program is distributed in the hope that it will be useful,
   but WITHOUT ANY WARRANTY; without even the implied warranty of
   MERCHANTABILITY or FITNESS FOR A PARTICULAR PURPOSE.
   
   FOR NON-COMMERCIAL, ACADEMIA USE ONLY.
   
   Cite this work as:
   S. Grimme, C. Bannwarth, P. Shushkov, J. Comput. Theory Chem., 2017,
   13, 1989-2009.
   C. Bannwarth, S. Ehlert and S. Grimme., ChemRxiv, 2018, preprint.
   http://doi.org/10.26434/chemrxiv.7246238.v1
   
   for sTDA-xTB:
   S. Grimme and C. Bannwarth, J. Chem. Phys., 2016, 145, 054103.
   
   in the mass-spec context:
   V. Asgeirsson, C. Bauer and S. Grimme, Chem. Sci., 2017, 8, 4879.
   
   if GBSA is used:
   P. Shushkov, F. März and S. Grimme, unpublished.
   
   for ANC optimizer:
   S. Grimme, unpublished.
   Rational Function algorithm used in ANCopt:
   F. Eckert, P. Pulay, H.-J. Werner, J. Comput. Chem., 1997, 18, 1473.
   
   with help from (in alphabetical order)
   C. Bannwarth, F. Bohle, G. Brandenburg, E. Caldeweyher, M. Checinski,
   S. Dohm, S. Ehlert, S. Ehrlich, F. März, H. Neugebauer, J. Pisarek,
   P. Pracht, P. Shushkov, and S. Spicher.
   
 * started run on 2019/03/15 at 00:15:18.690     
========================================================================
 # omp threads = 1
========================================================================
number of atoms            : 529
number of electrons        : 1400
charge                     : -1
spin                       : .0
first test random number   : .6898
           ------------------------------------------------- 
          |                 G F N 2 - x T B                 |
          | Geometry, Frequencies, Noncovalent interactions |
          |            JCTC 2018 parametrisation            |
           ------------------------------------------------- 
 
      method parameters     
 k(s)        :  1.8500
 k(p)        :  2.2300
 k(d)        :  2.2300
 k(f)        :  2.0000
 kEN (H0ij)  : -2.0000
 D4 a1       :  0.5200
 D4 a2       :  5.0000
 D4 s6       :  1.0000
 D4 s8       :  2.7000
 D4 s9       :  5.0000
 alphaj      :  2.0000

 Solvent             : h2o
 Using internal parameter file: .param_gbsa2_h2o
 Gsolv ref. state (COSMO-RS): gsolv [1 M gas/solution]
 temperature (mdtemp)       :    298.150000000000     
 dielectric constant        :    80.2000000000000     
 rho                        :    1.00000000000000     
 mass                       :    18.0000000000000     
 surface tension            :    15.5689454083859     
 probe radius               :   0.975313790000000     
 vdW radii scaling          :    1.00000000000000     
 Gshift (Eh)                :   1.857443126794793E-003
 c1                         :    1.55243817000000     
 soset                      :   0.130326360000000     
 HB correction              :  T

            Z     q(EN)     CN     RAES       Cart. coordinates
     1  N   5.0   -0.23    3.24    1.96    37.16690    63.79899    38.57330
     2  C   4.0    0.02    4.39    4.36    39.53367    64.14049    37.28832
     3  C   4.0    0.07    3.29    3.05    40.42268    66.52890    35.99737
     4  O   6.0   -0.32    1.19    1.80    42.46782    67.46532    36.51252
     5  C   4.0   -0.05    4.56    4.62    39.90291    62.10266    35.40245
     6  C   4.0   -0.03    4.35    4.30    42.35085    60.74744    35.82701
     7  C   4.0   -0.09    4.24    4.08    42.71372    58.65889    33.99985
     8  C   4.0   -0.08    4.32    4.23    44.49405    62.55083    35.77563
     9  H   1.0    0.08    1.07    1.44    36.17564    62.50448    37.90526
    10  H   1.0    0.04    1.15    1.45    40.63603    64.21613    38.88397
    11  H   1.0    0.03    1.08    1.44    38.40255    60.87718    35.44425
    12  H   1.0    0.04    1.09    1.44    39.85500    62.83839    33.61120
    13  H   1.0    0.04    1.12    1.45    42.28458    59.97980    37.61160
    14  H   1.0    0.04    1.04    1.43    44.36008    57.72472    34.31338
    15  H   1.0    0.04    1.04    1.43    41.29088    57.37535    34.10555
    16  H   1.0    0.04    1.04    1.44    42.75687    59.34237    32.20685
    17  H   1.0    0.04    1.04    1.43    46.16381    61.67221    36.12143
    18  H   1.0    0.05    1.04    1.44    44.61649    63.39172    34.05489
    19  H   1.0    0.06    1.07    1.44    44.28706    63.93855    37.08656
    20  N   5.0   -0.22    3.30    1.98    41.87261    71.65342    40.10698
    21  C   4.0    0.03    4.39    4.36    44.24256    71.54954    41.39468
    22  C   4.0    0.15    3.42    3.09    46.25908    73.11877    40.08467
    23  O   6.0   -0.32    1.31    1.80    47.65606    74.51195    41.29272
    24  C   4.0   -0.05    4.50    4.54    44.49284    68.90135    42.42071
    25  C   4.0   -0.02    4.30    4.19    46.81967    67.78169    43.57601
    26  C   4.0   -0.08    4.25    4.11    46.10216    65.95884    45.58765
    27  C   4.0   -0.08    4.25    4.10    48.41432    66.56306    41.61476
    28  H   1.0    0.11    1.09    1.44    41.62516    70.29210    39.01440
    29  H   1.0    0.05    1.18    1.46    44.46448    72.56101    43.02486
    30  H   1.0    0.04    1.10    1.44    43.07599    68.69204    43.72586
    31  H   1.0    0.05    1.10    1.44    43.99821    67.73061    40.97585
    32  H   1.0    0.06    1.11    1.45    47.86293    69.21100    44.37344
    33  H   1.0    0.06    1.04    1.43    47.64734    65.19283    46.43016
    34  H   1.0    0.04    1.04    1.43    45.04489    66.79133    46.95949
    35  H   1.0    0.04    1.04    1.44    45.06549    64.52192    44.84874
    36  H   1.0    0.05    1.04    1.43    50.02543    65.83814    42.36681
    37  H   1.0    0.04    1.04    1.43    47.46063    65.12311    40.77684
    38  H   1.0    0.05    1.04    1.43    48.91753    67.80773    40.24165
    39  N   5.0   -0.15    3.60    2.16    46.36607    72.93339    37.61797
    40  C   4.0    0.03    4.47    4.49    48.02479    74.30287    35.96408
    41  C   4.0    0.08    3.21    3.04    47.75457    77.17971    35.88472
    42  O   6.0   -0.29    1.12    1.80    49.57477    78.57593    35.76852
    43  C   4.0   -0.04    4.22    4.03    47.76409    73.20866    33.37272
    44  S   6.0   -0.06    2.48    3.10    48.18928    69.85787    33.25031
    45  H   1.0    0.10    1.17    1.46    45.32435    71.81759    36.73839
    46  H   1.0    0.06    1.12    1.45    49.79856    74.09962    36.72882
    47  H   1.0    0.05    1.12    1.45    46.01527    73.65678    32.69220
    48  H   1.0    0.05    1.12    1.45    49.00573    74.05724    32.17024
    49  H   1.0    0.05    0.99    1.43    47.88849    69.16070    31.00916
    50  N   5.0   -0.21    3.25    1.97    50.19349    78.81309    42.50800
    51  C   4.0    0.04    4.25    4.10    52.78270    78.09713    42.79895
    52  C   4.0    0.08    3.20    3.04    54.64748    79.57615    41.18331
    53  O   6.0   -0.31    1.13    1.80    56.88560    79.64435    41.76108
    54  C   4.0   -0.07    4.21    4.01    53.08581    75.31481    42.99769
    55  H   1.0    0.13    1.12    1.45    49.19833    77.53913    41.80448
    56  H   1.0    0.05    1.15    1.45    53.38434    78.76425    44.51616
    57  H   1.0    0.05    1.04    1.43    54.92344    74.82184    43.23727
    58  H   1.0    0.05    1.04    1.43    52.09448    74.61796    44.49212
    59  H   1.0    0.06    1.04    1.43    52.43836    74.45145    41.41647
    60  N   5.0   -0.23    3.23    1.96    60.42817    86.65933    43.48561
    61  C   4.0    0.04    4.31    4.22    61.36244    85.44361    45.71424
    62  C   4.0    0.07    3.20    3.04    64.15696    85.51609    46.49446
    63  O   6.0   -0.29    1.15    1.80    64.88312    84.21820    48.19952
    64  C   4.0   -0.02    4.50    4.53    60.49176    82.74240    45.72477
    65  C   4.0    0.17    3.29    3.05    59.71584    81.69523    48.25179
    66  O   6.0   -0.29    1.25    1.80    58.17491    82.88760    49.51722
    67  N   5.0   -0.20    3.29    1.98    60.67837    79.69554    48.92124
    68  H   1.0    0.09    1.06    1.44    61.63003    86.90670    42.22937
    69  H   1.0    0.06    1.12    1.45    60.56727    86.53505    47.10929
    70  H   1.0    0.06    1.09    1.44    59.02667    82.54827    44.47275
    71  H   1.0    0.05    1.09    1.44    61.89541    81.63815    44.99384
    72  H   1.0    0.10    1.07    1.44    60.31419    78.88621    50.48236
    73  H   1.0    0.09    1.07    1.44    61.86881    78.76037    47.95864
    74  N   5.0   -0.23    3.27    1.97    70.50011    83.74898    43.64826
    75  C   4.0    0.03    4.36    4.31    71.53175    81.30380    43.39320
    76  C   4.0    0.07    3.23    3.04    74.33872    81.06719    43.79831
    77  O   6.0   -0.31    1.15    1.80    75.36597    79.03513    43.86135
    78  C   4.0   -0.04    4.47    4.49    70.72254    80.12404    40.98235
    79  C   4.0   -0.02    3.65    3.20    68.16708    78.99383    41.00093
    80  C   4.0   -0.05    3.59    3.16    66.23102    79.86310    39.50021
    81  C   4.0   -0.04    3.59    3.16    67.56995    76.98632    42.55207
    82  C   4.0   -0.04    3.50    3.12    63.93220    78.82556    39.53941
    83  C   4.0   -0.04    3.50    3.11    65.24504    75.95960    42.57879
    84  C   4.0   -0.04    3.50    3.11    63.40439    76.86795    41.07439
    85  H   1.0    0.09    1.07    1.44    70.57171    84.72957    42.19221
    86  H   1.0    0.05    1.13    1.45    70.77738    80.29880    44.86963
    87  H   1.0    0.04    1.09    1.44    70.82984    81.45397    39.58868
    88  H   1.0    0.05    1.09    1.44    72.00993    78.77953    40.47298
    89  H   1.0    0.05    1.08    1.44    66.61448    81.33569    38.35825
    90  H   1.0    0.05    1.08    1.44    68.96274    76.31562    43.67600
    91  H   1.0    0.05    1.08    1.44    62.55012    79.51231    38.40729
    92  H   1.0    0.06    1.07    1.44    64.84998    74.48319    43.73609
    93  H   1.0    0.05    1.07    1.44    61.65162    76.09829    41.09257
    94  N   5.0   -0.23    3.40    2.02    74.73628    75.40912    55.90539
    95  C   4.0    0.06    4.76    4.80    72.76565    74.63136    57.57713
    96  C   4.0    0.17    3.57    3.15    70.34984    74.49437    55.98005
    97  O   6.0   -0.31    1.29    1.80    68.94488    72.61105    56.33208
    98  C   4.0   -0.06    4.45    4.46    72.32762    76.40698    59.75119
    99  C   4.0   -0.04    4.38    4.35    70.24478    75.72697    61.49674
   100  C   4.0    0.16    3.30    3.05    67.86991    77.24257    61.10290
   101  O   6.0   -0.29    1.25    1.80    66.42519    76.67556    59.39591
   102  N   5.0   -0.21    3.29    1.98    67.55391    79.06523    62.54255
   103  H   1.0    0.09    1.07    1.44    75.14059    77.11217    56.03996
   104  H   1.0    0.04    1.10    1.44    73.23521    72.90963    58.35127
   105  H   1.0    0.03    1.07    1.44    73.96096    76.61747    60.75927
   106  H   1.0    0.05    1.09    1.44    71.95873    78.16120    59.03738
   107  H   1.0    0.05    1.08    1.44    69.85718    73.84511    61.28945
   108  H   1.0    0.03    1.08    1.44    70.82373    75.90981    63.32729
   109  H   1.0    0.08    1.07    1.44    68.66485    79.51627    63.87117
   110  H   1.0    0.10    1.07    1.44    66.15157    80.16988    62.43749
   111  N   5.0   -0.14    3.59    2.14    70.51534    76.08330    54.98603
   112  C   4.0   -0.01    4.24    4.07    67.83700    76.32226    52.76452
   113  C   4.0    0.16    3.47    3.10    68.14038    74.45716    50.66856
   114  O   6.0   -0.30    1.27    1.80    66.34529    73.75174    49.43092
   115  C   4.0   -0.07    4.18    3.97    67.47798    78.87949    51.73053
   116  H   1.0    0.06    1.09    1.44    66.24663    75.84448    53.75977
   117  H   1.0    0.06    1.04    1.43    65.94774    78.96095    50.55330
   118  H   1.0    0.05    1.04    1.43    67.19378    80.17273    53.11760
   119  H   1.0    0.05    1.04    1.44    69.00679    79.42474    50.71305
   120  H   1.0    0.08    1.22    1.47    70.68775    77.52770    54.07849
   121  N   5.0   -0.15    3.62    2.18    70.43939    73.63954    50.22672
   122  C   4.0    0.03    4.53    4.58    71.01860    71.86898    48.30040
   123  C   4.0    0.17    3.51    3.12    69.65435    69.48471    49.12997
   124  O   6.0   -0.30    1.25    1.80    68.22900    68.36474    47.70000
   125  C   4.0   -0.05    4.42    4.41    73.70709    72.13402    47.35136
   126  C   4.0   -0.05    4.33    4.25    74.30446    70.81403    45.00209
   127  C   4.0   -0.01    4.36    4.31    76.05809    72.16151    43.27266
   128  N   5.0   -0.13    3.56    2.13    78.66326    72.20336    43.98371
   129  C   4.0    0.10    3.46    3.10    79.68801    73.86975    45.61834
   130  N   5.0   -0.17    3.56    2.12    78.38133    75.37891    46.52270
   131  N   5.0   -0.18    3.44    2.04    81.97692    73.74662    46.07076
   132  H   1.0    0.08    1.13    1.45    71.82571    74.13574    51.19027
   133  H   1.0    0.05    1.17    1.46    70.29335    72.07688    46.51371
   134  H   1.0    0.04    1.11    1.44    74.08553    74.00815    47.07882
   135  H   1.0    0.05    1.08    1.44    74.92050    71.56238    48.72178
   136  H   1.0    0.06    1.08    1.44    75.04826    69.08806    45.43585
   137  H   1.0    0.04    1.09    1.44    72.64315    70.41624    44.09851
   138  H   1.0    0.04    1.07    1.44    75.88148    71.43517    41.48785
   139  H   1.0    0.05    1.09    1.44    75.46347    73.99248    43.10391
   140  H   1.0    0.09    1.11    1.44    79.70459    70.96755    43.27230
   141  H   1.0    0.09    1.11    1.44    76.57478    75.62552    46.19965
   142  H   1.0    0.08    1.08    1.44    78.87932    76.67755    47.69908
   143  H   1.0    0.09    1.06    1.44    83.17693    72.57256    45.36930
   144  H   1.0    0.08    1.07    1.44    82.82408    74.86148    47.20752
   145  N   5.0   -0.14    3.55    2.11    70.02788    68.70770    51.44475
   146  C   4.0    0.05    4.61    4.67    68.82073    66.54162    52.52759
   147  C   4.0    0.15    3.66    3.21    66.06145    66.32159    53.19519
   148  O   6.0   -0.31    1.31    1.80    64.92956    64.35111    52.78905
   149  C   4.0    0.05    4.44    4.45    70.14207    65.92305    54.97663
   150  O   6.0   -0.26    2.16    1.85    72.52725    64.88891    54.46453
   151  C   4.0   -0.07    4.33    4.26    68.60026    64.21058    56.57571
   152  H   1.0    0.09    1.13    1.45    71.16277    69.48993    52.54038
   153  H   1.0    0.08    1.14    1.45    68.91127    65.36669    50.98602
   154  H   1.0    0.05    1.10    1.44    70.34876    67.61326    55.92871
   155  H   1.0    0.13    1.07    1.44    73.31482    64.57601    55.94507
   156  H   1.0    0.04    1.04    1.43    69.46598    63.84896    58.24594
   157  H   1.0    0.05    1.08    1.44    66.87385    64.95648    56.95904
   158  H   1.0    0.06    1.05    1.44    68.32941    62.54082    55.66896
   159  N   5.0   -0.16    3.63    2.19    64.99852    68.26533    54.29268
   160  C   4.0    0.03    4.65    4.72    62.41074    68.36008    55.06449
   161  C   4.0    0.16    3.55    3.14    60.66754    68.18798    52.81612
   162  O   6.0   -0.33    1.35    1.80    58.41383    67.85661    53.08799
   163  C   4.0   -0.02    4.45    4.45    61.79505    70.69316    56.58752
   164  C   4.0   -0.07    4.29    4.17    63.54648    70.95384    58.72952
   165  C   4.0   -0.07    4.32    4.23    61.83155    72.93888    54.94371
   166  H   1.0    0.10    1.13    1.45    65.87257    69.75905    54.61571
   167  H   1.0    0.05    1.11    1.45    62.13355    66.81494    56.20638
   168  H   1.0    0.05    1.12    1.45    59.99568    70.51504    57.29778
   169  H   1.0    0.05    1.04    1.43    63.14910    72.52004    59.76683
   170  H   1.0    0.04    1.04    1.43    63.46246    69.43688    59.90059
   171  H   1.0    0.07    1.06    1.44    65.35045    71.11505    58.09581
   172  H   1.0    0.05    1.04    1.43    61.39907    74.53105    55.92623
   173  H   1.0    0.06    1.05    1.44    63.57461    73.17221    54.17939
   174  H   1.0    0.05    1.05    1.44    60.57377    72.78157    53.50106
   175  N   5.0   -0.15    3.61    2.17    61.66202    68.50179    50.55175
   176  C   4.0    0.03    4.71    4.77    60.20240    68.25298    48.31285
   177  C   4.0    0.15    3.68    3.22    60.56962    65.83684    46.85084
   178  O   6.0   -0.32    1.31    1.80    58.83807    64.65641    45.93393
   179  C   4.0   -0.02    4.56    4.62    60.82922    70.13636    46.31514
   180  C   4.0   -0.08    4.39    4.36    59.40386    69.61406    43.98982
   181  C   4.0   -0.07    4.31    4.21    60.31726    72.69740    47.18354
   182  H   1.0    0.10    1.13    1.45    63.35197    68.89826    50.27119
   183  H   1.0    0.06    1.14    1.45    58.41213    68.43303    49.04161
   184  H   1.0    0.05    1.13    1.45    62.72715    69.93724    45.94611
   185  H   1.0    0.04    1.04    1.44    59.86661    70.85128    42.60071
   186  H   1.0    0.05    1.08    1.44    59.73469    67.84294    43.33122
   187  H   1.0    0.05    1.05    1.44    57.51946    69.77420    44.32257
   188  H   1.0    0.04    1.05    1.44    60.79022    73.98852    45.84631
   189  H   1.0    0.05    1.05    1.44    58.44812    72.90134    47.56597
   190  H   1.0    0.06    1.05    1.44    61.30012    73.11037    48.77777
   191  N   5.0   -0.15    3.64    2.20    62.94672    65.09792    46.62493
   192  C   4.0    0.04    4.51    4.54    63.72602    62.84065    45.36789
   193  C   4.0    0.17    3.49    3.11    62.58015    60.65089    46.81790
   194  O   6.0   -0.30    1.24    1.80    62.05229    58.68806    45.74852
   195  C   4.0   -0.04    4.44    4.45    66.53342    62.81866    44.88530
   196  C   4.0   -0.03    4.40    4.38    67.70442    60.45703    43.96377
   197  C   4.0    0.17    3.32    3.06    68.65873    58.78866    46.02464
   198  O   6.0   -0.28    1.28    1.80    69.63021    59.77797    47.87834
   199  N   5.0   -0.19    3.29    1.98    68.40223    56.50213    45.75016
   200  H   1.0    0.10    1.12    1.45    64.28146    65.99816    47.33464
   201  H   1.0    0.05    1.12    1.45    63.03228    62.65664    43.56256
   202  H   1.0    0.05    1.13    1.45    66.95216    64.25027    43.65400
   203  H   1.0    0.07    1.10    1.44    67.41568    63.31281    46.52475
   204  H   1.0    0.05    1.09    1.44    66.43255    59.48204    42.89488
   205  H   1.0    0.05    1.10    1.44    69.15524    60.85058    42.74839
   206  H   1.0    0.09    1.07    1.44    67.65202    55.72845    44.31983
   207  H   1.0    0.11    1.07    1.44    68.94627    55.29147    46.95367
   208  N   5.0   -0.14    3.58    2.14    62.21701    60.95493    49.26813
   209  C   4.0    0.04    4.54    4.59    61.10335    59.10910    50.91108
   210  C   4.0    0.15    3.53    3.13    58.31590    58.75504    50.50536
   211  O   6.0   -0.29    1.25    1.80    57.36755    56.73660    49.99823
   212  C   4.0   -0.05    4.48    4.50    61.57854    59.74878    53.61922
   213  C   4.0   -0.05    4.31    4.22    60.84118    57.85989    55.52113
   214  C   4.0   -0.02    4.32    4.23    62.21924    58.20164    57.95169
   215  N   5.0   -0.14    3.52    2.09    64.83436    57.38720    57.96531
   216  C   4.0    0.09    3.43    3.09    66.70874    58.10912    59.54583
   217  N   5.0   -0.19    3.47    2.06    66.24857    59.60267    61.17894
   218  N   5.0   -0.19    3.43    2.04    68.83513    57.24171    59.26215
   219  H   1.0    0.11    1.15    1.45    62.68925    62.42524    50.11534
   220  H   1.0    0.07    1.12    1.45    61.90138    57.40423    50.43988
   221  H   1.0    0.06    1.09    1.44    63.45607    60.13828    53.85828
   222  H   1.0    0.05    1.09    1.44    60.68249    61.41505    54.01475
   223  H   1.0    0.05    1.07    1.44    58.92170    57.91758    55.78782
   224  H   1.0    0.05    1.08    1.44    61.16681    56.08717    54.82178
   225  H   1.0    0.04    1.08    1.44    62.16800    60.07527    58.43194
   226  H   1.0    0.04    1.07    1.44    61.27098    57.30953    59.38406
   227  H   1.0    0.08    1.11    1.45    65.24116    56.21561    56.70691
   228  H   1.0    0.08    1.07    1.44    64.63075    60.38481    61.51691
   229  H   1.0    0.08    1.08    1.44    67.44857    60.22583    62.38589
   230  H   1.0    0.08    1.06    1.44    69.36735    56.05192    57.99292
   231  H   1.0    0.08    1.07    1.44    70.24889    57.66611    60.30547
   232  N   5.0   -0.16    3.63    2.19    56.97294    60.84615    50.74513
   233  C   4.0    0.03    4.56    4.62    54.32143    60.93357    50.40518
   234  C   4.0    0.15    3.57    3.15    53.57785    60.63753    47.65013
   235  O   6.0   -0.32    1.28    1.80    51.37314    60.69725    47.00204
   236  C   4.0   -0.05    4.49    4.52    53.23350    63.33743    51.36830
   237  C   4.0   -0.03    4.48    4.51    53.63248    65.45751    49.65606
   238  C   4.0    0.16    3.30    3.05    52.62168    67.92700    50.60846
   239  O   6.0   -0.30    1.24    1.80    50.88399    68.94857    49.44068
   240  N   5.0   -0.20    3.34    2.00    53.58883    68.75407    52.52898
   241  H   1.0    0.09    1.12    1.45    57.69354    62.40338    51.11993
   242  H   1.0    0.05    1.11    1.45    53.59496    59.42997    51.39843
   243  H   1.0    0.05    1.08    1.44    51.34116    63.13912    51.69660
   244  H   1.0    0.05    1.09    1.44    53.99305    63.76606    53.08857
   245  H   1.0    0.06    1.09    1.44    55.52046    65.63367    49.30581
   246  H   1.0    0.06    1.10    1.44    52.85097    65.03159    47.94035
   247  H   1.0    0.11    1.11    1.45    54.94146    67.97298    53.43172
   248  H   1.0    0.10    1.07    1.44    53.10764    70.29279    53.32338
   249  N   5.0   -0.14    3.65    2.21    55.38653    60.38276    45.96434
   250  C   4.0    0.04    4.60    4.66    54.80939    60.14732    43.34956
   251  C   4.0    0.15    3.48    3.11    54.56135    57.43824    42.57222
   252  O   6.0   -0.31    1.25    1.80    53.58840    56.83704    40.59159
   253  C   4.0   -0.03    4.46    4.48    56.63890    61.45887    41.62667
   254  C   4.0   -0.02    3.66    3.21    55.47480    63.02667    39.62758
   255  C   4.0   -0.04    3.60    3.17    54.02810    61.95388    37.76346
   256  C   4.0   -0.05    3.60    3.17    55.65604    65.61388    39.63323
   257  C   4.0   -0.05    3.50    3.11    52.83458    63.39302    36.05038
   258  C   4.0   -0.05    3.49    3.11    54.46708    67.04200    37.91755
   259  C   4.0   -0.05    3.52    3.12    53.05225    65.92647    36.12742
   260  H   1.0    0.11    1.13    1.45    57.10272    60.32988    46.34609
   261  H   1.0    0.06    1.14    1.45    53.08942    61.01633    43.11915
   262  H   1.0    0.07    1.10    1.44    57.81456    62.55749    42.69034
   263  H   1.0    0.05    1.09    1.44    57.78992    60.13796    40.82084
   264  H   1.0    0.07    1.08    1.44    53.88478    60.05205    37.72541
   265  H   1.0    0.05    1.08    1.44    56.71874    66.43569    40.98223
   266  H   1.0    0.04    1.07    1.44    51.76936    62.54539    34.70096
   267  H   1.0    0.05    1.07    1.44    54.64591    68.94811    37.99158
   268  H   1.0    0.05    1.10    1.44    52.14837    67.01177    34.83108
   269  N   5.0   -0.15    3.68    2.25    55.53640    55.79406    44.18120
   270  C   4.0    0.04    4.50    4.54    55.56793    53.11386    43.91921
   271  C   4.0    0.17    3.51    3.12    54.10804    52.04268    46.12896
   272  O   6.0   -0.28    1.27    1.80    54.53530    49.97456    46.96215
   273  C   4.0    0.04    4.31    4.21    58.21037    52.09107    43.99899
   274  O   6.0   -0.23    2.13    1.84    59.25207    52.46698    46.37434
   275  H   1.0    0.12    1.15    1.45    56.29622    56.30701    45.68479
   276  H   1.0    0.05    1.10    1.44    54.77621    52.60593    42.21576
   277  H   1.0    0.05    1.05    1.44    58.22242    50.21290    43.52862
   278  H   1.0    0.04    1.06    1.44    59.28735    52.94021    42.63316
   279  H   1.0    0.13    1.06    1.44    60.84193    51.84473    46.39406
   280  N   5.0   -0.15    3.61    2.17    52.38245    53.57285    47.10336
   281  C   4.0    0.04    4.52    4.56    50.85161    53.02803    49.23974
   282  C   4.0    0.15    3.45    3.09    48.06308    52.73925    48.56596
   283  O   6.0   -0.28    1.23    1.80    46.69058    51.30011    49.70206
   284  C   4.0   -0.04    4.42    4.41    51.19188    55.00112    51.26297
   285  C   4.0   -0.03    4.31    4.22    49.79620    54.63901    53.63996
   286  C   4.0    0.25    3.16    3.03    50.65466    52.36014    55.11482
   287  O   6.0   -0.26    1.21    1.80    50.54641    50.27488    54.03880
   288  O   6.0   -0.28    1.17    1.80    51.44774    52.68913    57.31644
   289  H   1.0    0.09    1.14    1.45    52.06275    55.16549    46.43219
   290  H   1.0    0.09    1.13    1.45    51.42706    51.30915    49.94234
   291  H   1.0    0.07    1.08    1.44    53.07460    55.15371    51.68182
   292  H   1.0    0.05    1.08    1.44    50.72292    56.71389    50.49659
   293  H   1.0    0.05    1.08    1.44    49.93335    56.20756    54.76028
   294  H   1.0    0.06    1.08    1.44    47.91298    54.47025    53.25675
   295  N   5.0   -0.16    3.56    2.12    47.22123    54.16483    46.66485
   296  C   4.0    0.03    4.56    4.62    44.67053    54.23366    45.71527
   297  C   4.0    0.15    3.46    3.10    43.80860    51.79524    44.44322
   298  O   6.0   -0.32    1.29    1.80    41.61462    51.48164    43.80604
   299  C   4.0   -0.03    4.41    4.39    44.22514    56.49087    43.94589
   300  C   4.0   -0.08    4.30    4.19    41.58928    56.64413    43.04295
   301  C   4.0   -0.08    4.28    4.16    44.94435    58.87677    45.17666
   302  H   1.0    0.09    1.13    1.45    48.29295    55.24627    45.78668
   303  H   1.0    0.05    1.11    1.45    43.55771    54.42962    47.29567
   304  H   1.0    0.05    1.11    1.45    45.36290    56.20616    42.39577
   305  H   1.0    0.03    1.04    1.43    41.34369    58.11782    41.83775
   306  H   1.0    0.06    1.06    1.44    41.06656    55.04173    42.12847
   307  H   1.0    0.04    1.05    1.44    40.39686    56.89420    44.52538
   308  H   1.0    0.04    1.04    1.43    44.70420    60.37742    44.00103
   309  H   1.0    0.04    1.05    1.44    43.85783    59.17687    46.73057
   310  H   1.0    0.06    1.05    1.44    46.77948    58.86454    45.73649
   311  N   5.0   -0.14    3.56    2.12    45.51033    50.03186    44.05803
   312  C   4.0    0.04    4.53    4.58    45.02671    47.66190    42.83720
   313  C   4.0    0.15    3.45    3.10    44.12916    45.53228    44.53032
   314  O   6.0   -0.29    1.29    1.80    45.66175    44.01503    45.33264
   315  C   4.0   -0.03    4.46    4.48    47.32301    46.81019    41.43762
   316  C   4.0   -0.02    3.80    3.34    48.37489    48.65690    39.64596
   317  C   4.0   -0.01    3.73    3.26    50.76027    49.44862    39.40459
   318  C   4.0    0.01    4.05    3.70    47.01481    49.90017    37.68979
   319  N   5.0   -0.12    3.59    2.15    51.01221    51.01835    37.52018
   320  C   4.0    0.04    4.03    3.68    48.76577    51.38967    36.36544
   321  C   4.0   -0.05    3.53    3.13    44.54496    49.94119    36.87290
   322  C   4.0   -0.06    3.52    3.12    48.01988    52.82040    34.32574
   323  C   4.0   -0.05    3.52    3.12    43.91123    51.33363    34.90242
   324  C   4.0   -0.05    3.52    3.12    45.61784    52.75658    33.63997
   325  H   1.0    0.10    1.13    1.45    47.18097    50.21480    44.57349
   326  H   1.0    0.05    1.13    1.45    43.55020    48.04989    41.64468
   327  H   1.0    0.06    1.09    1.44    48.68131    46.32430    42.72682
   328  H   1.0    0.05    1.08    1.44    46.93890    45.15974    40.50407
   329  H   1.0    0.05    1.06    1.44    52.17364    48.88048    40.55567
   330  H   1.0    0.08    1.09    1.44    52.51523    51.81231    37.00174
   331  H   1.0    0.05    1.08    1.44    43.26611    48.88667    37.81323
   332  H   1.0    0.05    1.07    1.44    49.30666    53.87798    33.40325
   333  H   1.0    0.05    1.08    1.44    42.09105    51.33267    34.31838
   334  H   1.0    0.04    1.08    1.44    45.06185    53.79932    32.13758
   335  N   5.0   -0.14    3.53    2.10    41.71122    45.31969    45.06558
   336  C   4.0    0.04    4.42    4.42    40.70032    43.36453    46.64421
   337  C   4.0    0.08    3.22    3.04    39.04883    41.50582    45.16256
   338  O   6.0   -0.29    1.14    1.80    37.45448    42.30615    43.72315
   339  C   4.0   -0.05    4.43    4.44    39.26508    44.52190    48.79740
   340  C   4.0   -0.05    4.36    4.31    37.33461    46.40788    48.08622
   341  C   4.0   -0.06    4.32    4.23    36.64593    48.14097    50.18034
   342  C   4.0   -0.03    4.30    4.21    38.79101    49.74256    51.07120
   343  N   5.0   -0.14    4.13    3.25    38.20270    51.55427    52.91516
   344  H   1.0    0.10    1.12    1.45    40.49074    46.42964    44.45238
   345  H   1.0    0.06    1.12    1.45    42.20683    42.35637    47.33765
   346  H   1.0    0.04    1.08    1.44    38.42738    43.12195    49.83142
   347  H   1.0    0.05    1.09    1.44    40.50847    45.35114    50.02249
   348  H   1.0    0.05    1.09    1.44    37.98320    47.43948    46.58668
   349  H   1.0    0.05    1.07    1.44    35.77158    45.49638    47.40230
   350  H   1.0    0.04    1.07    1.44    35.17649    49.28435    49.65608
   351  H   1.0    0.04    1.08    1.44    35.95418    47.10786    51.66147
   352  H   1.0    0.05    1.08    1.44    40.19870    48.57196    51.72018
   353  H   1.0    0.05    1.08    1.44    39.58848    50.60536    49.52331
   354  H   1.0    0.06    1.06    1.44    39.62407    52.55014    53.44690
   355  H   1.0    0.05    1.07    1.44    36.95550    52.74183    52.35113
   356  H   1.0    0.05    1.07    1.44    37.53498    50.81546    54.42852
   357  N   5.0   -0.22    3.25    1.97    64.64438    59.90308    27.72834
   358  C   4.0    0.02    4.45    4.46    64.31271    61.50270    29.88632
   359  C   4.0    0.15    3.52    3.12    65.86356    60.58047    32.11386
   360  O   6.0   -0.31    1.35    1.80    67.98745    61.35174    32.46208
   361  C   4.0   -0.06    4.56    4.62    61.61100    61.80801    30.62040
   362  C   4.0   -0.03    4.38    4.34    61.06434    63.13226    33.07615
   363  C   4.0   -0.08    4.32    4.23    62.68995    65.35627    33.39639
   364  C   4.0   -0.09    4.27    4.15    58.38125    63.87509    33.20369
   365  H   1.0    0.08    1.07    1.44    63.12387    59.49286    26.94328
   366  H   1.0    0.04    1.11    1.45    65.02392    63.24155    29.39434
   367  H   1.0    0.03    1.08    1.44    60.67498    62.75578    29.22087
   368  H   1.0    0.04    1.08    1.44    60.80000    60.05531    30.64837
   369  H   1.0    0.04    1.12    1.45    61.46923    61.89934    34.52152
   370  H   1.0    0.04    1.05    1.44    62.35873    66.22767    35.07268
   371  H   1.0    0.05    1.06    1.44    64.54916    64.88170    33.33813
   372  H   1.0    0.04    1.05    1.44    62.35679    66.62332    31.99687
   373  H   1.0    0.04    1.05    1.44    57.97138    64.75633    34.85865
   374  H   1.0    0.04    1.05    1.44    57.95936    65.08631    31.77482
   375  H   1.0    0.04    1.04    1.43    57.21801    62.35637    33.04819
   376  N   5.0   -0.16    3.55    2.12    64.78671    58.92110    33.64704
   377  C   4.0    0.03    4.41    4.39    66.01045    57.78386    35.80377
   378  C   4.0    0.10    3.36    3.07    68.87549    57.86733    35.59971
   379  O   6.0   -0.30    1.21    1.80    70.15370    59.24439    36.94873
   380  C   4.0   -0.06    4.51    4.54    65.13135    55.12245    36.22115
   381  C   4.0   -0.03    4.33    4.25    62.35251    54.73936    36.64637
   382  C   4.0   -0.09    4.23    4.07    61.68258    52.02394    36.83448
   383  C   4.0   -0.08    4.27    4.13    61.57980    56.17628    38.93032
   384  H   1.0    0.07    1.12    1.45    63.13582    58.35860    33.41339
   385  H   1.0    0.05    1.11    1.45    65.51326    58.87763    37.33165
   386  H   1.0    0.04    1.08    1.44    65.70806    54.05986    34.71444
   387  H   1.0    0.04    1.08    1.44    66.07749    54.37037    37.73192
   388  H   1.0    0.04    1.12    1.45    61.38685    55.42947    35.10920
   389  H   1.0    0.04    1.04    1.43    59.79411    51.78595    37.08440
   390  H   1.0    0.04    1.04    1.43    62.18790    51.05867    35.25251
   391  H   1.0    0.04    1.04    1.44    62.58062    51.21936    38.32555
   392  H   1.0    0.05    1.04    1.43    59.69585    56.01663    39.26534
   393  H   1.0    0.05    1.04    1.43    62.50914    55.52159    40.47824
   394  H   1.0    0.04    1.04    1.43    61.98218    58.04653    38.75798
   395  N   5.0   -0.20    3.42    2.03    73.05878    60.82084    33.31155
   396  C   4.0    0.03    4.37    4.33    74.22062    63.18671    32.72106
   397  C   4.0    0.15    3.47    3.10    74.79135    64.61150    35.11684
   398  O   6.0   -0.30    1.23    1.80    76.11597    66.48968    35.11675
   399  C   4.0   -0.07    4.25    4.09    72.65595    64.75138    31.01533
   400  H   1.0    0.14    1.15    1.45    71.53237    61.00345    34.17452
   401  H   1.0    0.05    1.11    1.45    75.88247    62.81172    31.78449
   402  H   1.0    0.05    1.04    1.43    73.53627    66.39341    30.56007
   403  H   1.0    0.05    1.04    1.43    72.26509    63.81659    29.38509
   404  H   1.0    0.06    1.05    1.44    70.99047    65.18018    31.86138
   405  N   5.0   -0.15    3.64    2.20    73.68690    63.72484    37.18087
   406  C   4.0    0.04    4.50    4.53    73.93466    64.67873    39.69438
   407  C   4.0    0.16    3.48    3.11    76.07831    63.34107    41.05273
   408  O   6.0   -0.29    1.28    1.80    76.25908    63.43297    43.34599
   409  C   4.0   -0.03    4.50    4.54    71.58591    64.29994    41.22358
   410  C   4.0   -0.02    3.68    3.22    69.30509    65.71299    40.43830
   411  C   4.0   -0.04    3.60    3.17    69.08602    68.28147    40.74916
   412  C   4.0   -0.04    3.67    3.21    67.17371    64.52310    39.53535
   413  C   4.0   -0.04    3.51    3.12    66.93547    69.51221    40.22359
   414  C   4.0   -0.05    3.52    3.13    65.05275    65.75482    39.03210
   415  C   4.0   -0.05    3.51    3.12    64.89935    68.26721    39.36603
   416  H   1.0    0.11    1.17    1.46    72.64440    62.30839    37.11184
   417  H   1.0    0.05    1.11    1.44    74.27474    66.58440    39.53455
   418  H   1.0    0.05    1.10    1.44    71.18885    62.41099    41.21736
   419  H   1.0    0.06    1.09    1.44    71.96551    64.70436    43.07735
   420  H   1.0    0.05    1.08    1.44    70.63029    69.20014    41.39399
   421  H   1.0    0.06    1.08    1.44    67.28622    62.63638    39.27321
   422  H   1.0    0.05    1.08    1.44    66.83099    71.41075    40.47340
   423  H   1.0    0.04    1.08    1.44    63.52429    64.79869    38.38725
   424  H   1.0    0.04    1.07    1.44    63.26830    69.19098    38.97087
   425  N   5.0   -0.14    3.55    2.11    77.67079    62.00945    39.67881
   426  C   4.0    0.04    4.52    4.56    79.74082    60.61388    40.72752
   427  C   4.0    0.16    3.47    3.10    82.16365    62.14777    40.84647
   428  O   6.0   -0.29    1.30    1.80    83.88240    61.70178    39.42626
   429  C   4.0   -0.02    4.41    4.40    80.23463    58.18830    39.34659
   430  C   4.0    0.25    3.14    3.03    78.23266    56.17887    39.66528
   431  O   6.0   -0.27    1.18    1.80    77.65735    55.55980    41.86213
   432  O   6.0   -0.28    1.17    1.80    77.26574    55.25995    37.72069
   433  H   1.0    0.10    1.13    1.45    77.55026    61.88234    37.92930
   434  H   1.0    0.07    1.13    1.45    79.18320    60.20656    42.54160
   435  H   1.0    0.06    1.08    1.44    80.45108    58.56477    37.46415
   436  H   1.0    0.06    1.08    1.44    81.94032    57.45529    39.89096
   437  N   5.0   -0.14    3.52    2.09    82.30338    63.97945    42.54624
   438  C   4.0    0.04    4.50    4.54    84.50430    65.50769    42.81196
   439  C   4.0    0.07    3.26    3.05    84.80348    66.46454    45.48056
   440  O   6.0   -0.29    1.14    1.80    83.24516    67.85605    46.39989
   441  C   4.0    0.06    4.35    4.29    84.59093    67.70262    40.96054
   442  O   6.0   -0.24    2.18    1.85    84.09001    66.78200    38.51485
   443  C   4.0   -0.08    4.20    4.01    87.07175    69.03613    41.06309
   444  H   1.0    0.11    1.11    1.45    80.98593    64.39729    43.63490
   445  H   1.0    0.06    1.12    1.45    85.99051    64.34934    42.36295
   446  H   1.0    0.05    1.09    1.44    83.19978    68.95028    41.49399
   447  H   1.0    0.13    1.06    1.44    84.09386    68.09493    37.42595
   448  H   1.0    0.04    1.04    1.43    87.11077    70.53230    39.85744
   449  H   1.0    0.04    1.04    1.43    87.45904    69.69359    42.82305
   450  H   1.0    0.05    1.04    1.43    88.48634    67.84479    40.55662
   451  N   5.0   -0.24    3.33    1.99    71.77636    73.44226    29.75588
   452  C   4.0    0.03    4.30    4.19    69.18475    72.54356    30.61538
   453  C   4.0    0.05    3.36    3.07    67.61463    74.57841    29.75346
   454  O   6.0   -0.28    1.01    1.80    66.15433    73.75922    27.47954
   455  C   4.0   -0.03    4.62    4.69    69.12941    73.30993    33.70421
   456  C   4.0   -0.06    4.36    4.31    71.36643    72.45408    34.90963
   457  C   4.0   -0.10    4.33    4.25    66.70397    72.04240    34.48375
   458  C   4.0   -0.09    4.24    4.08    71.48857    73.77585    37.47070
   459  H   1.0    0.10    1.08    1.44    72.73846    74.26845    30.59791
   460  H   1.0    0.05    1.15    1.45    69.31785    71.01696    30.66083
   461  H   1.0    0.04    1.18    1.46    68.72806    75.02413    33.58697
   462  H   1.0    0.05    1.15    1.45    71.36990    70.87399    35.29775
   463  H   1.0    0.05    1.13    1.45    72.86231    72.86053    34.07344
   464  H   1.0    0.04    1.10    1.44    66.61980    72.38359    36.15563
   465  H   1.0    0.04    1.07    1.44    65.26805    72.56601    33.63068
   466  H   1.0    0.04    1.06    1.44    66.90662    70.20935    34.15689
   467  H   1.0    0.04    1.06    1.44    72.87798    73.40553    38.44336
   468  H   1.0    0.04    1.05    1.44    71.50788    75.67501    37.31044
   469  H   1.0    0.04    1.05    1.44    69.90284    73.54071    38.45853
   470  N   5.0   -0.25    3.30    1.98    60.65986    71.39619    27.38792
   471  C   4.0    0.03    4.28    4.15    57.99444    71.58746    28.31880
   472  C   4.0    0.04    3.26    3.05    56.54535    73.00622    26.53852
   473  O   6.0   -0.29    1.01    1.80    53.87334    72.15924    26.38799
   474  C   4.0   -0.04    4.42    4.42    58.45083    73.55200    30.71306
   475  C   4.0   -0.07    4.31    4.22    59.60521    72.15801    32.88213
   476  C   4.0   -0.08    4.23    4.06    55.59372    74.30947    31.52735
   477  C   4.0   -0.09    4.18    3.96    60.36568    73.88899    35.03401
   478  H   1.0    0.13    1.09    1.44    61.80102    72.19554    27.88111
   479  H   1.0    0.04    1.16    1.45    57.73530    70.19604    29.10615
   480  H   1.0    0.05    1.16    1.45    58.99569    74.88965    30.20035
   481  H   1.0    0.04    1.14    1.45    58.82229    71.00290    33.52094
   482  H   1.0    0.04    1.12    1.45    61.18357    71.44506    32.27537
   483  H   1.0    0.05    1.06    1.44    55.76939    75.30161    32.95486
   484  H   1.0    0.06    1.06    1.44    54.72855    75.13690    30.26430
   485  H   1.0    0.05    1.04    1.43    54.64782    72.73621    31.94026
   486  H   1.0    0.04    1.06    1.44    61.30506    73.23652    36.26977
   487  H   1.0    0.04    1.04    1.43    61.45146    75.38483    34.42503
   488  H   1.0    0.04    1.05    1.44    58.87689    74.84584    35.67592
   489  N   5.0   -0.22    3.24    1.97    53.79511    66.95647    21.40568
   490  C   4.0    0.03    4.28    4.17    51.97867    65.28952    22.48865
   491  C   4.0    0.08    3.27    3.05    49.59588    66.75151    23.13498
   492  O   6.0   -0.30    1.14    1.80    47.64285    65.67288    23.71052
   493  C   4.0   -0.05    4.46    4.48    52.98451    63.71587    24.68508
   494  C   4.0   -0.02    4.35    4.29    51.46570    63.52149    27.08194
   495  C   4.0   -0.09    4.24    4.07    52.14914    61.26129    28.59802
   496  C   4.0   -0.08    4.27    4.15    51.74738    65.87455    28.55551
   497  H   1.0    0.09    1.07    1.44    55.14204    67.31203    22.48053
   498  H   1.0    0.04    1.11    1.45    51.49059    63.97516    21.14338
   499  H   1.0    0.03    1.08    1.44    53.34822    61.92390    24.05526
   500  H   1.0    0.04    1.09    1.44    54.71850    64.41950    25.16360
   501  H   1.0    0.06    1.13    1.45    49.59948    63.31506    26.58845
   502  H   1.0    0.04    1.04    1.43    51.07974    61.13422    30.18829
   503  H   1.0    0.04    1.04    1.43    51.90108    59.64086    27.59936
   504  H   1.0    0.04    1.04    1.43    53.98891    61.34658    29.13173
   505  H   1.0    0.04    1.05    1.44    50.70040    65.82922    30.16342
   506  H   1.0    0.04    1.05    1.44    53.58263    66.12950    29.05639
   507  H   1.0    0.06    1.05    1.44    51.19915    67.41094    27.54139
   508  H   1.0    0.09    1.08    1.44    37.45670    63.42109    40.20602
   509  H   1.0    0.05    1.05    1.44    39.33091    67.36479    34.70107
   510  H   1.0    0.09    1.08    1.44    40.60775    71.64103    41.24388
   511  H   1.0    0.06    1.05    1.44    46.03816    77.96908    35.92833
   512  H   1.0    0.10    1.08    1.44    49.53668    79.19843    44.02874
   513  H   1.0    0.06    1.04    1.44    54.04447    80.49483    39.64596
   514  H   1.0    0.10    1.10    1.44    59.18823    85.71693    42.80223
   515  H   1.0    0.05    1.05    1.44    65.36455    86.64520    45.57910
   516  H   1.0    0.10    1.09    1.44    68.85975    83.63072    44.08162
   517  H   1.0    0.05    1.05    1.44    75.39505    82.61798    44.02258
   518  H   1.0    0.09    1.08    1.44    76.14899    74.52412    56.24245
   519  H   1.0    0.05    1.04    1.43    39.28828    39.64455    45.38481
   520  H   1.0    0.09    1.08    1.44    65.62382    60.69104    26.58274
   521  H   1.0    0.06    1.05    1.44    69.76500    56.77791    34.33757
   522  H   1.0    0.10    1.08    1.44    72.74219    59.96930    31.87377
   523  H   1.0    0.05    1.05    1.44    86.30344    65.94749    46.50713
   524  H   1.0    0.09    1.08    1.44    72.74464    72.09800    29.37120
   525  H   1.0    0.04    1.05    1.44    67.62634    76.23292    30.66644
   526  H   1.0    0.09    1.08    1.44    61.23812    69.81712    27.64232
   527  H   1.0    0.05    1.03    1.43    57.35827    74.40082    25.55601
   528  H   1.0    0.09    1.08    1.44    54.43754    66.25694    19.99483
   529  H   1.0    0.06    1.05    1.44    49.60618    68.64077    23.09407

  Z AO/shell   Hii/eV     exponent
  1     Wed Apr 25 08:07:45 CEST 2018   EN: 2.200 GM2: 0.406  GM3: 0.0800  RAES: 1.40
     1s    -10.707211    1.230000
  6     Wed Apr 25 08:07:45 CEST 2018   EN: 2.550 GM2: 0.538  GM3: 0.1500  RAES: 3.00
     2s    -13.970922    2.096432
     2p    -10.063292    1.800000
  7     Wed Apr 25 08:07:45 CEST 2018   EN: 3.040 GM2: 0.461  GM3:-0.0640  RAES: 1.90
     2s    -16.686243    2.339881
     2p    -12.523956    2.014332
  8     Wed Apr 25 08:07:45 CEST 2018   EN: 3.440 GM2: 0.452  GM3:-0.0517  RAES: 1.80
     2s    -20.229985    2.439742
     2p    -15.503117    2.137023
 16     Tue Apr 24 11:44:34 CEST 2018   EN: 2.580 GM2: 0.340  GM3:-0.0502  RAES: 3.10
     3s    -20.029654    1.981333
     3p    -11.377694    2.025643
     3d     -0.420282    1.702555
 no old-style atom pair restraining (fixing) potential

molecular fragmentation (1/2 indicates fragments):
111111111111111111122222222222222222222222222222222222222222222222222222
222222222222222222222222222222222222222222222222222222222222222222222222
222222222222222222222222222222222222222222222222222222222222222222222222
222222222222222222222222222222222222222222222222222222222222222222222222
222222222222222222222222222222222222222222222222222222222222222222222222
222222222222222222222222222222222222222222222222222222222222222222222222
222222222222222222222222222222222222222222222222222222222222222222222222
2221122222222222222222222
# atoms in fragment 1/2:    21   508
 fragment masses (1/2) :      115.17     3414.17
CMA distance (Bohr)    :  20.973
constraining FC (au)   :  0.0500
           ------------------------------------------------- 
          |        Self-Consistent Charge Iterations        |
           ------------------------------------------------- 

 Ncao       : 1279
 Nao        : 1278
 Nshell     : 778
 Nel        : 1400
 T(el)      :   500.0
 intcut     :    35.0
 scfconv/Eh :  0.100E-06
   qconv/e  :  0.100E-04
 intneglect :  0.100E-08
 broydamp   :      0.400
 iter      E             dE          RMSdq      gap      omega  full diag
   1   -798.2230187 -0.798223E+03  0.451E+00    0.08       0.0  T
   2   -799.7438168 -0.152080E+01  0.235E+00    0.21       1.0  T
   3   -798.6538704  0.108995E+01  0.188E+00    0.45       1.0  T
   4   -799.9684881 -0.131462E+01  0.112E+00    0.03       1.0  T
   5   -799.9385182  0.299699E-01  0.925E-01    0.79       1.0  T
   6   -800.2156060 -0.277088E+00  0.758E-01    0.04       1.0  T
   7   -800.1070780  0.108528E+00  0.785E-01    0.14       1.0  T
   8   -800.2798725 -0.172794E+00  0.597E-01    0.03       1.0  T
   9   -800.1669629  0.112910E+00  0.730E-01    0.23       1.0  T
  10   -800.2298007 -0.628378E-01  0.704E-01    0.08       1.0  T
  11   -800.1379969  0.918038E-01  0.738E-01    0.06       1.0  T
  12   -800.3915656 -0.253569E+00  0.370E-01    0.02       1.0  T
  13   -800.3765752  0.149905E-01  0.388E-01    0.06       1.0  T
  14   -800.3967001 -0.201249E-01  0.325E-01    0.00       1.0  T
  15   -800.2626475  0.134053E+00  0.543E-01    0.16       1.0  T
  16   -800.3951545 -0.132507E+00  0.317E-01    0.04       1.0  T
  17   -800.4305163 -0.353618E-01  0.215E-01    0.05       1.0  T
  18   -800.4443162 -0.137998E-01  0.161E-01    0.02       1.0  T
  19   -800.4523771 -0.806097E-02  0.114E-01    0.01       1.0  T
  20   -800.4582884 -0.591131E-02  0.622E-02    0.02       1.0  T
  21   -800.4575099  0.778581E-03  0.703E-02    0.02       1.0  T
  22   -800.4589949 -0.148501E-02  0.513E-02    0.02       1.0  T
  23   -800.4606828 -0.168791E-02  0.163E-02    0.02       1.0  T
  24   -800.4604417  0.241091E-03  0.248E-02    0.01       1.0  T
  25   -800.4607255 -0.283777E-03  0.138E-02    0.01       1.0  T
  26   -800.4608288 -0.103341E-03  0.622E-03    0.01       1.0  T
  27   -800.4608469 -0.181100E-04  0.302E-03    0.01       1.4  T
  28   -800.4608504 -0.348444E-05  0.208E-03    0.01       2.1  T
  29   -800.4608518 -0.144279E-05  0.143E-03    0.01       3.0  T
  30   -800.4608528 -0.997099E-06  0.712E-04    0.01       6.1  T
  31   -800.4608531 -0.218294E-06  0.447E-04    0.01       9.7  T
  32   -800.4608532 -0.105756E-06  0.193E-04    0.01      22.5  T
  33   -800.4608532 -0.197442E-07  0.856E-05    0.01      50.8  T
  34   -800.4608532 -0.174657E-08  0.688E-05    0.01      63.2  T
speedup  1.00
cpu  time for SCC   25.21 s
wall time for SCC   25.21 s

   *** convergence criteria satisfied after 34 iterations ***

          eigenvalues
 #    :         688        689        690        691        692        693        694        695
 occ. :        2.000      2.000      2.000      2.000      2.000      2.000      2.000      2.000
 eps  :        -9.903     -9.840     -9.812     -9.808     -9.758     -9.739     -9.730     -9.693
 #    :         696        697        698        699        700        701        702        703
 occ. :        2.000      2.000      2.000      2.000      0.514      0.397      0.238      0.201
 eps  :        -9.570     -9.454     -9.399     -9.364     -7.425     -7.411     -7.385     -7.377
 #    :         704        705        706        707        708        709        710        711
 occ. :        0.187      0.123      0.112      0.076      0.070      0.051      0.030      0.000
 eps  :        -7.373     -7.354     -7.350     -7.332     -7.328     -7.315     -7.291     -6.679


   #   Z            q   n(s)   n(p)   n(d)      C6AA      α(0)
   1   7 N     -0.415  1.297  4.118  0.000    30.794     8.242
   2   6 C      0.034  1.023  2.942  0.000    19.996     6.367
   3   6 C      0.187  1.079  2.735  0.000    24.000     8.024
   4   8 O     -0.399  1.758  4.641  0.000    21.663     6.240
   5   6 C     -0.076  1.026  3.050  0.000    21.918     6.658
   6   6 C     -0.012  1.028  2.984  0.000    20.748     6.477
   7   6 C     -0.134  0.997  3.137  0.000    23.095     6.846
   8   6 C     -0.132  0.996  3.136  0.000    23.045     6.838
   9   1 H      0.180  0.820  0.000  0.000     1.215     1.726
  10   1 H      0.056  0.944  0.000  0.000     2.243     2.342
  11   1 H      0.064  0.936  0.000  0.000     2.154     2.295
  12   1 H      0.043  0.957  0.000  0.000     2.408     2.426
  13   1 H      0.041  0.959  0.000  0.000     2.437     2.441
  14   1 H      0.049  0.951  0.000  0.000     2.332     2.388
  15   1 H      0.049  0.951  0.000  0.000     2.333     2.388
  16   1 H      0.042  0.958  0.000  0.000     2.423     2.434
  17   1 H      0.039  0.961  0.000  0.000     2.465     2.455
  18   1 H      0.034  0.966  0.000  0.000     2.529     2.487
  19   1 H      0.052  0.948  0.000  0.000     2.290     2.366
  20   7 N     -0.411  1.302  4.109  0.000    30.685     8.227
  21   6 C      0.014  1.027  2.958  0.000    20.338     6.422
  22   6 C      0.270  1.045  2.685  0.000    22.440     7.757
  23   8 O     -0.514  1.745  4.769  0.000    24.091     6.581
  24   6 C     -0.088  1.032  3.056  0.000    22.141     6.694
  25   6 C     -0.009  1.024  2.985  0.000    20.703     6.471
  26   6 C     -0.131  1.000  3.131  0.000    23.029     6.836
  27   6 C     -0.121  0.996  3.125  0.000    22.842     6.808
  28   1 H      0.174  0.826  0.000  0.000     1.247     1.749
  29   1 H      0.070  0.930  0.000  0.000     2.087     2.259
  30   1 H      0.053  0.947  0.000  0.000     2.279     2.361
  31   1 H      0.053  0.947  0.000  0.000     2.278     2.360
  32   1 H      0.032  0.968  0.000  0.000     2.558     2.501
  33   1 H      0.047  0.953  0.000  0.000     2.355     2.400
  34   1 H      0.047  0.953  0.000  0.000     2.354     2.399
  35   1 H      0.048  0.952  0.000  0.000     2.342     2.393
  36   1 H      0.032  0.968  0.000  0.000     2.553     2.498
  37   1 H      0.045  0.955  0.000  0.000     2.385     2.415
  38   1 H      0.031  0.969  0.000  0.000     2.566     2.505
  39   7 N     -0.173  1.221  3.952  0.000    24.739     7.387
  40   6 C      0.036  1.033  2.931  0.000    19.947     6.354
  41   6 C      0.172  1.065  2.763  0.000    24.280     8.070
  42   8 O     -0.415  1.755  4.660  0.000    21.990     6.287
  43   6 C     -0.002  1.025  2.978  0.000    20.608     6.460
  44  16 S     -0.310  1.905  4.369  0.037   154.537    20.923
  45   1 H      0.224  0.776  0.000  0.000     0.990     1.558
  46   1 H      0.073  0.927  0.000  0.000     2.048     2.238
  47   1 H      0.062  0.938  0.000  0.000     2.170     2.303
  48   1 H      0.054  0.946  0.000  0.000     2.267     2.354
  49   1 H      0.205  0.795  0.000  0.000     1.071     1.619
  50   7 N     -0.426  1.303  4.123  0.000    31.101     8.283
  51   6 C      0.043  1.026  2.931  0.000    19.868     6.348
  52   6 C      0.186  1.087  2.727  0.000    24.018     8.026
  53   8 O     -0.410  1.744  4.667  0.000    21.892     6.273
  54   6 C     -0.120  0.995  3.126  0.000    22.839     6.810
  55   1 H      0.190  0.810  0.000  0.000     1.160     1.687
  56   1 H      0.070  0.930  0.000  0.000     2.086     2.258
  57   1 H      0.053  0.947  0.000  0.000     2.283     2.363
  58   1 H      0.062  0.938  0.000  0.000     2.171     2.304
  59   1 H      0.047  0.953  0.000  0.000     2.359     2.402
  60   7 N     -0.412  1.307  4.104  0.000    30.699     8.229
  61   6 C      0.034  1.033  2.933  0.000    20.018     6.372
  62   6 C      0.182  1.076  2.742  0.000    24.092     8.038
  63   8 O     -0.380  1.735  4.645  0.000    21.278     6.185
  64   6 C     -0.103  1.030  3.073  0.000    22.436     6.738
  65   6 C      0.303  1.011  2.686  0.000    21.854     7.655
  66   8 O     -0.552  1.751  4.801  0.000    24.963     6.699
  67   7 N     -0.234  1.208  4.026  0.000    26.127     7.592
  68   1 H      0.177  0.823  0.000  0.000     1.232     1.739
  69   1 H      0.094  0.906  0.000  0.000     1.837     2.119
  70   1 H      0.077  0.923  0.000  0.000     2.011     2.218
  71   1 H      0.052  0.948  0.000  0.000     2.298     2.370
  72   1 H      0.239  0.761  0.000  0.000     0.929     1.510
  73   1 H      0.218  0.782  0.000  0.000     1.019     1.581
  74   7 N     -0.395  1.283  4.112  0.000    30.225     8.165
  75   6 C      0.035  1.027  2.938  0.000    19.986     6.366
  76   6 C      0.176  1.077  2.747  0.000    24.214     8.059
  77   8 O     -0.404  1.728  4.675  0.000    21.755     6.253
  78   6 C     -0.082  1.017  3.065  0.000    22.043     6.680
  79   6 C      0.001  1.076  2.923  0.000    28.007     8.681
  80   6 C     -0.050  1.056  2.993  0.000    29.228     8.868
  81   6 C     -0.054  1.060  2.995  0.000    29.348     8.886
  82   6 C     -0.034  1.054  2.980  0.000    28.848     8.810
  83   6 C     -0.043  1.057  2.986  0.000    29.068     8.843
  84   6 C     -0.041  1.055  2.986  0.000    29.024     8.837
  85   1 H      0.169  0.831  0.000  0.000     1.278     1.771
  86   1 H      0.081  0.919  0.000  0.000     1.966     2.192
  87   1 H      0.048  0.952  0.000  0.000     2.341     2.392
  88   1 H      0.069  0.931  0.000  0.000     2.091     2.261
  89   1 H      0.034  0.966  0.000  0.000     2.524     2.484
  90   1 H      0.055  0.945  0.000  0.000     2.257     2.349
  91   1 H      0.026  0.974  0.000  0.000     2.645     2.543
  92   1 H      0.048  0.952  0.000  0.000     2.342     2.393
  93   1 H      0.028  0.972  0.000  0.000     2.613     2.528
  94   7 N     -0.424  1.308  4.116  0.000    31.036     8.274
  95   6 C      0.026  1.050  2.924  0.000    20.050     6.359
  96   6 C      0.331  0.975  2.694  0.000    21.382     7.574
  97   8 O     -0.633  1.753  4.880  0.000    26.938     6.959
  98   6 C     -0.082  1.020  3.063  0.000    22.053     6.682
  99   6 C     -0.118  1.023  3.094  0.000    22.726     6.783
 100   6 C      0.294  1.014  2.692  0.000    22.015     7.683
 101   8 O     -0.533  1.750  4.783  0.000    24.531     6.641
 102   7 N     -0.266  1.221  4.045  0.000    26.894     7.702
 103   1 H      0.186  0.814  0.000  0.000     1.181     1.702
 104   1 H      0.063  0.937  0.000  0.000     2.163     2.300
 105   1 H      0.068  0.932  0.000  0.000     2.105     2.269
 106   1 H      0.048  0.952  0.000  0.000     2.350     2.397
 107   1 H      0.079  0.921  0.000  0.000     1.987     2.204
 108   1 H      0.062  0.938  0.000  0.000     2.171     2.304
 109   1 H      0.236  0.764  0.000  0.000     0.940     1.518
 110   1 H      0.232  0.768  0.000  0.000     0.956     1.532
 111   7 N     -0.130  1.243  3.888  0.000    23.822     7.249
 112   6 C     -0.073  1.111  2.962  0.000    22.775     6.947
 113   6 C      0.277  1.028  2.695  0.000    22.310     7.736
 114   8 O     -0.487  1.747  4.740  0.000    23.495     6.499
 115   6 C     -0.146  0.996  3.150  0.000    23.337     6.883
 116   1 H      0.104  0.896  0.000  0.000     1.745     2.066
 117   1 H      0.081  0.919  0.000  0.000     1.964     2.191
 118   1 H      0.086  0.914  0.000  0.000     1.919     2.166
 119   1 H      0.073  0.927  0.000  0.000     2.056     2.242
 120   1 H      0.286  0.714  0.000  0.000     0.756     1.361
 121   7 N     -0.180  1.212  3.968  0.000    24.895     7.410
 122   6 C     -0.011  1.031  2.980  0.000    20.769     6.487
 123   6 C      0.275  1.034  2.691  0.000    22.358     7.744
 124   8 O     -0.511  1.750  4.761  0.000    24.028     6.572
 125   6 C     -0.105  1.025  3.080  0.000    22.482     6.748
 126   6 C     -0.100  1.010  3.089  0.000    22.383     6.733
 127   6 C     -0.032  1.015  3.017  0.000    21.202     6.565
 128   7 N     -0.194  1.181  4.013  0.000    25.205     7.456
 129   6 C      0.272  0.966  2.762  0.000    22.397     7.749
 130   7 N     -0.199  1.169  4.030  0.000    25.313     7.472
 131   7 N     -0.246  1.180  4.066  0.000    26.391     7.630
 132   1 H      0.219  0.781  0.000  0.000     1.015     1.578
 133   1 H      0.109  0.891  0.000  0.000     1.706     2.042
 134   1 H      0.087  0.913  0.000  0.000     1.904     2.158
 135   1 H      0.084  0.916  0.000  0.000     1.939     2.178
 136   1 H      0.073  0.927  0.000  0.000     2.058     2.243
 137   1 H      0.064  0.936  0.000  0.000     2.153     2.295
 138   1 H      0.071  0.929  0.000  0.000     2.071     2.250
 139   1 H      0.091  0.909  0.000  0.000     1.871     2.139
 140   1 H      0.195  0.805  0.000  0.000     1.132     1.667
 141   1 H      0.245  0.755  0.000  0.000     0.901     1.487
 142   1 H      0.270  0.730  0.000  0.000     0.811     1.410
 143   1 H      0.227  0.773  0.000  0.000     0.977     1.548
 144   1 H      0.265  0.735  0.000  0.000     0.827     1.424
 145   7 N     -0.179  1.223  3.957  0.000    24.884     7.409
 146   6 C      0.000  1.034  2.966  0.000    20.565     6.454
 147   6 C      0.265  1.039  2.696  0.000    22.524     7.774
 148   8 O     -0.499  1.736  4.763  0.000    23.762     6.536
 149   6 C      0.113  1.025  2.862  0.000    18.771     6.175
 150   8 O     -0.500  1.714  4.786  0.000    22.882     6.458
 151   6 C     -0.164  1.002  3.163  0.000    23.718     6.939
 152   1 H      0.221  0.779  0.000  0.000     1.005     1.570
 153   1 H      0.097  0.903  0.000  0.000     1.812     2.105
 154   1 H      0.057  0.943  0.000  0.000     2.239     2.340
 155   1 H      0.358  0.642  0.000  0.000     0.568     1.184
 156   1 H      0.085  0.915  0.000  0.000     1.924     2.169
 157   1 H      0.064  0.936  0.000  0.000     2.150     2.293
 158   1 H      0.074  0.926  0.000  0.000     2.045     2.236
 159   7 N     -0.181  1.216  3.966  0.000    24.927     7.415
 160   6 C      0.005  1.046  2.949  0.000    20.476     6.439
 161   6 C      0.274  1.036  2.690  0.000    22.368     7.746
 162   8 O     -0.487  1.727  4.760  0.000    23.494     6.499
 163   6 C     -0.021  1.031  2.990  0.000    20.907     6.502
 164   6 C     -0.155  0.998  3.157  0.000    23.513     6.907
 165   6 C     -0.138  0.994  3.145  0.000    23.175     6.857
 166   1 H      0.227  0.773  0.000  0.000     0.977     1.548
 167   1 H      0.099  0.901  0.000  0.000     1.793     2.094
 168   1 H      0.071  0.929  0.000  0.000     2.071     2.250
 169   1 H      0.070  0.930  0.000  0.000     2.089     2.260
 170   1 H      0.060  0.940  0.000  0.000     2.197     2.318
 171   1 H      0.082  0.918  0.000  0.000     1.959     2.188
 172   1 H      0.068  0.932  0.000  0.000     2.109     2.271
 173   1 H      0.051  0.949  0.000  0.000     2.303     2.373
 174   1 H      0.037  0.963  0.000  0.000     2.485     2.465
 175   7 N     -0.180  1.213  3.968  0.000    24.906     7.412
 176   6 C      0.006  1.036  2.959  0.000    20.457     6.434
 177   6 C      0.274  1.036  2.690  0.000    22.378     7.751
 178   8 O     -0.490  1.738  4.752  0.000    23.566     6.509
 179   6 C     -0.015  1.025  2.990  0.000    20.784     6.479
 180   6 C     -0.128  0.992  3.136  0.000    22.961     6.824
 181   6 C     -0.141  0.994  3.147  0.000    23.221     6.862
 182   1 H      0.196  0.804  0.000  0.000     1.126     1.662
 183   1 H      0.094  0.906  0.000  0.000     1.844     2.124
 184   1 H      0.052  0.948  0.000  0.000     2.290     2.366
 185   1 H      0.056  0.944  0.000  0.000     2.251     2.346
 186   1 H      0.044  0.956  0.000  0.000     2.397     2.421
 187   1 H      0.052  0.948  0.000  0.000     2.290     2.366
 188   1 H      0.061  0.939  0.000  0.000     2.184     2.311
 189   1 H      0.053  0.947  0.000  0.000     2.281     2.362
 190   1 H      0.066  0.934  0.000  0.000     2.130     2.282
 191   7 N     -0.191  1.219  3.972  0.000    25.135     7.446
 192   6 C      0.018  1.036  2.946  0.000    20.272     6.410
 193   6 C      0.271  1.037  2.691  0.000    22.416     7.754
 194   8 O     -0.495  1.740  4.755  0.000    23.683     6.525
 195   6 C     -0.083  1.014  3.069  0.000    22.068     6.685
 196   6 C     -0.110  1.019  3.091  0.000    22.579     6.760
 197   6 C      0.296  1.011  2.694  0.000    21.983     7.677
 198   8 O     -0.533  1.738  4.795  0.000    24.532     6.641
 199   7 N     -0.259  1.218  4.041  0.000    26.723     7.678
 200   1 H      0.214  0.786  0.000  0.000     1.037     1.595
 201   1 H      0.077  0.923  0.000  0.000     2.005     2.214
 202   1 H      0.077  0.923  0.000  0.000     2.014     2.219
 203   1 H      0.081  0.919  0.000  0.000     1.973     2.196
 204   1 H      0.051  0.949  0.000  0.000     2.301     2.372
 205   1 H      0.077  0.923  0.000  0.000     2.009     2.216
 206   1 H      0.218  0.782  0.000  0.000     1.017     1.579
 207   1 H      0.248  0.752  0.000  0.000     0.889     1.477
 208   7 N     -0.190  1.220  3.970  0.000    25.115     7.443
 209   6 C      0.011  1.036  2.954  0.000    20.389     6.427
 210   6 C      0.274  1.032  2.694  0.000    22.362     7.745
 211   8 O     -0.488  1.751  4.737  0.000    23.511     6.501
 212   6 C     -0.104  1.021  3.083  0.000    22.462     6.743
 213   6 C     -0.087  1.011  3.075  0.000    22.136     6.696
 214   6 C     -0.032  1.019  3.012  0.000    21.196     6.565
 215   7 N     -0.203  1.189  4.013  0.000    25.397     7.485
 216   6 C      0.265  0.971  2.764  0.000    22.530     7.771
 217   7 N     -0.220  1.175  4.046  0.000    25.798     7.544
 218   7 N     -0.244  1.184  4.061  0.000    26.363     7.626
 219   1 H      0.219  0.781  0.000  0.000     1.014     1.577
 220   1 H      0.091  0.909  0.000  0.000     1.873     2.140
 221   1 H      0.107  0.893  0.000  0.000     1.722     2.052
 222   1 H      0.067  0.933  0.000  0.000     2.123     2.279
 223   1 H      0.063  0.937  0.000  0.000     2.158     2.297
 224   1 H      0.068  0.932  0.000  0.000     2.110     2.271
 225   1 H      0.088  0.912  0.000  0.000     1.897     2.154
 226   1 H      0.090  0.910  0.000  0.000     1.877     2.142
 227   1 H      0.213  0.787  0.000  0.000     1.044     1.601
 228   1 H      0.252  0.748  0.000  0.000     0.876     1.466
 229   1 H      0.266  0.734  0.000  0.000     0.823     1.421
 230   1 H      0.247  0.753  0.000  0.000     0.895     1.482
 231   1 H      0.267  0.733  0.000  0.000     0.822     1.420
 232   7 N     -0.191  1.215  3.976  0.000    25.134     7.446
 233   6 C      0.020  1.033  2.947  0.000    20.227     6.401
 234   6 C      0.274  1.037  2.689  0.000    22.364     7.746
 235   8 O     -0.493  1.737  4.756  0.000    23.618     6.516
 236   6 C     -0.082  1.013  3.068  0.000    22.028     6.677
 237   6 C     -0.107  1.016  3.091  0.000    22.512     6.749
 238   6 C      0.298  1.009  2.693  0.000    21.947     7.671
 239   8 O     -0.558  1.758  4.801  0.000    25.114     6.719
 240   7 N     -0.255  1.217  4.038  0.000    26.614     7.662
 241   1 H      0.209  0.791  0.000  0.000     1.059     1.612
 242   1 H      0.084  0.916  0.000  0.000     1.933     2.174
 243   1 H      0.078  0.922  0.000  0.000     1.995     2.208
 244   1 H      0.079  0.921  0.000  0.000     1.993     2.208
 245   1 H      0.060  0.940  0.000  0.000     2.193     2.316
 246   1 H      0.061  0.939  0.000  0.000     2.192     2.315
 247   1 H      0.254  0.746  0.000  0.000     0.867     1.459
 248   1 H      0.240  0.760  0.000  0.000     0.922     1.504
 249   7 N     -0.177  1.213  3.964  0.000    24.833     7.401
 250   6 C      0.024  1.032  2.944  0.000    20.155     6.388
 251   6 C      0.269  1.034  2.697  0.000    22.458     7.761
 252   8 O     -0.472  1.729  4.743  0.000    23.179     6.455
 253   6 C     -0.087  1.017  3.070  0.000    22.131     6.693
 254   6 C      0.004  1.070  2.927  0.000    27.928     8.669
 255   6 C     -0.051  1.062  2.989  0.000    29.261     8.873
 256   6 C     -0.051  1.059  2.992  0.000    29.261     8.873
 257   6 C     -0.033  1.056  2.978  0.000    28.826     8.806
 258   6 C     -0.035  1.053  2.982  0.000    28.873     8.813
 259   6 C     -0.036  1.058  2.979  0.000    28.897     8.818
 260   1 H      0.196  0.804  0.000  0.000     1.126     1.662
 261   1 H      0.098  0.902  0.000  0.000     1.799     2.097
 262   1 H      0.084  0.916  0.000  0.000     1.938     2.177
 263   1 H      0.055  0.945  0.000  0.000     2.260     2.351
 264   1 H      0.059  0.941  0.000  0.000     2.211     2.325
 265   1 H      0.042  0.958  0.000  0.000     2.420     2.433
 266   1 H      0.046  0.954  0.000  0.000     2.369     2.407
 267   1 H      0.035  0.965  0.000  0.000     2.518     2.481
 268   1 H      0.044  0.956  0.000  0.000     2.392     2.418
 269   7 N     -0.191  1.215  3.976  0.000    25.134     7.446
 270   6 C      0.017  1.037  2.946  0.000    20.282     6.411
 271   6 C      0.288  1.028  2.684  0.000    22.114     7.702
 272   8 O     -0.466  1.736  4.730  0.000    23.041     6.436
 273   6 C      0.078  1.000  2.922  0.000    19.428     6.303
 274   8 O     -0.487  1.701  4.785  0.000    22.602     6.418
 275   1 H      0.210  0.790  0.000  0.000     1.056     1.610
 276   1 H      0.087  0.913  0.000  0.000     1.908     2.160
 277   1 H      0.054  0.946  0.000  0.000     2.264     2.353
 278   1 H      0.051  0.949  0.000  0.000     2.301     2.372
 279   1 H      0.350  0.650  0.000  0.000     0.587     1.203
 280   7 N     -0.197  1.218  3.980  0.000    25.282     7.468
 281   6 C      0.024  1.035  2.941  0.000    20.168     6.393
 282   6 C      0.270  1.042  2.688  0.000    22.438     7.757
 283   8 O     -0.468  1.736  4.732  0.000    23.088     6.442
 284   6 C     -0.053  1.013  3.040  0.000    21.504     6.598
 285   6 C     -0.100  1.024  3.076  0.000    22.386     6.734
 286   6 C      0.372  1.017  2.611  0.000    20.691     7.444
 287   8 O     -0.650  1.776  4.874  0.000    27.382     7.016
 288   8 O     -0.663  1.770  4.892  0.000    27.707     7.057
 289   1 H      0.186  0.814  0.000  0.000     1.179     1.701
 290   1 H      0.094  0.906  0.000  0.000     1.841     2.122
 291   1 H      0.044  0.956  0.000  0.000     2.400     2.423
 292   1 H      0.038  0.962  0.000  0.000     2.480     2.463
 293   1 H      0.041  0.959  0.000  0.000     2.430     2.438
 294   1 H      0.042  0.958  0.000  0.000     2.426     2.435
 295   7 N     -0.196  1.219  3.977  0.000    25.261     7.465
 296   6 C      0.005  1.052  2.942  0.000    20.483     6.443
 297   6 C      0.269  1.037  2.694  0.000    22.454     7.760
 298   8 O     -0.473  1.727  4.746  0.000    23.196     6.457
 299   6 C     -0.013  1.031  2.982  0.000    20.772     6.481
 300   6 C     -0.144  0.997  3.147  0.000    23.301     6.876
 301   6 C     -0.140  0.997  3.144  0.000    23.220     6.864
 302   1 H      0.191  0.809  0.000  0.000     1.153     1.682
 303   1 H      0.098  0.902  0.000  0.000     1.802     2.099
 304   1 H      0.039  0.961  0.000  0.000     2.456     2.450
 305   1 H      0.056  0.944  0.000  0.000     2.244     2.342
 306   1 H      0.073  0.927  0.000  0.000     2.047     2.237
 307   1 H      0.070  0.930  0.000  0.000     2.088     2.259
 308   1 H      0.061  0.939  0.000  0.000     2.189     2.314
 309   1 H      0.066  0.934  0.000  0.000     2.132     2.283
 310   1 H      0.043  0.957  0.000  0.000     2.413     2.429
 311   7 N     -0.165  1.211  3.953  0.000    24.561     7.360
 312   6 C      0.021  1.037  2.942  0.000    20.219     6.401
 313   6 C      0.269  1.037  2.693  0.000    22.454     7.760
 314   8 O     -0.504  1.749  4.754  0.000    23.862     6.549
 315   6 C     -0.075  1.012  3.063  0.000    21.909     6.660
 316   6 C     -0.052  1.054  2.998  0.000    29.149     8.846
 317   6 C     -0.009  1.034  2.975  0.000    28.014     8.662
 318   6 C     -0.032  1.069  2.962  0.000    28.048     8.611
 319   7 N     -0.094  1.194  3.900  0.000    23.070     7.134
 320   6 C      0.033  1.054  2.914  0.000    26.862     8.462
 321   6 C     -0.046  1.053  2.993  0.000    29.145     8.855
 322   6 C     -0.059  1.048  3.011  0.000    29.478     8.905
 323   6 C     -0.049  1.048  3.001  0.000    29.213     8.866
 324   6 C     -0.045  1.049  2.995  0.000    29.102     8.849
 325   1 H      0.180  0.820  0.000  0.000     1.213     1.725
 326   1 H      0.084  0.916  0.000  0.000     1.941     2.178
 327   1 H      0.055  0.945  0.000  0.000     2.255     2.348
 328   1 H      0.068  0.932  0.000  0.000     2.102     2.267
 329   1 H      0.029  0.971  0.000  0.000     2.597     2.520
 330   1 H      0.186  0.814  0.000  0.000     1.178     1.700
 331   1 H      0.035  0.965  0.000  0.000     2.511     2.478
 332   1 H      0.038  0.962  0.000  0.000     2.478     2.461
 333   1 H      0.041  0.959  0.000  0.000     2.429     2.437
 334   1 H      0.043  0.957  0.000  0.000     2.405     2.425
 335   7 N     -0.163  1.214  3.949  0.000    24.515     7.354
 336   6 C      0.017  1.039  2.944  0.000    20.287     6.412
 337   6 C      0.180  1.074  2.746  0.000    24.121     8.043
 338   8 O     -0.390  1.748  4.642  0.000    21.480     6.214
 339   6 C     -0.092  1.019  3.073  0.000    22.231     6.709
 340   6 C     -0.085  1.009  3.076  0.000    22.110     6.692
 341   6 C     -0.105  1.018  3.088  0.000    22.487     6.748
 342   6 C     -0.058  1.004  3.054  0.000    21.675     6.640
 343   7 N     -0.127  1.171  3.956  0.000    23.749     7.238
 344   1 H      0.219  0.781  0.000  0.000     1.013     1.576
 345   1 H      0.081  0.919  0.000  0.000     1.964     2.191
 346   1 H      0.076  0.924  0.000  0.000     2.023     2.224
 347   1 H      0.073  0.927  0.000  0.000     2.055     2.241
 348   1 H      0.062  0.938  0.000  0.000     2.171     2.304
 349   1 H      0.074  0.926  0.000  0.000     2.037     2.232
 350   1 H      0.093  0.907  0.000  0.000     1.847     2.125
 351   1 H      0.088  0.912  0.000  0.000     1.893     2.152
 352   1 H      0.105  0.895  0.000  0.000     1.739     2.062
 353   1 H      0.106  0.894  0.000  0.000     1.731     2.057
 354   1 H      0.290  0.710  0.000  0.000     0.745     1.352
 355   1 H      0.300  0.700  0.000  0.000     0.713     1.323
 356   1 H      0.299  0.701  0.000  0.000     0.717     1.326
 357   7 N     -0.415  1.302  4.112  0.000    30.780     8.240
 358   6 C      0.037  1.029  2.934  0.000    19.951     6.360
 359   6 C      0.276  1.042  2.681  0.000    22.324     7.737
 360   8 O     -0.492  1.744  4.748  0.000    23.617     6.516
 361   6 C     -0.093  1.026  3.067  0.000    22.243     6.709
 362   6 C     -0.015  1.025  2.990  0.000    20.803     6.486
 363   6 C     -0.124  0.992  3.132  0.000    22.887     6.814
 364   6 C     -0.128  0.996  3.133  0.000    22.974     6.827
 365   1 H      0.189  0.811  0.000  0.000     1.166     1.691
 366   1 H      0.035  0.965  0.000  0.000     2.515     2.480
 367   1 H      0.051  0.949  0.000  0.000     2.301     2.372
 368   1 H      0.050  0.950  0.000  0.000     2.315     2.379
 369   1 H      0.032  0.968  0.000  0.000     2.552     2.498
 370   1 H      0.055  0.945  0.000  0.000     2.252     2.346
 371   1 H      0.028  0.972  0.000  0.000     2.613     2.528
 372   1 H      0.037  0.963  0.000  0.000     2.489     2.467
 373   1 H      0.052  0.948  0.000  0.000     2.299     2.371
 374   1 H      0.040  0.960  0.000  0.000     2.452     2.449
 375   1 H      0.051  0.949  0.000  0.000     2.309     2.376
 376   7 N     -0.185  1.225  3.960  0.000    24.999     7.426
 377   6 C      0.028  1.039  2.932  0.000    20.100     6.383
 378   6 C      0.188  1.062  2.751  0.000    23.983     8.020
 379   8 O     -0.444  1.752  4.693  0.000    22.591     6.372
 380   6 C     -0.092  1.025  3.068  0.000    22.233     6.708
 381   6 C     -0.017  1.028  2.989  0.000    20.833     6.491
 382   6 C     -0.140  0.998  3.142  0.000    23.225     6.866
 383   6 C     -0.130  0.995  3.135  0.000    23.011     6.833
 384   1 H      0.216  0.784  0.000  0.000     1.026     1.586
 385   1 H      0.068  0.932  0.000  0.000     2.111     2.272
 386   1 H      0.061  0.939  0.000  0.000     2.188     2.313
 387   1 H      0.059  0.941  0.000  0.000     2.204     2.322
 388   1 H      0.045  0.955  0.000  0.000     2.383     2.414
 389   1 H      0.057  0.943  0.000  0.000     2.230     2.335
 390   1 H      0.056  0.944  0.000  0.000     2.241     2.341
 391   1 H      0.052  0.948  0.000  0.000     2.296     2.369
 392   1 H      0.045  0.955  0.000  0.000     2.381     2.413
 393   1 H      0.048  0.952  0.000  0.000     2.342     2.393
 394   1 H      0.039  0.961  0.000  0.000     2.458     2.451
 395   7 N     -0.433  1.312  4.121  0.000    31.303     8.309
 396   6 C      0.041  1.027  2.932  0.000    19.893     6.350
 397   6 C      0.268  1.042  2.690  0.000    22.474     7.764
 398   8 O     -0.506  1.734  4.772  0.000    23.912     6.556
 399   6 C     -0.121  0.994  3.127  0.000    22.843     6.809
 400   1 H      0.197  0.803  0.000  0.000     1.122     1.659
 401   1 H      0.045  0.955  0.000  0.000     2.378     2.411
 402   1 H      0.049  0.951  0.000  0.000     2.330     2.387
 403   1 H      0.051  0.949  0.000  0.000     2.308     2.376
 404   1 H      0.045  0.955  0.000  0.000     2.383     2.414
 405   7 N     -0.197  1.223  3.975  0.000    25.287     7.468
 406   6 C      0.026  1.037  2.937  0.000    20.133     6.388
 407   6 C      0.271  1.037  2.692  0.000    22.422     7.755
 408   8 O     -0.485  1.729  4.755  0.000    23.446     6.492
 409   6 C     -0.085  1.018  3.067  0.000    22.100     6.688
 410   6 C      0.003  1.074  2.923  0.000    27.953     8.673
 411   6 C     -0.049  1.059  2.990  0.000    29.212     8.866
 412   6 C     -0.047  1.058  2.989  0.000    29.165     8.859
 413   6 C     -0.035  1.054  2.981  0.000    28.864     8.812
 414   6 C     -0.040  1.051  2.989  0.000    28.997     8.833
 415   6 C     -0.042  1.055  2.986  0.000    29.027     8.837
 416   1 H      0.221  0.779  0.000  0.000     1.004     1.569
 417   1 H      0.097  0.903  0.000  0.000     1.812     2.105
 418   1 H      0.054  0.946  0.000  0.000     2.273     2.357
 419   1 H      0.097  0.903  0.000  0.000     1.815     2.107
 420   1 H      0.060  0.940  0.000  0.000     2.199     2.319
 421   1 H      0.036  0.964  0.000  0.000     2.499     2.472
 422   1 H      0.056  0.944  0.000  0.000     2.251     2.346
 423   1 H      0.039  0.961  0.000  0.000     2.457     2.451
 424   1 H      0.043  0.957  0.000  0.000     2.411     2.428
 425   7 N     -0.178  1.219  3.959  0.000    24.864     7.406
 426   6 C      0.031  1.035  2.934  0.000    20.043     6.373
 427   6 C      0.278  1.036  2.686  0.000    22.299     7.733
 428   8 O     -0.470  1.734  4.736  0.000    23.137     6.449
 429   6 C     -0.100  1.029  3.070  0.000    22.382     6.732
 430   6 C      0.372  1.018  2.611  0.000    20.700     7.446
 431   8 O     -0.651  1.767  4.884  0.000    27.401     7.018
 432   8 O     -0.656  1.776  4.880  0.000    27.541     7.036
 433   1 H      0.188  0.812  0.000  0.000     1.171     1.695
 434   1 H      0.075  0.925  0.000  0.000     2.026     2.226
 435   1 H      0.035  0.965  0.000  0.000     2.511     2.478
 436   1 H      0.051  0.949  0.000  0.000     2.302     2.372
 437   7 N     -0.175  1.215  3.960  0.000    24.788     7.394
 438   6 C      0.014  1.037  2.948  0.000    20.325     6.417
 439   6 C      0.154  1.063  2.783  0.000    24.658     8.133
 440   8 O     -0.406  1.728  4.678  0.000    21.805     6.261
 441   6 C      0.124  1.022  2.854  0.000    18.639     6.160
 442   8 O     -0.510  1.725  4.784  0.000    23.095     6.488
 443   6 C     -0.159  1.003  3.156  0.000    23.612     6.925
 444   1 H      0.208  0.792  0.000  0.000     1.064     1.616
 445   1 H      0.073  0.927  0.000  0.000     2.048     2.238
 446   1 H      0.036  0.964  0.000  0.000     2.497     2.471
 447   1 H      0.341  0.659  0.000  0.000     0.608     1.225
 448   1 H      0.077  0.923  0.000  0.000     2.015     2.220
 449   1 H      0.069  0.931  0.000  0.000     2.098     2.265
 450   1 H      0.064  0.936  0.000  0.000     2.153     2.295
 451   7 N     -0.451  1.269  4.182  0.000    31.832     8.379
 452   6 C      0.021  1.030  2.949  0.000    20.267     6.419
 453   6 C      0.092  1.096  2.812  0.000    25.948     8.346
 454   8 O     -0.661  1.887  4.774  0.000    27.676     7.053
 455   6 C     -0.041  1.040  3.001  0.000    21.260     6.555
 456   6 C     -0.095  0.964  3.131  0.000    22.292     6.719
 457   6 C     -0.157  0.957  3.200  0.000    23.556     6.914
 458   6 C     -0.148  0.974  3.174  0.000    23.370     6.885
 459   1 H      0.195  0.805  0.000  0.000     1.130     1.665
 460   1 H      0.076  0.924  0.000  0.000     2.017     2.221
 461   1 H      0.053  0.947  0.000  0.000     2.287     2.365
 462   1 H      0.068  0.932  0.000  0.000     2.112     2.272
 463   1 H      0.060  0.940  0.000  0.000     2.202     2.321
 464   1 H      0.080  0.920  0.000  0.000     1.975     2.198
 465   1 H      0.046  0.954  0.000  0.000     2.365     2.405
 466   1 H      0.029  0.971  0.000  0.000     2.601     2.522
 467   1 H      0.066  0.934  0.000  0.000     2.125     2.279
 468   1 H      0.039  0.961  0.000  0.000     2.461     2.453
 469   1 H      0.047  0.953  0.000  0.000     2.355     2.400
 470   7 N     -0.451  1.254  4.197  0.000    31.838     8.380
 471   6 C      0.041  1.028  2.931  0.000    19.925     6.363
 472   6 C      0.095  1.092  2.813  0.000    25.874     8.330
 473   8 O     -0.630  1.873  4.757  0.000    26.876     6.950
 474   6 C     -0.040  1.041  3.000  0.000    21.273     6.562
 475   6 C     -0.093  0.967  3.126  0.000    22.253     6.714
 476   6 C     -0.149  0.971  3.178  0.000    23.428     6.902
 477   6 C     -0.135  0.967  3.168  0.000    23.138     6.855
 478   1 H      0.184  0.816  0.000  0.000     1.190     1.709
 479   1 H      0.080  0.920  0.000  0.000     1.976     2.198
 480   1 H      0.068  0.932  0.000  0.000     2.111     2.272
 481   1 H      0.087  0.913  0.000  0.000     1.909     2.160
 482   1 H      0.044  0.956  0.000  0.000     2.399     2.422
 483   1 H      0.058  0.942  0.000  0.000     2.224     2.332
 484   1 H      0.041  0.959  0.000  0.000     2.435     2.440
 485   1 H      0.040  0.960  0.000  0.000     2.443     2.444
 486   1 H      0.071  0.929  0.000  0.000     2.075     2.252
 487   1 H      0.024  0.976  0.000  0.000     2.680     2.560
 488   1 H      0.040  0.960  0.000  0.000     2.444     2.444
 489   7 N     -0.409  1.306  4.103  0.000    30.623     8.219
 490   6 C      0.037  1.035  2.928  0.000    19.964     6.363
 491   6 C      0.203  1.084  2.713  0.000    23.692     7.971
 492   8 O     -0.401  1.748  4.653  0.000    21.695     6.245
 493   6 C     -0.081  1.030  3.051  0.000    22.019     6.677
 494   6 C     -0.014  1.026  2.988  0.000    20.785     6.483
 495   6 C     -0.133  0.998  3.135  0.000    23.083     6.845
 496   6 C     -0.118  0.993  3.125  0.000    22.776     6.798
 497   1 H      0.163  0.837  0.000  0.000     1.313     1.795
 498   1 H      0.072  0.928  0.000  0.000     2.060     2.245
 499   1 H      0.054  0.946  0.000  0.000     2.271     2.356
 500   1 H      0.046  0.954  0.000  0.000     2.364     2.404
 501   1 H      0.049  0.951  0.000  0.000     2.332     2.388
 502   1 H      0.053  0.947  0.000  0.000     2.285     2.364
 503   1 H      0.050  0.950  0.000  0.000     2.314     2.379
 504   1 H      0.045  0.955  0.000  0.000     2.386     2.415
 505   1 H      0.047  0.953  0.000  0.000     2.356     2.400
 506   1 H      0.039  0.961  0.000  0.000     2.462     2.453
 507   1 H      0.031  0.969  0.000  0.000     2.577     2.510
 508   1 H      0.187  0.813  0.000  0.000     1.173     1.696
 509   1 H      0.046  0.954  0.000  0.000     2.371     2.408
 510   1 H      0.189  0.811  0.000  0.000     1.164     1.690
 511   1 H      0.047  0.953  0.000  0.000     2.351     2.398
 512   1 H      0.181  0.819  0.000  0.000     1.208     1.722
 513   1 H      0.047  0.953  0.000  0.000     2.354     2.399
 514   1 H      0.182  0.818  0.000  0.000     1.200     1.716
 515   1 H      0.057  0.943  0.000  0.000     2.232     2.336
 516   1 H      0.167  0.833  0.000  0.000     1.292     1.780
 517   1 H      0.058  0.942  0.000  0.000     2.216     2.328
 518   1 H      0.195  0.805  0.000  0.000     1.129     1.665
 519   1 H      0.054  0.946  0.000  0.000     2.264     2.353
 520   1 H      0.181  0.819  0.000  0.000     1.211     1.723
 521   1 H      0.031  0.969  0.000  0.000     2.568     2.506
 522   1 H      0.170  0.830  0.000  0.000     1.275     1.768
 523   1 H      0.051  0.949  0.000  0.000     2.302     2.372
 524   1 H      0.161  0.839  0.000  0.000     1.329     1.805
 525   1 H      0.040  0.960  0.000  0.000     2.443     2.444
 526   1 H      0.160  0.840  0.000  0.000     1.337     1.811
 527   1 H      0.033  0.967  0.000  0.000     2.539     2.492
 528   1 H      0.189  0.811  0.000  0.000     1.164     1.690
 529   1 H      0.050  0.950  0.000  0.000     2.323     2.383

 Mol. C6AA /au·bohr⁶  :    2552090.672403
 Mol. C8AA /au·bohr⁸  :   57086387.290218
 Mol. α(0) /au        :       2403.220116

 
molecular dipole:
                 x           y           z       tot (Debye)
 q only:      -59.005     -57.694      -0.488
   full:      -56.181     -56.711      -1.875     202.960
molecular quadrupole (traceless):
                xx          xy          yy          xz          yz          zz
 q only:    -2430.239   -4354.888   -2802.783     364.595     688.283    5233.022
  q+dip:    -2134.624   -4018.783   -2796.063     422.548     630.201    4930.688
   full:    -2137.352   -4019.851   -2798.400     416.080     635.299    4935.752
speedup  1.00
cpu  time for grad   28.45 s
wall time for grad   28.45 s

SCC energy    :    -800.4858486
rep           :      15.5154775
ES            :       2.5528001
AES           :      -0.0200195
AXC           :       0.1794760
disp          :      -0.6826505
XB            :       0.0000000
fix           :       0.0000000
Gborn         :       0.0000000
Gsasa         :       0.0000000
Ghb           :       0.0000000
Gshift        :       0.0000000
Gsolv         :      -0.7004431     -439.53
Etot ala COSMO:    -800.4858486
grad norm     :       2.5375097
total E       :    -784.8976563
atomizationE  :     144.3462101    90578.61
(atE without considering molecular charge,
 total energy contains solvation terms)
H-L gap (eV)  :          0.0144

------------------------------------------------------------------------
 * finished run on 2019/03/15 at 00:15:48.097     
------------------------------------------------------------------------
 total:
 * wall-time:     0 d,  0 h,  0 min, 29.406 sec
 *  cpu-time:     0 d,  0 h,  0 min, 29.335 sec
 * ratio c/w:     0.998 speedup
 SCF:
 * wall-time:     0 d,  0 h,  0 min, 29.089 sec
 *  cpu-time:     0 d,  0 h,  0 min, 29.088 sec
 * ratio c/w:     1.000 speedup

