      -----------------------------------------------------------      
     |                   =====================                   |     
     |                           x T B                           |     
     |                   =====================                   |     
     |                         S. Grimme                         |     
     |          Mulliken Center for Theoretical Chemistry        |     
     |                    University of Bonn                     |     
     |                 Version 6.0.1 (SAW181210)                 |     
      -----------------------------------------------------------      

   This program is distributed in the hope that it will be useful,
   but WITHOUT ANY WARRANTY; without even the implied warranty of
   MERCHANTABILITY or FITNESS FOR A PARTICULAR PURPOSE.
   
   FOR NON-COMMERCIAL, ACADEMIA USE ONLY.
   
   Cite this work as:
   S. Grimme, C. Bannwarth, P. Shushkov, J. Comput. Theory Chem., 2017,
   13, 1989-2009.
   C. Bannwarth, S. Ehlert and S. Grimme., ChemRxiv, 2018, preprint.
   http://doi.org/10.26434/chemrxiv.7246238.v1
   
   for sTDA-xTB:
   S. Grimme and C. Bannwarth, J. Chem. Phys., 2016, 145, 054103.
   
   in the mass-spec context:
   V. Asgeirsson, C. Bauer and S. Grimme, Chem. Sci., 2017, 8, 4879.
   
   if GBSA is used:
   P. Shushkov, F. März and S. Grimme, unpublished.
   
   for ANC optimizer:
   S. Grimme, unpublished.
   Rational Function algorithm used in ANCopt:
   F. Eckert, P. Pulay, H.-J. Werner, J. Comput. Chem., 1997, 18, 1473.
   
   with help from (in alphabetical order)
   C. Bannwarth, F. Bohle, G. Brandenburg, E. Caldeweyher, M. Checinski,
   S. Dohm, S. Ehlert, S. Ehrlich, F. März, H. Neugebauer, J. Pisarek,
   P. Pracht, P. Shushkov, and S. Spicher.
   
 * started run on 2019/03/07 at 11:37:45.180     
========================================================================
 # omp threads = 1
========================================================================
number of atoms            : 115
number of electrons        : 312
charge                     : -1
spin                       : .0
first test random number   : .2096
           ------------------------------------------------- 
          |                 G F N 2 - x T B                 |
          | Geometry, Frequencies, Noncovalent interactions |
          |            JCTC 2018 parametrisation            |
           ------------------------------------------------- 
 
      method parameters     
 k(s)        :  1.8500
 k(p)        :  2.2300
 k(d)        :  2.2300
 k(f)        :  2.0000
 kEN (H0ij)  : -2.0000
 D4 a1       :  0.5200
 D4 a2       :  5.0000
 D4 s6       :  1.0000
 D4 s8       :  2.7000
 D4 s9       :  5.0000
 alphaj      :  2.0000

 Solvent             : h2o
 Using internal parameter file: .param_gbsa2_h2o
 Gsolv ref. state (COSMO-RS): gsolv [1 M gas/solution]
 temperature (mdtemp)       :    298.150000000000     
 dielectric constant        :    80.2000000000000     
 rho                        :    1.00000000000000     
 mass                       :    18.0000000000000     
 surface tension            :    15.5689454083859     
 probe radius               :   0.975313790000000     
 vdW radii scaling          :    1.00000000000000     
 Gshift (Eh)                :   1.857443126794793E-003
 c1                         :    1.55243817000000     
 soset                      :   0.130326360000000     
 HB correction              :  T

            Z     q(EN)     CN     RAES       Cart. coordinates
     1  N   5.0   -0.24    3.24    1.97   269.34453   102.85967   232.14149
     2  C   4.0    0.03    4.42    4.42   266.66112   103.08455   232.57424
     3  C   4.0    0.14    3.43    3.09   265.94680   103.88013   235.27088
     4  O   6.0   -0.31    1.24    1.80   265.75783   102.30976   236.97730
     5  C   4.0    0.05    4.31    4.21   265.24760   100.62413   231.86748
     6  O   6.0   -0.30    2.15    1.85   266.15845    99.80777   229.44675
     7  C   4.0   -0.09    4.16    3.93   262.35443   101.07388   231.67284
     8  H   1.0    0.10    1.08    1.44   269.92090   101.34411   232.26433
     9  H   1.0    0.04    1.14    1.45   266.12822   104.44515   231.46686
    10  H   1.0    0.05    1.10    1.44   265.54996    99.36746   233.16762
    11  H   1.0    0.13    1.08    1.44   265.41579    98.46984   229.02534
    12  H   1.0    0.04    1.05    1.44   261.51917    99.50352   231.22876
    13  H   1.0    0.05    1.05    1.44   261.71760   101.66915   233.28478
    14  H   1.0    0.04    1.05    1.44   262.01617   102.33055   230.38216
    15  N   5.0   -0.17    3.49    2.07   265.68413   106.34622   235.66394
    16  C   4.0    0.03    4.52    4.56   265.03028   107.34966   238.15460
    17  C   4.0    0.15    3.45    3.09   262.29585   106.84888   238.91994
    18  O   6.0   -0.32    1.24    1.80   260.59321   107.95626   237.81445
    19  C   4.0   -0.06    4.50    4.54   265.49705   110.15402   238.18862
    20  C   4.0   -0.04    4.30    4.20   268.19747   111.09132   238.65916
    21  C   4.0   -0.10    4.25    4.10   270.07396   109.82142   236.91683
    22  C   4.0   -0.10    4.21    4.03   268.28628   113.96559   238.27932
    23  H   1.0    0.08    1.13    1.45   265.87688   107.47627   234.51121
    24  H   1.0    0.05    1.14    1.45   266.09420   106.47661   239.36592
    25  H   1.0    0.04    1.11    1.44   264.94147   110.83243   236.57857
    26  H   1.0    0.04    1.11    1.44   264.41801   110.88534   239.47930
    27  H   1.0    0.03    1.12    1.45   268.66423   110.66613   240.38070
    28  H   1.0    0.03    1.06    1.44   271.75771   110.45637   237.26454
    29  H   1.0    0.04    1.06    1.44   270.03617   108.00918   237.19273
    30  H   1.0    0.04    1.06    1.44   269.63366   110.18236   235.17450
    31  H   1.0    0.03    1.05    1.44   269.99082   114.57030   238.57412
    32  H   1.0    0.03    1.06    1.44   267.78362   114.37188   236.56345
    33  H   1.0    0.03    1.05    1.44   267.13922   114.77440   239.45851
    34  N   5.0   -0.16    3.47    2.06   261.91791   104.99884   240.59613
    35  C   4.0    0.03    4.51    4.54   259.38945   104.39413   241.58068
    36  C   4.0    0.16    3.47    3.10   258.57876   106.45393   243.41938
    37  O   6.0   -0.32    1.29    1.80   259.68425   106.78841   245.41115
    38  C   4.0    0.06    4.30    4.20   259.38567   101.76741   242.96207
    39  O   6.0   -0.29    2.15    1.85   260.95604   101.90914   245.16927
    40  C   4.0   -0.07    4.18    3.95   260.26062    99.66604   241.19895
    41  H   1.0    0.10    1.13    1.45   263.10654   104.06532   241.19139
    42  H   1.0    0.06    1.13    1.45   258.21593   104.30342   240.17472
    43  H   1.0    0.05    1.10    1.44   257.67169   101.36490   243.47418
    44  H   1.0    0.17    1.13    1.45   260.97682   103.40202   245.70973
    45  H   1.0    0.05    1.05    1.44   260.24172    98.06733   242.09468
    46  H   1.0    0.06    1.06    1.44   259.13434    99.56966   239.75520
    47  H   1.0    0.06    1.06    1.44   261.96326   100.02130   240.62069
    48  N   5.0   -0.16    3.50    2.08   256.63045   107.85800   242.70317
    49  C   4.0    0.03    4.66    4.72   255.69882   109.90268   244.36802
    50  C   4.0    0.15    3.48    3.11   253.43304   108.85577   245.75697
    51  O   6.0   -0.31    1.24    1.80   251.58488   108.07343   244.58912
    52  C   4.0   -0.03    4.47    4.49   255.13946   112.32342   242.99608
    53  C   4.0   -0.06    4.33    4.25   257.49595   113.26450   241.56367
    54  C   4.0   -0.09    4.27    4.14   254.25129   114.32275   244.81967
    55  C   4.0   -0.09    4.17    3.93   259.88645   113.29474   243.16049
    56  H   1.0    0.10    1.12    1.45   255.82543   107.68225   241.30289
    57  H   1.0    0.05    1.16    1.46   257.01029   110.39212   245.55099
    58  H   1.0    0.05    1.13    1.45   253.80720   111.99272   241.78288
    59  H   1.0    0.05    1.09    1.44   257.76996   112.19492   240.10102
    60  H   1.0    0.03    1.09    1.44   257.17658   114.95770   240.93817
    61  H   1.0    0.04    1.06    1.44   253.89791   115.87233   243.90504
    62  H   1.0    0.05    1.06    1.44   252.72628   113.75016   245.66059
    63  H   1.0    0.04    1.06    1.44   255.55709   114.63456   246.06877
    64  H   1.0    0.04    1.05    1.44   261.29052   113.90323   242.14948
    65  H   1.0    0.03    1.06    1.44   259.64646   114.40212   244.60046
    66  H   1.0    0.06    1.06    1.44   260.24928   111.59777   243.75008
    67  N   5.0   -0.16    3.48    2.07   253.60311   108.80664   248.26275
    68  C   4.0    0.04    4.40    4.38   251.61512   107.90524   249.93515
    69  C   4.0    0.08    3.26    3.05   249.55343   109.88001   250.17704
    70  O   6.0   -0.31    1.13    1.80   250.00696   111.95681   251.11812
    71  C   4.0   -0.05    4.40    4.37   252.67526   107.35155   252.55998
    72  C   4.0   -0.05    4.30    4.20   250.73451   106.36889   254.49506
    73  C   4.0    0.15    3.29    3.05   249.82744   103.71572   253.96027
    74  O   6.0   -0.31    1.23    1.80   251.15592   102.21150   252.79431
    75  N   5.0   -0.26    3.22    1.96   247.51819   103.06754   254.78230
    76  H   1.0    0.09    1.14    1.45   254.92592   109.31498   249.06021
    77  H   1.0    0.05    1.14    1.45   250.92348   106.36700   249.21517
    78  H   1.0    0.05    1.09    1.44   254.01885   106.11378   252.39936
    79  H   1.0    0.05    1.09    1.44   253.43493   108.88412   253.21950
    80  H   1.0    0.04    1.09    1.44   251.48284   106.41803   256.16747
    81  H   1.0    0.04    1.10    1.44   249.29076   107.49895   254.51963
    82  H   1.0    0.09    1.09    1.44   246.61302   104.14469   255.59677
    83  H   1.0    0.11    1.08    1.44   246.94372   101.57466   254.49506
    84  N   5.0   -0.22    3.24    1.96   245.56611   101.14947   244.07889
    85  C   4.0    0.04    4.33    4.26   247.43694   103.14124   243.60835
    86  C   4.0    0.09    3.22    3.04   247.51442   104.06910   240.89282
    87  O   6.0   -0.28    1.13    1.80   246.22751   102.98440   239.25631
    88  C   4.0    0.05    4.33    4.26   250.12224   102.34189   244.35101
    89  O   6.0   -0.26    2.15    1.85   250.75718   100.03264   243.11702
    90  C   4.0   -0.07    4.18    3.97   250.47751   102.15858   247.22151
    91  H   1.0    0.12    1.07    1.44   245.70028    99.83800   243.13025
    92  H   1.0    0.04    1.13    1.45   246.86435   104.51696   244.67605
    93  H   1.0    0.06    1.12    1.45   251.27686   103.65147   243.78977
    94  H   1.0    0.14    1.08    1.44   252.22928    99.60179   243.52520
    95  H   1.0    0.06    1.05    1.44   252.19905   101.64836   247.59378
    96  H   1.0    0.05    1.07    1.44   250.14680   103.79131   247.98496
    97  H   1.0    0.05    1.05    1.44   249.31343   100.91892   247.90370
    98  N   5.0   -0.22    3.26    1.97   252.82643   106.11567   235.62993
    99  C   4.0    0.04    4.32    4.23   255.51551   106.06654   234.92695
   100  C   4.0    0.07    3.21    3.04   256.25629   107.77674   232.72731
   101  O   6.0   -0.30    1.12    1.80   254.94104   107.88445   230.78845
   102  C   4.0   -0.04    4.35    4.30   256.33944   103.39825   234.34869
   103  C   4.0    0.24    3.14    3.03   255.63835   101.47639   236.45007
   104  O   6.0   -0.30    1.23    1.80   254.69537   102.27008   238.46263
   105  O   6.0   -0.30    1.17    1.80   256.06731    99.21061   236.07968
   106  H   1.0    0.11    1.08    1.44   251.90992   105.09144   234.76254
   107  H   1.0    0.06    1.13    1.45   256.38479   106.73550   236.39527
   108  H   1.0    0.05    1.09    1.44   255.57410   102.86534   232.77077
   109  H   1.0    0.05    1.09    1.44   258.15546   103.37368   234.09736
   110  H   1.0    0.09    1.08    1.44   269.71430   103.40432   230.57331
   111  H   1.0    0.05    1.04    1.44   247.80510   109.50009   249.56869
   112  H   1.0    0.09    1.08    1.44   245.70963   100.60331   245.68316
   113  H   1.0    0.06    1.04    1.43   248.59782   105.54653   240.42968
   114  H   1.0    0.12    1.09    1.44   252.65958   105.68508   237.26679
   115  H   1.0    0.05    1.04    1.43   257.82077   108.83113   232.83554

  Z AO/shell   Hii/eV     exponent
  1     Wed Apr 25 08:07:45 CEST 2018   EN: 2.200 GM2: 0.406  GM3: 0.0800  RAES: 1.40
     1s    -10.707211    1.230000
  6     Wed Apr 25 08:07:45 CEST 2018   EN: 2.550 GM2: 0.538  GM3: 0.1500  RAES: 3.00
     2s    -13.970922    2.096432
     2p    -10.063292    1.800000
  7     Wed Apr 25 08:07:45 CEST 2018   EN: 3.040 GM2: 0.461  GM3:-0.0640  RAES: 1.90
     2s    -16.686243    2.339881
     2p    -12.523956    2.014332
  8     Wed Apr 25 08:07:45 CEST 2018   EN: 3.440 GM2: 0.452  GM3:-0.0517  RAES: 1.80
     2s    -20.229985    2.439742
     2p    -15.503117    2.137023
 no old-style atom pair restraining (fixing) potential

molecular fragmentation (1/2 indicates fragments):
111111111111111111111111111111111111111111111111111111111111111111111111
1111111111122222222222222222222222222112222
# atoms in fragment 1/2:    85    30
 fragment masses (1/2) :      558.67      219.22
CMA distance (Bohr)    :   8.692
constraining FC (au)   :  0.0500
           ------------------------------------------------- 
          |        Self-Consistent Charge Iterations        |
           ------------------------------------------------- 

 Ncao       : 277
 Nao        : 277
 Nshell     : 169
 Nel        : 312
 T(el)      :   500.0
 intcut     :    35.0
 scfconv/Eh :  0.100E-06
   qconv/e  :  0.100E-04
 intneglect :  0.100E-08
 broydamp   :      0.400
 iter      E             dE          RMSdq      gap      omega  full diag
   1   -180.6417612 -0.180642E+03  0.482E+00    3.56       0.0  T
   2   -181.1441365 -0.502375E+00  0.222E+00    2.09       1.0  T
   3   -181.1769031 -0.327665E-01  0.132E+00    2.16       1.0  T
   4   -181.2075693 -0.306662E-01  0.255E-01    1.44       1.0  T
   5   -181.2095037 -0.193435E-02  0.123E-01    1.59       1.0  T
   6   -181.2097806 -0.276943E-03  0.495E-02    1.61       1.0  T
   7   -181.2098328 -0.521302E-04  0.177E-02    1.63       1.0  T
   8   -181.2098377 -0.495503E-05  0.764E-03    1.64       1.2  T
   9   -181.2098390 -0.130262E-05  0.281E-03    1.65       3.3  T
  10   -181.2098391 -0.112611E-06  0.105E-03    1.65       8.9  T
  11   -181.2098392 -0.286351E-07  0.427E-04    1.65      21.9  T
  12   -181.2098392 -0.360578E-08  0.170E-04    1.65      55.0  T
  13   -181.2098392 -0.482970E-09  0.738E-05    1.65     126.4  T
  14   -181.2098392 -0.120707E-09  0.275E-05    1.65     339.4  T
speedup  1.00
cpu  time for SCC    0.25 s
wall time for SCC    0.25 s

   *** convergence criteria satisfied after 14 iterations ***

          eigenvalues
 #    :         144        145        146        147        148        149        150        151
 occ. :        2.000      2.000      2.000      2.000      2.000      2.000      2.000      2.000
 eps  :       -11.386    -11.271    -11.242    -11.163    -11.088    -11.039    -11.006    -10.904
 #    :         152        153        154        155        156        157        158        159
 occ. :        2.000      2.000      2.000      2.000      2.000      0.000      0.000      0.000
 eps  :       -10.381    -10.286    -10.188    -10.093     -9.917     -8.268     -7.907     -7.641
 #    :         160        161        162        163        164        165        166        167
 occ. :        0.000      0.000      0.000      0.000      0.000      0.000      0.000      0.000
 eps  :        -6.685     -6.573     -6.357     -6.236     -5.970     -4.707     -1.278     -0.782


   #   Z            q   n(s)   n(p)   n(d)      C6AA      α(0)
   1   7 N     -0.403  1.275  4.128  0.000    30.451     8.196
   2   6 C      0.016  1.036  2.949  0.000    20.322     6.420
   3   6 C      0.261  1.051  2.688  0.000    22.604     7.785
   4   8 O     -0.511  1.755  4.756  0.000    24.026     6.572
   5   6 C      0.103  1.031  2.865  0.000    18.974     6.219
   6   8 O     -0.500  1.680  4.820  0.000    22.901     6.460
   7   6 C     -0.149  0.980  3.170  0.000    23.426     6.899
   8   1 H      0.189  0.811  0.000  0.000     1.165     1.691
   9   1 H      0.061  0.939  0.000  0.000     2.185     2.312
  10   1 H      0.043  0.957  0.000  0.000     2.411     2.428
  11   1 H      0.336  0.664  0.000  0.000     0.621     1.238
  12   1 H      0.060  0.940  0.000  0.000     2.202     2.321
  13   1 H      0.030  0.970  0.000  0.000     2.589     2.516
  14   1 H      0.064  0.936  0.000  0.000     2.157     2.296
  15   7 N     -0.182  1.216  3.967  0.000    24.952     7.419
  16   6 C      0.017  1.033  2.951  0.000    20.294     6.413
  17   6 C      0.271  1.043  2.686  0.000    22.428     7.755
  18   8 O     -0.490  1.745  4.745  0.000    23.559     6.508
  19   6 C     -0.098  1.008  3.089  0.000    22.337     6.725
  20   6 C     -0.031  1.035  2.996  0.000    21.091     6.532
  21   6 C     -0.158  0.978  3.180  0.000    23.583     6.920
  22   6 C     -0.156  0.981  3.175  0.000    23.547     6.915
  23   1 H      0.228  0.772  0.000  0.000     0.975     1.547
  24   1 H      0.079  0.921  0.000  0.000     1.986     2.204
  25   1 H      0.077  0.923  0.000  0.000     2.011     2.217
  26   1 H      0.068  0.932  0.000  0.000     2.112     2.272
  27   1 H      0.055  0.945  0.000  0.000     2.260     2.351
  28   1 H      0.066  0.934  0.000  0.000     2.126     2.280
  29   1 H      0.048  0.952  0.000  0.000     2.342     2.393
  30   1 H      0.057  0.943  0.000  0.000     2.235     2.337
  31   1 H      0.067  0.933  0.000  0.000     2.114     2.274
  32   1 H      0.059  0.941  0.000  0.000     2.207     2.323
  33   1 H      0.055  0.945  0.000  0.000     2.262     2.352
  34   7 N     -0.192  1.216  3.976  0.000    25.171     7.451
  35   6 C      0.009  1.043  2.948  0.000    20.439     6.438
  36   6 C      0.273  1.038  2.689  0.000    22.390     7.749
  37   8 O     -0.480  1.730  4.750  0.000    23.341     6.477
  38   6 C      0.116  1.028  2.856  0.000    18.774     6.187
  39   8 O     -0.499  1.677  4.822  0.000    22.877     6.457
  40   6 C     -0.150  0.978  3.172  0.000    23.434     6.899
  41   1 H      0.223  0.777  0.000  0.000     0.993     1.561
  42   1 H      0.068  0.932  0.000  0.000     2.104     2.268
  43   1 H      0.041  0.959  0.000  0.000     2.436     2.440
  44   1 H      0.342  0.658  0.000  0.000     0.607     1.224
  45   1 H      0.081  0.919  0.000  0.000     1.967     2.193
  46   1 H      0.054  0.946  0.000  0.000     2.267     2.354
  47   1 H      0.070  0.930  0.000  0.000     2.080     2.255
  48   7 N     -0.173  1.211  3.962  0.000    24.734     7.386
  49   6 C      0.008  1.038  2.954  0.000    20.430     6.433
  50   6 C      0.268  1.040  2.692  0.000    22.476     7.764
  51   8 O     -0.499  1.754  4.745  0.000    23.752     6.534
  52   6 C     -0.033  1.033  3.001  0.000    21.126     6.536
  53   6 C     -0.092  1.007  3.085  0.000    22.248     6.713
  54   6 C     -0.154  0.977  3.177  0.000    23.498     6.906
  55   6 C     -0.147  0.973  3.174  0.000    23.385     6.892
  56   1 H      0.198  0.802  0.000  0.000     1.114     1.653
  57   1 H      0.101  0.899  0.000  0.000     1.775     2.083
  58   1 H      0.056  0.944  0.000  0.000     2.240     2.340
  59   1 H      0.044  0.956  0.000  0.000     2.390     2.417
  60   1 H      0.072  0.928  0.000  0.000     2.064     2.247
  61   1 H      0.079  0.921  0.000  0.000     1.988     2.205
  62   1 H      0.050  0.950  0.000  0.000     2.322     2.383
  63   1 H      0.071  0.929  0.000  0.000     2.073     2.252
  64   1 H      0.057  0.943  0.000  0.000     2.239     2.340
  65   1 H      0.067  0.933  0.000  0.000     2.121     2.277
  66   1 H      0.042  0.958  0.000  0.000     2.426     2.436
  67   7 N     -0.179  1.210  3.969  0.000    24.867     7.406
  68   6 C      0.016  1.031  2.953  0.000    20.318     6.418
  69   6 C      0.198  1.085  2.717  0.000    23.790     7.988
  70   8 O     -0.342  1.753  4.589  0.000    20.557     6.079
  71   6 C     -0.091  1.009  3.082  0.000    22.228     6.710
  72   6 C     -0.126  1.013  3.113  0.000    22.902     6.811
  73   6 C      0.279  1.040  2.682  0.000    22.283     7.729
  74   8 O     -0.502  1.759  4.743  0.000    23.826     6.544
  75   7 N     -0.311  1.201  4.110  0.000    28.011     7.860
  76   1 H      0.229  0.771  0.000  0.000     0.971     1.543
  77   1 H      0.087  0.913  0.000  0.000     1.905     2.158
  78   1 H      0.092  0.908  0.000  0.000     1.863     2.134
  79   1 H      0.094  0.906  0.000  0.000     1.843     2.123
  80   1 H      0.113  0.887  0.000  0.000     1.671     2.021
  81   1 H      0.083  0.917  0.000  0.000     1.952     2.185
  82   1 H      0.238  0.762  0.000  0.000     0.932     1.512
  83   1 H      0.237  0.763  0.000  0.000     0.934     1.514
  84   7 N     -0.398  1.278  4.121  0.000    30.323     8.178
  85   6 C      0.021  1.038  2.942  0.000    20.236     6.407
  86   6 C      0.202  1.087  2.711  0.000    23.708     7.974
  87   8 O     -0.385  1.762  4.623  0.000    21.377     6.199
  88   6 C      0.113  1.021  2.866  0.000    18.809     6.190
  89   8 O     -0.502  1.683  4.819  0.000    22.941     6.466
  90   6 C     -0.157  0.984  3.173  0.000    23.580     6.921
  91   1 H      0.182  0.818  0.000  0.000     1.203     1.718
  92   1 H      0.104  0.896  0.000  0.000     1.745     2.066
  93   1 H      0.036  0.964  0.000  0.000     2.502     2.473
  94   1 H      0.317  0.683  0.000  0.000     0.671     1.286
  95   1 H      0.065  0.935  0.000  0.000     2.144     2.289
  96   1 H      0.070  0.930  0.000  0.000     2.081     2.255
  97   1 H      0.076  0.924  0.000  0.000     2.024     2.225
  98   7 N     -0.404  1.272  4.132  0.000    30.487     8.200
  99   6 C      0.045  1.026  2.929  0.000    19.830     6.342
 100   6 C      0.188  1.096  2.716  0.000    23.967     8.018
 101   8 O     -0.383  1.760  4.624  0.000    21.350     6.195
 102   6 C     -0.104  1.018  3.086  0.000    22.469     6.746
 103   6 C      0.373  1.022  2.605  0.000    20.680     7.442
 104   8 O     -0.637  1.766  4.872  0.000    27.054     6.974
 105   8 O     -0.638  1.770  4.867  0.000    27.061     6.974
 106   1 H      0.174  0.826  0.000  0.000     1.250     1.751
 107   1 H      0.061  0.939  0.000  0.000     2.183     2.311
 108   1 H      0.044  0.956  0.000  0.000     2.393     2.419
 109   1 H      0.037  0.963  0.000  0.000     2.491     2.468
 110   1 H      0.201  0.799  0.000  0.000     1.100     1.643
 111   1 H      0.080  0.920  0.000  0.000     1.978     2.199
 112   1 H      0.196  0.804  0.000  0.000     1.128     1.664
 113   1 H      0.062  0.938  0.000  0.000     2.171     2.304
 114   1 H      0.172  0.828  0.000  0.000     1.263     1.760
 115   1 H      0.076  0.924  0.000  0.000     2.023     2.224

 Mol. C6AA /au·bohr⁶  :     115745.706126
 Mol. C8AA /au·bohr⁸  :    2528857.358299
 Mol. α(0) /au        :        503.857617

 
molecular dipole:
                 x           y           z       tot (Debye)
 q only:     -254.528     -98.745    -233.230
   full:     -254.189     -99.549    -233.804     913.586
molecular quadrupole (traceless):
                xx          xy          yy          xz          yz          zz
 q only:   -32755.297  -37660.711   49823.897  -89108.447  -34483.897  -17068.599
  q+dip:   -32374.473  -37918.942   49710.722  -89211.847  -34861.633  -17336.250
   full:   -32373.989  -37920.392   49710.301  -89212.481  -34860.109  -17336.311
speedup  1.00
cpu  time for grad    0.39 s
wall time for grad    0.39 s

SCC energy    :    -181.2133145
rep           :       3.6611504
ES            :       0.6726119
AES           :      -0.0173477
AXC           :       0.0185696
disp          :      -0.1254564
XB            :       0.0000000
fix           :       0.0000000
Gborn         :       0.0000000
Gsasa         :       0.0000000
Ghb           :       0.0000000
Gshift        :       0.0000000
Gsolv         :      -0.1733534     -108.78
Etot ala COSMO:    -181.2133145
grad norm     :       1.3687308
total E       :    -177.5457028
atomizationE  :      30.7875140    19319.46
(atE without considering molecular charge,
 total energy contains solvation terms)
H-L gap (eV)  :          1.6488

------------------------------------------------------------------------
 * finished run on 2019/03/07 at 11:37:45.837     
------------------------------------------------------------------------
 total:
 * wall-time:     0 d,  0 h,  0 min,  0.656 sec
 *  cpu-time:     0 d,  0 h,  0 min,  0.484 sec
 * ratio c/w:     0.738 speedup
 SCF:
 * wall-time:     0 d,  0 h,  0 min,  0.460 sec
 *  cpu-time:     0 d,  0 h,  0 min,  0.457 sec
 * ratio c/w:     0.994 speedup

