      -----------------------------------------------------------      
     |                   =====================                   |     
     |                           x T B                           |     
     |                   =====================                   |     
     |                         S. Grimme                         |     
     |          Mulliken Center for Theoretical Chemistry        |     
     |                    University of Bonn                     |     
     |                Version 6.1 RC1 (SAW190329)                |     
      -----------------------------------------------------------      

   This program is distributed in the hope that it will be useful,
   but WITHOUT ANY WARRANTY; without even the implied warranty of
   MERCHANTABILITY or FITNESS FOR A PARTICULAR PURPOSE.
   
   FOR NON-COMMERCIAL, ACADEMIA USE ONLY.
   
   Cite this work as:
   S. Grimme, C. Bannwarth, P. Shushkov, J. Comput. Theory Chem., 2017,
   13, 1989-2009. DOI: 10.1021/acs.jctc.7b00118
   C. Bannwarth, S. Ehlert and S. Grimme., J. Comput. Theory Chem., 2019,
   just accepted. DOI: 10.1021/acs.jctc.8b01176
   
   for sTDA-xTB:
   S. Grimme and C. Bannwarth, J. Chem. Phys., 2016, 145, 054103.
   DOI: 10.1063/1.4959605
   
   in the mass-spec context:
   V. Asgeirsson, C. Bauer and S. Grimme, Chem. Sci., 2017, 8, 4879.
   DOI: 10.1039/c7sc00601b
   
   for metadynamics refer to:
   S. Grimme, ChemRxiv, Preprint. DOI: 10.26434/chemrxiv.7660532.v1
   
   with help from (in alphabetical order)
   C. Bannwarth, F. Bohle, G. Brandenburg, E. Caldeweyher, M. Checinski,
   S. Dohm, S. Ehlert, S. Ehrlich, F. März, H. Neugebauer, J. Pisarek,
   P. Pracht, P. Shushkov, and S. Spicher.
   
 * started run on 2019/05/31 at 05:35:07.884     

           -------------------------------------------------
          |                Calculation Setup                |
           -------------------------------------------------

          program call               : /home/lum/install/xtb/xtb-190329/bin/xtb xtb_tmp.xyz --chrg 0 --grad --gfn 2 --etemp 500 --acc 0.1 --gbsa h2o --parallel 2
          hostname                   : cpu02
          coordinate file            : xtb_tmp.xyz
          omp threads                :                     2
          number of atoms            :                   390
          number of electrons        :                  1064
          charge                     :                     0
          spin                       :                   0.0
          first test random number   :      0.35151391424177


molecular fragmentation (1/2 indicates fragments):
111111111111111111111111111111111111111111111111111111111111111111111111
111111111111111111111111111111111111111111111111111111111111111111222222
222222222222222222222222222222222222222222222222222222222222222222222222
222222222222222222222222222222222222222222222222222222222222222222222222
222222222222222222222222222222222222222222222222222222222222222222222222
222222222222222222222222112222
# atoms in fragment 1/2:   140   250
 fragment masses (1/2) :      973.09     1707.99
CMA distance (Bohr)    :  18.544
constraining FC (au)   :  0.0500

########################################################################
# WARNING! Please study the warnings concerning your input carefully
#  - XTBPATH is not set, using XTBHOME instead
#  - Process number higher than OMP_NUM_THREADS, I hope you know what you are doing.
########################################################################

           ------------------------------------------------- 
          |                 G F N 2 - x T B                 |
          | Geometry, Frequencies, Noncovalent interactions |
          |            JCTC 2018 parametrisation            |
           ------------------------------------------------- 
 
             k(s)              :                1.8500
             k(p)              :                2.2300
             k(d)              :                2.2300
             k(f)              :                2.0000
             kEN (H0ij)        :               -2.0000
             D4 a1             :                0.5200
             D4 a2             :                5.0000
             D4 s6             :                1.0000
             D4 s8             :                2.7000
             D4 s9             :                5.0000
             alphaj            :                2.0000

  Z AO/shell   Hii/eV     exponent
  1     Wed Apr 25 08:07:45 CEST 2018   EN: 2.200 GM2: 0.406  GM3: 0.0800  RAES: 1.40
     1s    -10.707211    1.230000
  6     Wed Apr 25 08:07:45 CEST 2018   EN: 2.550 GM2: 0.538  GM3: 0.1500  RAES: 3.00
     2s    -13.970922    2.096432
     2p    -10.063292    1.800000
  7     Wed Apr 25 08:07:45 CEST 2018   EN: 3.040 GM2: 0.461  GM3:-0.0640  RAES: 1.90
     2s    -16.686243    2.339881
     2p    -12.523956    2.014332
  8     Wed Apr 25 08:07:45 CEST 2018   EN: 3.440 GM2: 0.452  GM3:-0.0517  RAES: 1.80
     2s    -20.229985    2.439742
     2p    -15.503117    2.137023

 Solvent             : h2o
 Using internal parameter file: .param_gbsa2_h2o
 Gsolv ref. state (COSMO-RS): gsolv [1 M gas/solution]
 temperature (mdtemp)       :    298.150000000000     
 dielectric constant        :    80.2000000000000     
 rho                        :    1.00000000000000     
 mass                       :    18.0000000000000     
 surface tension            :    15.5689454083859     
 probe radius               :   0.975313790000000     
 vdW radii scaling          :    1.00000000000000     
 Gshift (Eh)                :   1.857443126794793E-003
 c1                         :    1.55243817000000     
 soset                      :   0.130326360000000     
 HB correction              :  T
 Number of grid points      :          230

            Z     q(EN)     CN     RAES       Cart. coordinates
     1  N   5.0   -0.72    3.00    1.93   179.22468   110.97307   363.51416
     2  C   4.0    0.07    3.99    3.60   179.69467   113.29744   362.14981
     3  C   4.0    0.29    3.02    3.02   181.71238   112.83037   360.12691
     4  O   6.0   -0.46    1.00    1.80   181.53365   113.72561   357.99884
     5  C   4.0   -0.12    3.99    3.60   180.51510   115.46339   363.87202
     6  C   4.0    0.26    3.00    3.02   180.34785   117.88674   362.31026
     7  O   6.0   -0.44    1.00    1.80   178.32288   118.79007   361.68884
     8  N   5.0   -0.66    3.00    1.93   182.56470   118.92837   361.66723
     9  H   1.0    0.25    1.00    1.43   179.71393   110.84385   365.35825
    10  H   1.0    0.12    0.99    1.43   177.95730   113.84252   361.15047
    11  H   1.0    0.09    0.99    1.43   179.18563   115.61016   365.44013
    12  H   1.0    0.10    0.99    1.43   182.41564   115.13594   364.59120
    13  H   1.0    0.27    1.00    1.43   182.55385   120.44535   360.51443
    14  H   1.0    0.25    1.00    1.43   184.23585   118.12034   362.07171
    15  N   5.0   -0.49    3.01    1.93   183.65173   111.40388   360.87556
    16  C   4.0    0.09    4.00    3.61   185.66906   110.79637   359.14009
    17  C   4.0    0.31    3.01    3.02   184.58540   109.58688   356.75201
    18  O   6.0   -0.44    1.00    1.80   185.24098   110.33137   354.66620
    19  C   4.0   -0.03    3.98    3.58   187.64240   109.07294   360.36323
    20  O   6.0   -0.49    1.99    1.83   189.78661   109.07458   358.79702
    21  H   1.0    0.23    1.00    1.43   183.93402   110.97503   362.73604
    22  H   1.0    0.13    0.99    1.43   186.64105   112.52511   358.51870
    23  H   1.0    0.10    0.99    1.43   188.08729   109.83620   362.24115
    24  H   1.0    0.10    0.99    1.43   186.85540   107.16236   360.55334
    25  H   1.0    0.25    0.99    1.43   191.12874   108.13477   359.59892
    26  N   5.0   -0.48    3.01    1.93   182.89747   107.74717   357.07863
    27  C   4.0    0.06    3.99    3.61   181.72558   106.50944   354.91771
    28  C   4.0    0.29    3.01    3.02   180.87820   108.52393   353.03008
    29  O   6.0   -0.45    1.00    1.80   181.50969   108.47896   350.80182
    30  C   4.0   -0.15    3.98    3.59   179.58198   104.82541   355.89077
    31  C   4.0   -0.10    3.97    3.58   178.05432   103.38717   353.88364
    32  C   4.0   -0.22    3.98    3.59   176.13028   105.07208   352.54583
    33  C   4.0   -0.23    3.98    3.59   179.75068   102.07485   351.95265
    34  H   1.0    0.23    1.00    1.43   182.55874   106.99392   358.81063
    35  H   1.0    0.11    0.99    1.43   183.14981   105.36109   353.93832
    36  H   1.0    0.09    0.99    1.43   180.46346   103.45035   357.15368
    37  H   1.0    0.11    0.99    1.43   178.29689   105.98628   357.01142
    38  H   1.0    0.10    0.99    1.43   176.99417   101.93358   354.90883
    39  H   1.0    0.10    0.99    1.43   174.88170   103.92513   351.38504
    40  H   1.0    0.10    0.99    1.43   174.99004   106.10092   353.91078
    41  H   1.0    0.13    0.99    1.43   177.06699   106.42272   351.31551
    42  H   1.0    0.10    0.99    1.43   178.62803   100.84800   350.74711
    43  H   1.0    0.12    0.99    1.43   180.67804   103.46077   350.75118
    44  H   1.0    0.09    0.99    1.43   181.18063   100.93349   352.88700
    45  N   5.0   -0.49    3.01    1.93   179.39796   110.34646   353.97530
    46  C   4.0    0.10    4.00    3.61   178.57011   112.40906   352.37962
    47  C   4.0    0.32    3.02    3.02   180.84369   113.69015   351.12311
    48  O   6.0   -0.46    1.00    1.80   180.95569   114.06467   348.83252
    49  C   4.0   -0.02    3.98    3.58   177.05527   114.32916   353.92473
    50  O   6.0   -0.48    1.99    1.82   176.40700   116.34589   352.31618
    51  H   1.0    0.25    1.00    1.43   178.92481   110.35111   355.82563
    52  H   1.0    0.12    0.99    1.43   177.38002   111.68438   350.83977
    53  H   1.0    0.10    0.99    1.43   175.36515   113.37749   354.66190
    54  H   1.0    0.14    0.99    1.43   178.21226   114.98414   355.51693
    55  H   1.0    0.25    0.99    1.43   175.28644   117.48644   353.19470
    56  N   5.0   -0.47    3.01    1.93   182.68872   114.37478   352.68217
    57  C   4.0    0.08    4.00    3.62   184.89852   115.64135   351.70190
    58  C   4.0    0.29    3.01    3.02   186.36489   114.05241   349.78165
    59  O   6.0   -0.46    1.00    1.80   187.77504   115.10883   348.25724
    60  C   4.0   -0.13    3.99    3.60   186.68002   116.48513   353.80933
    61  C   4.0   -0.10    3.98    3.58   185.54136   118.45868   355.60658
    62  C   4.0   -0.22    3.98    3.59   187.59570   119.33251   357.43987
    63  C   4.0   -0.21    3.98    3.59   184.48053   120.71491   354.15047
    64  H   1.0    0.30    1.00    1.43   182.55706   114.06159   354.56900
    65  H   1.0    0.12    0.99    1.43   184.25574   117.30038   350.63603
    66  H   1.0    0.13    0.99    1.43   187.26442   114.81074   354.86072
    67  H   1.0    0.12    0.99    1.43   188.34809   117.28730   352.89764
    68  H   1.0    0.14    0.99    1.43   184.00324   117.58338   356.67720
    69  H   1.0    0.10    0.99    1.43   186.85775   120.75797   358.71914
    70  H   1.0    0.10    0.99    1.43   188.32732   117.75509   358.53339
    71  H   1.0    0.11    0.99    1.43   189.15305   120.16586   356.39310
    72  H   1.0    0.13    0.99    1.43   184.16828   122.31787   355.39559
    73  H   1.0    0.11    0.99    1.43   185.81140   121.31226   352.70257
    74  H   1.0    0.11    0.99    1.43   182.69025   120.24062   353.26102
    75  N   5.0   -0.47    3.01    1.93   186.06418   111.56594   349.82668
    76  C   4.0    0.08    4.00    3.62   187.30045   109.97106   347.99428
    77  C   4.0    0.28    3.02    3.02   186.08358   110.31685   345.40466
    78  O   6.0   -0.41    1.00    1.80   187.36074   110.21446   343.46743
    79  C   4.0   -0.14    3.99    3.60   187.27402   107.20491   348.81808
    80  C   4.0   -0.09    3.98    3.58   188.90041   106.68549   351.16447
    81  C   4.0   -0.23    3.98    3.59   188.64609   103.90024   351.87740
    82  C   4.0   -0.22    3.98    3.59   191.67399   107.34239   350.71118
    83  H   1.0    0.32    1.00    1.43   185.02544   110.73140   351.19896
    84  H   1.0    0.13    0.99    1.43   189.25641   110.62069   347.76442
    85  H   1.0    0.13    0.99    1.43   185.31660   106.68154   349.20187
    86  H   1.0    0.11    0.99    1.43   187.96067   106.05909   347.24647
    87  H   1.0    0.16    0.99    1.43   188.20007   107.84554   352.72446
    88  H   1.0    0.10    0.99    1.43   189.66465   103.51138   353.61655
    89  H   1.0    0.10    0.99    1.43   186.67211   103.39737   352.14778
    90  H   1.0    0.10    0.99    1.43   189.41318   102.71320   350.38599
    91  H   1.0    0.11    0.99    1.43   192.81964   106.67567   352.27816
    92  H   1.0    0.10    0.99    1.43   192.34774   106.45891   348.98150
    93  H   1.0    0.11    0.99    1.43   191.92344   109.37611   350.57103
    94  N   5.0   -0.48    3.01    1.93   183.60085   110.77377   345.36408
    95  C   4.0    0.11    4.00    3.62   182.44891   111.51558   342.99959
    96  C   4.0    0.30    3.02    3.02   183.48104   114.10757   342.21900
    97  O   6.0   -0.44    1.00    1.80   184.12997   114.52399   340.03037
    98  C   4.0    0.03    3.97    3.58   179.54330   111.30356   343.01307
    99  O   6.0   -0.48    1.99    1.83   178.90452   110.32203   340.61329
   100  C   4.0   -0.20    3.98    3.58   178.18379   113.78180   343.56090
   101  H   1.0    0.30    1.00    1.43   182.60560   110.96377   346.98906
   102  H   1.0    0.17    0.99    1.43   183.09254   110.18887   341.53633
   103  H   1.0    0.12    0.99    1.43   179.05351   109.90681   344.48201
   104  H   1.0    0.25    0.99    1.43   177.10383   110.47192   340.35733
   105  H   1.0    0.10    0.99    1.43   176.15132   113.48427   343.50116
   106  H   1.0    0.14    0.99    1.43   178.68758   114.45463   345.43050
   107  H   1.0    0.13    0.99    1.43   178.68769   115.19789   342.15903
   108  N   5.0   -0.48    3.00    1.93   183.78749   115.80354   344.06610
   109  C   4.0    0.09    4.00    3.62   185.03775   118.16617   343.47958
   110  C   4.0    0.30    3.01    3.02   187.64588   117.68556   342.30776
   111  O   6.0   -0.45    1.00    1.80   188.51663   119.18145   340.76727
   112  C   4.0   -0.14    3.99    3.60   185.33256   119.85807   345.80019
   113  C   4.0   -0.12    3.98    3.59   182.80348   120.99042   346.66805
   114  C   4.0    0.27    3.00    3.02   182.07527   123.09833   344.85892
   115  O   6.0   -0.43    1.00    1.80   181.15633   122.70995   342.78026
   116  N   5.0   -0.65    3.00    1.93   182.58274   125.44014   345.70760
   117  H   1.0    0.28    1.00    1.43   183.14335   115.44471   345.83236
   118  H   1.0    0.15    0.99    1.43   183.93372   119.17882   342.03853
   119  H   1.0    0.14    0.99    1.43   186.20596   118.74886   347.29938
   120  H   1.0    0.13    0.99    1.43   186.62704   121.38178   345.29221
   121  H   1.0    0.13    0.99    1.43   181.33918   119.54043   346.64241
   122  H   1.0    0.10    0.99    1.43   182.98633   121.73294   348.57907
   123  H   1.0    0.26    1.00    1.43   183.43995   125.73578   347.37591
   124  H   1.0    0.28    1.00    1.43   182.32624   126.93925   344.56035
   125  N   5.0   -0.45    3.00    1.93   188.89243   115.64422   343.13058
   126  C   4.0    0.09    3.99    3.61   191.47411   115.21184   342.32683
   127  C   4.0    0.09    3.00    3.02   191.60363   113.96918   339.71422
   128  O   6.0   -0.40    1.00    1.80   193.52910   114.02206   338.45277
   129  C   4.0   -0.09    3.99    3.60   193.00630   113.71538   344.25605
   130  C   4.0    0.29    3.00    3.02   194.07039   115.42604   346.31756
   131  O   6.0   -0.42    1.00    1.80   194.28733   117.70899   346.06564
   132  N   5.0   -0.65    3.00    1.93   194.83156   114.19996   348.39459
   133  H   1.0    0.31    1.00    1.43   188.28708   114.88221   344.78906
   134  H   1.0    0.16    0.99    1.43   192.37850   117.06883   342.09789
   135  H   1.0    0.12    0.99    1.43   191.85015   112.21875   345.06452
   136  H   1.0    0.12    0.99    1.43   194.61767   112.86061   343.28626
   137  H   1.0    0.28    1.00    1.43   195.62859   115.18150   349.81871
   138  H   1.0    0.25    1.00    1.43   194.75327   112.30536   348.52616
   139  N   5.0   -0.69    3.00    1.93   187.22451   116.12417   335.62077
   140  C   4.0    0.08    3.98    3.59   187.14235   118.54050   334.32493
   141  C   4.0    0.28    3.02    3.02   189.81139   119.64046   334.19940
   142  O   6.0   -0.40    1.00    1.80   190.61748   120.61578   332.25530
   143  C   4.0   -0.13    3.98    3.59   185.31592   120.38953   335.58471
   144  C   4.0   -0.11    3.98    3.58   182.63798   120.35471   334.46837
   145  C   4.0   -0.23    3.98    3.59   182.60136   121.45891   331.80035
   146  C   4.0   -0.21    3.98    3.59   181.48187   117.71077   334.49250
   147  H   1.0    0.31    1.00    1.43   186.09785   115.83952   337.14399
   148  H   1.0    0.11    0.99    1.43   186.58735   118.22801   332.35175
   149  H   1.0    0.14    0.99    1.43   185.24134   119.96620   337.59945
   150  H   1.0    0.11    0.99    1.43   186.07401   122.29649   335.39188
   151  H   1.0    0.11    0.99    1.43   181.49035   121.57608   335.68190
   152  H   1.0    0.10    0.99    1.43   180.66867   121.64481   331.13166
   153  H   1.0    0.10    0.99    1.43   183.47719   123.31833   331.76587
   154  H   1.0    0.11    0.99    1.43   183.61301   120.25139   330.48117
   155  H   1.0    0.10    0.99    1.43   179.51767   117.80276   333.89859
   156  H   1.0    0.11    0.99    1.43   182.47362   116.45438   333.20459
   157  H   1.0    0.13    0.99    1.43   181.55111   116.90132   336.37887
   158  N   5.0   -0.46    3.00    1.93   191.25620   119.37357   336.25901
   159  C   4.0    0.09    4.00    3.62   193.78602   120.43207   336.20738
   160  C   4.0    0.10    3.00    3.02   195.47867   119.01834   334.34488
   161  O   6.0   -0.38    1.00    1.80   197.38948   120.03336   333.49823
   162  C   4.0   -0.09    3.99    3.60   194.96529   120.54435   338.83466
   163  C   4.0    0.29    3.00    3.02   193.70191   122.62829   340.38603
   164  O   6.0   -0.40    1.00    1.80   192.81704   124.50663   339.37308
   165  N   5.0   -0.64    3.00    1.93   193.71711   122.29150   342.88599
   166  H   1.0    0.31    1.00    1.43   190.41847   119.07631   337.96702
   167  H   1.0    0.17    0.99    1.43   193.67267   122.38452   335.50108
   168  H   1.0    0.13    0.99    1.43   194.86610   118.70901   339.75449
   169  H   1.0    0.13    0.99    1.43   196.95210   121.06865   338.62812
   170  H   1.0    0.29    1.00    1.43   192.98838   123.66916   343.97981
   171  H   1.0    0.31    1.00    1.43   194.36532   120.72018   343.76126
   172  N   5.0   -0.72    3.00    1.93   183.50021   134.69107   339.67096
   173  C   4.0    0.06    3.98    3.59   183.76025   132.44109   341.19651
   174  C   4.0    0.27    3.01    3.02   184.87012   133.02331   343.80267
   175  O   6.0   -0.48    1.00    1.80   184.36364   131.64305   345.60631
   176  C   4.0   -0.13    3.99    3.60   185.39612   130.45655   339.88891
   177  C   4.0   -0.11    3.98    3.58   184.15049   129.24928   337.56749
   178  C   4.0   -0.22    3.98    3.59   186.13048   127.69814   336.15378
   179  C   4.0   -0.22    3.98    3.59   181.90010   127.59472   338.28977
   180  H   1.0    0.25    1.00    1.43   184.44627   134.79420   338.00789
   181  H   1.0    0.10    0.99    1.43   181.86295   131.67758   341.56134
   182  H   1.0    0.12    0.99    1.43   187.15794   131.37575   339.33499
   183  H   1.0    0.12    0.99    1.43   185.84187   128.97999   341.25921
   184  H   1.0    0.11    0.99    1.43   183.49469   130.75903   336.31855
   185  H   1.0    0.10    0.99    1.43   185.27958   126.76599   334.53327
   186  H   1.0    0.11    0.99    1.43   187.63793   128.91716   335.47203
   187  H   1.0    0.12    0.99    1.43   186.94792   126.27941   337.39647
   188  H   1.0    0.10    0.99    1.43   181.05950   126.76950   336.60713
   189  H   1.0    0.13    0.99    1.43   182.47052   126.06329   339.53688
   190  H   1.0    0.10    0.99    1.43   180.44309   128.69263   339.23467
   191  N   5.0   -0.48    3.01    1.93   186.44587   134.97457   343.93227
   192  C   4.0    0.06    3.99    3.61   187.58295   135.80014   346.28287
   193  C   4.0    0.29    3.01    3.02   185.53971   136.91428   348.00837
   194  O   6.0   -0.44    1.00    1.80   185.27468   136.17620   350.19458
   195  C   4.0   -0.22    3.98    3.59   189.65516   137.72093   345.74432
   196  H   1.0    0.24    1.00    1.43   186.96884   135.90096   342.33923
   197  H   1.0    0.13    0.99    1.43   188.35474   134.14634   347.26969
   198  H   1.0    0.11    0.99    1.43   190.51521   138.34190   347.50097
   199  H   1.0    0.11    0.99    1.43   191.08810   136.86482   344.54765
   200  H   1.0    0.11    0.99    1.43   188.86588   139.34433   344.76305
   201  N   5.0   -0.49    3.01    1.93   184.10493   138.70708   346.96980
   202  C   4.0    0.07    4.00    3.61   182.09631   139.88370   348.42264
   203  C   4.0    0.29    3.01    3.02   180.20064   137.86252   349.27814
   204  O   6.0   -0.43    1.00    1.80   179.17427   137.93648   351.34874
   205  C   4.0   -0.14    3.98    3.59   180.84089   142.06067   346.97605
   206  C   4.0   -0.11    3.98    3.59   178.64370   141.23964   345.27714
   207  C   4.0    0.27    3.00    3.02   177.80160   143.42825   343.62662
   208  O   6.0   -0.39    1.00    1.80   178.48129   143.66873   341.43088
   209  N   5.0   -0.65    3.00    1.93   176.25263   145.08509   344.75458
   210  H   1.0    0.24    1.00    1.43   184.41723   139.29183   345.16982
   211  H   1.0    0.16    0.99    1.43   182.90758   140.65414   350.16904
   212  H   1.0    0.12    0.99    1.43   180.17917   143.43205   348.36486
   213  H   1.0    0.12    0.99    1.43   182.28750   142.96784   345.81539
   214  H   1.0    0.12    0.99    1.43   179.26265   139.71292   344.04268
   215  H   1.0    0.12    0.99    1.43   177.06491   140.57862   346.42456
   216  H   1.0    0.26    1.00    1.43   175.73435   144.87690   346.57022
   217  H   1.0    0.28    1.00    1.43   175.65831   146.61829   343.79508
   218  N   5.0   -0.47    3.01    1.93   179.78775   136.02490   347.59814
   219  C   4.0    0.07    3.99    3.61   178.08942   133.95455   348.15356
   220  C   4.0    0.30    3.01    3.02   179.11962   132.50041   350.42749
   221  O   6.0   -0.47    1.00    1.80   177.83653   132.23115   352.33551
   222  C   4.0   -0.22    3.98    3.59   177.78086   132.25200   345.86107
   223  H   1.0    0.25    1.00    1.43   180.54235   136.09594   345.83746
   224  H   1.0    0.12    0.99    1.43   176.25679   134.72756   348.75117
   225  H   1.0    0.10    0.99    1.43   176.40069   130.78841   346.26480
   226  H   1.0    0.10    0.99    1.43   177.14474   133.37000   344.26016
   227  H   1.0    0.12    0.99    1.43   179.57877   131.37407   345.39866
   228  N   5.0   -0.48    3.01    1.93   181.45374   131.58500   350.19432
   229  C   4.0    0.08    3.99    3.61   182.65061   130.10938   352.17832
   230  C   4.0    0.32    3.01    3.02   182.22423   131.34780   354.76549
   231  O   6.0   -0.42    1.00    1.80   181.47141   130.17500   356.60748
   232  C   4.0   -0.10    3.99    3.60   185.47624   129.88972   351.61534
   233  C   4.0    0.28    3.00    3.02   186.75432   127.84397   353.18899
   234  O   6.0   -0.42    1.00    1.80   185.71719   126.69469   354.88193
   235  N   5.0   -0.65    3.01    1.93   189.14732   127.37747   352.47298
   236  H   1.0    0.29    1.00    1.43   182.46271   131.81572   348.57209
   237  H   1.0    0.13    0.99    1.43   181.79719   128.21866   352.26889
   238  H   1.0    0.12    0.99    1.43   185.72356   129.46525   349.61006
   239  H   1.0    0.14    0.99    1.43   186.40059   131.69310   352.00866
   240  H   1.0    0.28    1.00    1.43   190.16786   126.08506   353.42638
   241  H   1.0    0.26    1.00    1.43   190.00165   128.40638   351.12486
   242  N   5.0   -0.47    3.01    1.93   182.75562   133.81217   354.80223
   243  C   4.0    0.08    4.00    3.61   182.61168   135.27155   357.10776
   244  C   4.0    0.30    3.01    3.02   180.19428   134.68134   358.56507
   245  O   6.0   -0.47    1.00    1.80   180.19974   134.55787   360.89117
   246  C   4.0   -0.13    3.99    3.60   182.67508   138.10126   356.50912
   247  C   4.0   -0.11    3.98    3.59   185.30132   138.96066   355.67797
   248  C   4.0    0.27    3.00    3.02   185.27715   141.61707   354.59500
   249  O   6.0   -0.41    1.00    1.80   183.35782   142.71972   353.93855
   250  N   5.0   -0.65    3.00    1.93   187.58135   142.64115   354.28279
   251  H   1.0    0.29    1.00    1.43   183.40438   134.68995   353.23057
   252  H   1.0    0.15    0.99    1.43   184.21371   134.75477   358.32740
   253  H   1.0    0.17    0.99    1.43   181.31487   138.50419   355.00994
   254  H   1.0    0.12    0.99    1.43   182.09581   139.16010   358.18072
   255  H   1.0    0.11    0.99    1.43   186.62783   138.84933   357.24945
   256  H   1.0    0.14    0.99    1.43   185.98512   137.72715   354.16991
   257  H   1.0    0.26    1.00    1.43   189.15990   141.75187   354.85109
   258  H   1.0    0.28    1.00    1.43   187.71541   144.39576   353.55721
   259  N   5.0   -0.47    3.01    1.93   178.08948   134.49188   357.20557
   260  C   4.0    0.08    4.00    3.61   175.62712   134.23087   358.37902
   261  C   4.0    0.27    3.02    3.02   175.50548   131.83863   360.00275
   262  O   6.0   -0.47    1.01    1.80   175.36265   132.07646   362.32616
   263  C   4.0   -0.10    3.98    3.58   173.51932   134.48732   356.40672
   264  C   4.0   -0.23    3.98    3.59   170.95369   133.93218   357.60646
   265  C   4.0   -0.21    3.98    3.59   173.56329   137.15095   355.29241
   266  H   1.0    0.30    1.00    1.43   178.16866   134.37247   355.29574
   267  H   1.0    0.13    0.99    1.43   175.43818   135.77444   359.76224
   268  H   1.0    0.13    0.99    1.43   173.87539   133.14365   354.88307
   269  H   1.0    0.10    0.99    1.43   169.46554   134.14693   356.20914
   270  H   1.0    0.10    0.99    1.43   170.87826   132.01897   358.35076
   271  H   1.0    0.10    0.99    1.43   170.58615   135.23551   359.15290
   272  H   1.0    0.10    0.99    1.43   172.04370   137.35601   353.92722
   273  H   1.0    0.11    0.99    1.43   173.30544   138.55668   356.76938
   274  H   1.0    0.14    0.99    1.43   175.34532   137.52399   354.34016
   275  N   5.0   -0.34    3.03    1.93   175.56196   129.54899   358.97178
   276  C   4.0    0.06    4.04    3.68   175.43092   127.36981   360.65154
   277  C   4.0    0.30    3.01    3.02   177.44513   127.47695   362.70403
   278  O   6.0   -0.45    1.00    1.80   176.94886   126.83702   364.87760
   279  C   4.0   -0.14    4.01    3.63   175.72838   125.05054   358.93536
   280  C   4.0   -0.14    4.01    3.64   176.90711   126.13299   356.53545
   281  C   4.0   -0.04    4.02    3.66   175.70211   128.74453   356.35633
   282  H   1.0    0.11    0.99    1.43   173.60982   127.36266   361.63746
   283  H   1.0    0.13    0.99    1.43   176.86874   123.58714   359.82281
   284  H   1.0    0.10    0.99    1.43   173.87201   124.25923   358.52869
   285  H   1.0    0.14    0.99    1.43   178.94552   126.33724   356.73757
   286  H   1.0    0.10    0.99    1.43   176.50964   124.99081   354.87755
   287  H   1.0    0.17    0.99    1.43   176.82337   130.03792   355.23045
   288  H   1.0    0.10    0.99    1.43   173.79001   128.61094   355.57568
   289  N   5.0   -0.48    3.01    1.93   179.76471   128.17474   361.98889
   290  C   4.0    0.07    4.00    3.62   181.78080   128.29932   363.84016
   291  C   4.0    0.30    3.01    3.02   180.85889   129.54502   366.29332
   292  O   6.0   -0.42    1.00    1.80   181.37975   128.67434   368.36769
   293  C   4.0   -0.14    3.99    3.60   184.04715   129.77293   362.82228
   294  C   4.0   -0.11    3.98    3.59   185.48477   128.31428   360.77803
   295  C   4.0    0.29    3.00    3.02   187.70878   129.86597   359.84831
   296  O   6.0   -0.40    1.00    1.80   187.45918   131.85542   358.70068
   297  N   5.0   -0.65    3.00    1.93   189.99656   128.90647   360.37383
   298  H   1.0    0.29    1.00    1.43   180.12387   128.83450   360.22687
   299  H   1.0    0.12    0.99    1.43   182.34840   126.37036   364.36070
   300  H   1.0    0.16    0.99    1.43   183.38031   131.56677   362.05625
   301  H   1.0    0.12    0.99    1.43   185.30939   130.17962   364.40368
   302  H   1.0    0.10    0.99    1.43   186.12655   126.50539   361.51778
   303  H   1.0    0.16    0.99    1.43   184.26138   127.99201   359.15034
   304  H   1.0    0.25    1.00    1.43   190.20728   127.31140   361.38256
   305  H   1.0    0.28    1.00    1.43   191.54997   129.87985   359.85674
   306  N   5.0   -0.46    3.01    1.93   179.61308   131.72525   365.95542
   307  C   4.0    0.09    4.00    3.61   178.59278   133.13291   368.05797
   308  C   4.0    0.29    3.01    3.02   176.26534   131.84194   369.21355
   309  O   6.0   -0.43    1.00    1.80   176.08205   131.57608   371.51544
   310  C   4.0   -0.10    3.99    3.60   177.93492   135.83650   367.24821
   311  C   4.0    0.28    3.00    3.02   180.31678   137.45677   367.29374
   312  O   6.0   -0.38    1.00    1.80   180.94229   138.65257   369.17090
   313  N   5.0   -0.64    3.00    1.93   181.67280   137.43834   365.16498
   314  H   1.0    0.30    1.00    1.43   179.12661   132.29747   364.19339
   315  H   1.0    0.16    0.99    1.43   180.01358   133.17290   369.57235
   316  H   1.0    0.13    0.99    1.43   177.09448   135.79495   365.36916
   317  H   1.0    0.12    0.99    1.43   176.60093   136.63523   368.59993
   318  H   1.0    0.29    1.00    1.43   183.31363   138.40323   365.12752
   319  H   1.0    0.31    1.00    1.43   181.16523   136.39947   363.63635
   320  N   5.0   -0.48    3.01    1.93   174.48743   131.10156   367.59868
   321  C   4.0    0.08    4.00    3.62   172.16401   129.92690   368.46939
   322  C   4.0    0.30    3.01    3.02   172.72158   127.95962   370.50579
   323  O   6.0   -0.46    1.00    1.80   171.46199   127.82030   372.44674
   324  C   4.0   -0.09    3.98    3.59   170.73597   128.70516   366.25120
   325  C   4.0   -0.23    3.98    3.59   168.56091   127.05581   367.18717
   326  C   4.0   -0.23    3.98    3.59   169.71845   130.73448   364.46804
   327  H   1.0    0.30    1.00    1.43   174.74503   131.30548   365.70647
   328  H   1.0    0.12    0.99    1.43   170.96672   131.36969   369.36196
   329  H   1.0    0.13    0.99    1.43   172.09647   127.50020   365.26382
   330  H   1.0    0.10    0.99    1.43   167.58244   126.22063   365.58675
   331  H   1.0    0.12    0.99    1.43   169.23582   125.53929   368.39707
   332  H   1.0    0.10    0.99    1.43   167.22205   128.18048   368.26198
   333  H   1.0    0.09    0.99    1.43   168.72318   129.85064   362.90350
   334  H   1.0    0.10    0.99    1.43   168.39598   131.95027   365.46425
   335  H   1.0    0.13    0.99    1.43   171.23090   131.89525   363.71003
   336  N   5.0   -0.48    3.01    1.93   174.58036   126.34311   369.97964
   337  C   4.0    0.07    4.00    3.61   175.19196   124.29750   371.68659
   338  C   4.0    0.29    3.01    3.02   175.17315   125.13099   374.45302
   339  O   6.0   -0.41    1.00    1.80   174.41607   123.72725   376.12673
   340  C   4.0   -0.13    3.99    3.60   177.81880   123.23568   371.11393
   341  C   4.0   -0.09    3.98    3.58   178.06358   121.97708   368.51572
   342  C   4.0   -0.22    3.99    3.60   180.84272   121.34162   368.06896
   343  C   4.0   -0.22    3.98    3.59   176.42203   119.62024   368.26418
   344  H   1.0    0.29    1.00    1.43   175.59708   126.50624   368.36689
   345  H   1.0    0.12    0.99    1.43   173.75581   122.80620   371.53229
   346  H   1.0    0.14    0.99    1.43   179.16799   124.79562   371.22294
   347  H   1.0    0.11    0.99    1.43   178.28816   121.86967   372.58767
   348  H   1.0    0.15    0.99    1.43   177.48258   123.32507   367.06462
   349  H   1.0    0.12    0.99    1.43   181.08810   120.55565   366.19048
   350  H   1.0    0.12    0.99    1.43   181.98315   123.04258   368.23984
   351  H   1.0    0.10    0.99    1.43   181.50123   119.97348   369.45367
   352  H   1.0    0.12    0.99    1.43   176.52596   118.91178   366.33872
   353  H   1.0    0.10    0.99    1.43   177.04502   118.15572   369.56565
   354  H   1.0    0.10    0.99    1.43   174.45247   120.04078   368.66235
   355  N   5.0   -0.49    3.01    1.93   176.24389   127.38232   374.90986
   356  C   4.0    0.09    3.99    3.60   176.66168   128.33142   377.42133
   357  C   4.0    0.28    3.01    3.02   174.50630   129.92714   378.51398
   358  O   6.0   -0.42    1.00    1.80   174.89765   131.29212   380.35245
   359  C   4.0    0.00    3.98    3.59   179.12849   129.88257   377.46101
   360  O   6.0   -0.46    1.99    1.82   179.94322   130.42899   379.91493
   361  H   1.0    0.31    1.00    1.43   176.56687   128.61848   373.48126
   362  H   1.0    0.15    0.99    1.43   176.87269   126.70306   378.69432
   363  H   1.0    0.13    0.99    1.43   180.63296   128.78954   376.55996
   364  H   1.0    0.14    0.99    1.43   178.82689   131.62218   376.35953
   365  H   1.0    0.31    0.99    1.43   178.48831   131.11686   380.81460
   366  N   5.0   -0.48    3.00    1.93   172.23164   129.70733   377.44248
   367  C   4.0    0.08    3.99    3.61   170.10743   131.08664   378.47541
   368  C   4.0    0.07    3.00    3.02   168.80327   129.69306   380.64498
   369  O   6.0   -0.40    1.00    1.80   167.30797   130.82401   382.00410
   370  C   4.0   -0.13    3.98    3.59   168.22258   131.94152   376.44266
   371  C   4.0   -0.09    3.97    3.58   166.62713   129.89368   375.14634
   372  C   4.0   -0.21    3.98    3.59   164.46306   128.93410   376.79424
   373  C   4.0   -0.23    3.99    3.60   165.51829   131.01253   372.72185
   374  H   1.0    0.31    1.00    1.43   171.99244   128.74077   375.80149
   375  H   1.0    0.16    0.99    1.43   170.91072   132.78267   379.37122
   376  H   1.0    0.12    0.99    1.43   166.94003   133.28942   377.32679
   377  H   1.0    0.12    0.99    1.43   169.32369   132.91747   374.99725
   378  H   1.0    0.15    0.99    1.43   167.84195   128.30550   374.63840
   379  H   1.0    0.10    0.99    1.43   163.36825   127.53712   375.75797
   380  H   1.0    0.13    0.99    1.43   165.14351   128.04756   378.51230
   381  H   1.0    0.11    0.99    1.43   163.21209   130.47892   377.31619
   382  H   1.0    0.10    0.99    1.43   164.36216   129.61206   371.76284
   383  H   1.0    0.10    0.99    1.43   164.33943   132.63865   373.15600
   384  H   1.0    0.10    0.99    1.43   167.02044   131.60309   371.45228
   385  H   1.0    0.29    1.00    1.43   177.55809   110.63414   363.50106
   386  H   1.0    0.17    1.00    1.43   190.08636   113.09014   339.00977
   387  H   1.0    0.30    1.00    1.43   186.79242   114.88489   334.53909
   388  H   1.0    0.17    1.00    1.43   195.03412   117.26119   333.81022
   389  H   1.0    0.29    1.00    1.43   181.86667   134.90498   339.24865
   390  H   1.0    0.15    1.00    1.43   169.17177   127.86501   380.95072

           ------------------------------------------------- 
          |        Self-Consistent Charge Iterations        |
           ------------------------------------------------- 

          ...................................................
          :                      SETUP                      :
          :.................................................:
          :  # basis functions                 954          :
          :  # atomic orbitals                 954          :
          :  # shells                          578          :
          :  # electrons                      1064          :
          :  max. iterations                   250          :
          :  Hamiltonian                  GFN2-xTB          :
          :  restarted?                      false          :
          :  GBSA solvation                   true          :
          :  PC potential                    false          :
          :  electronic temp.          500.0000000     K    :
          :  accuracy                    0.1000000          :
          :  -> integral cutoff          0.3500000E+02      :
          :  -> integral neglect         0.1000000E-08      :
          :  -> SCF convergence          0.1000000E-06 Eh   :
          :  -> wf. convergence          0.1000000E-04 e    :
          :  Broyden damping             0.4000000          :
          ...................................................

 iter      E             dE          RMSdq      gap      omega  full diag
   1   -611.3945629 -0.611395E+03  0.417E+00    1.48       0.0  T
   2   -613.1741659 -0.177960E+01  0.216E+00    1.62       1.0  T
   3   -613.2217190 -0.475531E-01  0.114E+00    1.99       1.0  T
   4   -613.2295777 -0.785870E-02  0.212E-01    1.58       1.0  T
   5   -613.2394380 -0.986032E-02  0.911E-02    1.75       1.0  T
   6   -613.2397246 -0.286606E-03  0.414E-02    1.73       1.0  T
   7   -613.2397652 -0.405853E-04  0.113E-02    1.74       1.0  T
   8   -613.2397758 -0.106305E-04  0.530E-03    1.74       1.0  T
   9   -613.2397772 -0.143478E-05  0.231E-03    1.74       2.2  T
  10   -613.2397775 -0.235221E-06  0.881E-04    1.74       5.7  T
  11   -613.2397776 -0.735545E-07  0.331E-04    1.74      15.3  T
  12   -613.2397776 -0.743489E-08  0.173E-04    1.74      29.3  T
  13   -613.2397776 -0.167427E-08  0.699E-05    1.74      72.4  T
  14   -613.2397776 -0.320142E-09  0.280E-05    1.74     180.6  T

   *** convergence criteria satisfied after 14 iterations ***

         #    Occupation            Energy/Eh            Energy/eV
      -------------------------------------------------------------
         1        2.0000           -0.7354677             -20.0131
       ...           ...                  ...                  ...
       526        2.0000           -0.3960950             -10.7783
       527        2.0000           -0.3960399             -10.7768
       528        2.0000           -0.3943112             -10.7298
       529        2.0000           -0.3928227             -10.6892
       530        2.0000           -0.3870094             -10.5311
       531        2.0000           -0.3800470             -10.3416
       532        2.0000           -0.3489255              -9.4947 (HOMO)
       533                         -0.2849038              -7.7526 (LUMO)
       534                         -0.2842438              -7.7347
       535                         -0.2822211              -7.6796
       536                         -0.2518071              -6.8520
       537                         -0.2484083              -6.7595
       ...                                ...                  ...
       954                          0.6327906              17.2191
      -------------------------------------------------------------
                  HL-Gap            0.0640217 Eh            1.7421 eV
             Fermi-level           -0.3173986 Eh           -8.6369 eV

 SCC (total)                   0 d,  0 h,  0 min,  5.298 sec
 SCC setup                      ...        0 min,  0.072 sec (  1.359%)
 Dispersion                     ...        0 min,  0.075 sec (  1.407%)
 integral evaluation            ...        0 min,  0.197 sec (  3.712%)
 zeroth order Hamiltonian       ...        0 min,  0.004 sec (  0.068%)
 iterations                     ...        0 min,  3.788 sec ( 71.493%)
 molecular gradient             ...        0 min,  1.108 sec ( 20.917%)
 printout                       ...        0 min,  0.055 sec (  1.042%)

         :::::::::::::::::::::::::::::::::::::::::::::::::::::
         ::                     SUMMARY                     ::
         :::::::::::::::::::::::::::::::::::::::::::::::::::::
         :: total energy             -606.149208423578 Eh   ::
         :: total w/o Gsasa/hb       -606.076263757990 Eh   ::
         :: gradient norm               0.384902056413 Eh/α ::
         :: HOMO-LUMO gap               1.742120086638 eV   ::
         ::.................................................::
         :: SCC energy               -613.255897478594 Eh   ::
         :: -> isotropic ES             1.721037677093 Eh   ::
         :: -> anisotropic ES          -0.041756300117 Eh   ::
         :: -> anisotropic XC           0.163306606565 Eh   ::
         :: -> dispersion              -0.530899440477 Eh   ::
         :: -> Gsolv                   -0.285724141330 Eh   ::
         ::    -> Gborn                -0.212779475742 Eh   ::
         ::    -> Gsasa                -0.017977361385 Eh   ::
         ::    -> Ghb                  -0.056824747330 Eh   ::
         ::    -> Gshift                0.001857443127 Eh   ::
         :: repulsion energy            7.061402253369 Eh   ::
         :: add. restraining            0.000000000000 Eh   ::
         :::::::::::::::::::::::::::::::::::::::::::::::::::::

           -------------------------------------------------
          |                Property Printout                |
           -------------------------------------------------

    * Orbital Energies and Occupations

         #    Occupation            Energy/Eh            Energy/eV
      -------------------------------------------------------------
         1        2.0000           -0.7354677             -20.0131
       ...           ...                  ...                  ...
       520        2.0000           -0.4004550             -10.8969
       521        2.0000           -0.4000684             -10.8864
       522        2.0000           -0.3988574             -10.8535
       523        2.0000           -0.3986837             -10.8487
       524        2.0000           -0.3973602             -10.8127
       525        2.0000           -0.3968733             -10.7995
       526        2.0000           -0.3960950             -10.7783
       527        2.0000           -0.3960399             -10.7768
       528        2.0000           -0.3943112             -10.7298
       529        2.0000           -0.3928227             -10.6892
       530        2.0000           -0.3870094             -10.5311
       531        2.0000           -0.3800470             -10.3416
       532        2.0000           -0.3489255              -9.4947 (HOMO)
       533                         -0.2849038              -7.7526 (LUMO)
       534                         -0.2842438              -7.7347
       535                         -0.2822211              -7.6796
       536                         -0.2518071              -6.8520
       537                         -0.2484083              -6.7595
       538                         -0.2452018              -6.6723
       539                         -0.2410833              -6.5602
       540                         -0.2398442              -6.5265
       541                         -0.2386800              -6.4948
       542                         -0.2377940              -6.4707
       543                         -0.2370051              -6.4492
       ...                                ...                  ...
       954                          0.6327906              17.2191
      -------------------------------------------------------------
                  HL-Gap            0.0640217 Eh            1.7421 eV
             Fermi-level           -0.3173986 Eh           -8.6369 eV

   #   Z        covCN         q      C6AA      α(0)
   1   7 N      2.635    -0.393    30.178     8.159
   2   6 C      3.793     0.032    20.047     6.376
   3   6 C      2.762     0.263    22.564     7.779
   4   8 O      0.858    -0.486    23.475     6.496
   5   6 C      3.809    -0.112    22.628     6.771
   6   6 C      2.748     0.287    22.140     7.705
   7   8 O      0.859    -0.489    23.539     6.505
   8   7 N      2.638    -0.275    27.106     7.732
   9   1 H      0.860     0.176     1.236     1.741
  10   1 H      0.923     0.056     2.243     2.342
  11   1 H      0.924     0.086     1.922     2.168
  12   1 H      0.925     0.067     2.120     2.277
  13   1 H      0.860     0.215     1.033     1.592
  14   1 H      0.860     0.223     0.994     1.562
  15   7 N      2.690    -0.171    24.708     7.383
  16   6 C      3.800     0.012    20.380     6.428
  17   6 C      2.759     0.280    22.261     7.726
  18   8 O      0.859    -0.466    23.045     6.436
  19   6 C      3.677     0.068    19.648     6.350
  20   8 O      1.656    -0.477    22.408     6.390
  21   1 H      0.860     0.229     0.970     1.543
  22   1 H      0.923     0.092     1.863     2.134
  23   1 H      0.923     0.058     2.224     2.332
  24   1 H      0.923     0.048     2.340     2.392
  25   1 H      0.805     0.355     0.576     1.192
  26   7 N      2.692    -0.182    24.944     7.418
  27   6 C      3.797     0.017    20.292     6.414
  28   6 C      2.759     0.289    22.103     7.699
  29   8 O      0.859    -0.490    23.554     6.507
  30   6 C      3.806    -0.087    22.162     6.702
  31   6 C      3.848    -0.016    20.819     6.490
  32   6 C      3.755    -0.118    22.810     6.810
  33   6 C      3.755    -0.118    22.814     6.811
  34   1 H      0.860     0.223     0.996     1.564
  35   1 H      0.923     0.081     1.967     2.193
  36   1 H      0.924     0.074     2.045     2.236
  37   1 H      0.924     0.062     2.178     2.308
  38   1 H      0.924     0.053     2.286     2.364
  39   1 H      0.925     0.045     2.379     2.412
  40   1 H      0.925     0.042     2.419     2.432
  41   1 H      0.925     0.031     2.573     2.509
  42   1 H      0.925     0.044     2.401     2.423
  43   1 H      0.925     0.038     2.474     2.460
  44   1 H      0.925     0.046     2.376     2.410
  45   7 N      2.691    -0.179    24.869     7.406
  46   6 C      3.799     0.022    20.203     6.400
  47   6 C      2.762     0.282    22.224     7.720
  48   8 O      0.859    -0.506    23.923     6.558
  49   6 C      3.678     0.069    19.639     6.348
  50   8 O      1.656    -0.488    22.628     6.422
  51   1 H      0.860     0.206     1.075     1.624
  52   1 H      0.923     0.076     2.018     2.222
  53   1 H      0.923     0.047     2.360     2.402
  54   1 H      0.924     0.058     2.224     2.332
  55   1 H      0.805     0.357     0.572     1.188
  56   7 N      2.689    -0.172    24.729     7.386
  57   6 C      3.802     0.023    20.189     6.397
  58   6 C      2.761     0.268    22.480     7.764
  59   8 O      0.859    -0.512    24.043     6.574
  60   6 C      3.811    -0.078    21.975     6.673
  61   6 C      3.849    -0.019    20.879     6.499
  62   6 C      3.758    -0.126    22.974     6.834
  63   6 C      3.755    -0.124    22.928     6.827
  64   1 H      0.860     0.237     0.937     1.516
  65   1 H      0.924     0.075     2.032     2.229
  66   1 H      0.924     0.061     2.182     2.310
  67   1 H      0.924     0.067     2.124     2.279
  68   1 H      0.924     0.042     2.424     2.435
  69   1 H      0.925     0.050     2.322     2.383
  70   1 H      0.925     0.044     2.394     2.419
  71   1 H      0.925     0.053     2.282     2.362
  72   1 H      0.925     0.061     2.182     2.310
  73   1 H      0.925     0.040     2.443     2.444
  74   1 H      0.925     0.031     2.567     2.505
  75   7 N      2.690    -0.176    24.811     7.398
  76   6 C      3.801     0.025    20.153     6.391
  77   6 C      2.766     0.270    22.444     7.759
  78   8 O      0.859    -0.500    23.782     6.538
  79   6 C      3.810    -0.076    21.940     6.667
  80   6 C      3.849    -0.016    20.825     6.491
  81   6 C      3.758    -0.117    22.784     6.805
  82   6 C      3.755    -0.122    22.897     6.823
  83   1 H      0.860     0.239     0.929     1.510
  84   1 H      0.924     0.071     2.071     2.251
  85   1 H      0.924     0.060     2.202     2.320
  86   1 H      0.924     0.052     2.291     2.367
  87   1 H      0.924     0.053     2.283     2.363
  88   1 H      0.925     0.053     2.286     2.364
  89   1 H      0.925     0.035     2.522     2.484
  90   1 H      0.925     0.043     2.411     2.428
  91   1 H      0.925     0.058     2.218     2.329
  92   1 H      0.925     0.041     2.439     2.442
  93   1 H      0.925     0.034     2.530     2.487
  94   7 N      2.689    -0.188    25.072     7.437
  95   6 C      3.803     0.018    20.264     6.409
  96   6 C      2.763     0.280    22.262     7.727
  97   8 O      0.859    -0.493    23.637     6.518
  98   6 C      3.723     0.118    18.759     6.185
  99   8 O      1.656    -0.494    22.760     6.440
 100   6 C      3.751    -0.142    23.290     6.882
 101   1 H      0.860     0.218     1.019     1.582
 102   1 H      0.923     0.091     1.867     2.137
 103   1 H      0.923     0.036     2.509     2.477
 104   1 H      0.805     0.345     0.599     1.216
 105   1 H      0.925     0.064     2.151     2.294
 106   1 H      0.925     0.077     2.015     2.220
 107   1 H      0.925     0.044     2.402     2.423
 108   7 N      2.688    -0.184    24.986     7.424
 109   6 C      3.803     0.033    20.016     6.369
 110   6 C      2.761     0.278    22.292     7.732
 111   8 O      0.858    -0.487    23.497     6.499
 112   6 C      3.809    -0.073    21.892     6.660
 113   6 C      3.806    -0.104    22.481     6.750
 114   6 C      2.746     0.289    22.097     7.697
 115   8 O      0.859    -0.492    23.618     6.516
 116   7 N      2.639    -0.269    26.975     7.714
 117   1 H      0.860     0.218     1.018     1.580
 118   1 H      0.923     0.073     2.051     2.240
 119   1 H      0.925     0.084     1.935     2.175
 120   1 H      0.924     0.062     2.182     2.310
 121   1 H      0.924     0.072     2.065     2.247
 122   1 H      0.925     0.075     2.030     2.228
 123   1 H      0.860     0.215     1.033     1.592
 124   1 H      0.860     0.213     1.043     1.600
 125   7 N      2.686    -0.184    24.983     7.423
 126   6 C      3.798     0.036    19.966     6.362
 127   6 C      2.764     0.205    23.636     7.962
 128   8 O      0.856    -0.359    20.875     6.126
 129   6 C      3.809    -0.105    22.493     6.751
 130   6 C      2.743     0.292    22.052     7.689
 131   8 O      0.859    -0.479    23.330     6.476
 132   7 N      2.639    -0.276    27.139     7.737
 133   1 H      0.860     0.227     0.979     1.550
 134   1 H      0.923     0.099     1.797     2.096
 135   1 H      0.925     0.086     1.923     2.168
 136   1 H      0.924     0.099     1.794     2.095
 137   1 H      0.860     0.250     0.882     1.471
 138   1 H      0.860     0.223     0.998     1.565
 139   7 N      2.635    -0.405    30.524     8.205
 140   6 C      3.785     0.041    19.895     6.353
 141   6 C      2.765     0.271    22.414     7.753
 142   8 O      0.859    -0.526    24.360     6.617
 143   6 C      3.807    -0.062    21.689     6.630
 144   6 C      3.849    -0.007    20.672     6.467
 145   6 C      3.755    -0.109    22.636     6.784
 146   6 C      3.755    -0.106    22.584     6.776
 147   1 H      0.860     0.173     1.255     1.755
 148   1 H      0.924     0.031     2.570     2.507
 149   1 H      0.925     0.044     2.394     2.420
 150   1 H      0.924     0.031     2.579     2.511
 151   1 H      0.924     0.036     2.505     2.475
 152   1 H      0.925     0.046     2.376     2.411
 153   1 H      0.925     0.032     2.562     2.503
 154   1 H      0.925     0.032     2.561     2.503
 155   1 H      0.925     0.041     2.438     2.442
 156   1 H      0.925     0.032     2.561     2.502
 157   1 H      0.925     0.037     2.493     2.469
 158   7 N      2.688    -0.194    25.212     7.457
 159   6 C      3.803     0.042    19.865     6.345
 160   6 C      2.765     0.210    23.548     7.947
 161   8 O      0.856    -0.373    21.155     6.167
 162   6 C      3.808    -0.103    22.455     6.746
 163   6 C      2.744     0.293    22.022     7.684
 164   8 O      0.859    -0.497    23.729     6.531
 165   7 N      2.637    -0.282    27.289     7.758
 166   1 H      0.860     0.229     0.969     1.542
 167   1 H      0.923     0.095     1.828     2.115
 168   1 H      0.925     0.076     2.021     2.223
 169   1 H      0.924     0.095     1.830     2.115
 170   1 H      0.860     0.234     0.948     1.525
 171   1 H      0.860     0.239     0.928     1.509
 172   7 N      2.634    -0.392    30.139     8.154
 173   6 C      3.786     0.026    20.153     6.394
 174   6 C      2.757     0.256    22.694     7.801
 175   8 O      0.858    -0.503    23.858     6.549
 176   6 C      3.812    -0.071    21.843     6.652
 177   6 C      3.850    -0.009    20.700     6.471
 178   6 C      3.758    -0.105    22.555     6.771
 179   6 C      3.755    -0.112    22.698     6.793
 180   1 H      0.860     0.164     1.310     1.793
 181   1 H      0.923     0.044     2.393     2.419
 182   1 H      0.924     0.048     2.349     2.397
 183   1 H      0.924     0.043     2.415     2.430
 184   1 H      0.924     0.036     2.509     2.477
 185   1 H      0.925     0.029     2.605     2.524
 186   1 H      0.925     0.035     2.511     2.478
 187   1 H      0.925     0.033     2.545     2.495
 188   1 H      0.925     0.035     2.520     2.483
 189   1 H      0.925     0.043     2.406     2.425
 190   1 H      0.925     0.040     2.450     2.448
 191   7 N      2.691    -0.169    24.648     7.374
 192   6 C      3.795     0.014    20.351     6.424
 193   6 C      2.760     0.268    22.477     7.764
 194   8 O      0.858    -0.488    23.513     6.501
 195   6 C      3.757    -0.143    23.310     6.884
 196   1 H      0.860     0.227     0.977     1.548
 197   1 H      0.924     0.087     1.904     2.158
 198   1 H      0.925     0.079     1.985     2.203
 199   1 H      0.925     0.083     1.952     2.185
 200   1 H      0.925     0.070     2.087     2.259
 201   7 N      2.689    -0.177    24.837     7.402
 202   6 C      3.799     0.011    20.391     6.429
 203   6 C      2.756     0.279    22.274     7.728
 204   8 O      0.859    -0.477    23.277     6.469
 205   6 C      3.805    -0.074    21.920     6.665
 206   6 C      3.806    -0.103    22.468     6.748
 207   6 C      2.745     0.292    22.048     7.688
 208   8 O      0.859    -0.501    23.807     6.542
 209   7 N      2.639    -0.288    27.424     7.778
 210   1 H      0.860     0.220     1.009     1.573
 211   1 H      0.924     0.094     1.837     2.120
 212   1 H      0.924     0.076     2.023     2.224
 213   1 H      0.924     0.076     2.021     2.223
 214   1 H      0.925     0.071     2.074     2.252
 215   1 H      0.924     0.062     2.177     2.307
 216   1 H      0.860     0.227     0.976     1.548
 217   1 H      0.860     0.231     0.960     1.535
 218   7 N      2.693    -0.179    24.885     7.409
 219   6 C      3.797     0.020    20.234     6.405
 220   6 C      2.758     0.274    22.376     7.746
 221   8 O      0.859    -0.487    23.507     6.500
 222   6 C      3.756    -0.140    23.244     6.874
 223   1 H      0.860     0.201     1.101     1.644
 224   1 H      0.923     0.081     1.969     2.195
 225   1 H      0.925     0.078     1.997     2.210
 226   1 H      0.925     0.075     2.031     2.228
 227   1 H      0.925     0.066     2.133     2.284
 228   7 N      2.690    -0.185    25.010     7.428
 229   6 C      3.798     0.025    20.156     6.393
 230   6 C      2.757     0.288    22.122     7.702
 231   8 O      0.858    -0.480    23.356     6.480
 232   6 C      3.812    -0.118    22.748     6.789
 233   6 C      2.743     0.285    22.166     7.709
 234   8 O      0.859    -0.468    23.097     6.443
 235   7 N      2.640    -0.292    27.528     7.792
 236   1 H      0.860     0.235     0.945     1.523
 237   1 H      0.923     0.080     1.981     2.201
 238   1 H      0.924     0.094     1.838     2.120
 239   1 H      0.924     0.087     1.907     2.160
 240   1 H      0.860     0.234     0.950     1.527
 241   1 H      0.860     0.229     0.971     1.543
 242   7 N      2.692    -0.180    24.894     7.410
 243   6 C      3.799     0.020    20.243     6.406
 244   6 C      2.759     0.281    22.252     7.725
 245   8 O      0.859    -0.512    24.053     6.575
 246   6 C      3.809    -0.068    21.798     6.646
 247   6 C      3.808    -0.107    22.530     6.757
 248   6 C      2.744     0.289    22.098     7.697
 249   8 O      0.859    -0.497    23.722     6.530
 250   7 N      2.639    -0.299    27.697     7.816
 251   1 H      0.860     0.220     1.008     1.573
 252   1 H      0.923     0.085     1.924     2.169
 253   1 H      0.924     0.080     1.983     2.202
 254   1 H      0.924     0.051     2.307     2.375
 255   1 H      0.925     0.071     2.077     2.254
 256   1 H      0.924     0.090     1.882     2.145
 257   1 H      0.860     0.229     0.968     1.541
 258   1 H      0.860     0.234     0.948     1.525
 259   7 N      2.689    -0.169    24.665     7.376
 260   6 C      3.799     0.026    20.131     6.388
 261   6 C      2.765     0.262    22.588     7.783
 262   8 O      0.860    -0.520    24.240     6.601
 263   6 C      3.852    -0.027    21.018     6.521
 264   6 C      3.756    -0.120    22.850     6.816
 265   6 C      3.757    -0.124    22.926     6.827
 266   1 H      0.860     0.225     0.989     1.558
 267   1 H      0.923     0.066     2.132     2.283
 268   1 H      0.924     0.063     2.163     2.300
 269   1 H      0.925     0.063     2.167     2.302
 270   1 H      0.925     0.037     2.489     2.467
 271   1 H      0.925     0.046     2.367     2.406
 272   1 H      0.925     0.058     2.227     2.334
 273   1 H      0.925     0.043     2.404     2.425
 274   1 H      0.925     0.053     2.280     2.361
 275   7 N      2.756    -0.078    22.748     7.084
 276   6 C      3.838     0.018    20.238     6.400
 277   6 C      2.759     0.281    22.247     7.724
 278   8 O      0.859    -0.500    23.789     6.539
 279   6 C      3.829    -0.075    21.918     6.661
 280   6 C      3.832    -0.077    21.944     6.665
 281   6 C      3.773    -0.024    21.030     6.534
 282   1 H      0.924     0.069     2.098     2.265
 283   1 H      0.925     0.070     2.090     2.261
 284   1 H      0.925     0.075     2.035     2.231
 285   1 H      0.925     0.068     2.104     2.269
 286   1 H      0.925     0.076     2.021     2.223
 287   1 H      0.925     0.099     1.797     2.096
 288   1 H      0.924     0.070     2.090     2.261
 289   7 N      2.688    -0.177    24.841     7.402
 290   6 C      3.801     0.022    20.208     6.400
 291   6 C      2.757     0.284    22.191     7.714
 292   8 O      0.858    -0.493    23.640     6.519
 293   6 C      3.809    -0.066    21.757     6.640
 294   6 C      3.806    -0.103    22.465     6.747
 295   6 C      2.745     0.291    22.057     7.690
 296   8 O      0.859    -0.504    23.863     6.549
 297   7 N      2.639    -0.292    27.531     7.793
 298   1 H      0.860     0.226     0.983     1.553
 299   1 H      0.923     0.076     2.016     2.220
 300   1 H      0.924     0.065     2.137     2.286
 301   1 H      0.924     0.053     2.286     2.365
 302   1 H      0.925     0.064     2.153     2.294
 303   1 H      0.924     0.096     1.825     2.113
 304   1 H      0.860     0.232     0.955     1.531
 305   1 H      0.860     0.234     0.949     1.526
 306   7 N      2.689    -0.189    25.099     7.441
 307   6 C      3.798     0.035    19.984     6.365
 308   6 C      2.756     0.273    22.378     7.746
 309   8 O      0.859    -0.510    24.007     6.569
 310   6 C      3.810    -0.107    22.535     6.757
 311   6 C      2.745     0.292    22.041     7.687
 312   8 O      0.859    -0.509    23.983     6.566
 313   7 N      2.638    -0.292    27.527     7.792
 314   1 H      0.860     0.224     0.992     1.561
 315   1 H      0.923     0.067     2.114     2.274
 316   1 H      0.925     0.084     1.938     2.177
 317   1 H      0.924     0.073     2.050     2.239
 318   1 H      0.860     0.230     0.965     1.539
 319   1 H      0.860     0.239     0.925     1.507
 320   7 N      2.688    -0.181    24.914     7.413
 321   6 C      3.801     0.024    20.178     6.396
 322   6 C      2.759     0.284    22.192     7.715
 323   8 O      0.859    -0.494    23.659     6.521
 324   6 C      3.853    -0.019    20.870     6.498
 325   6 C      3.756    -0.119    22.836     6.813
 326   6 C      3.757    -0.125    22.946     6.830
 327   1 H      0.860     0.239     0.926     1.508
 328   1 H      0.923     0.063     2.164     2.300
 329   1 H      0.924     0.047     2.354     2.399
 330   1 H      0.925     0.064     2.151     2.294
 331   1 H      0.925     0.033     2.543     2.494
 332   1 H      0.925     0.056     2.252     2.347
 333   1 H      0.925     0.059     2.210     2.325
 334   1 H      0.925     0.052     2.296     2.370
 335   1 H      0.925     0.052     2.297     2.370
 336   7 N      2.690    -0.186    25.022     7.429
 337   6 C      3.799     0.027    20.126     6.388
 338   6 C      2.758     0.285    22.171     7.711
 339   8 O      0.858    -0.495    23.677     6.524
 340   6 C      3.814    -0.074    21.905     6.662
 341   6 C      3.850    -0.015    20.801     6.487
 342   6 C      3.758    -0.119    22.830     6.812
 343   6 C      3.755    -0.118    22.825     6.812
 344   1 H      0.860     0.225     0.988     1.557
 345   1 H      0.923     0.068     2.106     2.270
 346   1 H      0.924     0.048     2.339     2.392
 347   1 H      0.924     0.056     2.250     2.346
 348   1 H      0.924     0.047     2.355     2.400
 349   1 H      0.925     0.047     2.362     2.403
 350   1 H      0.925     0.040     2.452     2.449
 351   1 H      0.925     0.048     2.339     2.392
 352   1 H      0.925     0.055     2.263     2.352
 353   1 H      0.925     0.045     2.386     2.416
 354   1 H      0.925     0.033     2.544     2.494
 355   7 N      2.689    -0.191    25.145     7.448
 356   6 C      3.792     0.011    20.396     6.432
 357   6 C      2.759     0.269    22.464     7.762
 358   8 O      0.859    -0.502    23.827     6.545
 359   6 C      3.679     0.082    19.424     6.313
 360   8 O      1.655    -0.475    22.371     6.385
 361   1 H      0.860     0.211     1.053     1.608
 362   1 H      0.923     0.088     1.902     2.157
 363   1 H      0.924     0.058     2.222     2.331
 364   1 H      0.923     0.027     2.630     2.536
 365   1 H      0.804     0.341     0.609     1.226
 366   7 N      2.686    -0.178    24.848     7.403
 367   6 C      3.796     0.028    20.109     6.385
 368   6 C      2.763     0.209    23.572     7.951
 369   8 O      0.856    -0.369    21.064     6.153
 370   6 C      3.807    -0.072    21.875     6.658
 371   6 C      3.848    -0.017    20.851     6.495
 372   6 C      3.756    -0.114    22.726     6.797
 373   6 C      3.759    -0.112    22.695     6.792
 374   1 H      0.860     0.226     0.982     1.552
 375   1 H      0.923     0.099     1.795     2.095
 376   1 H      0.925     0.071     2.077     2.254
 377   1 H      0.924     0.060     2.195     2.317
 378   1 H      0.924     0.052     2.290     2.367
 379   1 H      0.925     0.050     2.326     2.385
 380   1 H      0.925     0.027     2.624     2.533
 381   1 H      0.925     0.045     2.382     2.413
 382   1 H      0.925     0.048     2.344     2.394
 383   1 H      0.925     0.047     2.359     2.402
 384   1 H      0.925     0.034     2.527     2.486
 385   1 H      0.862     0.189     1.165     1.691
 386   1 H      0.930     0.076     2.022     2.223
 387   1 H      0.862     0.171     1.268     1.764
 388   1 H      0.930     0.073     2.054     2.241
 389   1 H      0.862     0.181     1.210     1.723
 390   1 H      0.930     0.067     2.124     2.279

 Mol. C6AA /au·bohr⁶  :    1369595.086653
 Mol. C8AA /au·bohr⁸  :   30157907.216953
 Mol. α(0) /au        :       1739.204855


Wiberg/Mayer (AO) data.
largest (>0.10) Wiberg bond orders for each atom
          total WBO             WBO to atom ...
     1  N   2.996        C    2 1.018    H  385 0.952    H    9 0.950
     2  C   3.985        N    1 1.018    C    5 0.961    H   10 0.960    C    3 0.937
     3  C   3.943        O    4 1.611    N   15 1.308    C    2 0.937
     4  O   1.978        C    3 1.611    N   15 0.193
     5  C   3.990        H   12 0.972    C    2 0.961    C    6 0.960    H   11 0.955
     6  C   3.945        O    7 1.654    N    8 1.297    C    5 0.960
     7  O   1.962        C    6 1.654    N    8 0.200
     8  N   3.399        C    6 1.297    H   13 0.930    H   14 0.929    O    7 0.200
     9  H   0.969        N    1 0.950
    10  H   0.996        C    2 0.960
    11  H   0.992        C    5 0.955
    12  H   0.995        C    5 0.972
    13  H   0.953        N    8 0.930
    14  H   0.950        N    8 0.929
    15  N   3.469        C    3 1.308    C   16 0.983    H   21 0.911    O    4 0.193
    16  C   3.965        N   15 0.983    C   19 0.976    H   22 0.943    C   17 0.936
    17  C   3.949        O   18 1.623    N   26 1.303    C   16 0.936
    18  O   2.002        C   17 1.623    N   26 0.195
    19  C   3.959        O   20 1.011    C   16 0.976    H   24 0.966    H   23 0.962
    20  O   1.926        C   19 1.011    H   25 0.860
    21  H   0.947        N   15 0.911
    22  H   0.991        C   16 0.943
    23  H   0.996        C   19 0.962
    24  H   0.998        C   19 0.966
    25  H   0.873        O   20 0.860
    26  N   3.461        C   17 1.303    C   27 0.970    H   34 0.915    O   18 0.195
    27  C   3.960        C   30 0.980    N   26 0.970    H   35 0.946    C   28 0.941
    28  C   3.943        O   29 1.624    N   45 1.287    C   27 0.941
    29  O   1.963        C   28 1.624    N   45 0.189
    30  C   3.985        C   31 0.994    C   27 0.980    H   37 0.970    H   36 0.969
    31  C   3.993        C   32 1.010    C   33 1.010    C   30 0.994    H   38 0.966
    32  C   3.995        C   31 1.010    H   40 0.985    H   39 0.985    H   41 0.982
    33  C   3.995        C   31 1.010    H   42 0.986    H   44 0.985    H   43 0.984
    34  H   0.950        N   26 0.915
    35  H   0.993        C   27 0.946
    36  H   0.994        C   30 0.969
    37  H   0.996        C   30 0.970
    38  H   0.997        C   31 0.966
    39  H   0.998        C   32 0.985
    40  H   0.998        C   32 0.985
    41  H   0.999        C   32 0.982
    42  H   0.998        C   33 0.986
    43  H   0.999        C   33 0.984
    44  H   0.998        C   33 0.985
    45  N   3.459        C   28 1.287    C   46 0.983    H   51 0.922    O   29 0.189
    46  C   3.965        N   45 0.983    C   49 0.979    H   52 0.952    C   47 0.934
    47  C   3.950        O   48 1.585    N   56 1.343    C   46 0.934
    48  O   1.948        C   47 1.585    N   56 0.195
    49  C   3.955        O   50 1.006    C   46 0.979    H   53 0.967    H   54 0.960
    50  O   1.919        C   49 1.006    H   55 0.859
    51  H   0.957        N   45 0.922
    52  H   0.994        C   46 0.952
    53  H   0.997        C   49 0.967
    54  H   0.997        C   49 0.960
    55  H   0.872        O   50 0.859
    56  N   3.496        C   47 1.343    C   57 0.982    H   64 0.880    O   48 0.195
    57  C   3.962        N   56 0.982    C   60 0.977    C   58 0.941    H   65 0.934
    58  C   3.948        O   59 1.566    N   75 1.344    C   57 0.941
    59  O   1.941        C   58 1.566    N   75 0.190
    60  C   3.982        C   61 0.991    C   57 0.977    H   67 0.969    H   66 0.968
    61  C   3.993        C   63 1.009    C   62 1.007    C   60 0.991    H   68 0.964
    62  C   3.992        C   61 1.007    H   70 0.986    H   71 0.985    H   69 0.983
    63  C   3.994        C   61 1.009    H   73 0.985    H   74 0.985    H   72 0.980
    64  H   0.944        N   56 0.880
    65  H   0.994        C   57 0.934
    66  H   0.996        C   60 0.968
    67  H   0.995        C   60 0.969
    68  H   0.998        C   61 0.964
    69  H   0.997        C   62 0.983
    70  H   0.998        C   62 0.986
    71  H   0.997        C   62 0.985
    72  H   0.996        C   63 0.980
    73  H   0.998        C   63 0.985
    74  H   0.999        C   63 0.985
    75  N   3.496        C   58 1.344    C   76 0.984    H   83 0.872    O   59 0.190
    76  C   3.965        N   75 0.984    C   79 0.977    C   77 0.938    H   84 0.937
    77  C   3.944        O   78 1.626    N   94 1.297    C   76 0.938
    78  O   1.941        C   77 1.626    N   94 0.194
    79  C   3.983        C   80 0.991    C   76 0.977    H   86 0.971    H   85 0.967
    80  C   3.992        C   82 1.010    C   81 1.007    C   79 0.991    H   87 0.961
    81  C   3.994        C   80 1.007    H   90 0.986    H   88 0.985    H   89 0.983
    82  C   3.995        C   80 1.010    H   92 0.986    H   91 0.983    H   93 0.981
    83  H   0.943        N   75 0.872
    84  H   0.994        C   76 0.937
    85  H   0.996        C   79 0.967
    86  H   0.996        C   79 0.971
    87  H   0.997        C   80 0.961
    88  H   0.996        C   81 0.985
    89  H   0.999        C   81 0.983
    90  H   0.998        C   81 0.986
    91  H   0.996        C   82 0.983
    92  H   0.998        C   82 0.986
    93  H   0.999        C   82 0.981
    94  N   3.463        C   77 1.297    C   95 0.985    H  101 0.900    O   78 0.194
    95  C   3.962        N   94 0.985    C   98 0.962    H  102 0.947    C   96 0.934
    96  C   3.946        O   97 1.623    N  108 1.305    C   95 0.934
    97  O   1.961        C   96 1.623    N  108 0.195
    98  C   3.955        C  100 1.005    O   99 0.990    C   95 0.962    H  103 0.955
    99  O   1.924        C   98 0.990    H  104 0.862
   100  C   3.989        C   98 1.005    H  107 0.984    H  105 0.981    H  106 0.971
   101  H   0.952        N   94 0.900
   102  H   0.991        C   95 0.947
   103  H   0.998        C   98 0.955
   104  H   0.880        O   99 0.862
   105  H   0.996        C  100 0.981
   106  H   0.994        C  100 0.971
   107  H   0.998        C  100 0.984
   108  N   3.465        C   96 1.305    C  109 0.979    H  117 0.900    O   97 0.195
   109  C   3.963        C  112 0.982    N  108 0.979    H  118 0.943    C  110 0.937
   110  C   3.946        O  111 1.606    N  125 1.313    C  109 0.937
   111  O   1.976        C  110 1.606    N  125 0.188
   112  C   3.985        C  113 0.986    C  109 0.982    H  120 0.972    H  119 0.953
   113  C   3.991        C  112 0.986    C  114 0.968    H  122 0.968    H  121 0.965
   114  C   3.943        O  115 1.655    N  116 1.294    C  113 0.968
   115  O   1.962        C  114 1.655    N  116 0.200
   116  N   3.395        C  114 1.294    H  123 0.933    H  124 0.930    O  115 0.200
   117  H   0.952        N  108 0.900
   118  H   0.994        C  109 0.943
   119  H   0.993        C  112 0.953
   120  H   0.996        C  112 0.972
   121  H   0.995        C  113 0.965
   122  H   0.994        C  113 0.968
   123  H   0.954        N  116 0.933
   124  H   0.955        N  116 0.930
   125  N   3.462        C  110 1.313    C  126 0.987    H  133 0.876    O  111 0.188
   126  C   3.968        N  125 0.987    C  129 0.974    C  127 0.974    H  134 0.913
   127  C   3.899        O  128 1.898    C  126 0.974    H  386 0.952
   128  O   2.046        C  127 1.898
   129  C   3.986        C  126 0.974    C  130 0.962    H  135 0.953    H  136 0.945
   130  C   3.952        O  131 1.637    N  132 1.321    C  129 0.962
   131  O   1.976        C  130 1.637    N  132 0.198
   132  N   3.403        C  130 1.321    H  138 0.929    H  137 0.916    O  131 0.198
   133  H   0.948        N  125 0.876
   134  H   0.990        C  126 0.913
   135  H   0.993        C  129 0.953
   136  H   0.990        C  129 0.945
   137  H   0.936        N  132 0.916
   138  H   0.950        N  132 0.929
   139  N   2.993        C  140 1.014    H  387 0.959    H  147 0.932
   140  C   3.985        N  139 1.014    C  143 0.978    H  148 0.956    C  141 0.941
   141  C   3.938        O  142 1.615    N  158 1.302    C  140 0.941
   142  O   1.919        C  141 1.615    N  158 0.188
   143  C   3.993        C  144 0.993    C  140 0.978    H  150 0.970    H  149 0.968
   144  C   3.995        C  146 1.010    C  145 1.010    C  143 0.993    H  151 0.967
   145  C   3.996        C  144 1.010    H  152 0.986    H  153 0.985    H  154 0.982
   146  C   3.996        C  144 1.010    H  155 0.986    H  156 0.985    H  157 0.984
   147  H   0.970        N  139 0.932
   148  H   0.999        C  140 0.956
   149  H   0.998        C  143 0.968
   150  H   0.999        C  143 0.970
   151  H   0.998        C  144 0.967
   152  H   0.998        C  145 0.986
   153  H   0.999        C  145 0.985
   154  H   0.999        C  145 0.982
   155  H   0.998        C  146 0.986
   156  H   0.999        C  146 0.985
   157  H   0.999        C  146 0.984
   158  N   3.446        C  141 1.302    C  159 0.988    H  166 0.871    O  142 0.188
   159  C   3.972        N  158 0.988    C  160 0.983    C  162 0.970    H  167 0.926
   160  C   3.900        O  161 1.884    C  159 0.983    H  388 0.954
   161  O   2.028        C  160 1.884
   162  C   3.987        C  159 0.970    H  168 0.957    C  163 0.957    H  169 0.947
   163  C   3.952        O  164 1.639    N  165 1.327    C  162 0.957
   164  O   1.951        C  163 1.639    N  165 0.203
   165  N   3.405        C  163 1.327    H  170 0.923    H  171 0.903    O  164 0.203
   166  H   0.947        N  158 0.871
   167  H   0.991        C  159 0.926
   168  H   0.994        C  162 0.957
   169  H   0.990        C  162 0.947
   170  H   0.944        N  165 0.923
   171  H   0.943        N  165 0.903
   172  N   2.998        C  173 1.019    H  389 0.956    H  180 0.952
   173  C   3.986        N  172 1.019    C  176 0.974    H  181 0.949    C  174 0.942
   174  C   3.945        O  175 1.584    N  191 1.325    C  173 0.942
   175  O   1.939        C  174 1.584    N  191 0.188
   176  C   3.992        C  177 0.992    C  173 0.974    H  183 0.973    H  182 0.972
   177  C   3.995        C  179 1.011    C  178 1.006    C  176 0.992    H  184 0.966
   178  C   3.994        C  177 1.006    H  186 0.986    H  187 0.985    H  185 0.983
   179  C   3.995        C  177 1.011    H  188 0.985    H  189 0.983    H  190 0.981
   180  H   0.973        N  172 0.952
   181  H   0.998        C  173 0.949
   182  H   0.998        C  176 0.972
   183  H   0.998        C  176 0.973
   184  H   0.999        C  177 0.966
   185  H   0.998        C  178 0.983
   186  H   0.999        C  178 0.986
   187  H   0.999        C  178 0.985
   188  H   0.999        C  179 0.985
   189  H   0.998        C  179 0.983
   190  H   0.998        C  179 0.981
   191  N   3.483        C  174 1.325    C  192 0.975    H  196 0.912    O  175 0.188
   192  C   3.962        C  195 0.997    N  191 0.975    H  197 0.952    C  193 0.933
   193  C   3.946        O  194 1.617    N  201 1.309    C  192 0.933
   194  O   1.964        C  193 1.617    N  201 0.195
   195  C   3.981        C  192 0.997    H  200 0.980    H  198 0.979    H  199 0.978
   196  H   0.948        N  191 0.912
   197  H   0.992        C  192 0.952
   198  H   0.993        C  195 0.979
   199  H   0.993        C  195 0.978
   200  H   0.995        C  195 0.980
   201  N   3.474        C  193 1.309    C  202 0.978    H  210 0.915    O  194 0.195
   202  C   3.962        C  205 0.979    N  201 0.978    H  211 0.939    C  203 0.933
   203  C   3.949        O  204 1.646    N  218 1.289    C  202 0.933
   204  O   1.974        C  203 1.646    N  218 0.195
   205  C   3.985        C  206 0.992    C  202 0.979    H  212 0.972    H  213 0.967
   206  C   3.994        C  205 0.992    H  214 0.968    H  215 0.968    C  207 0.965
   207  C   3.945        O  208 1.647    N  209 1.308    C  206 0.965
   208  O   1.947        C  207 1.647    N  209 0.203
   209  N   3.399        C  207 1.308    H  216 0.930    H  217 0.926    O  208 0.203
   210  H   0.951        N  201 0.915
   211  H   0.990        C  202 0.939
   212  H   0.994        C  205 0.972
   213  H   0.994        C  205 0.967
   214  H   0.995        C  206 0.968
   215  H   0.996        C  206 0.968
   216  H   0.948        N  209 0.930
   217  H   0.946        N  209 0.926
   218  N   3.460        C  203 1.289    C  219 0.973    H  223 0.920    O  204 0.195
   219  C   3.962        C  222 1.000    N  218 0.973    H  224 0.953    C  220 0.933
   220  C   3.947        O  221 1.597    N  228 1.330    C  219 0.933
   221  O   1.970        C  220 1.597    N  228 0.196
   222  C   3.983        C  219 1.000    H  225 0.980    H  226 0.978    H  227 0.976
   223  H   0.959        N  218 0.920
   224  H   0.993        C  219 0.953
   225  H   0.993        C  222 0.980
   226  H   0.994        C  222 0.978
   227  H   0.996        C  222 0.976
   228  N   3.478        C  220 1.330    C  229 0.976    H  236 0.877    O  221 0.196
   229  C   3.965        C  232 0.987    N  228 0.976    H  237 0.950    C  230 0.934
   230  C   3.950        O  231 1.619    N  242 1.312    C  229 0.934
   231  O   1.971        C  230 1.619    N  242 0.196
   232  C   3.988        C  229 0.987    C  233 0.964    H  239 0.951    H  238 0.949
   233  C   3.952        O  234 1.667    N  235 1.294    C  232 0.964
   234  O   1.980        C  233 1.667    N  235 0.202
   235  N   3.383        C  233 1.294    H  241 0.930    H  240 0.925    O  234 0.202
   236  H   0.945        N  228 0.877
   237  H   0.993        C  229 0.950
   238  H   0.991        C  232 0.949
   239  H   0.992        C  232 0.951
   240  H   0.945        N  235 0.925
   241  H   0.948        N  235 0.930
   242  N   3.475        C  230 1.312    C  243 0.981    H  251 0.899    O  231 0.196
   243  C   3.964        N  242 0.981    C  246 0.976    C  244 0.945    H  252 0.940
   244  C   3.947        O  245 1.565    N  259 1.338    C  243 0.945
   245  O   1.938        C  244 1.565    N  259 0.185
   246  C   3.986        C  247 1.007    C  243 0.976    H  254 0.974    H  253 0.962
   247  C   3.993        C  246 1.007    C  248 0.973    H  255 0.963    H  256 0.938
   248  C   3.944        O  249 1.642    N  250 1.297    C  247 0.973
   249  O   1.952        C  248 1.642    N  250 0.196
   250  N   3.381        C  248 1.297    H  257 0.929    H  258 0.924    O  249 0.196
   251  H   0.951        N  242 0.899
   252  H   0.992        C  243 0.940
   253  H   0.994        C  246 0.962
   254  H   0.997        C  246 0.974
   255  H   0.995        C  247 0.963
   256  H   0.992        C  247 0.938
   257  H   0.947        N  250 0.929
   258  H   0.945        N  250 0.924
   259  N   3.492        C  244 1.338    C  260 0.972    H  266 0.888    O  245 0.185
   260  C   3.959        N  259 0.972    C  263 0.972    H  267 0.953    C  261 0.938
   261  C   3.948        O  262 1.546    N  275 1.341    C  260 0.938
   262  O   1.935        C  261 1.546    N  275 0.190
   263  C   3.987        C  264 1.008    C  265 1.007    C  260 0.972    H  268 0.959
   264  C   3.993        C  263 1.008    H  271 0.986    H  269 0.983    H  270 0.983
   265  C   3.992        C  263 1.007    H  273 0.986    H  272 0.983    H  274 0.981
   266  H   0.949        N  259 0.888
   267  H   0.995        C  260 0.953
   268  H   0.996        C  263 0.959
   269  H   0.996        C  264 0.983
   270  H   0.999        C  264 0.983
   271  H   0.998        C  264 0.986
   272  H   0.996        C  265 0.983
   273  H   0.998        C  265 0.986
   274  H   0.997        C  265 0.981
   275  N   3.550        C  261 1.341    C  281 0.968    C  276 0.963    O  262 0.190
   276  C   3.966        C  279 0.974    N  275 0.963    H  282 0.948    C  277 0.946
   277  C   3.946        O  278 1.595    N  289 1.311    C  276 0.946
   278  O   1.958        C  277 1.595    N  289 0.190
   279  C   3.985        C  280 1.004    H  284 0.974    C  276 0.974    H  283 0.973
   280  C   3.989        C  279 1.004    C  281 1.004    H  286 0.973    H  285 0.971
   281  C   3.948        C  280 1.004    N  275 0.968    H  288 0.960    H  287 0.946
   282  H   0.995        C  276 0.948
   283  H   0.995        C  279 0.973
   284  H   0.994        C  279 0.974
   285  H   0.995        C  280 0.971
   286  H   0.993        C  280 0.973
   287  H   0.990        C  281 0.946
   288  H   0.995        C  281 0.960
   289  N   3.472        C  277 1.311    C  290 0.981    H  298 0.902    O  278 0.190
   290  C   3.966        N  289 0.981    C  293 0.981    H  299 0.950    C  291 0.932
   291  C   3.944        O  292 1.640    N  306 1.286    C  290 0.932
   292  O   1.950        C  291 1.640    N  306 0.190
   293  C   3.987        C  294 0.990    C  290 0.981    H  301 0.973    H  300 0.966
   294  C   3.989        C  293 0.990    H  302 0.973    C  295 0.970    H  303 0.946
   295  C   3.944        O  296 1.639    N  297 1.308    C  294 0.970
   296  O   1.943        C  295 1.639    N  297 0.198
   297  N   3.391        C  295 1.308    H  304 0.926    H  305 0.924    O  296 0.198
   298  H   0.949        N  289 0.902
   299  H   0.994        C  290 0.950
   300  H   0.996        C  293 0.966
   301  H   0.996        C  293 0.973
   302  H   0.996        C  294 0.973
   303  H   0.991        C  294 0.946
   304  H   0.946        N  297 0.926
   305  H   0.945        N  297 0.924
   306  N   3.456        C  291 1.286    C  307 0.990    H  314 0.896    O  292 0.190
   307  C   3.971        N  306 0.990    C  310 0.967    H  315 0.954    C  308 0.927
   308  C   3.948        O  309 1.587    N  320 1.344    C  307 0.927
   309  O   1.946        C  308 1.587    N  320 0.197
   310  C   3.988        H  317 0.968    C  307 0.967    H  316 0.963    C  311 0.959
   311  C   3.950        O  312 1.635    N  313 1.330    C  310 0.959
   312  O   1.937        C  311 1.635    N  313 0.206
   313  N   3.405        C  311 1.330    H  318 0.925    H  319 0.885    O  312 0.206
   314  H   0.950        N  306 0.896
   315  H   0.995        C  307 0.954
   316  H   0.993        C  310 0.963
   317  H   0.994        C  310 0.968
   318  H   0.946        N  313 0.925
   319  H   0.943        N  313 0.885
   320  N   3.487        C  308 1.344    C  321 0.973    H  327 0.876    O  309 0.197
   321  C   3.959        N  320 0.973    C  324 0.963    H  328 0.948    C  322 0.941
   322  C   3.947        O  323 1.589    N  336 1.318    C  321 0.941
   323  O   1.959        C  322 1.589    N  336 0.189
   324  C   3.986        C  326 1.008    C  325 1.008    C  321 0.963    H  329 0.956
   325  C   3.991        C  324 1.008    H  331 0.984    H  330 0.983    H  332 0.982
   326  C   3.991        C  324 1.008    H  334 0.985    H  333 0.982    H  335 0.976
   327  H   0.943        N  320 0.876
   328  H   0.995        C  321 0.948
   329  H   0.998        C  324 0.956
   330  H   0.995        C  325 0.983
   331  H   0.999        C  325 0.984
   332  H   0.997        C  325 0.982
   333  H   0.996        C  326 0.982
   334  H   0.997        C  326 0.985
   335  H   0.997        C  326 0.976
   336  N   3.476        C  322 1.318    C  337 0.980    H  344 0.894    O  323 0.189
   337  C   3.964        N  336 0.980    C  340 0.974    H  345 0.945    C  338 0.941
   338  C   3.945        O  339 1.634    N  355 1.280    C  337 0.941
   339  O   1.942        C  338 1.634    N  355 0.188
   340  C   3.984        C  341 0.990    C  337 0.974    H  346 0.972    H  347 0.971
   341  C   3.991        C  343 1.010    C  342 1.006    C  340 0.990    H  348 0.956
   342  C   3.994        C  341 1.006    H  351 0.986    H  350 0.985    H  349 0.980
   343  C   3.995        C  341 1.010    H  353 0.986    H  354 0.982    H  352 0.981
   344  H   0.949        N  336 0.894
   345  H   0.995        C  337 0.945
   346  H   0.998        C  340 0.972
   347  H   0.996        C  340 0.971
   348  H   0.998        C  341 0.956
   349  H   0.997        C  342 0.980
   350  H   0.998        C  342 0.985
   351  H   0.997        C  342 0.986
   352  H   0.997        C  343 0.981
   353  H   0.998        C  343 0.986
   354  H   0.999        C  343 0.982
   355  N   3.455        C  338 1.280    C  356 0.997    H  361 0.893    O  339 0.188
   356  C   3.969        N  355 0.997    C  359 0.965    C  357 0.941    H  362 0.936
   357  C   3.951        O  358 1.597    N  366 1.330    C  356 0.941
   358  O   1.952        C  357 1.597    N  366 0.195
   359  C   3.963        O  360 1.020    H  363 0.970    H  364 0.967    C  356 0.965
   360  O   1.937        C  359 1.020    H  365 0.839
   361  H   0.956        N  355 0.893
   362  H   0.992        C  356 0.936
   363  H   0.996        C  359 0.970
   364  H   0.999        C  359 0.967
   365  H   0.884        O  360 0.839
   366  N   3.485        C  357 1.330    C  367 0.984    H  374 0.882    O  358 0.195
   367  C   3.962        N  366 0.984    C  368 0.984    C  370 0.959    H  375 0.924
   368  C   3.907        O  369 1.880    C  367 0.984    H  390 0.954
   369  O   2.037        C  368 1.880
   370  C   3.981        C  371 0.996    H  376 0.970    H  377 0.970    C  367 0.959
   371  C   3.993        C  372 1.011    C  373 1.005    C  370 0.996    H  378 0.961
   372  C   3.996        C  371 1.011    H  381 0.985    H  379 0.984    H  380 0.976
   373  C   3.995        C  371 1.005    H  383 0.986    H  382 0.984    H  384 0.982
   374  H   0.949        N  366 0.882
   375  H   0.990        C  367 0.924
   376  H   0.994        C  370 0.970
   377  H   0.996        C  370 0.970
   378  H   0.997        C  371 0.961
   379  H   0.998        C  372 0.984
   380  H   0.999        C  372 0.976
   381  H   0.998        C  372 0.985
   382  H   0.997        C  373 0.984
   383  H   0.998        C  373 0.986
   384  H   0.999        C  373 0.982
   385  H   0.964        N    1 0.952
   386  H   0.994        C  127 0.952
   387  H   0.971        N  139 0.959
   388  H   0.995        C  160 0.954
   389  H   0.967        N  172 0.956
   390  H   0.996        C  368 0.954
 
molecular dipole:
                 x           y           z       tot (Debye)
 q only:        3.306      -5.413      -0.650
   full:        2.861      -5.821      -0.982      16.675
molecular quadrupole (traceless):
                xx          xy          yy          xz          yz          zz
 q only:     2388.580    -804.074   -1194.467    1947.790   -3501.441   -1194.112
  q+dip:     2392.569    -978.134   -1046.798    1671.300   -3828.350   -1345.770
   full:     2395.130    -979.219   -1046.027    1673.969   -3826.283   -1349.103


           -------------------------------------------------
          | TOTAL ENERGY             -606.149208423578 Eh   |
          | GRADIENT NORM               0.384902056413 Eh/α |
          | HOMO-LUMO GAP               1.742120086638 eV   |
           -------------------------------------------------

------------------------------------------------------------------------
 * finished run on 2019/05/31 at 05:35:13.926     
------------------------------------------------------------------------
 total:
 * wall-time:     0 d,  0 h,  0 min,  6.042 sec
 *  cpu-time:     0 d,  0 h,  0 min, 11.557 sec
 * ratio c/w:     1.913 speedup
 SCF:
 * wall-time:     0 d,  0 h,  0 min,  5.300 sec
 *  cpu-time:     0 d,  0 h,  0 min, 10.598 sec
 * ratio c/w:     2.000 speedup

