      -----------------------------------------------------------      
     |                   =====================                   |     
     |                           x T B                           |     
     |                   =====================                   |     
     |                         S. Grimme                         |     
     |          Mulliken Center for Theoretical Chemistry        |     
     |                    University of Bonn                     |     
     |                 Version 6.0.1 (SAW181210)                 |     
      -----------------------------------------------------------      

   This program is distributed in the hope that it will be useful,
   but WITHOUT ANY WARRANTY; without even the implied warranty of
   MERCHANTABILITY or FITNESS FOR A PARTICULAR PURPOSE.
   
   FOR NON-COMMERCIAL, ACADEMIA USE ONLY.
   
   Cite this work as:
   S. Grimme, C. Bannwarth, P. Shushkov, J. Comput. Theory Chem., 2017,
   13, 1989-2009.
   C. Bannwarth, S. Ehlert and S. Grimme., ChemRxiv, 2018, preprint.
   http://doi.org/10.26434/chemrxiv.7246238.v1
   
   for sTDA-xTB:
   S. Grimme and C. Bannwarth, J. Chem. Phys., 2016, 145, 054103.
   
   in the mass-spec context:
   V. Asgeirsson, C. Bauer and S. Grimme, Chem. Sci., 2017, 8, 4879.
   
   if GBSA is used:
   P. Shushkov, F. März and S. Grimme, unpublished.
   
   for ANC optimizer:
   S. Grimme, unpublished.
   Rational Function algorithm used in ANCopt:
   F. Eckert, P. Pulay, H.-J. Werner, J. Comput. Chem., 1997, 18, 1473.
   
   with help from (in alphabetical order)
   C. Bannwarth, F. Bohle, G. Brandenburg, E. Caldeweyher, M. Checinski,
   S. Dohm, S. Ehlert, S. Ehrlich, F. März, H. Neugebauer, J. Pisarek,
   P. Pracht, P. Shushkov, and S. Spicher.
   
 * started run on 2019/02/13 at 00:18:07.776     
========================================================================
 # omp threads = 16
========================================================================
number of atoms            : 449
number of electrons        : 1184
charge                     : -2
spin                       : .0
first test random number   : .9523

########################################################################
# WARNING! Please study the warnings concerning your input carefully
#  - Process number higher than OMP_NUM_THREADS, I hope you know what you are doing.
########################################################################

           ------------------------------------------------- 
          |                 G F N 2 - x T B                 |
          | Geometry, Frequencies, Noncovalent interactions |
          |            JCTC 2018 parametrisation            |
           ------------------------------------------------- 
 
      method parameters     
 k(s)        :  1.8500
 k(p)        :  2.2300
 k(d)        :  2.2300
 k(f)        :  2.0000
 kEN (H0ij)  : -2.0000
 D4 a1       :  0.5200
 D4 a2       :  5.0000
 D4 s6       :  1.0000
 D4 s8       :  2.7000
 D4 s9       :  5.0000
 alphaj      :  2.0000

 Solvent             : h2o
 Using internal parameter file: .param_gbsa2_h2o
 Gsolv ref. state (COSMO-RS): gsolv [1 M gas/solution]
 temperature (mdtemp)       :    298.150000000000     
 dielectric constant        :    80.2000000000000     
 rho                        :    1.00000000000000     
 mass                       :    18.0000000000000     
 surface tension            :    15.5689454083859     
 probe radius               :   0.975313790000000     
 vdW radii scaling          :    1.00000000000000     
 Gshift (Eh)                :   1.857443126794793E-003
 c1                         :    1.55243817000000     
 soset                      :   0.130326360000000     
 HB correction              :  T

            Z     q(EN)     CN     RAES       Cart. coordinates
     1  N   5.0   -0.22    3.11    1.94   258.87460   123.59274   242.37212
     2  C   4.0   -0.00    4.05    3.71   258.73814   122.16930   240.04748
     3  C   4.0    0.07    3.11    3.03   258.34513   123.90072   237.76917
     4  O   6.0   -0.33    1.17    1.80   259.73487   123.81104   235.91269
     5  H   1.0    0.07    1.02    1.43   257.80429   123.00134   243.85128
     6  H   1.0    0.04    1.02    1.43   260.48174   121.09849   239.73767
     7  H   1.0    0.03    1.03    1.43   257.12522   120.89492   240.18489
     8  N   5.0   -0.21    3.25    1.97   264.15174   127.41926   236.63029
     9  C   4.0    0.03    4.41    4.40   266.02766   125.82483   235.42800
    10  C   4.0    0.15    3.51    3.12   265.48968   125.86929   232.59670
    11  O   6.0   -0.33    1.35    1.80   267.11613   126.44112   231.03849
    12  C   4.0   -0.02    4.34    4.27   265.95921   123.11495   236.47008
    13  C   4.0   -0.06    4.19    3.98   267.02103   123.09170   239.16383
    14  C   4.0   -0.08    4.14    3.88   267.45991   121.35764   234.73743
    15  C   4.0   -0.09    4.01    3.64   266.57970   120.61134   240.55764
    16  H   1.0    0.08    1.02    1.43   263.10583   126.68655   238.06201
    17  H   1.0    0.04    1.05    1.44   267.91835   126.63440   235.71448
    18  H   1.0    0.05    1.06    1.44   263.98024   122.51686   236.50810
    19  H   1.0    0.03    1.03    1.43   269.04246   123.47641   239.08297
    20  H   1.0    0.03    1.03    1.43   266.14379   124.61204   240.24583
    21  H   1.0    0.03    1.00    1.43   267.44442   119.44866   235.48686
    22  H   1.0    0.04    1.01    1.43   266.64784   121.31738   232.85029
    23  H   1.0    0.04    1.00    1.43   269.40713   121.99390   234.58327
    24  H   1.0    0.03    1.00    1.43   267.25960   120.78343   242.48838
    25  H   1.0    0.03    1.00    1.43   264.57265   120.17223   240.62592
    26  H   1.0    0.03    1.00    1.43   267.56884   119.05641   239.65676
    27  N   5.0   -0.15    3.49    2.07   263.15168   125.22303   231.94412
    28  C   4.0    0.03    4.26    4.13   262.39690   125.26183   229.31433
    29  C   4.0    0.09    3.28    3.05   263.16315   127.78021   228.11703
    30  O   6.0   -0.30    1.12    1.80   264.51773   127.81706   226.23788
    31  C   4.0   -0.07    4.10    3.80   259.57674   124.81747   229.03478
    32  H   1.0    0.11    1.10    1.44   261.82658   124.84565   233.27780
    33  H   1.0    0.05    1.05    1.44   263.46726   123.79979   228.29247
    34  H   1.0    0.05    1.00    1.43   259.01177   125.10669   227.07895
    35  H   1.0    0.04    1.00    1.43   259.09185   122.90437   229.59915
    36  H   1.0    0.05    1.00    1.43   258.55070   126.14563   230.21593
    37  N   5.0   -0.20    3.22    1.96   270.17593   129.26842   227.43176
    38  C   4.0    0.04    4.27    4.13   271.18983   127.56041   225.55460
    39  C   4.0    0.07    3.22    3.04   270.42710   128.44187   222.91322
    40  O   6.0   -0.31    1.11    1.80   271.97133   128.50783   221.18528
    41  C   4.0    0.06    4.23    4.05   270.30001   124.82569   226.07302
    42  O   6.0   -0.27    2.13    1.84   271.02531   124.04476   228.50583
    43  C   4.0   -0.07    4.09    3.79   271.48441   123.00531   224.18156
    44  H   1.0    0.12    1.06    1.44   268.98181   128.57519   228.75601
    45  H   1.0    0.05    1.05    1.44   273.26388   127.61753   225.64030
    46  H   1.0    0.05    1.04    1.43   268.22668   124.80630   225.90108
    47  H   1.0    0.14    1.07    1.44   269.93332   124.85080   229.73498
    48  H   1.0    0.04    1.00    1.43   270.77286   121.11307   224.52919
    49  H   1.0    0.05    1.00    1.43   271.03911   123.57096   222.26237
    50  H   1.0    0.05    1.00    1.43   273.51981   122.99454   224.44296
    51  N   5.0   -0.21    3.23    1.96   281.99999   121.67881   242.57996
    52  C   4.0    0.03    4.30    4.20   281.61673   119.55186   240.88918
    53  C   4.0    0.07    3.24    3.04   282.01479   120.44871   238.16611
    54  O   6.0   -0.32    1.14    1.80   280.82680   122.23594   237.28777
    55  C   4.0   -0.02    4.27    4.14   278.94080   118.48452   241.24222
    56  C   4.0   -0.08    4.12    3.85   278.40691   116.44056   239.27469
    57  C   4.0   -0.09    4.11    3.83   278.63356   117.42962   243.90991
    58  H   1.0    0.07    1.03    1.43   280.42946   122.42766   243.38604
    59  H   1.0    0.03    1.05    1.44   283.02429   118.10565   241.35867
    60  H   1.0    0.04    1.05    1.44   277.61050   120.04583   240.98131
    61  H   1.0    0.03    1.00    1.43   276.51323   115.69519   239.54584
    62  H   1.0    0.04    1.00    1.43   278.52685   117.19512   237.36588
    63  H   1.0    0.04    1.00    1.43   279.73983   114.88685   239.45921
    64  H   1.0    0.03    1.00    1.43   276.71376   116.74952   244.17133
    65  H   1.0    0.03    1.00    1.43   279.92369   115.85988   244.21974
    66  H   1.0    0.03    1.00    1.43   278.99461   118.87026   245.33052
    67  N   5.0   -0.22    3.22    1.96   280.79930   120.16495   232.03832
    68  C   4.0    0.03    4.29    4.19   278.54091   119.38238   230.70930
    69  C   4.0    0.08    3.19    3.03   278.96385   118.50842   227.98194
    70  O   6.0   -0.29    1.13    1.80   277.39704   117.15092   226.96377
    71  C   4.0   -0.02    4.27    4.13   276.54601   121.51173   230.77878
    72  C   4.0   -0.08    4.10    3.81   275.54748   121.91593   233.45760
    73  C   4.0   -0.07    4.12    3.84   277.58257   123.97755   229.69995
    74  H   1.0    0.10    1.04    1.43   280.61050   121.72062   233.13861
    75  H   1.0    0.04    1.06    1.44   277.74618   117.70887   231.65575
    76  H   1.0    0.05    1.06    1.44   274.96793   120.90014   229.59215
    77  H   1.0    0.04    1.00    1.43   274.16153   123.42880   233.42063
    78  H   1.0    0.03    1.00    1.43   274.63340   120.21199   234.15008
    79  H   1.0    0.05    1.00    1.43   277.04927   122.43914   234.76006
    80  H   1.0    0.04    1.00    1.43   276.08378   125.37952   229.68958
    81  H   1.0    0.04    1.00    1.43   279.15477   124.69863   230.81083
    82  H   1.0    0.04    1.00    1.43   278.22503   123.70967   227.76847
    83  N   5.0   -0.20    3.23    1.96   284.60860   110.74943   227.12220
    84  C   4.0    0.03    4.32    4.24   283.98550   108.09504   227.05221
    85  C   4.0    0.15    3.45    3.10   281.13921   107.73991   226.75966
    86  O   6.0   -0.29    1.24    1.80   279.60941   109.32254   227.46468
    87  C   4.0   -0.05    4.28    4.16   284.85515   106.70382   229.46437
    88  C   4.0   -0.03    4.24    4.08   283.63641   107.78312   231.85729
    89  C   4.0    0.15    3.22    3.04   284.01953   105.98494   234.06568
    90  O   6.0   -0.31    1.19    1.80   285.53585   106.38783   235.76019
    91  N   5.0   -0.19    3.20    1.96   282.56324   103.91574   233.99014
    92  H   1.0    0.10    1.03    1.43   283.26580   111.91882   227.81466
    93  H   1.0    0.04    1.05    1.44   284.96535   107.26488   225.42798
    94  H   1.0    0.05    1.03    1.43   284.34892   104.71549   229.26698
    95  H   1.0    0.04    1.02    1.43   286.90606   106.84873   229.60193
    96  H   1.0    0.05    1.03    1.43   284.47949   109.60211   232.32450
    97  H   1.0    0.06    1.03    1.43   281.61496   108.03992   231.54605
    98  H   1.0    0.11    1.05    1.44   281.27394   103.62171   232.61298
    99  H   1.0    0.09    1.03    1.43   282.73340   102.61237   235.36356
   100  N   5.0   -0.13    3.51    2.08   280.50233   105.48415   225.81640
   101  C   4.0    0.04    4.44    4.45   277.90577   104.64061   225.77462
   102  C   4.0    0.15    3.44    3.09   277.06969   104.13344   228.49064
   103  O   6.0   -0.31    1.27    1.80   278.53986   103.34020   230.09291
   104  C   4.0   -0.03    4.26    4.13   277.62373   102.24368   224.20454
   105  C   4.0    0.24    3.11    3.02   278.07307   102.72675   221.32947
   106  O   6.0   -0.33    1.32    1.80   276.93366   101.25221   219.86864
   107  O   6.0   -0.31    1.20    1.80   279.48612   104.47981   220.70123
   108  H   1.0    0.08    1.07    1.44   281.81972   104.29842   225.12200
   109  H   1.0    0.07    1.08    1.44   276.71497   106.13849   224.99381
   110  H   1.0    0.05    1.02    1.43   278.97224   100.81343   224.83985
   111  H   1.0    0.05    1.03    1.43   275.72563   101.47521   224.43225
   112  N   5.0   -0.14    3.47    2.06   274.63281   104.60286   228.96220
   113  C   4.0    0.04    4.44    4.45   273.45760   103.99979   231.35523
   114  C   4.0    0.15    3.41    3.08   270.58362   104.20568   231.04874
   115  O   6.0   -0.31    1.28    1.80   269.65926   105.48254   229.35259
   116  C   4.0   -0.03    4.31    4.21   274.36775   105.77416   233.47621
   117  C   4.0    0.15    3.22    3.04   274.09781   104.57409   236.07807
   118  O   6.0   -0.30    1.27    1.80   273.00265   102.56656   236.43986
   119  N   5.0   -0.19    3.18    1.95   275.17109   105.88105   237.95625
   120  H   1.0    0.11    1.09    1.44   273.50663   105.38420   227.61942
   121  H   1.0    0.06    1.06    1.44   273.96066   102.05601   231.87319
   122  H   1.0    0.06    1.03    1.43   276.36215   106.18312   233.14324
   123  H   1.0    0.04    1.03    1.43   273.31118   107.54487   233.41316
   124  H   1.0    0.09    1.03    1.43   275.08218   105.18786   239.72956
   125  H   1.0    0.08    1.03    1.43   276.10222   107.50770   237.62999
   126  N   5.0   -0.13    3.50    2.08   269.28818   102.98202   232.82411
   127  C   4.0    0.04    4.45    4.46   266.55918   102.82035   232.96360
   128  C   4.0    0.15    3.44    3.09   265.85362   103.31983   235.72576
   129  O   6.0   -0.30    1.23    1.80   265.74771   101.64591   237.32180
   130  C   4.0    0.07    4.23    4.06   265.63558   100.19795   232.07589
   131  O   6.0   -0.24    2.11    1.84   266.59612    99.62846   229.66763
   132  C   4.0   -0.06    4.08    3.76   262.75667   100.07870   232.14506
   133  H   1.0    0.11    1.11    1.44   270.28970   102.05384   234.18539
   134  H   1.0    0.07    1.06    1.44   265.75695   104.27217   231.72558
   135  H   1.0    0.06    1.04    1.43   266.43051    98.77098   233.35613
   136  H   1.0    0.16    1.06    1.44   265.66658   100.62249   228.41396
   137  H   1.0    0.05    1.00    1.43   262.11247    98.22247   231.55225
   138  H   1.0    0.06    1.00    1.43   262.03710   100.44339   234.03492
   139  H   1.0    0.07    1.00    1.43   261.97239   101.47499   230.84909
   140  N   5.0   -0.14    3.51    2.08   265.61786   105.77155   236.27065
   141  C   4.0    0.03    4.42    4.41   265.04145   106.65034   238.80384
   142  C   4.0    0.15    3.43    3.09   262.29445   105.94844   239.39541
   143  O   6.0   -0.31    1.27    1.80   260.56368   106.82150   238.12330
   144  C   4.0   -0.05    4.37    4.32   265.29842   109.52561   238.96156
   145  C   4.0   -0.03    4.17    3.93   268.01213   110.52525   239.08579
   146  C   4.0   -0.07    4.12    3.84   269.59359   109.68515   236.82446
   147  C   4.0   -0.09    4.11    3.82   267.93891   113.40949   239.21656
   148  H   1.0    0.11    1.11    1.45   265.32948   107.00897   234.83509
   149  H   1.0    0.05    1.05    1.44   266.31289   105.67700   240.11289
   150  H   1.0    0.05    1.03    1.43   264.33334   110.31429   237.31609
   151  H   1.0    0.04    1.03    1.43   264.27644   110.14618   240.64235
   152  H   1.0    0.04    1.05    1.44   268.89063   109.79497   240.80911
   153  H   1.0    0.03    1.00    1.43   271.42895   110.60511   236.88226
   154  H   1.0    0.05    1.00    1.43   269.87155   107.64982   236.83080
   155  H   1.0    0.05    1.00    1.43   268.66571   110.19124   235.05902
   156  H   1.0    0.03    1.00    1.43   269.84138   114.15924   239.39258
   157  H   1.0    0.03    1.00    1.43   267.09451   114.15968   237.49847
   158  H   1.0    0.03    1.00    1.43   266.83004   114.03370   240.82739
   159  N   5.0   -0.14    3.49    2.07   261.93206   104.46778   241.40737
   160  C   4.0    0.04    4.47    4.49   259.46653   103.52231   242.14750
   161  C   4.0    0.15    3.43    3.09   258.46055   105.28224   244.20857
   162  O   6.0   -0.32    1.28    1.80   259.01121   104.99635   246.44585
   163  C   4.0    0.06    4.26    4.12   259.78036   100.80668   243.14803
   164  O   6.0   -0.26    2.15    1.85   261.62455   100.75654   245.06116
   165  C   4.0   -0.06    4.08    3.77   260.55701    99.00955   241.03696
   166  H   1.0    0.09    1.07    1.44   263.39867   103.62269   242.29871
   167  H   1.0    0.07    1.07    1.44   258.19504   103.53862   240.51882
   168  H   1.0    0.04    1.03    1.43   257.93738   100.20471   243.91363
   169  H   1.0    0.14    1.07    1.44   261.10953   102.00697   246.31210
   170  H   1.0    0.05    1.00    1.43   260.80861    97.12428   241.80438
   171  H   1.0    0.06    1.00    1.43   259.09975    98.96431   239.58785
   172  H   1.0    0.07    1.00    1.43   262.32479    99.61788   240.18047
   173  N   5.0   -0.14    3.46    2.05   257.09754   107.24349   243.40174
   174  C   4.0    0.04    4.41    4.40   256.30325   109.22927   245.12308
   175  C   4.0    0.07    3.24    3.04   253.72535   108.55167   246.25273
   176  O   6.0   -0.33    1.17    1.80   251.74077   108.76452   245.08240
   177  C   4.0   -0.01    4.34    4.27   256.12869   111.80897   243.80515
   178  C   4.0   -0.05    4.18    3.96   258.58707   112.50898   242.44112
   179  C   4.0   -0.08    4.13    3.86   255.34613   113.81369   245.73415
   180  C   4.0   -0.08    4.02    3.65   260.86398   112.89918   244.16206
   181  H   1.0    0.11    1.08    1.44   256.48342   107.36771   241.59174
   182  H   1.0    0.05    1.06    1.44   257.70480   109.27824   246.64598
   183  H   1.0    0.06    1.06    1.44   254.65183   111.63495   242.36796
   184  H   1.0    0.05    1.03    1.43   259.01276   111.03930   241.05395
   185  H   1.0    0.03    1.03    1.43   258.24760   114.25433   241.39669
   186  H   1.0    0.03    1.00    1.43   255.35427   115.67364   244.86176
   187  H   1.0    0.04    1.00    1.43   253.45975   113.42597   246.44986
   188  H   1.0    0.03    1.00    1.43   256.64506   113.82980   247.32511
   189  H   1.0    0.03    1.00    1.43   262.48954   113.43781   243.02700
   190  H   1.0    0.03    1.00    1.43   260.51240   114.40168   245.51470
   191  H   1.0    0.04    1.00    1.43   261.33465   111.17359   245.17512
   192  N   5.0   -0.22    3.20    1.96   247.50627   109.23763   249.25251
   193  C   4.0    0.03    4.30    4.19   245.63318   111.21762   249.28165
   194  C   4.0    0.07    3.21    3.04   243.29717   110.58873   250.86699
   195  O   6.0   -0.31    1.12    1.80   242.03385   112.28658   251.78834
   196  C   4.0   -0.02    4.26    4.11   244.76269   112.02275   246.60875
   197  C   4.0   -0.08    4.11    3.83   246.99090   113.07368   245.11488
   198  C   4.0   -0.07    4.11    3.82   243.49734   109.87352   245.16019
   199  H   1.0    0.08    1.02    1.43   247.00921   107.55936   248.48035
   200  H   1.0    0.04    1.06    1.44   246.53368   112.85697   250.17418
   201  H   1.0    0.04    1.06    1.44   243.37032   113.52551   246.90439
   202  H   1.0    0.04    1.00    1.43   246.35577   113.66481   243.25588
   203  H   1.0    0.04    1.00    1.43   247.82048   114.68028   246.09123
   204  H   1.0    0.06    1.01    1.43   248.43696   111.63050   244.88178
   205  H   1.0    0.04    1.00    1.43   242.80729   110.57052   243.35596
   206  H   1.0    0.04    1.00    1.43   244.82608   108.35172   244.78062
   207  H   1.0    0.04    1.00    1.43   241.90851   109.10311   246.21037
   208  N   5.0   -0.20    3.24    1.97   246.45388   102.48953   244.15945
   209  C   4.0    0.04    4.36    4.32   248.47284   104.14525   243.39357
   210  C   4.0    0.16    3.45    3.10   247.85838   105.31484   240.81519
   211  O   6.0   -0.30    1.24    1.80   246.37427   104.33134   239.35004
   212  C   4.0    0.06    4.22    4.05   251.02814   102.71630   243.09687
   213  O   6.0   -0.24    2.14    1.85   251.02232   101.35167   240.80434
   214  C   4.0   -0.07    4.08    3.77   251.47584   100.91458   245.31586
   215  H   1.0    0.09    1.03    1.43   246.10461   101.00778   242.99348
   216  H   1.0    0.05    1.06    1.44   248.70838   105.62025   244.81818
   217  H   1.0    0.06    1.04    1.43   252.52019   104.16053   243.05632
   218  H   1.0    0.16    1.07    1.44   252.57577   101.69790   239.84770
   219  H   1.0    0.04    1.00    1.43   253.42185   100.25830   245.28780
   220  H   1.0    0.04    1.00    1.43   251.09714   101.81159   247.12330
   221  H   1.0    0.04    1.00    1.43   250.23766    99.28754   245.11029
   222  N   5.0   -0.14    3.51    2.08   249.06536   107.49905   240.33673
   223  C   4.0    0.03    4.52    4.57   249.54343   108.30081   237.76401
   224  C   4.0    0.15    3.47    3.10   252.40009   108.12251   237.41523
   225  O   6.0   -0.31    1.29    1.80   253.84653   108.81737   239.08147
   226  C   4.0   -0.02    4.32    4.23   248.49690   110.97555   237.28667
   227  C   4.0   -0.05    4.20    3.99   245.60541   110.80657   237.27808
   228  C   4.0   -0.07    4.12    3.85   249.54703   112.05597   234.82853
   229  C   4.0   -0.08    4.01    3.64   244.30950   113.37162   237.37568
   230  H   1.0    0.11    1.10    1.44   250.37168   108.11544   241.59891
   231  H   1.0    0.05    1.07    1.44   248.60570   106.94108   236.51586
   232  H   1.0    0.05    1.06    1.44   249.11360   112.17411   238.85260
   233  H   1.0    0.04    1.03    1.43   245.01287   109.77540   235.59426
   234  H   1.0    0.05    1.03    1.43   245.02497   109.68376   238.90818
   235  H   1.0    0.04    1.00    1.43   248.77546   113.92684   234.48462
   236  H   1.0    0.05    1.00    1.43   251.59512   112.21595   234.92634
   237  H   1.0    0.04    1.00    1.43   249.10010   110.82512   233.24326
   238  H   1.0    0.04    1.00    1.43   242.27163   113.12788   237.31154
   239  H   1.0    0.04    1.00    1.43   244.79149   114.34283   239.11774
   240  H   1.0    0.05    1.00    1.43   244.87111   114.55321   235.79563
   241  N   5.0   -0.13    3.48    2.06   253.17724   107.14597   235.21984
   242  C   4.0    0.05    4.47    4.49   255.81662   106.68375   234.72964
   243  C   4.0    0.15    3.41    3.08   256.78572   108.56108   232.77264
   244  O   6.0   -0.30    1.23    1.80   255.47870   109.29831   231.01312
   245  C   4.0   -0.02    4.25    4.11   256.29610   103.98171   233.86827
   246  C   4.0    0.25    3.10    3.02   255.84710   102.02433   236.03172
   247  O   6.0   -0.31    1.29    1.80   255.09197   102.86628   238.11070
   248  O   6.0   -0.30    1.16    1.80   256.28834    99.78009   235.52808
   249  H   1.0    0.08    1.06    1.44   251.93179   106.55891   233.90714
   250  H   1.0    0.08    1.09    1.44   256.80815   106.98110   236.51702
   251  H   1.0    0.06    1.02    1.43   255.08991   103.47183   232.27053
   252  H   1.0    0.06    1.02    1.43   258.25237   103.77152   233.23741
   253  N   5.0   -0.14    3.51    2.08   259.10518   109.42400   233.28946
   254  C   4.0    0.03    4.50    4.54   260.44476   111.14001   231.64396
   255  C   4.0    0.15    3.46    3.10   262.75540   109.79162   230.59571
   256  O   6.0   -0.32    1.31    1.80   264.23087   108.69505   232.01642
   257  C   4.0   -0.02    4.34    4.27   261.35256   113.54000   233.04648
   258  C   4.0   -0.05    4.20    4.01   259.34574   114.43440   234.92961
   259  C   4.0   -0.08    4.12    3.84   262.03424   115.56073   231.10326
   260  C   4.0   -0.08    4.02    3.66   260.16228   116.76934   236.40280
   261  H   1.0    0.11    1.09    1.44   260.08718   108.58546   234.70441
   262  H   1.0    0.05    1.07    1.44   259.12834   111.62470   230.12510
   263  H   1.0    0.04    1.06    1.44   263.05956   113.01850   234.09805
   264  H   1.0    0.04    1.03    1.43   257.59005   114.79777   233.91203
   265  H   1.0    0.05    1.03    1.43   258.96648   112.89637   236.25219
   266  H   1.0    0.04    1.00    1.43   262.90708   117.17476   232.01811
   267  H   1.0    0.05    1.00    1.43   263.35792   114.81257   229.71855
   268  H   1.0    0.04    1.00    1.43   260.34632   116.18281   230.10949
   269  H   1.0    0.03    1.00    1.43   258.79882   117.12712   237.89185
   270  H   1.0    0.03    1.00    1.43   262.00589   116.45443   237.25200
   271  H   1.0    0.04    1.00    1.43   260.25635   118.42114   235.18933
   272  N   5.0   -0.13    3.49    2.07   263.19416   110.07771   228.13016
   273  C   4.0    0.04    4.47    4.49   265.22816   108.74649   226.88729
   274  C   4.0    0.15    3.39    3.07   267.08451   110.68208   225.79800
   275  O   6.0   -0.31    1.22    1.80   266.40097   112.50531   224.54763
   276  C   4.0   -0.02    4.24    4.08   264.21379   106.92665   224.89228
   277  C   4.0    0.25    3.13    3.03   262.76372   104.79103   226.32938
   278  O   6.0   -0.28    1.18    1.80   260.74312   105.38167   227.38308
   279  O   6.0   -0.31    1.21    1.80   263.79718   102.67090   226.35372
   280  H   1.0    0.08    1.07    1.44   261.82610   110.77085   227.00073
   281  H   1.0    0.08    1.09    1.44   266.19772   107.63964   228.34015
   282  H   1.0    0.06    1.02    1.43   262.94934   107.90494   223.58563
   283  H   1.0    0.06    1.02    1.43   265.77889   106.07818   223.85828
   284  N   5.0   -0.14    3.53    2.10   269.46892   110.21911   226.45958
   285  C   4.0    0.03    4.41    4.39   271.61912   111.75704   225.76022
   286  C   4.0    0.15    3.41    3.08   273.36960   110.12208   224.14555
   287  O   6.0   -0.31    1.29    1.80   273.26006   107.80649   224.26823
   288  C   4.0   -0.04    4.34    4.28   273.00026   112.67747   228.14076
   289  C   4.0   -0.02    4.19    3.99   271.22957   113.95845   230.04883
   290  C   4.0   -0.08    4.11    3.81   272.70715   114.61093   232.43719
   291  C   4.0   -0.07    4.11    3.82   270.03898   116.34485   228.94857
   292  H   1.0    0.11    1.10    1.44   269.86240   108.58289   227.37600
   293  H   1.0    0.05    1.06    1.44   270.90394   113.34520   224.64926
   294  H   1.0    0.06    1.03    1.43   273.90063   111.04018   229.02373
   295  H   1.0    0.07    1.03    1.43   274.48784   113.99120   227.58323
   296  H   1.0    0.05    1.05    1.44   269.71792   112.62377   230.53565
   297  H   1.0    0.03    1.00    1.43   271.44861   115.37972   233.86496
   298  H   1.0    0.04    1.00    1.43   273.63645   112.94180   233.19184
   299  H   1.0    0.04    1.00    1.43   274.13660   116.01142   231.98229
   300  H   1.0    0.04    1.00    1.43   268.97632   117.33968   230.39654
   301  H   1.0    0.05    1.00    1.43   271.49898   117.60206   228.23432
   302  H   1.0    0.05    1.00    1.43   268.74795   115.88462   227.41817
   303  N   5.0   -0.13    3.45    2.05   274.92402   111.36528   222.59939
   304  C   4.0    0.04    4.32    4.24   276.58918   110.15167   220.80665
   305  C   4.0    0.08    3.23    3.04   279.13994   111.49258   220.73890
   306  O   6.0   -0.28    1.13    1.80   279.34046   113.75946   221.13068
   307  C   4.0   -0.05    4.27    4.15   275.50092   110.30085   218.10723
   308  C   4.0   -0.05    4.16    3.93   273.11982   108.70998   217.72623
   309  C   4.0   -0.04    4.22    4.03   273.57017   105.95381   218.45670
   310  C   4.0   -0.04    4.11    3.83   271.83088   104.10199   217.10275
   311  N   5.0   -0.12    4.04    2.96   272.22516   101.54565   218.19725
   312  H   1.0    0.10    1.07    1.44   275.07122   113.26724   222.70433
   313  H   1.0    0.06    1.06    1.44   276.85093   108.18544   221.36171
   314  H   1.0    0.05    1.03    1.43   275.09371   112.27869   217.68885
   315  H   1.0    0.04    1.03    1.43   276.95643   109.65121   216.79817
   316  H   1.0    0.05    1.02    1.43   271.56218   109.48012   218.83955
   317  H   1.0    0.04    1.03    1.43   272.59046   108.82032   215.73970
   318  H   1.0    0.06    1.04    1.43   275.51839   105.45985   217.99942
   319  H   1.0    0.07    1.04    1.43   273.31343   105.75656   220.49422
   320  H   1.0    0.04    1.02    1.43   269.85680   104.66378   217.31418
   321  H   1.0    0.04    1.02    1.43   272.30193   104.05181   215.09786
   322  H   1.0    0.05    1.02    1.43   271.72279   100.13972   216.96427
   323  H   1.0    0.10    1.12    1.45   274.17974   101.33987   218.72286
   324  H   1.0    0.06    1.02    1.43   271.19643   101.34980   219.82407
   325  N   5.0   -0.21    3.30    1.98   256.62672   116.68732   215.13683
   326  C   4.0    0.04    4.35    4.30   255.98406   115.09710   217.25200
   327  C   4.0    0.15    3.43    3.09   255.98411   116.62711   219.68431
   328  O   6.0   -0.32    1.28    1.80   254.34394   116.34052   221.30028
   329  C   4.0   -0.03    4.27    4.15   257.86801   112.93503   217.43596
   330  C   4.0    0.25    3.10    3.02   257.92502   111.27784   214.96446
   331  O   6.0   -0.30    1.21    1.80   256.48431   111.92096   213.21422
   332  O   6.0   -0.29    1.16    1.80   259.41986   109.47675   214.99800
   333  H   1.0    0.09    1.04    1.43   258.23052   116.25357   214.20538
   334  H   1.0    0.05    1.05    1.44   254.07380   114.33180   216.96769
   335  H   1.0    0.05    1.02    1.43   259.77561   113.66587   217.73071
   336  H   1.0    0.05    1.02    1.43   257.41250   111.69111   219.01734
   337  N   5.0   -0.15    3.50    2.08   257.88176   118.25942   219.90298
   338  C   4.0    0.03    4.33    4.25   258.15558   119.90545   222.07208
   339  C   4.0    0.08    3.23    3.04   255.85938   121.65632   222.27254
   340  O   6.0   -0.31    1.12    1.80   254.76502   122.00190   224.28812
   341  C   4.0   -0.05    4.35    4.29   260.60427   121.40322   221.85188
   342  C   4.0   -0.02    4.18    3.97   262.97377   119.73657   221.96806
   343  C   4.0   -0.08    4.11    3.82   265.29071   121.32185   221.31010
   344  C   4.0   -0.07    4.10    3.81   263.31739   118.51562   224.55742
   345  H   1.0    0.07    1.08    1.44   259.15365   118.40785   218.48417
   346  H   1.0    0.05    1.05    1.44   258.15005   118.74798   223.79417
   347  H   1.0    0.04    1.03    1.43   260.55274   122.40665   220.04941
   348  H   1.0    0.04    1.03    1.43   260.65218   122.82413   223.34618
   349  H   1.0    0.04    1.05    1.44   262.79124   118.22691   220.55986
   350  H   1.0    0.04    1.00    1.43   266.98378   120.16494   221.38671
   351  H   1.0    0.04    1.00    1.43   265.10949   122.10191   219.41969
   352  H   1.0    0.04    1.00    1.43   265.48987   122.87582   222.64089
   353  H   1.0    0.05    1.00    1.43   264.93842   117.25377   224.54302
   354  H   1.0    0.04    1.00    1.43   263.59549   119.95415   225.99877
   355  H   1.0    0.04    1.00    1.43   261.68273   117.38524   225.07824
   356  N   5.0   -0.20    3.22    1.96   250.34620   117.94230   224.50135
   357  C   4.0    0.03    4.31    4.21   250.65758   117.57614   227.19603
   358  C   4.0    0.08    3.25    3.04   249.53619   119.81706   228.62784
   359  O   6.0   -0.32    1.17    1.80   248.00516   119.48454   230.33586
   360  C   4.0   -0.02    4.27    4.13   253.45839   117.21280   227.86222
   361  C   4.0   -0.07    4.14    3.89   253.91246   117.60258   230.68035
   362  C   4.0   -0.07    4.11    3.82   254.36202   114.58932   227.06984
   363  H   1.0    0.12    1.07    1.44   251.90383   117.76920   223.40269
   364  H   1.0    0.04    1.05    1.44   249.58660   115.90106   227.79788
   365  H   1.0    0.06    1.07    1.44   254.52594   118.64258   226.81660
   366  H   1.0    0.04    1.00    1.43   255.89579   117.27613   231.10170
   367  H   1.0    0.05    1.01    1.43   253.44780   119.52050   231.24383
   368  H   1.0    0.05    1.00    1.43   252.78601   116.28798   231.78868
   369  H   1.0    0.04    1.00    1.43   256.40130   114.44517   227.30713
   370  H   1.0    0.05    1.00    1.43   253.51161   113.11965   228.22885
   371  H   1.0    0.06    1.01    1.43   253.94877   114.22385   225.09254
   372  N   5.0   -0.21    3.24    1.96   242.66210   119.73344   228.65356
   373  C   4.0    0.03    4.32    4.24   241.74082   117.67341   230.19616
   374  C   4.0    0.15    3.44    3.09   241.83136   118.37729   233.00290
   375  O   6.0   -0.33    1.29    1.80   240.07160   117.81556   234.40889
   376  C   4.0   -0.05    4.27    4.13   243.21511   115.24961   229.64391
   377  C   4.0   -0.05    4.18    3.96   241.73491   112.93576   230.54330
   378  C   4.0   -0.02    4.20    4.00   243.22209   110.48093   230.16890
   379  N   5.0   -0.15    3.40    2.02   243.67578   109.90973   227.52332
   380  C   4.0    0.09    3.34    3.06   242.01374   108.87309   225.94461
   381  N   5.0   -0.20    3.24    1.97   242.67694   108.48414   223.54471
   382  N   5.0   -0.20    3.26    1.97   239.70496   108.24892   226.69700
   383  H   1.0    0.09    1.03    1.43   244.28775   119.47987   227.66788
   384  H   1.0    0.04    1.06    1.44   239.73441   117.38050   229.74283
   385  H   1.0    0.04    1.03    1.43   243.52495   115.16506   227.60687
   386  H   1.0    0.05    1.03    1.43   245.05866   115.35963   230.56343
   387  H   1.0    0.04    1.03    1.43   241.31214   113.14084   232.54783
   388  H   1.0    0.04    1.03    1.43   239.95232   112.85690   229.51373
   389  H   1.0    0.03    1.03    1.43   245.06257   110.65830   231.07682
   390  H   1.0    0.04    1.02    1.43   242.23018   108.90309   231.05764
   391  H   1.0    0.07    1.07    1.44   245.36215   110.44575   226.81386
   392  H   1.0    0.08    1.03    1.43   244.44873   108.83257   222.94166
   393  H   1.0    0.07    1.03    1.43   241.48023   107.62768   222.33810
   394  H   1.0    0.07    1.03    1.43   239.14420   108.53202   228.49231
   395  H   1.0    0.07    1.03    1.43   238.50876   107.38199   225.49604
   396  N   5.0   -0.15    3.46    2.05   243.87147   119.61584   233.79391
   397  C   4.0    0.04    4.34    4.28   243.95639   120.59069   236.35074
   398  C   4.0    0.08    3.26    3.05   241.77454   122.44043   236.77424
   399  O   6.0   -0.30    1.12    1.80   240.49017   122.34899   238.69773
   400  C   4.0   -0.04    4.32    4.23   246.44287   121.94946   236.94212
   401  C   4.0   -0.02    3.54    3.13   248.60551   120.21914   237.59625
   402  C   4.0   -0.04    3.47    3.10   250.87279   120.37084   236.28999
   403  C   4.0   -0.05    3.47    3.10   248.42572   118.53838   239.60766
   404  C   4.0   -0.05    3.38    3.07   252.91229   118.87543   236.95869
   405  C   4.0   -0.05    3.38    3.07   250.45195   117.02536   240.26953
   406  C   4.0   -0.05    3.37    3.07   252.70001   117.18438   238.94067
   407  H   1.0    0.11    1.10    1.44   245.32474   119.99383   232.60254
   408  H   1.0    0.05    1.06    1.44   243.65178   119.01774   237.66768
   409  H   1.0    0.04    1.03    1.43   246.93348   123.12836   235.32453
   410  H   1.0    0.04    1.04    1.43   246.10148   123.18458   238.56455
   411  H   1.0    0.05    1.03    1.43   251.05209   121.67329   234.72880
   412  H   1.0    0.04    1.03    1.43   246.69182   118.42346   240.67741
   413  H   1.0    0.04    1.03    1.43   254.66810   119.03351   235.93064
   414  H   1.0    0.04    1.03    1.43   250.29766   115.72199   241.83094
   415  H   1.0    0.04    1.03    1.43   254.27148   115.97863   239.43757
   416  N   5.0   -0.20    3.21    1.96   236.08940   118.67211   237.89938
   417  C   4.0    0.03    4.14    3.88   236.15867   117.57153   240.41454
   418  C   4.0    0.08    3.20    3.04   235.30186   119.52985   242.36405
   419  O   6.0   -0.31    1.11    1.80   233.57720   119.07199   243.84263
   420  C   4.0   -0.07    4.10    3.81   238.81248   116.63970   241.01266
   421  H   1.0    0.12    1.07    1.44   237.67864   118.52613   236.82139
   422  H   1.0    0.04    1.05    1.44   234.79905   116.00707   240.51444
   423  H   1.0    0.04    1.00    1.43   238.86063   115.85417   242.90922
   424  H   1.0    0.04    1.00    1.43   239.34225   115.18287   239.66965
   425  H   1.0    0.06    1.00    1.43   240.14381   118.19848   240.89853
   426  H   1.0    0.08    1.07    1.44   260.47384   123.58288   242.95082
   427  H   1.0    0.05    1.05    1.44   256.92615   125.14873   237.76450
   428  H   1.0    0.08    1.07    1.44   264.91332   128.78213   237.30494
   429  H   1.0    0.05    1.04    1.44   262.55864   129.40584   228.86732
   430  H   1.0    0.09    1.07    1.44   271.45178   129.95676   228.32111
   431  H   1.0    0.06    1.05    1.44   268.64666   128.97591   222.57278
   432  H   1.0    0.08    1.07    1.44   283.00163   121.20506   243.87025
   433  H   1.0    0.04    1.04    1.44   283.26839   119.57231   237.05639
   434  H   1.0    0.09    1.07    1.44   281.31688   118.91170   233.06498
   435  H   1.0    0.05    1.04    1.43   280.51419   119.04880   227.04625
   436  H   1.0    0.08    1.08    1.44   285.98043   110.98498   228.09952
   437  H   1.0    0.05    1.05    1.44   253.61104   107.90206   248.02360
   438  H   1.0    0.10    1.08    1.44   248.86371   109.75326   248.36704
   439  H   1.0    0.05    1.04    1.44   242.80402   108.78645   251.14924
   440  H   1.0    0.08    1.08    1.44   246.81352   101.82222   245.68192
   441  H   1.0    0.06    1.05    1.44   280.71249   110.51348   220.36537
   442  H   1.0    0.10    1.07    1.44   255.38372   116.62041   213.97794
   443  H   1.0    0.05    1.05    1.44   255.21683   122.55145   220.73732
   444  H   1.0    0.09    1.07    1.44   249.24007   116.80030   223.89730
   445  H   1.0    0.06    1.04    1.44   250.04870   121.57899   228.17618
   446  H   1.0    0.08    1.07    1.44   241.49784   120.12711   227.47794
   447  H   1.0    0.05    1.05    1.44   241.37893   123.74944   235.47000
   448  H   1.0    0.09    1.07    1.44   234.85927   117.93038   236.98879
   449  H   1.0    0.06    1.04    1.44   236.15207   121.21549   242.44662

  Z AO/shell   Hii/eV     exponent
  1     Wed Apr 25 08:07:45 CEST 2018   EN: 2.200 GM2: 0.406  GM3: 0.0800  RAES: 1.40
     1s    -10.707211    1.230000
  6     Wed Apr 25 08:07:45 CEST 2018   EN: 2.550 GM2: 0.538  GM3: 0.1500  RAES: 3.00
     2s    -13.970922    2.096432
     2p    -10.063292    1.800000
  7     Wed Apr 25 08:07:45 CEST 2018   EN: 3.040 GM2: 0.461  GM3:-0.0640  RAES: 1.90
     2s    -16.686243    2.339881
     2p    -12.523956    2.014332
  8     Wed Apr 25 08:07:45 CEST 2018   EN: 3.440 GM2: 0.452  GM3:-0.0517  RAES: 1.80
     2s    -20.229985    2.439742
     2p    -15.503117    2.137023
 no old-style atom pair restraining (fixing) potential

molecular fragmentation (1/2 indicates fragments):
111111122222222222222222222222222222222222222222222222222222222222222222
222222222222222222222222222222222222222222222222222222222222222222222222
222222222222222222222222222222222222222222222222222222222222222222222222
222222222222222222222222222222222222222222222222222222222222222222222222
222222222222222222222222222222222222222222222222222222222222222222222222
222222222222222222222222222222222222222222222222222222222222222221122222
22222222222222222
# atoms in fragment 1/2:     9   440
 fragment masses (1/2) :       59.07     2889.50
CMA distance (Bohr)    :  13.072
constraining FC (au)   :  0.0500
           ------------------------------------------------- 
          |        Self-Consistent Charge Iterations        |
           ------------------------------------------------- 

 Ncao       : 1067
 Nao        : 1067
 Nshell     : 655
 Nel        : 1184
 T(el)      :   500.0
 intcut     :    35.0
 scfconv/Eh :  0.100E-06
   qconv/e  :  0.100E-04
 intneglect :  0.100E-08
 broydamp   :      0.400
 iter      E             dE          RMSdq      gap      omega  full diag
   1   -676.8695318 -0.676870E+03  0.457E+00    3.40       0.0  T
   2   -678.5938342 -0.172430E+01  0.211E+00    1.68       1.0  T
   3   -678.7109036 -0.117069E+00  0.125E+00    1.58       1.0  T
   4   -678.8188242 -0.107921E+00  0.245E-01    0.89       1.0  T
   5   -678.8245412 -0.571695E-02  0.122E-01    1.07       1.0  T
   6   -678.8255802 -0.103904E-02  0.506E-02    1.04       1.0  T
   7   -678.8257935 -0.213295E-03  0.215E-02    1.01       1.0  T
   8   -678.8258266 -0.330976E-04  0.997E-03    0.99       1.0  T
   9   -678.8258375 -0.109550E-04  0.497E-03    0.99       1.0  T
  10   -678.8258397 -0.215774E-05  0.209E-03    0.99       2.3  T
  11   -678.8258402 -0.512713E-06  0.905E-04    0.99       5.2  T
  12   -678.8258403 -0.684403E-07  0.389E-04    0.99      12.1  T
  13   -678.8258403 -0.182720E-07  0.193E-04    0.99      24.5  T
  14   -678.8258403 -0.314787E-08  0.834E-05    0.99      56.6  T
  15   -678.8258403 -0.990440E-09  0.341E-05    0.99     138.3  T
speedup 13.76
cpu  time for SCC   45.32 s
wall time for SCC    3.29 s

   *** convergence criteria satisfied after 15 iterations ***

          eigenvalues
 #    :         580        581        582        583        584        585        586        587
 occ. :        2.000      2.000      2.000      2.000      2.000      2.000      2.000      2.000
 eps  :       -10.211    -10.089    -10.078    -10.025     -9.961     -9.955     -9.868     -9.840
 #    :         588        589        590        591        592        593        594        595
 occ. :        2.000      2.000      2.000      2.000      2.000      0.000      0.000      0.000
 eps  :        -9.798     -9.776     -9.744     -9.636     -9.385     -8.397     -7.906     -7.874
 #    :         596        597        598        599        600        601        602        603
 occ. :        0.000      0.000      0.000      0.000      0.000      0.000      0.000      0.000
 eps  :        -7.759     -7.754     -7.663     -7.611     -7.512     -7.503     -7.503     -7.475


   #   Z            q   n(s)   n(p)   n(d)      C6AA      α(0)
   1   7 N     -0.382  1.305  4.077  0.000    29.875     8.118
   2   6 C     -0.006  1.043  2.963  0.000    20.784     6.508
   3   6 C      0.197  1.095  2.708  0.000    23.804     7.990
   4   8 O     -0.361  1.744  4.618  0.000    20.926     6.133
   5   1 H      0.173  0.827  0.000  0.000     1.253     1.754
   6   1 H      0.056  0.944  0.000  0.000     2.241     2.341
   7   1 H      0.076  0.924  0.000  0.000     2.018     2.221
   8   7 N     -0.392  1.314  4.078  0.000    30.156     8.156
   9   6 C      0.031  1.061  2.908  0.000    20.069     6.380
  10   6 C      0.273  1.049  2.678  0.000    22.380     7.747
  11   8 O     -0.518  1.745  4.773  0.000    24.188     6.594
  12   6 C     -0.032  1.069  2.963  0.000    21.102     6.534
  13   6 C     -0.060  1.049  3.011  0.000    21.653     6.624
  14   6 C     -0.111  1.037  3.074  0.000    22.671     6.789
  15   6 C     -0.113  1.038  3.075  0.000    22.723     6.798
  16   1 H      0.162  0.838  0.000  0.000     1.324     1.802
  17   1 H      0.032  0.968  0.000  0.000     2.564     2.504
  18   1 H      0.058  0.942  0.000  0.000     2.227     2.334
  19   1 H      0.038  0.962  0.000  0.000     2.481     2.463
  20   1 H      0.037  0.963  0.000  0.000     2.483     2.464
  21   1 H      0.046  0.954  0.000  0.000     2.373     2.409
  22   1 H      0.024  0.976  0.000  0.000     2.671     2.556
  23   1 H      0.042  0.958  0.000  0.000     2.425     2.435
  24   1 H      0.046  0.954  0.000  0.000     2.374     2.410
  25   1 H      0.037  0.963  0.000  0.000     2.485     2.465
  26   1 H      0.041  0.959  0.000  0.000     2.438     2.442
  27   7 N     -0.172  1.250  3.922  0.000    24.712     7.383
  28   6 C      0.036  1.053  2.911  0.000    19.966     6.363
  29   6 C      0.205  1.084  2.710  0.000    23.638     7.962
  30   8 O     -0.363  1.758  4.605  0.000    20.954     6.137
  31   6 C     -0.131  1.042  3.089  0.000    23.072     6.849
  32   1 H      0.250  0.750  0.000  0.000     0.884     1.473
  33   1 H      0.062  0.938  0.000  0.000     2.175     2.307
  34   1 H      0.061  0.939  0.000  0.000     2.186     2.312
  35   1 H      0.077  0.923  0.000  0.000     2.015     2.220
  36   1 H      0.084  0.916  0.000  0.000     1.941     2.179
  37   7 N     -0.397  1.310  4.088  0.000    30.303     8.176
  38   6 C      0.031  1.062  2.907  0.000    20.073     6.382
  39   6 C      0.199  1.094  2.707  0.000    23.768     7.984
  40   8 O     -0.386  1.756  4.630  0.000    21.395     6.201
  41   6 C      0.125  1.044  2.830  0.000    18.636     6.164
  42   8 O     -0.464  1.711  4.753  0.000    22.141     6.352
  43   6 C     -0.118  1.040  3.078  0.000    22.825     6.812
  44   1 H      0.181  0.819  0.000  0.000     1.207     1.721
  45   1 H      0.046  0.954  0.000  0.000     2.369     2.407
  46   1 H      0.024  0.976  0.000  0.000     2.676     2.558
  47   1 H      0.323  0.677  0.000  0.000     0.656     1.272
  48   1 H      0.051  0.949  0.000  0.000     2.301     2.372
  49   1 H      0.040  0.960  0.000  0.000     2.451     2.448
  50   1 H      0.054  0.946  0.000  0.000     2.275     2.359
  51   7 N     -0.385  1.317  4.068  0.000    29.953     8.128
  52   6 C      0.037  1.058  2.904  0.000    19.960     6.363
  53   6 C      0.201  1.090  2.709  0.000    23.719     7.976
  54   8 O     -0.363  1.753  4.610  0.000    20.957     6.138
  55   6 C     -0.015  1.064  2.952  0.000    20.810     6.488
  56   6 C     -0.117  1.040  3.077  0.000    22.786     6.806
  57   6 C     -0.117  1.040  3.077  0.000    22.797     6.808
  58   1 H      0.166  0.834  0.000  0.000     1.295     1.783
  59   1 H      0.040  0.960  0.000  0.000     2.449     2.448
  60   1 H      0.050  0.950  0.000  0.000     2.325     2.385
  61   1 H      0.052  0.948  0.000  0.000     2.298     2.371
  62   1 H      0.026  0.974  0.000  0.000     2.643     2.542
  63   1 H      0.043  0.957  0.000  0.000     2.413     2.429
  64   1 H      0.051  0.949  0.000  0.000     2.301     2.372
  65   1 H      0.044  0.956  0.000  0.000     2.396     2.421
  66   1 H      0.046  0.954  0.000  0.000     2.367     2.406
  67   7 N     -0.389  1.310  4.079  0.000    30.066     8.144
  68   6 C      0.041  1.057  2.902  0.000    19.901     6.355
  69   6 C      0.198  1.091  2.711  0.000    23.777     7.985
  70   8 O     -0.389  1.758  4.632  0.000    21.467     6.212
  71   6 C     -0.008  1.061  2.946  0.000    20.679     6.468
  72   6 C     -0.114  1.040  3.074  0.000    22.737     6.799
  73   6 C     -0.113  1.038  3.075  0.000    22.724     6.797
  74   1 H      0.181  0.819  0.000  0.000     1.210     1.723
  75   1 H      0.033  0.967  0.000  0.000     2.541     2.493
  76   1 H      0.041  0.959  0.000  0.000     2.431     2.438
  77   1 H      0.051  0.949  0.000  0.000     2.310     2.377
  78   1 H      0.040  0.960  0.000  0.000     2.450     2.448
  79   1 H      0.056  0.944  0.000  0.000     2.252     2.347
  80   1 H      0.052  0.948  0.000  0.000     2.298     2.371
  81   1 H      0.055  0.945  0.000  0.000     2.254     2.348
  82   1 H      0.028  0.972  0.000  0.000     2.608     2.525
  83   7 N     -0.387  1.314  4.072  0.000    30.005     8.135
  84   6 C      0.028  1.059  2.913  0.000    20.110     6.387
  85   6 C      0.275  1.042  2.683  0.000    22.341     7.740
  86   8 O     -0.500  1.749  4.751  0.000    23.779     6.538
  87   6 C     -0.069  1.059  3.010  0.000    21.817     6.649
  88   6 C     -0.089  1.053  3.036  0.000    22.188     6.706
  89   6 C      0.290  1.038  2.673  0.000    22.090     7.696
  90   8 O     -0.502  1.747  4.754  0.000    23.818     6.543
  91   7 N     -0.291  1.266  4.025  0.000    27.501     7.788
  92   1 H      0.157  0.843  0.000  0.000     1.357     1.825
  93   1 H      0.047  0.953  0.000  0.000     2.358     2.401
  94   1 H      0.042  0.958  0.000  0.000     2.427     2.436
  95   1 H      0.062  0.938  0.000  0.000     2.176     2.307
  96   1 H      0.065  0.935  0.000  0.000     2.144     2.290
  97   1 H      0.045  0.955  0.000  0.000     2.380     2.413
  98   1 H      0.223  0.777  0.000  0.000     0.996     1.563
  99   1 H      0.228  0.772  0.000  0.000     0.975     1.547
 100   7 N     -0.172  1.241  3.931  0.000    24.724     7.385
 101   6 C      0.033  1.055  2.913  0.000    20.022     6.371
 102   6 C      0.272  1.048  2.680  0.000    22.404     7.751
 103   8 O     -0.486  1.727  4.759  0.000    23.473     6.496
 104   6 C     -0.105  1.070  3.035  0.000    22.499     6.753
 105   6 C      0.371  1.022  2.607  0.000    20.711     7.448
 106   8 O     -0.600  1.741  4.859  0.000    26.124     6.853
 107   8 O     -0.585  1.765  4.820  0.000    25.760     6.805
 108   1 H      0.202  0.798  0.000  0.000     1.094     1.638
 109   1 H      0.069  0.931  0.000  0.000     2.094     2.263
 110   1 H      0.045  0.955  0.000  0.000     2.385     2.415
 111   1 H      0.038  0.962  0.000  0.000     2.480     2.463
 112   7 N     -0.178  1.242  3.936  0.000    24.862     7.406
 113   6 C      0.032  1.055  2.913  0.000    20.047     6.375
 114   6 C      0.280  1.037  2.683  0.000    22.268     7.727
 115   8 O     -0.491  1.742  4.749  0.000    23.586     6.511
 116   6 C     -0.103  1.060  3.043  0.000    22.468     6.748
 117   6 C      0.287  1.035  2.677  0.000    22.130     7.703
 118   8 O     -0.497  1.754  4.744  0.000    23.728     6.531
 119   7 N     -0.274  1.261  4.013  0.000    27.088     7.730
 120   1 H      0.210  0.790  0.000  0.000     1.057     1.611
 121   1 H      0.075  0.925  0.000  0.000     2.030     2.228
 122   1 H      0.095  0.905  0.000  0.000     1.829     2.115
 123   1 H      0.077  0.923  0.000  0.000     2.015     2.220
 124   1 H      0.255  0.745  0.000  0.000     0.865     1.457
 125   1 H      0.241  0.759  0.000  0.000     0.919     1.502
 126   7 N     -0.180  1.251  3.929  0.000    24.899     7.411
 127   6 C      0.024  1.064  2.912  0.000    20.169     6.395
 128   6 C      0.267  1.045  2.688  0.000    22.496     7.767
 129   8 O     -0.494  1.744  4.750  0.000    23.661     6.522
 130   6 C      0.124  1.042  2.834  0.000    18.660     6.168
 131   8 O     -0.476  1.710  4.766  0.000    22.389     6.387
 132   6 C     -0.103  1.037  3.066  0.000    22.526     6.768
 133   1 H      0.231  0.769  0.000  0.000     0.962     1.536
 134   1 H      0.046  0.954  0.000  0.000     2.376     2.410
 135   1 H      0.050  0.950  0.000  0.000     2.320     2.382
 136   1 H      0.323  0.677  0.000  0.000     0.655     1.271
 137   1 H      0.058  0.942  0.000  0.000     2.218     2.329
 138   1 H      0.023  0.977  0.000  0.000     2.693     2.566
 139   1 H      0.026  0.974  0.000  0.000     2.637     2.540
 140   7 N     -0.184  1.259  3.925  0.000    24.979     7.423
 141   6 C      0.028  1.061  2.911  0.000    20.105     6.385
 142   6 C      0.277  1.045  2.678  0.000    22.310     7.735
 143   8 O     -0.501  1.746  4.755  0.000    23.809     6.542
 144   6 C     -0.070  1.057  3.014  0.000    21.836     6.651
 145   6 C     -0.017  1.059  2.958  0.000    20.840     6.493
 146   6 C     -0.115  1.039  3.076  0.000    22.748     6.801
 147   6 C     -0.118  1.042  3.076  0.000    22.818     6.810
 148   1 H      0.231  0.769  0.000  0.000     0.963     1.537
 149   1 H      0.065  0.935  0.000  0.000     2.137     2.286
 150   1 H      0.055  0.945  0.000  0.000     2.261     2.351
 151   1 H      0.067  0.933  0.000  0.000     2.124     2.279
 152   1 H      0.053  0.947  0.000  0.000     2.281     2.362
 153   1 H      0.059  0.941  0.000  0.000     2.213     2.326
 154   1 H      0.017  0.983  0.000  0.000     2.780     2.608
 155   1 H      0.030  0.970  0.000  0.000     2.584     2.514
 156   1 H      0.061  0.939  0.000  0.000     2.185     2.311
 157   1 H      0.041  0.959  0.000  0.000     2.438     2.442
 158   1 H      0.056  0.944  0.000  0.000     2.244     2.343
 159   7 N     -0.178  1.251  3.927  0.000    24.851     7.404
 160   6 C      0.017  1.062  2.922  0.000    20.301     6.416
 161   6 C      0.265  1.045  2.690  0.000    22.529     7.773
 162   8 O     -0.474  1.733  4.741  0.000    23.215     6.460
 163   6 C      0.129  1.041  2.830  0.000    18.571     6.152
 164   8 O     -0.479  1.719  4.760  0.000    22.437     6.394
 165   6 C     -0.115  1.038  3.077  0.000    22.761     6.803
 166   1 H      0.226  0.774  0.000  0.000     0.981     1.552
 167   1 H      0.058  0.942  0.000  0.000     2.221     2.331
 168   1 H      0.009  0.991  0.000  0.000     2.902     2.664
 169   1 H      0.350  0.650  0.000  0.000     0.588     1.204
 170   1 H      0.070  0.930  0.000  0.000     2.091     2.261
 171   1 H      0.028  0.972  0.000  0.000     2.608     2.525
 172   1 H      0.050  0.950  0.000  0.000     2.325     2.384
 173   7 N     -0.156  1.246  3.910  0.000    24.375     7.333
 174   6 C      0.026  1.061  2.913  0.000    20.141     6.390
 175   6 C      0.201  1.092  2.707  0.000    23.724     7.977
 176   8 O     -0.356  1.744  4.612  0.000    20.815     6.117
 177   6 C     -0.022  1.062  2.960  0.000    20.935     6.508
 178   6 C     -0.060  1.048  3.012  0.000    21.655     6.625
 179   6 C     -0.123  1.041  3.083  0.000    22.920     6.826
 180   6 C     -0.115  1.037  3.079  0.000    22.771     6.805
 181   1 H      0.210  0.790  0.000  0.000     1.058     1.611
 182   1 H      0.090  0.910  0.000  0.000     1.880     2.144
 183   1 H      0.065  0.935  0.000  0.000     2.138     2.286
 184   1 H      0.017  0.983  0.000  0.000     2.773     2.604
 185   1 H      0.055  0.945  0.000  0.000     2.254     2.348
 186   1 H      0.072  0.928  0.000  0.000     2.063     2.246
 187   1 H      0.042  0.958  0.000  0.000     2.417     2.431
 188   1 H      0.059  0.941  0.000  0.000     2.210     2.325
 189   1 H      0.043  0.957  0.000  0.000     2.409     2.427
 190   1 H      0.067  0.933  0.000  0.000     2.121     2.277
 191   1 H      0.026  0.974  0.000  0.000     2.643     2.542
 192   7 N     -0.380  1.311  4.069  0.000    29.834     8.112
 193   6 C      0.030  1.062  2.909  0.000    20.094     6.385
 194   6 C      0.203  1.087  2.711  0.000    23.690     7.971
 195   8 O     -0.383  1.755  4.628  0.000    21.351     6.195
 196   6 C     -0.016  1.064  2.952  0.000    20.828     6.491
 197   6 C     -0.115  1.039  3.076  0.000    22.751     6.801
 198   6 C     -0.111  1.036  3.075  0.000    22.685     6.791
 199   1 H      0.148  0.852  0.000  0.000     1.415     1.864
 200   1 H      0.074  0.926  0.000  0.000     2.044     2.236
 201   1 H      0.041  0.959  0.000  0.000     2.440     2.443
 202   1 H      0.053  0.947  0.000  0.000     2.280     2.361
 203   1 H      0.047  0.953  0.000  0.000     2.363     2.404
 204   1 H      0.045  0.955  0.000  0.000     2.382     2.414
 205   1 H      0.050  0.950  0.000  0.000     2.320     2.382
 206   1 H      0.037  0.963  0.000  0.000     2.490     2.468
 207   1 H      0.033  0.967  0.000  0.000     2.541     2.493
 208   7 N     -0.375  1.308  4.068  0.000    29.691     8.093
 209   6 C      0.024  1.064  2.912  0.000    20.194     6.401
 210   6 C      0.284  1.043  2.673  0.000    22.187     7.714
 211   8 O     -0.475  1.742  4.733  0.000    23.244     6.464
 212   6 C      0.132  1.042  2.826  0.000    18.527     6.146
 213   8 O     -0.506  1.721  4.785  0.000    23.017     6.476
 214   6 C     -0.120  1.042  3.078  0.000    22.854     6.817
 215   1 H      0.161  0.839  0.000  0.000     1.329     1.806
 216   1 H      0.049  0.951  0.000  0.000     2.334     2.389
 217   1 H     -0.023  1.023  0.000  0.000     3.490     2.921
 218   1 H      0.304  0.696  0.000  0.000     0.710     1.324
 219   1 H      0.031  0.969  0.000  0.000     2.569     2.506
 220   1 H      0.058  0.942  0.000  0.000     2.224     2.332
 221   1 H      0.062  0.938  0.000  0.000     2.172     2.305
 222   7 N     -0.192  1.260  3.932  0.000    25.159     7.450
 223   6 C      0.028  1.062  2.910  0.000    20.104     6.383
 224   6 C      0.280  1.044  2.676  0.000    22.261     7.727
 225   8 O     -0.478  1.729  4.749  0.000    23.308     6.473
 226   6 C     -0.023  1.066  2.957  0.000    20.947     6.510
 227   6 C     -0.065  1.050  3.015  0.000    21.737     6.637
 228   6 C     -0.109  1.036  3.073  0.000    22.644     6.785
 229   6 C     -0.108  1.036  3.072  0.000    22.622     6.783
 230   1 H      0.212  0.788  0.000  0.000     1.049     1.604
 231   1 H      0.050  0.950  0.000  0.000     2.318     2.381
 232   1 H      0.062  0.938  0.000  0.000     2.174     2.306
 233   1 H      0.043  0.957  0.000  0.000     2.415     2.430
 234   1 H      0.044  0.956  0.000  0.000     2.393     2.419
 235   1 H      0.073  0.927  0.000  0.000     2.057     2.243
 236   1 H      0.021  0.979  0.000  0.000     2.721     2.580
 237   1 H      0.034  0.966  0.000  0.000     2.533     2.489
 238   1 H      0.048  0.952  0.000  0.000     2.345     2.395
 239   1 H      0.044  0.956  0.000  0.000     2.398     2.422
 240   1 H      0.048  0.952  0.000  0.000     2.340     2.392
 241   7 N     -0.172  1.243  3.930  0.000    24.730     7.386
 242   6 C      0.040  1.050  2.910  0.000    19.903     6.351
 243   6 C      0.271  1.046  2.683  0.000    22.414     7.753
 244   8 O     -0.487  1.736  4.751  0.000    23.498     6.499
 245   6 C     -0.079  1.063  3.017  0.000    22.016     6.680
 246   6 C      0.374  1.023  2.603  0.000    20.663     7.439
 247   8 O     -0.613  1.755  4.858  0.000    26.445     6.895
 248   8 O     -0.621  1.772  4.850  0.000    26.648     6.921
 249   1 H      0.193  0.807  0.000  0.000     1.145     1.676
 250   1 H      0.087  0.913  0.000  0.000     1.911     2.162
 251   1 H      0.020  0.980  0.000  0.000     2.737     2.587
 252   1 H      0.002  0.998  0.000  0.000     3.024     2.719
 253   7 N     -0.180  1.247  3.933  0.000    24.895     7.410
 254   6 C      0.034  1.058  2.908  0.000    20.001     6.367
 255   6 C      0.284  1.045  2.671  0.000    22.192     7.715
 256   8 O     -0.506  1.732  4.773  0.000    23.908     6.556
 257   6 C     -0.015  1.065  2.950  0.000    20.807     6.488
 258   6 C     -0.059  1.047  3.012  0.000    21.638     6.622
 259   6 C     -0.117  1.039  3.078  0.000    22.791     6.807
 260   6 C     -0.115  1.038  3.077  0.000    22.770     6.805
 261   1 H      0.203  0.797  0.000  0.000     1.091     1.636
 262   1 H      0.055  0.945  0.000  0.000     2.257     2.349
 263   1 H      0.037  0.963  0.000  0.000     2.489     2.467
 264   1 H      0.039  0.961  0.000  0.000     2.457     2.451
 265   1 H      0.030  0.970  0.000  0.000     2.580     2.512
 266   1 H      0.081  0.919  0.000  0.000     1.965     2.192
 267   1 H      0.025  0.975  0.000  0.000     2.660     2.550
 268   1 H      0.046  0.954  0.000  0.000     2.368     2.406
 269   1 H      0.057  0.943  0.000  0.000     2.240     2.341
 270   1 H      0.050  0.950  0.000  0.000     2.315     2.380
 271   1 H      0.060  0.940  0.000  0.000     2.198     2.319
 272   7 N     -0.168  1.249  3.919  0.000    24.627     7.370
 273   6 C      0.042  1.055  2.904  0.000    19.868     6.345
 274   6 C      0.268  1.043  2.688  0.000    22.468     7.762
 275   8 O     -0.488  1.737  4.750  0.000    23.515     6.501
 276   6 C     -0.092  1.069  3.023  0.000    22.248     6.716
 277   6 C      0.375  1.022  2.602  0.000    20.639     7.435
 278   8 O     -0.645  1.777  4.868  0.000    27.241     6.998
 279   8 O     -0.629  1.762  4.867  0.000    26.835     6.945
 280   1 H      0.194  0.806  0.000  0.000     1.135     1.669
 281   1 H      0.065  0.935  0.000  0.000     2.144     2.290
 282   1 H      0.021  0.979  0.000  0.000     2.716     2.577
 283   1 H      0.033  0.967  0.000  0.000     2.546     2.495
 284   7 N     -0.169  1.244  3.925  0.000    24.647     7.373
 285   6 C      0.023  1.061  2.916  0.000    20.204     6.401
 286   6 C      0.272  1.044  2.684  0.000    22.410     7.752
 287   8 O     -0.499  1.742  4.756  0.000    23.753     6.534
 288   6 C     -0.073  1.059  3.014  0.000    21.890     6.660
 289   6 C     -0.004  1.054  2.950  0.000    20.612     6.458
 290   6 C     -0.115  1.042  3.073  0.000    22.746     6.800
 291   6 C     -0.113  1.038  3.074  0.000    22.710     6.795
 292   1 H      0.214  0.786  0.000  0.000     1.036     1.595
 293   1 H      0.076  0.924  0.000  0.000     2.024     2.225
 294   1 H      0.036  0.964  0.000  0.000     2.508     2.477
 295   1 H      0.077  0.923  0.000  0.000     2.007     2.215
 296   1 H      0.011  0.989  0.000  0.000     2.869     2.649
 297   1 H      0.057  0.943  0.000  0.000     2.232     2.336
 298   1 H      0.033  0.967  0.000  0.000     2.541     2.493
 299   1 H      0.052  0.948  0.000  0.000     2.299     2.371
 300   1 H      0.054  0.946  0.000  0.000     2.275     2.359
 301   1 H      0.051  0.949  0.000  0.000     2.312     2.378
 302   1 H      0.026  0.974  0.000  0.000     2.645     2.543
 303   7 N     -0.156  1.234  3.921  0.000    24.365     7.331
 304   6 C      0.027  1.055  2.918  0.000    20.123     6.389
 305   6 C      0.201  1.084  2.715  0.000    23.727     7.978
 306   8 O     -0.350  1.748  4.602  0.000    20.710     6.101
 307   6 C     -0.073  1.059  3.013  0.000    21.879     6.658
 308   6 C     -0.067  1.049  3.018  0.000    21.778     6.644
 309   6 C     -0.084  1.050  3.034  0.000    22.101     6.693
 310   6 C     -0.035  1.055  2.980  0.000    21.298     6.588
 311   7 N     -0.175  1.245  3.930  0.000    24.778     7.393
 312   1 H      0.217  0.783  0.000  0.000     1.024     1.585
 313   1 H      0.090  0.910  0.000  0.000     1.881     2.145
 314   1 H      0.070  0.930  0.000  0.000     2.084     2.258
 315   1 H      0.075  0.925  0.000  0.000     2.030     2.228
 316   1 H      0.038  0.962  0.000  0.000     2.481     2.463
 317   1 H      0.073  0.927  0.000  0.000     2.056     2.242
 318   1 H      0.076  0.924  0.000  0.000     2.023     2.224
 319   1 H      0.053  0.947  0.000  0.000     2.278     2.360
 320   1 H      0.090  0.910  0.000  0.000     1.882     2.145
 321   1 H      0.117  0.883  0.000  0.000     1.639     2.002
 322   1 H      0.292  0.708  0.000  0.000     0.737     1.345
 323   1 H      0.310  0.690  0.000  0.000     0.685     1.296
 324   1 H      0.261  0.739  0.000  0.000     0.841     1.437
 325   7 N     -0.383  1.296  4.087  0.000    29.891     8.120
 326   6 C      0.051  1.050  2.900  0.000    19.739     6.327
 327   6 C      0.263  1.051  2.686  0.000    22.570     7.780
 328   8 O     -0.498  1.737  4.762  0.000    23.743     6.533
 329   6 C     -0.086  1.070  3.016  0.000    22.148     6.700
 330   6 C      0.375  1.022  2.603  0.000    20.645     7.435
 331   8 O     -0.627  1.764  4.863  0.000    26.794     6.940
 332   8 O     -0.650  1.777  4.873  0.000    27.377     7.015
 333   1 H      0.149  0.851  0.000  0.000     1.406     1.857
 334   1 H      0.025  0.975  0.000  0.000     2.656     2.549
 335   1 H      0.014  0.986  0.000  0.000     2.823     2.628
 336   1 H     -0.003  1.003  0.000  0.000     3.111     2.758
 337   7 N     -0.165  1.240  3.925  0.000    24.569     7.362
 338   6 C      0.031  1.057  2.912  0.000    20.063     6.379
 339   6 C      0.197  1.087  2.716  0.000    23.791     7.988
 340   8 O     -0.335  1.745  4.590  0.000    20.433     6.060
 341   6 C     -0.078  1.061  3.018  0.000    21.988     6.675
 342   6 C     -0.007  1.055  2.952  0.000    20.670     6.467
 343   6 C     -0.117  1.042  3.076  0.000    22.801     6.808
 344   6 C     -0.110  1.038  3.071  0.000    22.650     6.786
 345   1 H      0.209  0.791  0.000  0.000     1.061     1.614
 346   1 H      0.079  0.921  0.000  0.000     1.990     2.206
 347   1 H      0.067  0.933  0.000  0.000     2.121     2.277
 348   1 H      0.073  0.927  0.000  0.000     2.048     2.238
 349   1 H      0.022  0.978  0.000  0.000     2.696     2.568
 350   1 H      0.043  0.957  0.000  0.000     2.408     2.427
 351   1 H      0.045  0.955  0.000  0.000     2.382     2.414
 352   1 H      0.052  0.948  0.000  0.000     2.297     2.370
 353   1 H      0.040  0.960  0.000  0.000     2.445     2.445
 354   1 H      0.051  0.949  0.000  0.000     2.309     2.376
 355   1 H      0.025  0.975  0.000  0.000     2.660     2.550
 356   7 N     -0.395  1.308  4.087  0.000    30.238     8.167
 357   6 C      0.040  1.058  2.902  0.000    19.916     6.356
 358   6 C      0.198  1.096  2.705  0.000    23.776     7.986
 359   8 O     -0.354  1.732  4.622  0.000    20.786     6.113
 360   6 C     -0.017  1.064  2.953  0.000    20.835     6.492
 361   6 C     -0.112  1.041  3.072  0.000    22.700     6.793
 362   6 C     -0.098  1.035  3.063  0.000    22.419     6.751
 363   1 H      0.171  0.829  0.000  0.000     1.267     1.764
 364   1 H      0.037  0.963  0.000  0.000     2.487     2.466
 365   1 H      0.059  0.941  0.000  0.000     2.212     2.326
 366   1 H      0.039  0.961  0.000  0.000     2.461     2.453
 367   1 H      0.052  0.948  0.000  0.000     2.289     2.366
 368   1 H      0.041  0.959  0.000  0.000     2.437     2.441
 369   1 H      0.007  0.993  0.000  0.000     2.934     2.679
 370   1 H      0.037  0.963  0.000  0.000     2.486     2.466
 371   1 H      0.038  0.962  0.000  0.000     2.475     2.460
 372   7 N     -0.392  1.311  4.081  0.000    30.163     8.157
 373   6 C      0.028  1.060  2.912  0.000    20.121     6.389
 374   6 C      0.265  1.049  2.686  0.000    22.533     7.774
 375   8 O     -0.501  1.744  4.757  0.000    23.809     6.542
 376   6 C     -0.077  1.058  3.019  0.000    21.972     6.673
 377   6 C     -0.085  1.055  3.030  0.000    22.111     6.694
 378   6 C     -0.022  1.052  2.970  0.000    21.056     6.548
 379   7 N     -0.141  1.207  3.934  0.000    24.053     7.284
 380   6 C      0.234  1.017  2.749  0.000    23.095     7.868
 381   7 N     -0.261  1.233  4.028  0.000    26.766     7.684
 382   7 N     -0.240  1.223  4.017  0.000    26.280     7.614
 383   1 H      0.152  0.848  0.000  0.000     1.390     1.847
 384   1 H      0.050  0.950  0.000  0.000     2.322     2.383
 385   1 H      0.052  0.948  0.000  0.000     2.295     2.369
 386   1 H      0.049  0.951  0.000  0.000     2.338     2.391
 387   1 H      0.070  0.930  0.000  0.000     2.082     2.256
 388   1 H      0.072  0.928  0.000  0.000     2.066     2.248
 389   1 H      0.073  0.927  0.000  0.000     2.052     2.240
 390   1 H      0.081  0.919  0.000  0.000     1.971     2.195
 391   1 H      0.215  0.785  0.000  0.000     1.033     1.592
 392   1 H      0.236  0.764  0.000  0.000     0.941     1.520
 393   1 H      0.259  0.741  0.000  0.000     0.850     1.444
 394   1 H      0.250  0.750  0.000  0.000     0.883     1.472
 395   1 H      0.260  0.740  0.000  0.000     0.845     1.440
 396   7 N     -0.172  1.245  3.927  0.000    24.724     7.385
 397   6 C      0.028  1.058  2.913  0.000    20.100     6.384
 398   6 C      0.202  1.085  2.713  0.000    23.700     7.973
 399   8 O     -0.356  1.756  4.600  0.000    20.814     6.117
 400   6 C     -0.080  1.056  3.024  0.000    22.024     6.680
 401   6 C      0.016  1.078  2.905  0.000    27.641     8.624
 402   6 C     -0.039  1.081  2.958  0.000    28.971     8.827
 403   6 C     -0.039  1.079  2.960  0.000    28.979     8.828
 404   6 C     -0.037  1.080  2.957  0.000    28.926     8.820
 405   6 C     -0.033  1.079  2.954  0.000    28.829     8.805
 406   6 C     -0.036  1.078  2.958  0.000    28.897     8.815
 407   1 H      0.240  0.760  0.000  0.000     0.924     1.506
 408   1 H      0.087  0.913  0.000  0.000     1.907     2.160
 409   1 H      0.076  0.924  0.000  0.000     2.026     2.226
 410   1 H      0.075  0.925  0.000  0.000     2.028     2.227
 411   1 H      0.041  0.959  0.000  0.000     2.432     2.439
 412   1 H      0.044  0.956  0.000  0.000     2.400     2.423
 413   1 H      0.036  0.964  0.000  0.000     2.508     2.477
 414   1 H      0.040  0.960  0.000  0.000     2.454     2.450
 415   1 H      0.024  0.976  0.000  0.000     2.671     2.556
 416   7 N     -0.404  1.318  4.086  0.000    30.490     8.201
 417   6 C      0.050  1.052  2.898  0.000    19.764     6.333
 418   6 C      0.204  1.095  2.701  0.000    23.669     7.968
 419   8 O     -0.393  1.759  4.635  0.000    21.551     6.224
 420   6 C     -0.117  1.042  3.075  0.000    22.796     6.807
 421   1 H      0.190  0.810  0.000  0.000     1.157     1.685
 422   1 H      0.033  0.967  0.000  0.000     2.549     2.497
 423   1 H      0.040  0.960  0.000  0.000     2.447     2.446
 424   1 H      0.062  0.938  0.000  0.000     2.178     2.308
 425   1 H      0.066  0.934  0.000  0.000     2.128     2.281
 426   1 H      0.183  0.817  0.000  0.000     1.199     1.715
 427   1 H      0.087  0.913  0.000  0.000     1.905     2.158
 428   1 H      0.183  0.817  0.000  0.000     1.199     1.715
 429   1 H      0.078  0.922  0.000  0.000     1.997     2.210
 430   1 H      0.183  0.817  0.000  0.000     1.196     1.713
 431   1 H      0.076  0.924  0.000  0.000     2.021     2.223
 432   1 H      0.186  0.814  0.000  0.000     1.180     1.702
 433   1 H      0.060  0.940  0.000  0.000     2.196     2.317
 434   1 H      0.165  0.835  0.000  0.000     1.305     1.790
 435   1 H      0.069  0.931  0.000  0.000     2.091     2.261
 436   1 H      0.194  0.806  0.000  0.000     1.139     1.672
 437   1 H      0.086  0.914  0.000  0.000     1.914     2.163
 438   1 H      0.179  0.821  0.000  0.000     1.217     1.728
 439   1 H      0.068  0.932  0.000  0.000     2.112     2.272
 440   1 H      0.190  0.810  0.000  0.000     1.160     1.687
 441   1 H      0.081  0.919  0.000  0.000     1.969     2.194
 442   1 H      0.187  0.813  0.000  0.000     1.175     1.698
 443   1 H      0.081  0.919  0.000  0.000     1.972     2.196
 444   1 H      0.177  0.823  0.000  0.000     1.233     1.739
 445   1 H      0.080  0.920  0.000  0.000     1.976     2.198
 446   1 H      0.185  0.815  0.000  0.000     1.184     1.705
 447   1 H      0.075  0.925  0.000  0.000     2.034     2.230
 448   1 H      0.175  0.825  0.000  0.000     1.242     1.745
 449   1 H      0.073  0.927  0.000  0.000     2.048     2.238

 Mol. C6AA /au·bohr⁶  :    1761981.471199
 Mol. C8AA /au·bohr⁸  :   38423663.061380
 Mol. α(0) /au        :       1978.786529

 
molecular dipole:
                 x           y           z       tot (Debye)
 q only:     -532.018    -204.937    -454.163
   full:     -530.927    -208.928    -455.754    1856.117
molecular quadrupole (traceless):
                xx          xy          yy          xz          yz          zz
 q only:   -79404.848  -81888.303  101417.270 -180889.271  -69489.182  -22012.422
  q+dip:   -78058.772  -83257.192  100625.451 -181056.568  -71138.147  -22566.678
   full:   -78061.297  -83255.286  100628.086 -181052.721  -71131.531  -22566.789
speedup 13.93
cpu  time for grad   50.40 s
wall time for grad    3.62 s

SCC energy    :    -678.8441835
rep           :       8.2830747
ES            :       2.2487781
AES           :      -0.0982835
AXC           :       0.2318090
disp          :      -0.5590769
XB            :       0.0000000
fix           :       0.0000000
Gborn         :       0.0000000
Gsasa         :       0.0000000
Ghb           :       0.0000000
Gshift        :       0.0000000
Gsolv         :      -0.6115850     -383.78
Etot ala COSMO:    -678.8441835
grad norm     :       0.7687027
total E       :    -670.5082612
atomizationE  :     122.7620334    77034.34
(atE without considering molecular charge,
 total energy contains solvation terms)
H-L gap (eV)  :          0.9883

------------------------------------------------------------------------
 * finished run on 2019/02/13 at 00:18:11.834     
------------------------------------------------------------------------
 total:
 * wall-time:     0 d,  0 h,  0 min,  4.057 sec
 *  cpu-time:     0 d,  0 h,  0 min, 57.179 sec
 * ratio c/w:    14.095 speedup
 SCF:
 * wall-time:     0 d,  0 h,  0 min,  3.815 sec
 *  cpu-time:     0 d,  0 h,  0 min, 53.548 sec
 * ratio c/w:    14.035 speedup

