      -----------------------------------------------------------      
     |                   =====================                   |     
     |                           x T B                           |     
     |                   =====================                   |     
     |                         S. Grimme                         |     
     |          Mulliken Center for Theoretical Chemistry        |     
     |                    University of Bonn                     |     
     |                Version 6.1 RC1 (SAW190329)                |     
      -----------------------------------------------------------      

   This program is distributed in the hope that it will be useful,
   but WITHOUT ANY WARRANTY; without even the implied warranty of
   MERCHANTABILITY or FITNESS FOR A PARTICULAR PURPOSE.
   
   FOR NON-COMMERCIAL, ACADEMIA USE ONLY.
   
   Cite this work as:
   S. Grimme, C. Bannwarth, P. Shushkov, J. Comput. Theory Chem., 2017,
   13, 1989-2009. DOI: 10.1021/acs.jctc.7b00118
   C. Bannwarth, S. Ehlert and S. Grimme., J. Comput. Theory Chem., 2019,
   just accepted. DOI: 10.1021/acs.jctc.8b01176
   
   for sTDA-xTB:
   S. Grimme and C. Bannwarth, J. Chem. Phys., 2016, 145, 054103.
   DOI: 10.1063/1.4959605
   
   in the mass-spec context:
   V. Asgeirsson, C. Bauer and S. Grimme, Chem. Sci., 2017, 8, 4879.
   DOI: 10.1039/c7sc00601b
   
   for metadynamics refer to:
   S. Grimme, ChemRxiv, Preprint. DOI: 10.26434/chemrxiv.7660532.v1
   
   with help from (in alphabetical order)
   C. Bannwarth, F. Bohle, G. Brandenburg, E. Caldeweyher, M. Checinski,
   S. Dohm, S. Ehlert, S. Ehrlich, F. März, H. Neugebauer, J. Pisarek,
   P. Pracht, P. Shushkov, and S. Spicher.
   
 * started run on 2019/05/31 at 06:33:25.137     

           -------------------------------------------------
          |                Calculation Setup                |
           -------------------------------------------------

          program call               : /home/lum/qr/xtb-190329/bin/xtb xtb_tmp.xyz --chrg -1 --grad --gfn 2 --etemp 500 --acc 0.1 --gbsa h2o --parallel 2
          hostname                   : cu39
          coordinate file            : xtb_tmp.xyz
          omp threads                :                     2
          number of atoms            :                   385
          number of electrons        :                  1080
          charge                     :                    -1
          spin                       :                   0.0
          first test random number   :      0.10372558181019


molecular fragmentation (1/2 indicates fragments):
111111111111111111111111111111111111111111111111111111111111111111111222
222222222222222222222222222222222222222222222222222222222222222222222222
222222222222222222222222222222222222222222222222222222222222222222222222
222222222222222222222222222222222222222222222222222222222222222222222222
222222222222222222222222222222222222222222222222222222222222222222222222
2222222222222222211222222
# atoms in fragment 1/2:    71   314
 fragment masses (1/2) :      453.58     2302.51
CMA distance (Bohr)    :  18.691
constraining FC (au)   :  0.0500

########################################################################
# WARNING! Please study the warnings concerning your input carefully
#  - XTBPATH is not set, using XTBHOME instead
#  - Process number higher than OMP_NUM_THREADS, I hope you know what you are doing.
########################################################################

           ------------------------------------------------- 
          |                 G F N 2 - x T B                 |
          | Geometry, Frequencies, Noncovalent interactions |
          |            JCTC 2018 parametrisation            |
           ------------------------------------------------- 
 
             k(s)              :                1.8500
             k(p)              :                2.2300
             k(d)              :                2.2300
             k(f)              :                2.0000
             kEN (H0ij)        :               -2.0000
             D4 a1             :                0.5200
             D4 a2             :                5.0000
             D4 s6             :                1.0000
             D4 s8             :                2.7000
             D4 s9             :                5.0000
             alphaj            :                2.0000

  Z AO/shell   Hii/eV     exponent
  1     Wed Apr 25 08:07:45 CEST 2018   EN: 2.200 GM2: 0.406  GM3: 0.0800  RAES: 1.40
     1s    -10.707211    1.230000
  6     Wed Apr 25 08:07:45 CEST 2018   EN: 2.550 GM2: 0.538  GM3: 0.1500  RAES: 3.00
     2s    -13.970922    2.096432
     2p    -10.063292    1.800000
  7     Wed Apr 25 08:07:45 CEST 2018   EN: 3.040 GM2: 0.461  GM3:-0.0640  RAES: 1.90
     2s    -16.686243    2.339881
     2p    -12.523956    2.014332
  8     Wed Apr 25 08:07:45 CEST 2018   EN: 3.440 GM2: 0.452  GM3:-0.0517  RAES: 1.80
     2s    -20.229985    2.439742
     2p    -15.503117    2.137023

 Solvent             : h2o
 Using internal parameter file: .param_gbsa2_h2o
 Gsolv ref. state (COSMO-RS): gsolv [1 M gas/solution]
 temperature (mdtemp)       :    298.150000000000     
 dielectric constant        :    80.2000000000000     
 rho                        :    1.00000000000000     
 mass                       :    18.0000000000000     
 surface tension            :    15.5689454083859     
 probe radius               :   0.975313790000000     
 vdW radii scaling          :    1.00000000000000     
 Gshift (Eh)                :   1.857443126794793E-003
 c1                         :    1.55243817000000     
 soset                      :   0.130326360000000     
 HB correction              :  T
 Number of grid points      :          230

            Z     q(EN)     CN     RAES       Cart. coordinates
     1  N   5.0   -0.70    3.01    1.93    46.56790    19.56208    48.93115
     2  C   4.0    0.06    3.98    3.58    43.99390    19.44797    49.88298
     3  C   4.0    0.25    3.02    3.02    43.23358    16.65153    49.53992
     4  O   6.0   -0.40    1.00    1.80    44.71194    15.18960    48.49700
     5  C   4.0   -0.15    3.98    3.59    42.29014    21.29749    48.38476
     6  C   4.0   -0.11    3.97    3.58    41.12984    23.47817    49.91459
     7  C   4.0   -0.23    3.98    3.59    43.08165    25.17334    51.18475
     8  C   4.0   -0.22    3.99    3.60    39.51085    25.08135    48.14542
     9  H   1.0    0.30    1.00    1.43    46.98645    18.03723    47.83999
    10  H   1.0    0.11    0.99    1.43    43.98111    19.93127    51.89828
    11  H   1.0    0.10    0.99    1.43    43.44210    22.09423    46.87268
    12  H   1.0    0.11    0.99    1.43    40.77305    20.24933    47.45822
    13  H   1.0    0.10    0.99    1.43    39.90829    22.68839    51.39304
    14  H   1.0    0.10    0.99    1.43    42.12499    26.44989    52.47646
    15  H   1.0    0.10    0.99    1.43    44.47468    24.10726    52.24648
    16  H   1.0    0.10    0.99    1.43    44.11441    26.29082    49.79794
    17  H   1.0    0.11    0.99    1.43    38.45142    26.47522    49.21466
    18  H   1.0    0.10    0.99    1.43    40.69904    26.07465    46.79377
    19  H   1.0    0.12    0.99    1.43    38.19797    23.90389    47.10111
    20  N   5.0   -0.35    3.03    1.93    40.99997    15.82842    50.37901
    21  C   4.0    0.07    4.03    3.66    40.44146    13.12625    50.33970
    22  C   4.0    0.30    3.00    3.02    41.40877    11.79802    47.96012
    23  O   6.0   -0.40    1.00    1.80    42.70410     9.89271    48.08512
    24  C   4.0   -0.15    4.00    3.63    37.55719    12.95225    50.65216
    25  C   4.0   -0.15    4.01    3.63    36.61650    15.68314    50.52450
    26  C   4.0   -0.06    4.02    3.66    38.88586    17.19901    51.44686
    27  H   1.0    0.12    0.99    1.43    41.42937    12.20809    51.91622
    28  H   1.0    0.12    0.99    1.43    36.72275    11.78708    49.18047
    29  H   1.0    0.09    0.99    1.43    37.09615    12.16171    52.49174
    30  H   1.0    0.11    0.99    1.43    36.16732    16.20547    48.58703
    31  H   1.0    0.09    0.99    1.43    34.95592    15.95511    51.70336
    32  H   1.0    0.09    0.99    1.43    38.85339    19.14371    50.81074
    33  H   1.0    0.10    0.99    1.43    38.98740    17.14197    53.51147
    34  N   5.0   -0.46    3.01    1.93    40.50935    12.71007    45.76492
    35  C   4.0    0.02    3.99    3.60    41.41082    11.85908    43.32409
    36  C   4.0    0.25    3.00    3.02    40.36373    13.62754    41.28480
    37  O   6.0   -0.44    1.00    1.80    38.77930    15.20952    41.82945
    38  H   1.0    0.27    1.00    1.43    39.54262    14.36427    45.68767
    39  H   1.0    0.13    0.99    1.43    43.48052    11.86427    43.29373
    40  H   1.0    0.13    0.99    1.43    40.76644     9.92358    42.97695
    41  N   5.0   -0.49    3.01    1.93    41.28441    13.28788    38.95360
    42  C   4.0    0.07    3.98    3.59    40.70282    14.87006    36.78087
    43  C   4.0    0.26    3.01    3.02    41.83722    13.55488    34.45612
    44  O   6.0   -0.43    1.00    1.80    43.15584    11.66310    34.69092
    45  C   4.0   -0.13    3.98    3.59    41.59857    17.63012    37.14250
    46  C   4.0   -0.09    3.97    3.58    44.19963    17.93901    38.38784
    47  C   4.0   -0.20    3.98    3.59    46.34221    17.02862    36.68420
    48  C   4.0   -0.24    3.98    3.59    44.59896    20.70944    39.11017
    49  H   1.0    0.26    1.00    1.43    42.60881    11.94841    38.59355
    50  H   1.0    0.14    0.99    1.43    38.64738    14.92731    36.52021
    51  H   1.0    0.10    0.99    1.43    41.61417    18.57479    35.31037
    52  H   1.0    0.11    0.99    1.43    40.20316    18.57128    38.33781
    53  H   1.0    0.13    0.99    1.43    44.23275    16.82948    40.13578
    54  H   1.0    0.10    0.99    1.43    48.14719    17.34879    37.61565
    55  H   1.0    0.14    0.99    1.43    46.17667    15.02024    36.28082
    56  H   1.0    0.13    0.99    1.43    46.33478    18.05723    34.90268
    57  H   1.0    0.10    0.99    1.43    46.40953    20.96549    40.05575
    58  H   1.0    0.10    0.99    1.43    44.57144    21.90517    37.43941
    59  H   1.0    0.10    0.99    1.43    43.11328    21.33809    40.38566
    60  N   5.0   -0.47    3.00    1.93    41.20632    14.48412    32.17446
    61  C   4.0    0.06    3.99    3.61    42.38772    13.43901    29.92977
    62  C   4.0    0.07    3.00    3.02    45.13351    14.35869    29.75650
    63  O   6.0   -0.42    1.00    1.80    45.74908    16.51352    30.29569
    64  C   4.0   -0.21    3.98    3.59    40.99108    14.19370    27.52991
    65  H   1.0    0.24    1.00    1.43    40.41494    16.21121    32.03077
    66  H   1.0    0.13    0.99    1.43    42.36101    11.38397    30.18048
    67  H   1.0    0.10    0.99    1.43    41.79626    13.20352    25.92253
    68  H   1.0    0.12    0.99    1.43    39.00164    13.71864    27.68917
    69  H   1.0    0.12    0.99    1.43    41.18792    16.21178    27.17548
    70  N   5.0   -0.72    3.00    1.93    41.46958    43.33126    36.15194
    71  C   4.0    0.08    3.99    3.60    40.31924    42.24312    33.93460
    72  C   4.0    0.27    3.02    3.02    40.02791    39.40218    34.27188
    73  O   6.0   -0.47    1.00    1.80    38.10487    38.27959    33.60328
    74  C   4.0   -0.10    3.98    3.59    41.95212    42.74217    31.61796
    75  C   4.0    0.31    2.99    3.02    42.27866    45.62702    30.98531
    76  O   6.0   -0.40    1.00    1.80    40.56207    47.08122    31.65237
    77  O   6.0   -0.39    1.00    1.80    44.23353    46.18137    29.78992
    78  H   1.0    0.27    1.00    1.43    42.93468    44.52719    35.83358
    79  H   1.0    0.12    0.99    1.43    38.43550    43.07142    33.62895
    80  H   1.0    0.12    0.99    1.43    43.82397    41.91724    31.86562
    81  H   1.0    0.11    0.99    1.43    41.07947    41.88525    29.95500
    82  N   5.0   -0.49    3.01    1.93    42.03636    38.24169    35.25228
    83  C   4.0    0.06    4.00    3.61    42.04319    35.52963    35.61976
    84  C   4.0    0.29    3.01    3.02    40.22919    34.87387    37.77234
    85  O   6.0   -0.47    1.00    1.80    38.70474    33.13902    37.55569
    86  C   4.0   -0.15    3.98    3.59    44.70647    34.47383    36.06825
    87  C   4.0   -0.11    3.98    3.58    45.30273    32.22925    34.32484
    88  C   4.0   -0.23    3.98    3.59    48.08427    31.48876    34.51318
    89  C   4.0   -0.23    3.98    3.59    43.66135    29.93566    34.93814
    90  H   1.0    0.24    1.00    1.43    43.60778    39.25239    35.67161
    91  H   1.0    0.12    0.99    1.43    41.23272    34.67247    33.90976
    92  H   1.0    0.10    0.99    1.43    46.05821    35.99136    35.71277
    93  H   1.0    0.10    0.99    1.43    44.90919    33.88383    38.03369
    94  H   1.0    0.11    0.99    1.43    44.91813    32.81247    32.37428
    95  H   1.0    0.10    0.99    1.43    48.48735    29.95277    33.20790
    96  H   1.0    0.10    0.99    1.43    49.30136    33.08056    34.06076
    97  H   1.0    0.10    0.99    1.43    48.52202    30.83737    36.41144
    98  H   1.0    0.09    0.99    1.43    43.97762    28.46678    33.53434
    99  H   1.0    0.10    0.99    1.43    44.16159    29.17929    36.78313
   100  H   1.0    0.12    0.99    1.43    41.66213    30.40873    34.95991
   101  N   5.0   -0.49    3.01    1.93    40.39327    36.28173    39.84636
   102  C   4.0    0.06    3.99    3.61    38.66370    35.91125    41.95158
   103  C   4.0    0.29    3.01    3.02    35.93225    35.97312    40.99704
   104  O   6.0   -0.46    1.00    1.80    34.37216    34.36986    41.61862
   105  C   4.0   -0.15    3.99    3.60    39.22499    37.90618    43.96888
   106  C   4.0   -0.10    3.97    3.58    37.58364    37.72875    46.36066
   107  C   4.0   -0.23    3.98    3.59    39.04609    38.77030    48.62671
   108  C   4.0   -0.21    3.98    3.59    35.09791    39.16979    46.05544
   109  H   1.0    0.23    1.00    1.43    41.70347    37.67525    39.99061
   110  H   1.0    0.11    0.99    1.43    38.95742    34.01403    42.74110
   111  H   1.0    0.10    0.99    1.43    41.20522    37.63768    44.48071
   112  H   1.0    0.11    0.99    1.43    39.02560    39.77131    43.11035
   113  H   1.0    0.12    0.99    1.43    37.15270    35.73417    46.71340
   114  H   1.0    0.11    0.99    1.43    37.88613    38.68535    50.31951
   115  H   1.0    0.09    0.99    1.43    40.74751    37.66813    48.95764
   116  H   1.0    0.10    0.99    1.43    39.57576    40.72507    48.28553
   117  H   1.0    0.11    0.99    1.43    34.03038    39.14110    47.81171
   118  H   1.0    0.10    0.99    1.43    35.45946    41.12608    45.53661
   119  H   1.0    0.13    0.99    1.43    33.93337    38.32370    44.59222
   120  N   5.0   -0.47    3.01    1.93    35.38399    37.90896    39.48292
   121  C   4.0    0.07    3.99    3.61    32.87511    38.29662    38.46549
   122  C   4.0    0.30    3.01    3.02    32.08847    36.04200    36.83886
   123  O   6.0   -0.46    1.00    1.80    30.04483    34.99795    37.17957
   124  C   4.0   -0.22    3.98    3.59    32.77826    40.74593    36.96023
   125  H   1.0    0.24    1.00    1.43    36.68851    39.25583    39.08278
   126  H   1.0    0.12    0.99    1.43    31.50760    38.37609    40.02865
   127  H   1.0    0.11    0.99    1.43    30.89144    41.04551    36.21090
   128  H   1.0    0.10    0.99    1.43    33.28496    42.32384    38.17132
   129  H   1.0    0.13    0.99    1.43    34.11889    40.67706    35.40543
   130  N   5.0   -0.47    3.01    1.93    33.71718    35.34325    35.05264
   131  C   4.0    0.07    4.00    3.61    33.21122    33.17500    33.44419
   132  C   4.0    0.30    3.01    3.02    32.59395    30.88488    35.10759
   133  O   6.0   -0.46    1.00    1.80    30.70375    29.59129    34.74278
   134  C   4.0   -0.15    3.98    3.59    35.50895    32.62996    31.76349
   135  C   4.0   -0.17    3.98    3.59    35.50904    29.97760    30.61094
   136  C   4.0   -0.16    3.98    3.58    33.30140    29.46316    28.81505
   137  C   4.0   -0.06    3.98    3.59    33.23365    26.65547    28.15469
   138  N   5.0   -0.72    3.97    2.78    31.15567    26.03908    26.36250
   139  H   1.0    0.30    1.00    1.43    35.31279    36.35671    34.70611
   140  H   1.0    0.12    0.99    1.43    31.52292    33.55529    32.29993
   141  H   1.0    0.11    0.99    1.43    35.59569    34.05949    30.28322
   142  H   1.0    0.13    0.99    1.43    37.19198    32.83490    32.93634
   143  H   1.0    0.10    0.99    1.43    37.28700    29.71713    29.60269
   144  H   1.0    0.12    0.99    1.43    35.44594    28.59325    32.13588
   145  H   1.0    0.12    0.99    1.43    31.53739    29.97500    29.75171
   146  H   1.0    0.10    0.99    1.43    33.52042    30.60806    27.11758
   147  H   1.0    0.10    0.99    1.43    35.03298    26.07443    27.34072
   148  H   1.0    0.12    0.99    1.43    32.92262    25.57663    29.88342
   149  H   1.0    0.31    1.00    1.43    30.11902    24.38754    27.08641
   150  H   1.0    0.24    1.00    1.43    29.91380    27.51795    26.22619
   151  H   1.0    0.24    1.00    1.43    31.82238    25.63636    24.59370
   152  N   5.0   -0.48    3.01    1.93    34.32611    30.38291    36.85780
   153  C   4.0    0.07    4.00    3.62    34.11632    28.25929    38.56403
   154  C   4.0    0.32    3.02    3.02    31.43315    28.08233    39.58575
   155  O   6.0   -0.44    1.00    1.80    30.13993    26.19436    39.25714
   156  C   4.0   -0.14    3.99    3.60    35.96469    28.48282    40.78904
   157  C   4.0   -0.03    3.12    3.03    35.05563    26.93531    42.97015
   158  C   4.0    0.02    3.21    3.04    33.96699    27.80087    45.14518
   159  C   4.0    0.01    3.18    3.03    35.01224    24.24263    43.10514
   160  N   5.0   -0.48    3.11    1.94    33.26783    25.81348    46.63709
   161  C   4.0    0.11    3.22    3.04    33.88530    23.60954    45.45008
   162  C   4.0   -0.12    3.02    3.02    35.84255    22.32320    41.50268
   163  C   4.0   -0.11    3.02    3.02    33.63027    21.11501    46.23399
   164  C   4.0   -0.09    3.03    3.02    35.54094    19.85943    42.26671
   165  C   4.0   -0.10    3.03    3.02    34.47151    19.26512    44.60592
   166  H   1.0    0.31    1.00    1.43    35.85158    31.52396    37.07735
   167  H   1.0    0.11    0.99    1.43    34.45668    26.50016    37.51662
   168  H   1.0    0.10    0.99    1.43    37.83853    27.87906    40.18007
   169  H   1.0    0.14    0.99    1.43    36.05636    30.45722    41.35329
   170  H   1.0    0.12    1.00    1.43    33.65563    29.71640    45.74231
   171  H   1.0    0.24    1.00    1.43    32.43546    25.95379    48.33750
   172  H   1.0    0.10    1.00    1.43    36.70593    22.75968    39.70573
   173  H   1.0    0.12    1.00    1.43    32.83249    20.66451    48.05668
   174  H   1.0    0.15    1.00    1.43    36.14561    18.33522    41.06417
   175  H   1.0    0.12    1.00    1.43    34.29392    17.29321    45.10055
   176  N   5.0   -0.48    3.01    1.93    30.62226    30.07503    40.90444
   177  C   4.0    0.09    4.00    3.62    28.18888    29.94470    42.14222
   178  C   4.0    0.31    3.01    3.02    26.05644    29.75469    40.18737
   179  O   6.0   -0.37    1.00    1.80    24.32357    28.23649    40.41703
   180  C   4.0   -0.13    3.98    3.59    27.80783    32.24551    43.85670
   181  C   4.0    0.09    3.21    3.04    25.12454    32.54746    44.65376
   182  N   5.0   -0.46    3.15    1.94    23.65679    30.60337    45.53321
   183  C   4.0    0.06    3.36    3.07    23.60022    34.63629    44.74125
   184  C   4.0    0.18    3.41    3.08    21.35432    31.58396    46.05842
   185  N   5.0   -0.38    2.09    1.90    21.26794    34.00962    45.62924
   186  H   1.0    0.29    1.00    1.43    31.75196    31.59503    41.18593
   187  H   1.0    0.16    0.99    1.43    28.09382    28.17208    43.22486
   188  H   1.0    0.12    0.99    1.43    29.01950    32.05574    45.52101
   189  H   1.0    0.12    0.99    1.43    28.39609    33.94317    42.84370
   190  H   1.0    0.25    1.00    1.43    24.14389    28.76210    45.58647
   191  H   1.0    0.11    1.00    1.43    24.02996    36.54862    44.23233
   192  H   1.0    0.12    1.00    1.43    19.82100    30.46593    46.76317
   193  N   5.0   -0.48    3.01    1.93    26.19423    31.39918    38.28601
   194  C   4.0    0.09    4.00    3.62    24.26731    31.45808    36.34347
   195  C   4.0    0.30    3.01    3.02    23.67040    28.79291    35.36149
   196  O   6.0   -0.37    1.00    1.80    21.49848    28.07586    35.03496
   197  C   4.0   -0.14    3.98    3.59    25.17135    33.12375    34.16058
   198  C   4.0   -0.12    3.98    3.59    23.19893    33.42595    32.07943
   199  C   4.0    0.28    2.99    3.02    20.72432    34.69012    32.81140
   200  O   6.0   -0.38    1.00    1.80    18.78923    34.29522    31.61470
   201  N   5.0   -0.65    3.00    1.93    20.80161    36.33670    34.73992
   202  H   1.0    0.30    1.00    1.43    27.69265    32.58209    38.09300
   203  H   1.0    0.15    0.99    1.43    22.49412    32.17201    37.14808
   204  H   1.0    0.12    0.99    1.43    25.76110    34.95142    34.90938
   205  H   1.0    0.13    0.99    1.43    26.85692    32.23366    33.37716
   206  H   1.0    0.11    0.99    1.43    23.99002    34.54047    30.53224
   207  H   1.0    0.14    0.99    1.43    22.68868    31.57969    31.31498
   208  H   1.0    0.26    1.00    1.43    22.37673    36.63488    35.75696
   209  H   1.0    0.29    1.00    1.43    19.18199    37.17008    35.29140
   210  N   5.0   -0.48    3.01    1.93    25.71971    27.47786    34.68611
   211  C   4.0    0.09    3.99    3.61    25.57204    24.98290    33.56042
   212  C   4.0    0.32    3.01    3.02    25.04250    23.01430    35.61607
   213  O   6.0   -0.39    1.00    1.80    23.01991    21.87639    35.73289
   214  C   4.0   -0.10    3.98    3.59    27.97508    24.53923    32.04705
   215  C   4.0    0.31    2.99    3.02    27.88114    22.03114    30.51351
   216  O   6.0   -0.46    1.01    1.80    28.84475    22.11398    28.33500
   217  O   6.0   -0.35    1.00    1.80    26.92804    20.15699    31.51182
   218  H   1.0    0.30    1.00    1.43    27.47061    28.14748    35.09008
   219  H   1.0    0.16    0.99    1.43    23.90682    24.95680    32.32334
   220  H   1.0    0.11    0.99    1.43    28.22815    26.14120    30.77444
   221  H   1.0    0.12    0.99    1.43    29.58865    24.44366    33.33053
   222  N   5.0   -0.47    3.01    1.93    26.86928    22.75850    37.33200
   223  C   4.0    0.08    3.99    3.61    26.63142    21.17917    39.54947
   224  C   4.0    0.30    3.02    3.02    25.19566    22.60290    41.63231
   225  O   6.0   -0.39    1.00    1.80    26.17878    23.34063    43.58045
   226  C   4.0   -0.10    3.99    3.61    29.23257    20.40743    40.54698
   227  C   4.0   -0.02    3.03    3.02    30.73840    18.90385    38.67908
   228  C   4.0   -0.09    3.04    3.02    32.36087    20.10157    36.99863
   229  C   4.0   -0.08    3.03    3.02    30.58034    16.28866    38.62306
   230  C   4.0   -0.08    3.03    3.02    33.84018    18.73411    35.34295
   231  C   4.0   -0.08    3.03    3.02    32.02994    14.89305    36.95719
   232  C   4.0    0.11    3.03    3.02    33.68040    16.11035    35.32123
   233  O   6.0   -0.48    1.99    1.83    35.21328    14.80461    33.70819
   234  H   1.0    0.30    1.00    1.43    28.28963    24.03509    37.43519
   235  H   1.0    0.14    0.99    1.43    25.50811    19.52799    38.99335
   236  H   1.0    0.16    0.99    1.43    30.23455    22.13785    41.04215
   237  H   1.0    0.13    0.99    1.43    28.93921    19.32652    42.27933
   238  H   1.0    0.12    1.00    1.43    32.47912    22.13841    37.03535
   239  H   1.0    0.13    1.00    1.43    29.32643    15.32227    39.91144
   240  H   1.0    0.12    1.00    1.43    35.12026    19.66404    34.05571
   241  H   1.0    0.12    0.99    1.43    31.88317    12.85478    36.93703
   242  H   1.0    0.26    0.99    1.43    34.76716    13.02971    33.72386
   243  N   5.0   -0.48    3.00    1.93    22.68406    22.76455    41.22158
   244  C   4.0    0.04    4.00    3.62    21.16158    24.17510    43.00906
   245  C   4.0    0.28    3.00    3.02    21.43374    23.10438    45.68004
   246  O   6.0   -0.45    1.00    1.80    21.31105    24.43509    47.55606
   247  H   1.0    0.29    1.00    1.43    22.06122    22.56988    39.42061
   248  H   1.0    0.16    0.99    1.43    21.72219    26.16512    43.03156
   249  H   1.0    0.12    0.99    1.43    19.18540    24.04836    42.43896
   250  N   5.0   -0.46    3.01    1.93    21.60042    20.57149    45.72711
   251  C   4.0    0.07    3.98    3.59    21.90677    19.05778    48.01128
   252  C   4.0    0.07    3.00    3.02    22.67525    16.36571    47.21465
   253  O   6.0   -0.42    1.00    1.80    24.70797    16.05044    46.14841
   254  C   4.0   -0.14    3.98    3.58    19.57040    19.23793    49.72471
   255  C   4.0   -0.12    3.98    3.59    20.07972    18.05722    52.33682
   256  C   4.0    0.27    3.00    3.02    17.63917    17.35418    53.68234
   257  O   6.0   -0.41    1.00    1.80    17.12849    15.18466    54.30532
   258  N   5.0   -0.65    3.00    1.93    16.11720    19.30879    54.20654
   259  H   1.0    0.27    1.00    1.43    21.97928    19.75118    44.03978
   260  H   1.0    0.14    0.99    1.43    23.53759    19.79086    49.07701
   261  H   1.0    0.13    0.99    1.43    19.14635    21.24363    49.93466
   262  H   1.0    0.13    0.99    1.43    17.93842    18.36904    48.80287
   263  H   1.0    0.14    0.99    1.43    21.24241    16.36091    52.16976
   264  H   1.0    0.11    0.99    1.43    21.11411    19.40387    53.50450
   265  H   1.0    0.26    1.00    1.43    16.54262    21.07725    53.65111
   266  H   1.0    0.28    1.00    1.43    14.38239    18.97222    54.91801
   267  N   5.0   -0.66    3.00    1.93    25.84492    11.75136    48.83483
   268  C   4.0    0.07    3.98    3.59    27.90613    11.28647    50.54688
   269  C   4.0    0.07    3.00    3.02    27.63666    13.01879    52.86951
   270  O   6.0   -0.39    1.00    1.80    26.23787    14.84193    52.91484
   271  C   4.0   -0.11    3.99    3.60    30.45900    11.77497    49.26473
   272  C   4.0    0.27    3.00    3.02    30.98304     9.79070    47.23922
   273  O   6.0   -0.40    1.00    1.80    29.76973     9.65763    45.28626
   274  N   5.0   -0.66    3.00    1.93    32.89077     8.20252    47.77221
   275  H   1.0    0.33    1.00    1.43    26.05536    13.09502    47.47839
   276  H   1.0    0.11    0.99    1.43    27.74932     9.31746    51.17729
   277  H   1.0    0.12    0.99    1.43    30.35653    13.61484    48.33788
   278  H   1.0    0.09    0.99    1.43    31.96901    11.80947    50.66577
   279  H   1.0    0.28    1.00    1.43    33.34604     6.85395    46.50680
   280  H   1.0    0.25    1.00    1.43    33.84942     8.25397    49.41218
   281  N   5.0   -0.71    3.00    1.93    24.14440    25.46173    65.35962
   282  C   4.0    0.07    3.99    3.59    24.24950    24.98633    62.66081
   283  C   4.0    0.28    3.01    3.02    25.53704    27.22670    61.33833
   284  O   6.0   -0.42    1.00    1.80    24.45413    29.20683    60.85630
   285  C   4.0   -0.15    3.98    3.59    21.62989    24.49552    61.54661
   286  C   4.0   -0.15    3.98    3.58    20.32454    22.20405    62.73491
   287  C   4.0   -0.04    3.98    3.59    21.78322    19.71354    62.31064
   288  N   5.0   -0.48    3.02    1.93    20.31525    17.83280    60.94548
   289  C   4.0    0.37    3.01    3.02    18.29394    16.65025    61.85478
   290  N   5.0   -0.64    3.02    1.93    17.20743    14.84085    60.48626
   291  N   5.0   -0.65    3.01    1.93    17.29068    17.30654    64.06766
   292  H   1.0    0.27    1.00    1.43    22.97826    26.83276    65.99141
   293  H   1.0    0.10    0.99    1.43    25.44312    23.31281    62.44841
   294  H   1.0    0.13    0.99    1.43    20.47910    26.18143    61.82081
   295  H   1.0    0.11    0.99    1.43    21.83710    24.21543    59.51627
   296  H   1.0    0.10    0.99    1.43    20.09901    22.57114    64.74896
   297  H   1.0    0.13    0.99    1.43    18.45427    22.04348    61.89104
   298  H   1.0    0.10    0.99    1.43    23.44289    20.06115    61.14916
   299  H   1.0    0.10    0.99    1.43    22.44507    18.93780    64.10888
   300  H   1.0    0.24    1.00    1.43    21.22128    16.96960    59.49867
   301  H   1.0    0.29    1.00    1.43    17.80279    14.45077    58.71564
   302  H   1.0    0.27    1.00    1.43    15.60412    14.00473    61.07765
   303  H   1.0    0.25    1.00    1.43    18.13417    18.60744    65.16748
   304  H   1.0    0.26    1.00    1.43    15.74863    16.41505    64.73473
   305  N   5.0   -0.50    3.01    1.93    27.97663    26.80621    60.79074
   306  C   4.0    0.08    3.99    3.60    29.68016    28.75980    59.88952
   307  C   4.0    0.28    3.00    3.02    29.74830    28.80233    56.97179
   308  O   6.0   -0.43    1.00    1.80    31.54492    28.03299    55.75647
   309  C   4.0   -0.12    3.99    3.60    32.32240    28.29616    60.98166
   310  C   4.0   -0.03    3.03    3.02    33.77083    30.70364    61.37485
   311  C   4.0   -0.09    3.04    3.02    33.19375    32.25399    63.41129
   312  C   4.0   -0.08    3.03    3.02    35.69788    31.39963    59.74532
   313  C   4.0   -0.09    3.03    3.02    34.55044    34.44020    63.83377
   314  C   4.0   -0.09    3.03    3.02    37.06583    33.58589    60.17216
   315  C   4.0   -0.09    3.03    3.02    36.51070    35.08961    62.23321
   316  H   1.0    0.22    1.00    1.43    28.77603    25.13497    61.25551
   317  H   1.0    0.14    0.99    1.43    28.92767    30.58971    60.50933
   318  H   1.0    0.11    0.99    1.43    32.12458    27.33349    62.79472
   319  H   1.0    0.13    0.99    1.43    33.34414    27.08072    59.66798
   320  H   1.0    0.12    1.00    1.43    31.66886    31.72541    64.65772
   321  H   1.0    0.13    1.00    1.43    36.11019    30.23533    58.12264
   322  H   1.0    0.11    1.00    1.43    34.09329    35.67036    65.39109
   323  H   1.0    0.11    1.00    1.43    38.56487    34.10919    58.89015
   324  H   1.0    0.11    1.00    1.43    37.57237    36.78828    62.59247
   325  N   5.0   -0.47    3.01    1.93    27.62626    29.72788    55.93177
   326  C   4.0    0.10    3.99    3.61    27.36803    30.14940    53.24366
   327  C   4.0    0.28    3.01    3.02    27.59835    32.98635    52.65684
   328  O   6.0   -0.42    1.00    1.80    29.36778    33.82876    51.44285
   329  C   4.0    0.04    3.98    3.58    24.87002    29.05115    52.22879
   330  O   6.0   -0.50    1.99    1.82    22.88843    30.02142    53.74524
   331  C   4.0   -0.20    3.98    3.59    24.89912    26.16911    52.26656
   332  H   1.0    0.29    1.00    1.43    26.17951    30.29201    57.05025
   333  H   1.0    0.14    0.99    1.43    28.96977    29.21169    52.33002
   334  H   1.0    0.12    0.99    1.43    24.65091    29.72145    50.26752
   335  H   1.0    0.26    0.99    1.43    21.33663    29.19082    53.26186
   336  H   1.0    0.13    0.99    1.43    23.23146    25.44763    51.30975
   337  H   1.0    0.11    0.99    1.43    26.53713    25.46675    51.25270
   338  H   1.0    0.13    0.99    1.43    24.96283    25.48831    54.20367
   339  N   5.0   -0.47    3.01    1.93    25.72638    34.38163    53.64601
   340  C   4.0    0.07    3.99    3.60    25.59167    37.09869    53.36013
   341  C   4.0    0.28    3.00    3.02    24.67741    38.42698    55.77268
   342  O   6.0   -0.37    1.00    1.80    25.74313    40.29912    56.59157
   343  C   4.0   -0.20    3.98    3.59    23.86819    37.83234    51.15390
   344  H   1.0    0.27    1.00    1.43    24.19024    33.43532    54.29027
   345  H   1.0    0.15    0.99    1.43    27.51709    37.74680    52.96182
   346  H   1.0    0.11    0.99    1.43    23.83213    39.87284    50.94109
   347  H   1.0    0.12    0.99    1.43    24.59224    36.98553    49.42844
   348  H   1.0    0.12    0.99    1.43    21.95412    37.15787    51.46170
   349  N   5.0   -0.49    3.01    1.93    22.60346    37.40154    56.83379
   350  C   4.0    0.08    3.99    3.60    21.15371    38.52926    58.89300
   351  C   4.0    0.32    3.01    3.02    22.89924    40.01186    60.64914
   352  O   6.0   -0.37    1.00    1.80    22.66853    42.27166    61.02502
   353  C   4.0   -0.10    3.98    3.58    19.72441    36.46020    60.30072
   354  C   4.0    0.31    2.99    3.02    17.50364    37.48422    61.99563
   355  O   6.0   -0.38    1.00    1.80    15.60451    36.09496    62.08801
   356  O   6.0   -0.35    1.00    1.80    17.83847    39.53363    63.08399
   357  H   1.0    0.23    1.00    1.43    21.68254    35.99288    55.93050
   358  H   1.0    0.14    0.99    1.43    19.79663    39.90191    58.12651
   359  H   1.0    0.12    0.99    1.43    18.87909    35.12082    58.98148
   360  H   1.0    0.12    0.99    1.43    20.98576    35.42926    61.56508
   361  N   5.0   -0.46    3.01    1.93    24.68476    38.57591    61.75781
   362  C   4.0    0.07    3.99    3.60    26.72002    39.68325    63.19168
   363  C   4.0    0.08    3.00    3.02    29.09330    39.81167    61.52233
   364  O   6.0   -0.38    1.00    1.80    29.96412    37.87210    60.58343
   365  C   4.0   -0.12    3.99    3.60    27.38931    38.08638    65.52094
   366  C   4.0    0.09    3.23    3.04    25.40236    38.11456    67.51027
   367  N   5.0   -0.47    3.14    1.94    25.85443    39.15246    69.83242
   368  C   4.0    0.09    3.36    3.07    22.97270    37.20729    67.62040
   369  C   4.0    0.17    3.43    3.09    23.74591    38.81456    71.21054
   370  N   5.0   -0.37    2.09    1.90    21.96284    37.65549    69.94404
   371  H   1.0    0.27    1.00    1.43    24.97119    36.79836    61.13362
   372  H   1.0    0.14    0.99    1.43    26.06292    41.55296    63.75411
   373  H   1.0    0.12    0.99    1.43    27.78071    36.15791    64.89011
   374  H   1.0    0.10    0.99    1.43    29.12766    38.84783    66.33320
   375  H   1.0    0.22    1.00    1.43    27.44262    40.10323    70.44763
   376  H   1.0    0.13    1.00    1.43    21.84780    36.31570    66.18380
   377  H   1.0    0.11    1.00    1.43    23.60049    39.42263    73.14040
   378  H   1.0    0.28    1.00    1.43    46.76348    20.96511    47.98997
   379  H   1.0    0.12    1.00    1.43    46.49188    13.17581    29.18493
   380  H   1.0    0.30    1.00    1.43    40.30741    44.22522    37.01378
   381  H   1.0    0.14    1.00    1.43    21.52313    14.91035    47.56905
   382  H   1.0    0.31    1.00    1.43    25.48729    10.32709    47.97685
   383  H   1.0    0.11    1.00    1.43    28.63812    12.66590    54.43271
   384  H   1.0    0.28    1.00    1.43    23.63787    24.05205    66.16510
   385  H   1.0    0.13    1.00    1.43    29.93170    41.47393    61.19822

           ------------------------------------------------- 
          |        Self-Consistent Charge Iterations        |
           ------------------------------------------------- 

          ...................................................
          :                      SETUP                      :
          :.................................................:
          :  # basis functions                 973          :
          :  # atomic orbitals                 973          :
          :  # shells                          581          :
          :  # electrons                      1080          :
          :  max. iterations                   250          :
          :  Hamiltonian                  GFN2-xTB          :
          :  restarted?                      false          :
          :  GBSA solvation                   true          :
          :  PC potential                    false          :
          :  electronic temp.          500.0000000     K    :
          :  accuracy                    0.1000000          :
          :  -> integral cutoff          0.3500000E+02      :
          :  -> integral neglect         0.1000000E-08      :
          :  -> SCF convergence          0.1000000E-06 Eh   :
          :  -> wf. convergence          0.1000000E-04 e    :
          :  Broyden damping             0.4000000          :
          ...................................................

 iter      E             dE          RMSdq      gap      omega  full diag
   1   -618.2205542 -0.618221E+03  0.427E+00    2.11       0.0  T
   2   -619.9963904 -0.177584E+01  0.226E+00    1.42       1.0  T
   3   -620.0616255 -0.652351E-01  0.122E+00    1.88       1.0  T
   4   -620.0694164 -0.779091E-02  0.356E-01    1.29       1.0  T
   5   -620.1000207 -0.306043E-01  0.121E-01    1.46       1.0  T
   6   -620.1011161 -0.109542E-02  0.644E-02    1.54       1.0  T
   7   -620.1014746 -0.358566E-03  0.280E-02    1.57       1.0  T
   8   -620.1015317 -0.570791E-04  0.977E-03    1.60       1.0  T
   9   -620.1015398 -0.811448E-05  0.519E-03    1.60       1.0  T
  10   -620.1015426 -0.280344E-05  0.237E-03    1.60       2.1  T
  11   -620.1015431 -0.465251E-06  0.103E-03    1.60       5.0  T
  12   -620.1015432 -0.103731E-06  0.393E-04    1.60      13.0  T
  13   -620.1015432 -0.124295E-07  0.210E-04    1.60      24.3  T
  14   -620.1015432 -0.360694E-08  0.105E-04    1.60      48.6  T
  15   -620.1015432 -0.102625E-08  0.481E-05    1.60     105.9  T
  16   -620.1015432 -0.236355E-09  0.223E-05    1.60     228.6  T

   *** convergence criteria satisfied after 16 iterations ***

         #    Occupation            Energy/Eh            Energy/eV
      -------------------------------------------------------------
         1        2.0000           -0.7364024             -20.0385
       ...           ...                  ...                  ...
       534        2.0000           -0.3740854             -10.1794
       535        2.0000           -0.3690193             -10.0415
       536        2.0000           -0.3648146              -9.9271
       537        2.0000           -0.3637659              -9.8986
       538        2.0000           -0.3600142              -9.7965
       539        2.0000           -0.3587138              -9.7611
       540        2.0000           -0.3583777              -9.7520 (HOMO)
       541                         -0.2994244              -8.1478 (LUMO)
       542                         -0.2979132              -8.1066
       543                         -0.2893784              -7.8744
       544                         -0.2816239              -7.6634
       545                         -0.2493527              -6.7852
       ...                                ...                  ...
       973                          0.7251396              19.7321
      -------------------------------------------------------------
                  HL-Gap            0.0589533 Eh            1.6042 eV
             Fermi-level           -0.3285299 Eh           -8.9398 eV

 SCC (total)                   0 d,  0 h,  0 min,  6.115 sec
 SCC setup                      ...        0 min,  0.117 sec (  1.913%)
 Dispersion                     ...        0 min,  0.056 sec (  0.911%)
 integral evaluation            ...        0 min,  0.461 sec (  7.533%)
 zeroth order Hamiltonian       ...        0 min,  0.016 sec (  0.267%)
 iterations                     ...        0 min,  4.601 sec ( 75.245%)
 molecular gradient             ...        0 min,  0.837 sec ( 13.697%)
 printout                       ...        0 min,  0.026 sec (  0.432%)

         :::::::::::::::::::::::::::::::::::::::::::::::::::::
         ::                     SUMMARY                     ::
         :::::::::::::::::::::::::::::::::::::::::::::::::::::
         :: total energy             -612.546274564807 Eh   ::
         :: total w/o Gsasa/hb       -612.465117579375 Eh   ::
         :: gradient norm               0.447728935328 Eh/α ::
         :: HOMO-LUMO gap               1.604201811902 eV   ::
         ::.................................................::
         :: SCC energy               -620.121946726844 Eh   ::
         :: -> isotropic ES             1.983623037723 Eh   ::
         :: -> anisotropic ES          -0.057453938617 Eh   ::
         :: -> anisotropic XC           0.198695379012 Eh   ::
         :: -> dispersion              -0.499338876717 Eh   ::
         :: -> Gsolv                   -0.527447603531 Eh   ::
         ::    -> Gborn                -0.446290618100 Eh   ::
         ::    -> Gsasa                -0.022260951449 Eh   ::
         ::    -> Ghb                  -0.060753477109 Eh   ::
         ::    -> Gshift                0.001857443127 Eh   ::
         :: repulsion energy            7.537128122758 Eh   ::
         :: add. restraining            0.000000000000 Eh   ::
         :::::::::::::::::::::::::::::::::::::::::::::::::::::

           -------------------------------------------------
          |                Property Printout                |
           -------------------------------------------------

    * Orbital Energies and Occupations

         #    Occupation            Energy/Eh            Energy/eV
      -------------------------------------------------------------
         1        2.0000           -0.7364024             -20.0385
       ...           ...                  ...                  ...
       528        2.0000           -0.3841049             -10.4520
       529        2.0000           -0.3814486             -10.3797
       530        2.0000           -0.3790381             -10.3142
       531        2.0000           -0.3777828             -10.2800
       532        2.0000           -0.3774326             -10.2705
       533        2.0000           -0.3757289             -10.2241
       534        2.0000           -0.3740854             -10.1794
       535        2.0000           -0.3690193             -10.0415
       536        2.0000           -0.3648146              -9.9271
       537        2.0000           -0.3637659              -9.8986
       538        2.0000           -0.3600142              -9.7965
       539        2.0000           -0.3587138              -9.7611
       540        2.0000           -0.3583777              -9.7520 (HOMO)
       541                         -0.2994244              -8.1478 (LUMO)
       542                         -0.2979132              -8.1066
       543                         -0.2893784              -7.8744
       544                         -0.2816239              -7.6634
       545                         -0.2493527              -6.7852
       546                         -0.2418121              -6.5800
       547                         -0.2393551              -6.5132
       548                         -0.2381197              -6.4796
       549                         -0.2376827              -6.4677
       550                         -0.2354062              -6.4057
       551                         -0.2340027              -6.3675
       ...                                ...                  ...
       973                          0.7251396              19.7321
      -------------------------------------------------------------
                  HL-Gap            0.0589533 Eh            1.6042 eV
             Fermi-level           -0.3285299 Eh           -8.9398 eV

   #   Z        covCN         q      C6AA      α(0)
   1   7 N      2.642    -0.406    30.553     8.209
   2   6 C      3.779     0.033    20.046     6.379
   3   6 C      2.766     0.257    22.671     7.798
   4   8 O      0.860    -0.509    23.985     6.566
   5   6 C      3.805    -0.072    21.866     6.657
   6   6 C      3.848    -0.011    20.744     6.478
   7   6 C      3.756    -0.116    22.774     6.804
   8   6 C      3.760    -0.116    22.760     6.801
   9   1 H      0.860     0.166     1.295     1.782
  10   1 H      0.924     0.049     2.328     2.386
  11   1 H      0.924     0.045     2.388     2.417
  12   1 H      0.924     0.029     2.601     2.522
  13   1 H      0.924     0.031     2.566     2.505
  14   1 H      0.925     0.044     2.395     2.420
  15   1 H      0.925     0.042     2.416     2.431
  16   1 H      0.925     0.039     2.456     2.451
  17   1 H      0.925     0.041     2.438     2.442
  18   1 H      0.925     0.038     2.479     2.462
  19   1 H      0.925     0.037     2.486     2.466
  20   7 N      2.758    -0.094    23.070     7.134
  21   6 C      3.828     0.016    20.283     6.408
  22   6 C      2.751     0.291    22.063     7.691
  23   8 O      0.859    -0.498    23.733     6.532
  24   6 C      3.827    -0.080    22.002     6.675
  25   6 C      3.828    -0.074    21.897     6.658
  26   6 C      3.774    -0.017    20.906     6.515
  27   1 H      0.924     0.065     2.147     2.291
  28   1 H      0.925     0.057     2.237     2.339
  29   1 H      0.925     0.076     2.025     2.225
  30   1 H      0.925     0.056     2.248     2.345
  31   1 H      0.925     0.076     2.021     2.223
  32   1 H      0.925     0.077     2.015     2.220
  33   1 H      0.924     0.074     2.048     2.238
  34   7 N      2.688    -0.171    24.707     7.382
  35   6 C      3.742    -0.024    21.078     6.550
  36   6 C      2.750     0.274    22.369     7.744
  37   8 O      0.858    -0.466    23.036     6.435
  38   1 H      0.860     0.206     1.076     1.625
  39   1 H      0.924     0.069     2.094     2.263
  40   1 H      0.924     0.084     1.937     2.176
  41   7 N      2.690    -0.173    24.739     7.387
  42   6 C      3.787     0.017    20.311     6.419
  43   6 C      2.760     0.271    22.421     7.754
  44   8 O      0.859    -0.490    23.553     6.507
  45   6 C      3.804    -0.073    21.889     6.661
  46   6 C      3.848    -0.005    20.641     6.462
  47   6 C      3.755    -0.111    22.679     6.791
  48   6 C      3.756    -0.115    22.748     6.800
  49   1 H      0.860     0.210     1.055     1.609
  50   1 H      0.924     0.082     1.963     2.191
  51   1 H      0.924     0.055     2.257     2.349
  52   1 H      0.924     0.061     2.185     2.311
  53   1 H      0.924     0.022     2.710     2.574
  54   1 H      0.925     0.040     2.454     2.450
  55   1 H      0.925     0.028     2.613     2.528
  56   1 H      0.925     0.047     2.362     2.403
  57   1 H      0.925     0.042     2.427     2.436
  58   1 H      0.925     0.048     2.341     2.393
  59   1 H      0.925     0.037     2.483     2.464
  60   7 N      2.688    -0.159    24.430     7.341
  61   6 C      3.795     0.029    20.094     6.383
  62   6 C      2.767     0.204    23.674     7.968
  63   8 O      0.856    -0.359    20.878     6.126
  64   6 C      3.757    -0.133    23.113     6.855
  65   1 H      0.860     0.213     1.044     1.600
  66   1 H      0.924     0.092     1.858     2.132
  67   1 H      0.925     0.078     2.003     2.213
  68   1 H      0.925     0.088     1.901     2.156
  69   1 H      0.925     0.071     2.072     2.251
  70   7 N      2.638    -0.385    29.947     8.127
  71   6 C      3.788     0.046    19.811     6.339
  72   6 C      2.764     0.261    22.601     7.786
  73   8 O      0.858    -0.501    23.801     6.541
  74   6 C      3.804    -0.094    22.283     6.720
  75   6 C      2.681     0.375    20.645     7.436
  76   8 O      0.856    -0.636    27.018     6.969
  77   8 O      0.856    -0.649    27.362     7.013
  78   1 H      0.860     0.148     1.416     1.864
  79   1 H      0.923     0.024     2.675     2.558
  80   1 H      0.924     0.029     2.608     2.525
  81   1 H      0.924     0.020     2.735     2.586
  82   7 N      2.692    -0.173    24.739     7.387
  83   6 C      3.799     0.014    20.335     6.421
  84   6 C      2.758     0.273    22.389     7.749
  85   8 O      0.859    -0.477    23.276     6.468
  86   6 C      3.805    -0.081    22.051     6.685
  87   6 C      3.849    -0.013    20.773     6.483
  88   6 C      3.757    -0.120    22.847     6.815
  89   6 C      3.756    -0.122    22.892     6.822
  90   1 H      0.860     0.212     1.046     1.602
  91   1 H      0.923     0.087     1.904     2.158
  92   1 H      0.924     0.063     2.168     2.303
  93   1 H      0.924     0.064     2.152     2.294
  94   1 H      0.924     0.038     2.481     2.463
  95   1 H      0.925     0.050     2.319     2.381
  96   1 H      0.925     0.039     2.457     2.451
  97   1 H      0.925     0.047     2.357     2.401
  98   1 H      0.925     0.050     2.323     2.383
  99   1 H      0.925     0.044     2.393     2.419
 100   1 H      0.925     0.042     2.420     2.433
 101   7 N      2.691    -0.177    24.841     7.402
 102   6 C      3.798     0.015    20.331     6.420
 103   6 C      2.755     0.282    22.230     7.721
 104   8 O      0.858    -0.487    23.493     6.498
 105   6 C      3.808    -0.087    22.145     6.699
 106   6 C      3.848    -0.011    20.735     6.477
 107   6 C      3.757    -0.121    22.879     6.820
 108   6 C      3.755    -0.114    22.733     6.798
 109   1 H      0.860     0.219     1.015     1.578
 110   1 H      0.923     0.085     1.926     2.171
 111   1 H      0.924     0.078     1.996     2.209
 112   1 H      0.924     0.057     2.232     2.336
 113   1 H      0.924     0.039     2.459     2.452
 114   1 H      0.925     0.044     2.397     2.421
 115   1 H      0.925     0.049     2.328     2.386
 116   1 H      0.925     0.049     2.336     2.390
 117   1 H      0.925     0.043     2.406     2.426
 118   1 H      0.925     0.043     2.409     2.427
 119   1 H      0.925     0.027     2.635     2.538
 120   7 N      2.692    -0.174    24.758     7.390
 121   6 C      3.796     0.025    20.164     6.394
 122   6 C      2.758     0.274    22.367     7.745
 123   8 O      0.859    -0.499    23.766     6.536
 124   6 C      3.757    -0.134    23.128     6.857
 125   1 H      0.860     0.201     1.101     1.644
 126   1 H      0.923     0.072     2.067     2.248
 127   1 H      0.925     0.074     2.039     2.233
 128   1 H      0.925     0.072     2.060     2.244
 129   1 H      0.925     0.062     2.171     2.304
 130   7 N      2.690    -0.180    24.899     7.411
 131   6 C      3.798     0.017    20.293     6.414
 132   6 C      2.757     0.282    22.217     7.719
 133   8 O      0.858    -0.504    23.867     6.550
 134   6 C      3.805    -0.082    22.056     6.686
 135   6 C      3.804    -0.074    21.921     6.666
 136   6 C      3.801    -0.090    22.212     6.710
 137   6 C      3.733    -0.035    21.291     6.586
 138   7 N      3.472    -0.191    25.141     7.447
 139   1 H      0.860     0.231     0.961     1.536
 140   1 H      0.924     0.072     2.061     2.245
 141   1 H      0.925     0.074     2.047     2.237
 142   1 H      0.924     0.065     2.137     2.286
 143   1 H      0.924     0.076     2.023     2.224
 144   1 H      0.924     0.044     2.395     2.420
 145   1 H      0.924     0.056     2.249     2.345
 146   1 H      0.925     0.083     1.953     2.185
 147   1 H      0.925     0.114     1.663     2.016
 148   1 H      0.924     0.083     1.953     2.185
 149   1 H      0.858     0.302     0.706     1.317
 150   1 H      0.859     0.263     0.833     1.430
 151   1 H      0.859     0.286     0.757     1.363
 152   7 N      2.691    -0.191    25.145     7.448
 153   6 C      3.801     0.032    20.042     6.374
 154   6 C      2.767     0.292    22.044     7.689
 155   8 O      0.859    -0.497    23.721     6.530
 156   6 C      3.809    -0.080    22.014     6.679
 157   6 C      3.061    -0.040    28.929     8.820
 158   6 C      3.033    -0.011    28.264     8.720
 159   6 C      3.118    -0.020    28.323     8.717
 160   7 N      2.780    -0.107    23.339     7.175
 161   6 C      3.090     0.046    26.867     8.496
 162   6 C      2.912    -0.042    29.035     8.836
 163   6 C      2.908    -0.060    29.483     8.903
 164   6 C      2.921    -0.045    29.110     8.848
 165   6 C      2.926    -0.039    28.975     8.828
 166   1 H      0.860     0.244     0.908     1.493
 167   1 H      0.923     0.060     2.196     2.317
 168   1 H      0.924     0.071     2.072     2.251
 169   1 H      0.925     0.068     2.108     2.270
 170   1 H      0.926     0.037     2.493     2.469
 171   1 H      0.860     0.183     1.194     1.712
 172   1 H      0.926     0.023     2.685     2.562
 173   1 H      0.926     0.039     2.469     2.457
 174   1 H      0.926     0.043     2.409     2.427
 175   1 H      0.926     0.027     2.629     2.536
 176   7 N      2.691    -0.188    25.084     7.438
 177   6 C      3.805     0.035    19.983     6.364
 178   6 C      2.758     0.283    22.200     7.716
 179   8 O      0.859    -0.509    23.984     6.566
 180   6 C      3.808    -0.078    21.991     6.676
 181   6 C      3.074     0.024    27.390     8.581
 182   7 N      2.819    -0.101    23.205     7.155
 183   6 C      3.167    -0.002    27.714     8.602
 184   6 C      3.154     0.088    25.778     8.303
 185   7 N      1.910    -0.289    28.340     7.893
 186   1 H      0.860     0.227     0.978     1.549
 187   1 H      0.923     0.066     2.130     2.283
 188   1 H      0.924     0.074     2.039     2.233
 189   1 H      0.924     0.070     2.086     2.259
 190   1 H      0.860     0.184     1.190     1.709
 191   1 H      0.926     0.036     2.502     2.474
 192   1 H      0.926     0.053     2.284     2.364
 193   7 N      2.691    -0.194    25.220     7.459
 194   6 C      3.801     0.026    20.137     6.389
 195   6 C      2.754     0.290    22.075     7.694
 196   8 O      0.858    -0.507    23.930     6.559
 197   6 C      3.807    -0.081    22.036     6.682
 198   6 C      3.805    -0.102    22.438     6.744
 199   6 C      2.742     0.292    22.055     7.689
 200   8 O      0.859    -0.508    23.956     6.562
 201   7 N      2.637    -0.289    27.463     7.783
 202   1 H      0.860     0.237     0.935     1.515
 203   1 H      0.924     0.058     2.227     2.334
 204   1 H      0.924     0.076     2.025     2.225
 205   1 H      0.924     0.073     2.050     2.239
 206   1 H      0.924     0.095     1.829     2.115
 207   1 H      0.924     0.063     2.161     2.299
 208   1 H      0.860     0.223     0.997     1.564
 209   1 H      0.860     0.232     0.956     1.532
 210   7 N      2.694    -0.201    25.375     7.481
 211   6 C      3.796     0.042    19.879     6.349
 212   6 C      2.753     0.288    22.125     7.702
 213   8 O      0.858    -0.517    24.156     6.590
 214   6 C      3.804    -0.115    22.687     6.781
 215   6 C      2.684     0.372    20.701     7.446
 216   8 O      0.868    -0.575    25.510     6.772
 217   8 O      0.856    -0.597    26.045     6.842
 218   1 H      0.860     0.229     0.968     1.541
 219   1 H      0.924     0.051     2.312     2.378
 220   1 H      0.924     0.066     2.130     2.282
 221   1 H      0.924     0.050     2.319     2.381
 222   7 N      2.691    -0.188    25.084     7.439
 223   6 C      3.796     0.036    19.976     6.364
 224   6 C      2.762     0.280    22.270     7.728
 225   8 O      0.858    -0.461    22.929     6.420
 226   6 C      3.814    -0.068    21.783     6.643
 227   6 C      2.969     0.007    27.867     8.659
 228   6 C      2.927    -0.035    28.873     8.812
 229   6 C      2.926    -0.039    28.969     8.827
 230   6 C      2.917    -0.062    29.531     8.911
 231   6 C      2.917    -0.074    29.839     8.958
 232   6 C      2.848     0.138    24.989     8.193
 233   8 O      1.659    -0.427    21.378     6.242
 234   1 H      0.860     0.233     0.950     1.527
 235   1 H      0.924     0.052     2.291     2.367
 236   1 H      0.925     0.069     2.096     2.264
 237   1 H      0.924     0.057     2.229     2.335
 238   1 H      0.926     0.031     2.579     2.511
 239   1 H      0.926     0.037     2.484     2.465
 240   1 H      0.926     0.055     2.255     2.348
 241   1 H      0.925     0.044     2.399     2.422
 242   1 H      0.805     0.344     0.602     1.219
 243   7 N      2.687    -0.193    25.192     7.454
 244   6 C      3.753    -0.026    21.087     6.548
 245   6 C      2.748     0.284    22.191     7.713
 246   8 O      0.858    -0.461    22.928     6.420
 247   1 H      0.860     0.203     1.089     1.635
 248   1 H      0.924     0.081     1.965     2.192
 249   1 H      0.924     0.086     1.921     2.168
 250   7 N      2.691    -0.165    24.562     7.361
 251   6 C      3.785     0.024    20.179     6.398
 252   6 C      2.763     0.201    23.721     7.976
 253   8 O      0.856    -0.356    20.813     6.117
 254   6 C      3.801    -0.080    22.031     6.683
 255   6 C      3.805    -0.113    22.645     6.775
 256   6 C      2.743     0.287    22.128     7.702
 257   8 O      0.859    -0.493    23.636     6.518
 258   7 N      2.639    -0.281    27.263     7.755
 259   1 H      0.860     0.185     1.184     1.704
 260   1 H      0.923     0.104     1.748     2.068
 261   1 H      0.924     0.079     1.990     2.206
 262   1 H      0.924     0.062     2.173     2.305
 263   1 H      0.924     0.080     1.979     2.200
 264   1 H      0.924     0.086     1.918     2.165
 265   1 H      0.860     0.223     0.997     1.564
 266   1 H      0.860     0.235     0.942     1.521
 267   7 N      2.637    -0.380    29.810     8.109
 268   6 C      3.783     0.044    19.855     6.347
 269   6 C      2.766     0.191    23.918     8.009
 270   8 O      0.856    -0.349    20.680     6.097
 271   6 C      3.809    -0.105    22.503     6.753
 272   6 C      2.743     0.293    22.025     7.684
 273   8 O      0.859    -0.498    23.733     6.532
 274   7 N      2.638    -0.290    27.487     7.787
 275   1 H      0.860     0.171     1.264     1.761
 276   1 H      0.924     0.066     2.132     2.283
 277   1 H      0.924     0.071     2.072     2.251
 278   1 H      0.925     0.066     2.129     2.282
 279   1 H      0.860     0.227     0.978     1.549
 280   1 H      0.860     0.226     0.981     1.552
 281   7 N      2.635    -0.390    30.090     8.147
 282   6 C      3.788     0.020    20.254     6.410
 283   6 C      2.753     0.272    22.408     7.752
 284   8 O      0.858    -0.497    23.720     6.530
 285   6 C      3.804    -0.076    21.958     6.671
 286   6 C      3.800    -0.086    22.148     6.701
 287   6 C      3.737    -0.031    21.203     6.571
 288   7 N      2.699    -0.143    24.103     7.292
 289   6 C      2.737     0.232    23.136     7.875
 290   7 N      2.653    -0.248    26.466     7.641
 291   7 N      2.650    -0.243    26.352     7.624
 292   1 H      0.860     0.149     1.410     1.860
 293   1 H      0.924     0.056     2.248     2.345
 294   1 H      0.925     0.048     2.348     2.396
 295   1 H      0.925     0.048     2.339     2.392
 296   1 H      0.925     0.060     2.200     2.319
 297   1 H      0.925     0.082     1.957     2.188
 298   1 H      0.925     0.089     1.890     2.150
 299   1 H      0.924     0.081     1.972     2.196
 300   1 H      0.860     0.228     0.974     1.546
 301   1 H      0.860     0.240     0.924     1.505
 302   1 H      0.860     0.255     0.865     1.457
 303   1 H      0.860     0.244     0.906     1.491
 304   1 H      0.860     0.253     0.871     1.462
 305   7 N      2.691    -0.185    25.019     7.429
 306   6 C      3.794     0.022    20.214     6.402
 307   6 C      2.752     0.272    22.401     7.750
 308   8 O      0.858    -0.461    22.936     6.421
 309   6 C      3.813    -0.085    22.101     6.691
 310   6 C      2.972     0.011    27.765     8.643
 311   6 C      2.927    -0.042    29.046     8.838
 312   6 C      2.926    -0.040    28.992     8.830
 313   6 C      2.921    -0.032    28.805     8.801
 314   6 C      2.920    -0.033    28.824     8.804
 315   6 C      2.923    -0.035    28.882     8.813
 316   1 H      0.860     0.224     0.994     1.561
 317   1 H      0.924     0.057     2.230     2.336
 318   1 H      0.924     0.075     2.035     2.231
 319   1 H      0.924     0.079     1.994     2.208
 320   1 H      0.926     0.037     2.485     2.465
 321   1 H      0.926     0.039     2.461     2.453
 322   1 H      0.926     0.032     2.563     2.503
 323   1 H      0.926     0.034     2.531     2.488
 324   1 H      0.926     0.032     2.552     2.498
 325   7 N      2.690    -0.174    24.766     7.391
 326   6 C      3.796     0.011    20.404     6.432
 327   6 C      2.753     0.271    22.419     7.753
 328   8 O      0.858    -0.478    23.311     6.473
 329   6 C      3.725     0.110    18.870     6.203
 330   8 O      1.655    -0.486    22.599     6.417
 331   6 C      3.753    -0.140    23.252     6.876
 332   1 H      0.860     0.211     1.053     1.608
 333   1 H      0.924     0.085     1.932     2.174
 334   1 H      0.923     0.018     2.765     2.600
 335   1 H      0.805     0.353     0.581     1.197
 336   1 H      0.925     0.083     1.945     2.181
 337   1 H      0.925     0.051     2.307     2.375
 338   1 H      0.925     0.069     2.094     2.263
 339   7 N      2.689    -0.188    25.071     7.436
 340   6 C      3.793     0.020    20.250     6.408
 341   6 C      2.750     0.277    22.311     7.734
 342   8 O      0.858    -0.484    23.441     6.491
 343   6 C      3.756    -0.126    22.981     6.835
 344   1 H      0.860     0.220     1.009     1.573
 345   1 H      0.924     0.086     1.915     2.164
 346   1 H      0.925     0.065     2.141     2.288
 347   1 H      0.925     0.071     2.070     2.250
 348   1 H      0.925     0.062     2.171     2.304
 349   7 N      2.689    -0.194    25.202     7.456
 350   6 C      3.791     0.037    19.957     6.362
 351   6 C      2.756     0.303    21.861     7.656
 352   8 O      0.858    -0.483    23.403     6.486
 353   6 C      3.800    -0.106    22.519     6.756
 354   6 C      2.681     0.375    20.648     7.436
 355   8 O      0.856    -0.633    26.949     6.960
 356   8 O      0.856    -0.636    27.013     6.968
 357   1 H      0.860     0.213     1.043     1.600
 358   1 H      0.923     0.044     2.393     2.419
 359   1 H      0.924     0.049     2.335     2.390
 360   1 H      0.924     0.036     2.501     2.473
 361   7 N      2.692    -0.170    24.688     7.380
 362   6 C      3.794     0.032    20.051     6.377
 363   6 C      2.769     0.201    23.722     7.977
 364   8 O      0.856    -0.353    20.762     6.109
 365   6 C      3.810    -0.073    21.879     6.658
 366   6 C      3.089     0.027    27.287     8.562
 367   7 N      2.811    -0.103    23.252     7.162
 368   6 C      3.164     0.022    27.170     8.519
 369   6 C      3.172     0.088    25.695     8.280
 370   7 N      1.907    -0.306    28.781     7.954
 371   1 H      0.860     0.197     1.120     1.658
 372   1 H      0.925     0.083     1.950     2.184
 373   1 H      0.924     0.078     2.004     2.214
 374   1 H      0.924     0.078     2.003     2.213
 375   1 H      0.859     0.218     1.020     1.582
 376   1 H      0.926     0.001     3.044     2.728
 377   1 H      0.926     0.054     2.276     2.359
 378   1 H      0.862     0.179     1.219     1.729
 379   1 H      0.930     0.076     2.016     2.220
 380   1 H      0.862     0.181     1.206     1.720
 381   1 H      0.930     0.103     1.754     2.071
 382   1 H      0.862     0.173     1.252     1.752
 383   1 H      0.930     0.081     1.968     2.194
 384   1 H      0.862     0.198     1.114     1.653
 385   1 H      0.930     0.084     1.936     2.176

 Mol. C6AA /au·bohr⁶  :    1460355.046420
 Mol. C8AA /au·bohr⁸  :   32869189.177674
 Mol. α(0) /au        :       1819.444463


Wiberg/Mayer (AO) data.
largest (>0.10) Wiberg bond orders for each atom
          total WBO             WBO to atom ...
     1  N   2.983        C    2 1.025    H  378 0.951    H    9 0.936
     2  C   3.986        N    1 1.025    C    5 0.970    H   10 0.946    C    3 0.942
     3  C   3.939        O    4 1.596    N   20 1.306    C    2 0.942
     4  O   1.971        C    3 1.596    N   20 0.185
     5  C   3.992        C    6 0.995    H   12 0.972    C    2 0.970    H   11 0.968
     6  C   3.995        C    7 1.011    C    8 1.007    C    5 0.995    H   13 0.960
     7  C   3.995        C    6 1.011    H   14 0.986    H   16 0.986    H   15 0.982
     8  C   3.995        C    6 1.007    H   17 0.986    H   18 0.986    H   19 0.979
     9  H   0.972        N    1 0.936
    10  H   0.998        C    2 0.946
    11  H   0.998        C    5 0.968
    12  H   0.999        C    5 0.972
    13  H   0.999        C    6 0.960
    14  H   0.998        C    7 0.986
    15  H   0.998        C    7 0.982
    16  H   0.998        C    7 0.986
    17  H   0.998        C    8 0.986
    18  H   0.998        C    8 0.986
    19  H   0.999        C    8 0.979
    20  N   3.516        C    3 1.306    C   26 0.974    C   21 0.962    O    4 0.185
    21  C   3.967        C   24 0.978    N   20 0.962    H   27 0.958    C   22 0.941
    22  C   3.946        O   23 1.641    N   34 1.279    C   21 0.941
    23  O   1.949        C   22 1.641    N   34 0.189
    24  C   3.989        C   25 1.002    C   21 0.978    H   29 0.977    H   28 0.975
    25  C   3.990        C   26 1.003    C   24 1.002    H   31 0.973    H   30 0.972
    26  C   3.957        C   25 1.003    N   20 0.974    H   33 0.962    H   32 0.956
    27  H   0.996        C   21 0.958
    28  H   0.996        C   24 0.975
    29  H   0.994        C   24 0.977
    30  H   0.997        C   25 0.972
    31  H   0.993        C   25 0.973
    32  H   0.994        C   26 0.956
    33  H   0.994        C   26 0.962
    34  N   3.445        C   22 1.279    C   35 1.001    H   38 0.912    O   23 0.189
    35  C   3.973        N   34 1.001    C   36 0.955    H   39 0.954    H   40 0.948
    36  C   3.955        O   37 1.641    N   41 1.302    C   35 0.955
    37  O   1.986        C   36 1.641    N   41 0.198
    38  H   0.958        N   34 0.912
    39  H   0.995        C   35 0.954
    40  H   0.993        C   35 0.948
    41  N   3.468        C   36 1.302    C   42 0.984    H   49 0.910    O   37 0.198
    42  C   3.964        N   41 0.984    C   45 0.964    C   43 0.951    H   50 0.936
    43  C   3.950        O   44 1.628    N   60 1.298    C   42 0.951
    44  O   1.963        C   43 1.628    N   60 0.190
    45  C   3.988        C   46 0.998    H   52 0.971    H   51 0.969    C   42 0.964
    46  C   3.996        C   47 1.010    C   48 1.006    C   45 0.998    H   53 0.967
    47  C   3.996        C   46 1.010    H   54 0.986    H   55 0.984    H   56 0.984
    48  C   3.994        C   46 1.006    H   59 0.986    H   58 0.986    H   57 0.986
    49  H   0.956        N   41 0.910
    50  H   0.993        C   42 0.936
    51  H   0.997        C   45 0.969
    52  H   0.996        C   45 0.971
    53  H   0.999        C   46 0.967
    54  H   0.998        C   47 0.986
    55  H   0.999        C   47 0.984
    56  H   0.998        C   47 0.984
    57  H   0.998        C   48 0.986
    58  H   0.998        C   48 0.986
    59  H   0.999        C   48 0.986
    60  N   3.467        C   43 1.298    C   61 0.978    H   65 0.921    O   44 0.190
    61  C   3.964        C   64 0.980    N   60 0.978    C   62 0.966    H   66 0.950
    62  C   3.898        O   63 1.909    C   61 0.966    H  379 0.953
    63  O   2.049        C   62 1.909
    64  C   3.979        H   69 0.982    C   61 0.980    H   67 0.979    H   68 0.974
    65  H   0.955        N   60 0.921
    66  H   0.991        C   61 0.950
    67  H   0.993        C   64 0.979
    68  H   0.992        C   64 0.974
    69  H   0.995        C   64 0.982
    70  N   2.994        C   71 1.012    H   78 0.959    H  380 0.956
    71  C   3.986        N   70 1.012    C   74 0.979    H   79 0.961    C   72 0.945
    72  C   3.948        O   73 1.593    N   82 1.312    C   71 0.945
    73  O   1.939        C   72 1.593    N   82 0.189
    74  C   3.984        C   71 0.979    H   80 0.975    H   81 0.966    C   75 0.895
    75  C   3.933        O   76 1.514    O   77 1.499    C   74 0.895
    76  O   1.811        C   75 1.514    O   77 0.218
    77  O   1.796        C   75 1.499    O   76 0.218
    78  H   0.978        N   70 0.959
    79  H   0.999        C   71 0.961
    80  H   0.999        C   74 0.975
    81  H   1.000        C   74 0.966
    82  N   3.474        C   72 1.312    C   83 0.974    H   90 0.916    O   73 0.189
    83  C   3.955        C   86 0.976    N   82 0.974    H   91 0.944    C   84 0.937
    84  C   3.946        O   85 1.606    N  101 1.314    C   83 0.937
    85  O   1.985        C   84 1.606    N  101 0.193
    86  C   3.984        C   87 0.993    C   83 0.976    H   93 0.973    H   92 0.965
    87  C   3.993        C   89 1.010    C   88 1.008    C   86 0.993    H   94 0.968
    88  C   3.994        C   87 1.008    H   96 0.986    H   97 0.986    H   95 0.985
    89  C   3.994        C   87 1.010    H   99 0.986    H   98 0.985    H  100 0.982
    90  H   0.955        N   82 0.916
    91  H   0.992        C   83 0.944
    92  H   0.996        C   86 0.965
    93  H   0.996        C   86 0.973
    94  H   0.999        C   87 0.968
    95  H   0.997        C   88 0.985
    96  H   0.998        C   88 0.986
    97  H   0.998        C   88 0.986
    98  H   0.997        C   89 0.985
    99  H   0.998        C   89 0.986
   100  H   0.998        C   89 0.982
   101  N   3.472        C   84 1.314    C  102 0.971    H  109 0.917    O   85 0.193
   102  C   3.960        C  105 0.980    N  101 0.971    H  110 0.949    C  103 0.937
   103  C   3.945        O  104 1.617    N  120 1.301    C  102 0.937
   104  O   1.966        C  103 1.617    N  120 0.192
   105  C   3.984        C  106 0.993    C  102 0.980    H  112 0.971    H  111 0.966
   106  C   3.993        C  108 1.010    C  107 1.008    C  105 0.993    H  113 0.968
   107  C   3.994        C  106 1.008    H  116 0.986    H  114 0.986    H  115 0.985
   108  C   3.995        C  106 1.010    H  118 0.986    H  117 0.985    H  119 0.983
   109  H   0.952        N  101 0.917
   110  H   0.992        C  102 0.949
   111  H   0.993        C  105 0.966
   112  H   0.997        C  105 0.971
   113  H   0.998        C  106 0.968
   114  H   0.998        C  107 0.986
   115  H   0.998        C  107 0.985
   116  H   0.998        C  107 0.986
   117  H   0.998        C  108 0.985
   118  H   0.998        C  108 0.986
   119  H   0.999        C  108 0.983
   120  N   3.471        C  103 1.301    C  121 0.976    H  125 0.924    O  104 0.192
   121  C   3.965        C  124 0.998    N  120 0.976    H  126 0.952    C  122 0.934
   122  C   3.950        O  123 1.595    N  130 1.336    C  121 0.934
   123  O   1.956        C  122 1.595    N  130 0.199
   124  C   3.984        C  121 0.998    H  127 0.980    H  129 0.980    H  128 0.979
   125  H   0.959        N  120 0.924
   126  H   0.994        C  121 0.952
   127  H   0.994        C  124 0.980
   128  H   0.994        C  124 0.979
   129  H   0.996        C  124 0.980
   130  N   3.485        C  122 1.336    C  131 0.973    H  139 0.884    O  123 0.199
   131  C   3.960        C  134 0.980    N  130 0.973    H  140 0.952    C  132 0.933
   132  C   3.945        O  133 1.592    N  152 1.333    C  131 0.933
   133  O   1.956        C  132 1.592    N  152 0.197
   134  C   3.984        C  135 1.006    C  131 0.980    H  141 0.972    H  142 0.965
   135  C   3.991        C  134 1.006    C  136 1.004    H  144 0.973    H  143 0.972
   136  C   3.989        C  137 1.010    C  135 1.004    H  146 0.972    H  145 0.971
   137  C   3.929        C  136 1.010    H  148 0.970    H  147 0.967    N  138 0.962
   138  N   3.621        C  137 0.962    H  150 0.913    H  151 0.907    H  149 0.743
   139  H   0.946        N  130 0.884
   140  H   0.994        C  131 0.952
   141  H   0.994        C  134 0.972
   142  H   0.995        C  134 0.965
   143  H   0.994        C  135 0.972
   144  H   0.998        C  135 0.973
   145  H   0.997        C  136 0.971
   146  H   0.993        C  136 0.972
   147  H   0.987        C  137 0.967
   148  H   0.993        C  137 0.970
   149  H   0.908        N  138 0.743    O  216 0.148
   150  H   0.931        N  138 0.913
   151  H   0.918        N  138 0.907
   152  N   3.477        C  132 1.333    C  153 0.978    H  166 0.866    O  133 0.197
   153  C   3.967        N  152 0.978    C  156 0.966    H  167 0.952    C  154 0.939
   154  C   3.940        O  155 1.604    N  176 1.303    C  153 0.939
   155  O   1.967        C  154 1.604    N  176 0.186
   156  C   3.985        C  157 1.010    C  153 0.966    H  168 0.966    H  169 0.960
   157  C   3.972        C  158 1.573    C  159 1.208    C  156 1.010
   158  C   3.953        C  157 1.573    N  160 1.208    H  170 0.968
   159  C   3.985        C  162 1.329    C  161 1.243    C  157 1.208
   160  N   3.549        C  158 1.208    C  161 1.178    H  171 0.939
   161  C   3.959        C  163 1.333    C  159 1.243    N  160 1.178
   162  C   3.992        C  164 1.505    C  159 1.329    H  172 0.967    C  163 0.113
   163  C   3.987        C  165 1.495    C  161 1.333    H  173 0.967    C  162 0.113
   164  C   3.991        C  162 1.505    C  165 1.368    H  174 0.964
   165  C   3.991        C  163 1.495    C  164 1.368    H  175 0.966
   166  H   0.940        N  152 0.866
   167  H   0.996        C  153 0.952
   168  H   0.995        C  156 0.966
   169  H   0.995        C  156 0.960
   170  H   0.998        C  158 0.968
   171  H   0.966        N  160 0.939
   172  H   0.999        C  162 0.967
   173  H   0.998        C  163 0.967
   174  H   0.998        C  164 0.964
   175  H   0.999        C  165 0.966
   176  N   3.462        C  154 1.303    C  177 0.983    H  186 0.898    O  155 0.186
   177  C   3.969        N  176 0.983    C  180 0.974    H  187 0.952    C  178 0.930
   178  C   3.946        O  179 1.617    N  193 1.318    C  177 0.930
   179  O   1.948        C  178 1.617    N  193 0.197
   180  C   3.990        C  181 1.015    C  177 0.974    H  189 0.967    H  188 0.956
   181  C   3.945        C  183 1.552    N  182 1.200    C  180 1.015    C  184 0.110
   182  N   3.592        C  184 1.259    C  181 1.200    H  190 0.931    N  185 0.103
   183  C   3.970        C  181 1.552    N  185 1.290    H  191 0.971
   184  C   3.953        N  185 1.552    N  182 1.259    H  192 0.963    C  181 0.110
   185  N   3.017        C  184 1.552    C  183 1.290    N  182 0.103
   186  H   0.948        N  176 0.898
   187  H   0.995        C  177 0.952
   188  H   0.994        C  180 0.956
   189  H   0.995        C  180 0.967
   190  H   0.966        N  182 0.931
   191  H   0.999        C  183 0.971
   192  H   0.997        C  184 0.963
   193  N   3.468        C  178 1.318    C  194 0.980    H  202 0.879    O  179 0.197
   194  C   3.966        C  197 0.982    N  193 0.980    H  203 0.953    C  195 0.930
   195  C   3.945        O  196 1.635    N  210 1.300    C  194 0.930
   196  O   1.946        C  195 1.635    N  210 0.195
   197  C   3.986        C  198 1.008    C  194 0.982    H  205 0.966    H  204 0.961
   198  C   3.992        C  197 1.008    C  199 0.970    H  207 0.967    H  206 0.947
   199  C   3.944        O  200 1.644    N  201 1.301    C  198 0.970
   200  O   1.941        C  199 1.644    N  201 0.196
   201  N   3.389        C  199 1.301    H  209 0.925    H  208 0.925    O  200 0.196
   202  H   0.944        N  193 0.879
   203  H   0.996        C  194 0.953
   204  H   0.994        C  197 0.961
   205  H   0.995        C  197 0.966
   206  H   0.991        C  198 0.947
   207  H   0.996        C  198 0.967
   208  H   0.950        N  201 0.925
   209  H   0.946        N  201 0.925
   210  N   3.457        C  195 1.300    C  211 0.972    H  218 0.886    O  196 0.195
   211  C   3.964        C  214 0.988    N  210 0.972    H  219 0.960    C  212 0.930
   212  C   3.944        O  213 1.601    N  222 1.323    C  211 0.930
   213  O   1.932        C  212 1.601    N  222 0.190
   214  C   3.981        C  211 0.988    H  220 0.969    H  221 0.958    C  215 0.916
   215  C   3.935        O  217 1.572    O  216 1.419    C  214 0.916
   216  O   1.906        C  215 1.419    O  217 0.208    H  149 0.148
   217  O   1.875        C  215 1.572    O  216 0.208
   218  H   0.947        N  210 0.886
   219  H   0.997        C  211 0.960
   220  H   0.995        C  214 0.969
   221  H   0.997        C  214 0.958
   222  N   3.471        C  212 1.323    C  223 0.975    H  234 0.874    O  213 0.190
   223  C   3.964        C  226 0.977    N  222 0.975    H  235 0.953    C  224 0.925
   224  C   3.945        O  225 1.667    N  243 1.270    C  223 0.925
   225  O   1.983        C  224 1.667    N  243 0.189
   226  C   3.987        C  227 1.010    C  223 0.977    H  237 0.967    H  236 0.961
   227  C   3.988        C  229 1.415    C  228 1.400    C  226 1.010
   228  C   3.991        C  230 1.461    C  227 1.400    H  238 0.964    C  231 0.106
   229  C   3.991        C  231 1.446    C  227 1.415    H  239 0.969    C  230 0.107
   230  C   3.987        C  228 1.461    C  232 1.365    H  240 0.967    C  229 0.107
   231  C   3.987        C  229 1.446    C  232 1.380    H  241 0.965    C  228 0.106
   232  C   3.944        C  231 1.380    C  230 1.365    O  233 1.065
   233  O   2.089        C  232 1.065    H  242 0.861
   234  H   0.945        N  222 0.874
   235  H   0.997        C  223 0.953
   236  H   0.995        C  226 0.961
   237  H   0.996        C  226 0.967
   238  H   0.999        C  228 0.964
   239  H   0.999        C  229 0.969
   240  H   0.997        C  230 0.967
   241  H   0.998        C  231 0.965
   242  H   0.881        O  233 0.861
   243  N   3.434        C  224 1.270    C  244 0.988    H  247 0.910    O  225 0.189
   244  C   3.960        N  243 0.988    H  249 0.953    C  245 0.951    H  248 0.949
   245  C   3.956        O  246 1.648    N  250 1.286    C  244 0.951
   246  O   1.969        C  245 1.648    N  250 0.193
   247  H   0.959        N  243 0.910
   248  H   0.993        C  244 0.949
   249  H   0.992        C  244 0.953
   250  N   3.454        C  245 1.286    C  251 0.962    H  259 0.926    O  246 0.193
   251  C   3.954        C  254 0.985    C  252 0.975    N  250 0.962    H  260 0.927
   252  C   3.889        O  253 1.893    C  251 0.975    H  381 0.948
   253  O   2.070        C  252 1.893
   254  C   3.985        C  255 0.991    C  251 0.985    H  262 0.975    H  261 0.968
   255  C   3.988        C  254 0.991    C  256 0.970    H  263 0.970    H  264 0.958
   256  C   3.948        O  257 1.638    N  258 1.313    C  255 0.970
   257  O   1.945        C  256 1.638    N  258 0.201
   258  N   3.402        C  256 1.313    H  265 0.931    H  266 0.923    O  257 0.201
   259  H   0.965        N  250 0.926
   260  H   0.989        C  251 0.927
   261  H   0.994        C  254 0.968
   262  H   0.996        C  254 0.975
   263  H   0.994        C  255 0.970
   264  H   0.993        C  255 0.958
   265  H   0.950        N  258 0.931
   266  H   0.944        N  258 0.923
   267  N   3.014        C  268 1.037    H  382 0.955    H  275 0.922
   268  C   3.989        N  267 1.037    C  269 0.968    H  276 0.946    C  271 0.943
   269  C   3.903        O  270 1.913    C  268 0.968    H  383 0.951
   270  O   2.054        C  269 1.913
   271  C   3.992        H  278 0.969    C  272 0.962    H  277 0.961    C  268 0.943
   272  C   3.944        O  273 1.653    N  274 1.296    C  271 0.962
   273  O   1.960        C  272 1.653    N  274 0.201
   274  N   3.389        C  272 1.296    H  280 0.927    H  279 0.927    O  273 0.201
   275  H   0.971        N  267 0.922
   276  H   0.996        C  268 0.946
   277  H   0.995        C  271 0.961
   278  H   0.996        C  271 0.969
   279  H   0.948        N  274 0.927
   280  H   0.949        N  274 0.927
   281  N   2.995        C  282 1.012    H  292 0.961    H  384 0.943
   282  C   3.982        N  281 1.012    C  285 0.979    H  293 0.955    C  283 0.934
   283  C   3.935        O  284 1.643    N  305 1.287    C  282 0.934
   284  O   1.964        C  283 1.643    N  305 0.195
   285  C   3.992        C  286 1.006    C  282 0.979    H  295 0.974    H  294 0.973
   286  C   3.990        C  285 1.006    C  287 0.994    H  296 0.972    H  297 0.969
   287  C   3.955        C  286 0.994    N  288 0.985    H  298 0.967    H  299 0.963
   288  N   3.454        C  289 1.302    C  287 0.985    H  300 0.918
   289  C   3.977        N  291 1.323    N  290 1.323    N  288 1.302
   290  N   3.401        C  289 1.323    H  301 0.917    H  302 0.915    N  291 0.105
   291  N   3.403        C  289 1.323    H  304 0.917    H  303 0.916    N  290 0.105
   292  H   0.978        N  281 0.961
   293  H   0.997        C  282 0.955
   294  H   0.998        C  285 0.973
   295  H   0.998        C  285 0.974
   296  H   0.996        C  286 0.972
   297  H   0.993        C  286 0.969
   298  H   0.992        C  287 0.967
   299  H   0.993        C  287 0.963
   300  H   0.948        N  288 0.918
   301  H   0.942        N  290 0.917
   302  H   0.935        N  290 0.915
   303  H   0.940        N  291 0.916
   304  H   0.936        N  291 0.917
   305  N   3.457        C  283 1.287    C  306 0.979    H  316 0.916    O  284 0.195
   306  C   3.969        C  309 0.979    N  305 0.979    H  317 0.951    C  307 0.921
   307  C   3.945        O  308 1.663    N  325 1.283    C  306 0.921
   308  O   1.987        C  307 1.663    N  325 0.198
   309  C   3.986        C  310 1.009    C  306 0.979    H  319 0.966    H  318 0.962
   310  C   3.989        C  312 1.420    C  311 1.409    C  309 1.009    C  315 0.110
   311  C   3.992        C  313 1.451    C  310 1.409    H  320 0.969    C  314 0.112
   312  C   3.991        C  314 1.440    C  310 1.420    H  321 0.968    C  313 0.111
   313  C   3.993        C  311 1.451    C  315 1.434    H  322 0.971    C  312 0.111
   314  C   3.992        C  315 1.444    C  312 1.440    H  323 0.971    C  311 0.112
   315  C   3.992        C  314 1.444    C  313 1.434    H  324 0.971    C  310 0.110
   316  H   0.950        N  305 0.916
   317  H   0.997        C  306 0.951
   318  H   0.994        C  309 0.962
   319  H   0.994        C  309 0.966
   320  H   0.999        C  311 0.969
   321  H   0.998        C  312 0.968
   322  H   0.999        C  313 0.971
   323  H   0.999        C  314 0.971
   324  H   0.998        C  315 0.971
   325  N   3.468        C  307 1.283    C  326 0.987    H  332 0.915    O  308 0.198
   326  C   3.967        N  325 0.987    C  329 0.962    H  333 0.955    C  327 0.924
   327  C   3.947        O  328 1.653    N  339 1.292    C  326 0.924
   328  O   1.971        C  327 1.653    N  339 0.201
   329  C   3.954        C  331 1.001    O  330 0.986    C  326 0.962    H  334 0.957
   330  O   1.950        C  329 0.986    H  335 0.856
   331  C   3.986        C  329 1.001    H  338 0.983    H  337 0.983    H  336 0.973
   332  H   0.956        N  325 0.915
   333  H   0.992        C  326 0.955
   334  H   0.999        C  329 0.957
   335  H   0.875        O  330 0.856
   336  H   0.992        C  331 0.973
   337  H   0.997        C  331 0.983
   338  H   0.995        C  331 0.983
   339  N   3.460        C  327 1.292    C  340 0.985    H  344 0.894    O  328 0.201
   340  C   3.966        N  339 0.985    C  343 0.979    H  345 0.956    C  341 0.934
   341  C   3.941        O  342 1.651    N  349 1.283    C  340 0.934
   342  O   1.979        C  341 1.651    N  349 0.197
   343  C   3.986        H  348 0.983    H  346 0.982    C  340 0.979    H  347 0.978
   344  H   0.951        N  339 0.894
   345  H   0.992        C  340 0.956
   346  H   0.995        C  343 0.982
   347  H   0.994        C  343 0.978
   348  H   0.996        C  343 0.983
   349  N   3.446        C  341 1.283    C  350 0.966    H  357 0.916    O  342 0.197
   350  C   3.965        C  353 0.986    N  349 0.966    H  358 0.954    C  351 0.941
   351  C   3.946        O  352 1.665    N  361 1.261    C  350 0.941
   352  O   1.969        C  351 1.665    N  361 0.184
   353  C   3.978        C  350 0.986    H  359 0.971    H  360 0.964    C  354 0.894
   354  C   3.936        O  356 1.520    O  355 1.502    C  353 0.894
   355  O   1.801        C  354 1.502    O  356 0.222
   356  O   1.821        C  354 1.520    O  355 0.222
   357  H   0.955        N  349 0.916
   358  H   0.997        C  350 0.954
   359  H   0.997        C  353 0.971
   360  H   0.999        C  353 0.964
   361  N   3.446        C  351 1.261    C  362 0.979    H  371 0.927    O  352 0.184
   362  C   3.962        N  361 0.979    C  363 0.962    H  372 0.958    C  365 0.952
   363  C   3.895        O  364 1.908    C  362 0.962    H  385 0.952
   364  O   2.046        C  363 1.908
   365  C   3.988        C  366 1.017    H  374 0.966    H  373 0.959    C  362 0.952
   366  C   3.946        C  368 1.543    N  367 1.200    C  365 1.017    C  369 0.114
   367  N   3.590        C  369 1.275    C  366 1.200    H  375 0.920    N  370 0.103
   368  C   3.977        C  366 1.543    N  370 1.305    H  376 0.971
   369  C   3.952        N  370 1.535    N  367 1.275    H  377 0.963    C  366 0.114
   370  N   3.012        C  369 1.535    C  368 1.305    N  367 0.103
   371  H   0.961        N  361 0.927
   372  H   0.993        C  362 0.958
   373  H   0.994        C  365 0.959
   374  H   0.993        C  365 0.966
   375  H   0.953        N  367 0.920
   376  H   1.000        C  368 0.971
   377  H   0.997        C  369 0.963
   378  H   0.968        N    1 0.951
   379  H   0.994        C   62 0.953
   380  H   0.967        N   70 0.956
   381  H   0.989        C  252 0.948
   382  H   0.970        N  267 0.955
   383  H   0.993        C  269 0.951
   384  H   0.960        N  281 0.943
   385  H   0.993        C  363 0.952
 
molecular dipole:
                 x           y           z       tot (Debye)
 q only:      -28.131     -57.158     -32.945
   full:      -26.853     -55.903     -34.349     180.201
molecular quadrupole (traceless):
                xx          xy          yy          xz          yz          zz
 q only:      844.376   -2269.700   -1767.008   -1311.753   -3657.828     922.632
  q+dip:      936.437   -2128.586   -1626.234   -1291.754   -3647.727     689.797
   full:      938.116   -2130.138   -1631.600   -1284.021   -3649.901     693.483


           -------------------------------------------------
          | TOTAL ENERGY             -612.546274564807 Eh   |
          | GRADIENT NORM               0.447728935328 Eh/α |
          | HOMO-LUMO GAP               1.604201811902 eV   |
           -------------------------------------------------

------------------------------------------------------------------------
 * finished run on 2019/05/31 at 06:33:31.785     
------------------------------------------------------------------------
 total:
 * wall-time:     0 d,  0 h,  0 min,  6.646 sec
 *  cpu-time:     0 d,  0 h,  0 min, 12.750 sec
 * ratio c/w:     1.918 speedup
 SCF:
 * wall-time:     0 d,  0 h,  0 min,  6.116 sec
 *  cpu-time:     0 d,  0 h,  0 min, 11.854 sec
 * ratio c/w:     1.938 speedup

