      -----------------------------------------------------------      
     |                   =====================                   |     
     |                           x T B                           |     
     |                   =====================                   |     
     |                         S. Grimme                         |     
     |          Mulliken Center for Theoretical Chemistry        |     
     |                    University of Bonn                     |     
     |                 Version 6.0.1 (SAW181210)                 |     
      -----------------------------------------------------------      

   This program is distributed in the hope that it will be useful,
   but WITHOUT ANY WARRANTY; without even the implied warranty of
   MERCHANTABILITY or FITNESS FOR A PARTICULAR PURPOSE.
   
   FOR NON-COMMERCIAL, ACADEMIA USE ONLY.
   
   Cite this work as:
   S. Grimme, C. Bannwarth, P. Shushkov, J. Comput. Theory Chem., 2017,
   13, 1989-2009.
   C. Bannwarth, S. Ehlert and S. Grimme., ChemRxiv, 2018, preprint.
   http://doi.org/10.26434/chemrxiv.7246238.v1
   
   for sTDA-xTB:
   S. Grimme and C. Bannwarth, J. Chem. Phys., 2016, 145, 054103.
   
   in the mass-spec context:
   V. Asgeirsson, C. Bauer and S. Grimme, Chem. Sci., 2017, 8, 4879.
   
   if GBSA is used:
   P. Shushkov, F. März and S. Grimme, unpublished.
   
   for ANC optimizer:
   S. Grimme, unpublished.
   Rational Function algorithm used in ANCopt:
   F. Eckert, P. Pulay, H.-J. Werner, J. Comput. Chem., 1997, 18, 1473.
   
   with help from (in alphabetical order)
   C. Bannwarth, F. Bohle, G. Brandenburg, E. Caldeweyher, M. Checinski,
   S. Dohm, S. Ehlert, S. Ehrlich, F. März, H. Neugebauer, J. Pisarek,
   P. Pracht, P. Shushkov, and S. Spicher.
   
 * started run on 2019/03/07 at 11:37:49.646     
========================================================================
 # omp threads = 1
========================================================================
number of atoms            : 210
number of electrons        : 558
charge                     : -1
spin                       : .0
first test random number   : .5294
           ------------------------------------------------- 
          |                 G F N 2 - x T B                 |
          | Geometry, Frequencies, Noncovalent interactions |
          |            JCTC 2018 parametrisation            |
           ------------------------------------------------- 
 
      method parameters     
 k(s)        :  1.8500
 k(p)        :  2.2300
 k(d)        :  2.2300
 k(f)        :  2.0000
 kEN (H0ij)  : -2.0000
 D4 a1       :  0.5200
 D4 a2       :  5.0000
 D4 s6       :  1.0000
 D4 s8       :  2.7000
 D4 s9       :  5.0000
 alphaj      :  2.0000

 Solvent             : h2o
 Using internal parameter file: .param_gbsa2_h2o
 Gsolv ref. state (COSMO-RS): gsolv [1 M gas/solution]
 temperature (mdtemp)       :    298.150000000000     
 dielectric constant        :    80.2000000000000     
 rho                        :    1.00000000000000     
 mass                       :    18.0000000000000     
 surface tension            :    15.5689454083859     
 probe radius               :   0.975313790000000     
 vdW radii scaling          :    1.00000000000000     
 Gshift (Eh)                :   1.857443126794793E-003
 c1                         :    1.55243817000000     
 soset                      :   0.130326360000000     
 HB correction              :  T

            Z     q(EN)     CN     RAES       Cart. coordinates
     1  N   5.0   -0.23    3.24    1.97   254.55364   123.13454   252.85856
     2  C   4.0    0.04    4.43    4.44   255.99173   121.25049   251.41103
     3  C   4.0    0.15    3.45    3.10   255.34544   121.39033   248.65392
     4  O   6.0   -0.31    1.27    1.80   256.99706   121.79095   247.05521
     5  C   4.0   -0.04    4.41    4.39   255.60433   118.56896   252.39936
     6  C   4.0    0.16    3.29    3.05   256.70037   118.20803   255.05820
     7  O   6.0   -0.30    1.23    1.80   257.94003   119.85587   256.06165
     8  N   5.0   -0.25    3.23    1.96   256.15235   116.04051   256.17881
     9  H   1.0    0.11    1.08    1.44   253.69193   122.49771   254.07932
    10  H   1.0    0.06    1.14    1.45   257.76618   121.65867   251.63024
    11  H   1.0    0.05    1.09    1.44   253.81287   118.18346   252.42392
    12  H   1.0    0.05    1.09    1.44   256.39235   117.37844   251.25040
    13  H   1.0    0.11    1.09    1.44   256.68148   115.74949   257.68681
    14  H   1.0    0.10    1.09    1.44   255.26796   114.92368   255.39835
    15  N   5.0   -0.17    3.48    2.06   252.93415   120.88010   248.05677
    16  C   4.0    0.03    4.29    4.19   251.94393   120.97648   245.46595
    17  C   4.0    0.09    3.24    3.04   252.67526   123.51816   244.26409
    18  O   6.0   -0.30    1.13    1.80   253.46138   123.60886   242.09468
    19  C   4.0   -0.09    4.19    3.98   249.04509   120.66089   245.48674
    20  H   1.0    0.09    1.13    1.45   251.81732   120.46436   249.16226
    21  H   1.0    0.05    1.12    1.45   252.66392   119.60831   244.48140
    22  H   1.0    0.05    1.05    1.44   248.41015   120.72703   243.76898
    23  H   1.0    0.04    1.05    1.44   248.61046   119.04518   246.23507
    24  H   1.0    0.05    1.05    1.44   248.28920   122.01205   246.46940
    25  N   5.0   -0.22    3.19    1.95   258.89812   123.39533   242.48207
    26  C   4.0    0.01    4.16    3.92   258.95104   121.94779   240.12748
    27  C   4.0    0.08    3.17    3.03   258.52774   123.70335   237.96563
    28  O   6.0   -0.30    1.12    1.80   259.96960   123.78461   236.16094
    29  H   1.0    0.14    1.10    1.44   257.81153   122.87376   243.57245
    30  H   1.0    0.04    1.09    1.44   260.56297   121.09364   239.94417
    31  H   1.0    0.04    1.09    1.44   257.65657   120.64955   240.15204
    32  N   5.0   -0.21    3.26    1.97   265.68413   106.34622   235.66394
    33  C   4.0    0.03    4.41    4.40   265.03028   107.34966   238.15460
    34  C   4.0    0.15    3.44    3.09   262.29585   106.84888   238.91994
    35  O   6.0   -0.31    1.28    1.80   260.59321   107.95626   237.81445
    36  C   4.0   -0.05    4.50    4.54   265.49705   110.15402   238.18862
    37  C   4.0   -0.03    4.30    4.20   268.19747   111.09132   238.65916
    38  C   4.0   -0.09    4.25    4.10   270.07396   109.82142   236.91683
    39  C   4.0   -0.10    4.21    4.03   268.28628   113.96559   238.27932
    40  H   1.0    0.11    1.09    1.44   265.87688   107.47627   234.51121
    41  H   1.0    0.03    1.13    1.45   266.09420   106.47661   239.36592
    42  H   1.0    0.05    1.11    1.44   264.94147   110.83243   236.57857
    43  H   1.0    0.04    1.11    1.44   264.41801   110.88534   239.47930
    44  H   1.0    0.04    1.12    1.45   268.66423   110.66613   240.38070
    45  H   1.0    0.03    1.06    1.44   271.75771   110.45637   237.26454
    46  H   1.0    0.04    1.06    1.44   270.03617   108.00918   237.19273
    47  H   1.0    0.04    1.06    1.44   269.63366   110.18236   235.17450
    48  H   1.0    0.04    1.05    1.44   269.99082   114.57030   238.57412
    49  H   1.0    0.04    1.06    1.44   267.78362   114.37188   236.56345
    50  H   1.0    0.04    1.05    1.44   267.13922   114.77440   239.45851
    51  N   5.0   -0.16    3.47    2.06   261.91791   104.99884   240.59613
    52  C   4.0    0.03    4.51    4.54   259.38945   104.39413   241.58068
    53  C   4.0    0.16    3.47    3.10   258.57876   106.45393   243.41938
    54  O   6.0   -0.31    1.29    1.80   259.68425   106.78841   245.41115
    55  C   4.0    0.06    4.30    4.20   259.38567   101.76741   242.96207
    56  O   6.0   -0.28    2.15    1.85   260.95604   101.90914   245.16927
    57  C   4.0   -0.07    4.18    3.95   260.26062    99.66604   241.19895
    58  H   1.0    0.09    1.13    1.45   263.10654   104.06532   241.19139
    59  H   1.0    0.06    1.13    1.45   258.21593   104.30342   240.17472
    60  H   1.0    0.05    1.10    1.44   257.67169   101.36490   243.47418
    61  H   1.0    0.17    1.13    1.45   260.97682   103.40202   245.70973
    62  H   1.0    0.05    1.05    1.44   260.24172    98.06733   242.09468
    63  H   1.0    0.06    1.06    1.44   259.13434    99.56966   239.75520
    64  H   1.0    0.05    1.06    1.44   261.96326   100.02130   240.62069
    65  N   5.0   -0.15    3.51    2.08   256.63045   107.85800   242.70317
    66  C   4.0    0.04    4.66    4.72   255.69882   109.90268   244.36802
    67  C   4.0    0.15    3.48    3.11   253.43304   108.85577   245.75697
    68  O   6.0   -0.32    1.28    1.80   251.58488   108.07343   244.58912
    69  C   4.0   -0.02    4.48    4.50   255.13946   112.32342   242.99608
    70  C   4.0   -0.05    4.33    4.25   257.49595   113.26450   241.56367
    71  C   4.0   -0.09    4.27    4.15   254.25129   114.32275   244.81967
    72  C   4.0   -0.09    4.17    3.93   259.88645   113.29474   243.16049
    73  H   1.0    0.12    1.14    1.45   255.82543   107.68225   241.30289
    74  H   1.0    0.05    1.16    1.46   257.01029   110.39212   245.55099
    75  H   1.0    0.06    1.14    1.45   253.80720   111.99272   241.78288
    76  H   1.0    0.06    1.09    1.44   257.76996   112.19492   240.10102
    77  H   1.0    0.04    1.09    1.44   257.17658   114.95770   240.93817
    78  H   1.0    0.04    1.06    1.44   253.89791   115.87233   243.90504
    79  H   1.0    0.05    1.06    1.44   252.72628   113.75016   245.66059
    80  H   1.0    0.05    1.06    1.44   255.55709   114.63456   246.06877
    81  H   1.0    0.04    1.05    1.44   261.29052   113.90323   242.14948
    82  H   1.0    0.04    1.06    1.44   259.64646   114.40212   244.60046
    83  H   1.0    0.06    1.06    1.44   260.24928   111.59777   243.75008
    84  N   5.0   -0.16    3.48    2.07   253.60311   108.80664   248.26275
    85  C   4.0    0.03    4.50    4.54   251.61512   107.90524   249.93515
    86  C   4.0    0.15    3.49    3.11   249.55343   109.88001   250.17704
    87  O   6.0   -0.31    1.24    1.80   250.00696   111.95681   251.11812
    88  C   4.0   -0.04    4.40    4.38   252.67526   107.35155   252.55998
    89  C   4.0   -0.04    4.30    4.20   250.73451   106.36889   254.49506
    90  C   4.0    0.15    3.29    3.05   249.82744   103.71572   253.96027
    91  O   6.0   -0.31    1.23    1.80   251.15592   102.21150   252.79431
    92  N   5.0   -0.25    3.22    1.96   247.51819   103.06754   254.78230
    93  H   1.0    0.09    1.14    1.45   254.92592   109.31498   249.06021
    94  H   1.0    0.05    1.15    1.45   250.92348   106.36700   249.21517
    95  H   1.0    0.06    1.09    1.44   254.01885   106.11378   252.39936
    96  H   1.0    0.05    1.09    1.44   253.43493   108.88412   253.21950
    97  H   1.0    0.04    1.09    1.44   251.48284   106.41803   256.16747
    98  H   1.0    0.05    1.10    1.44   249.29076   107.49895   254.51963
    99  H   1.0    0.10    1.09    1.44   246.61302   104.14469   255.59677
   100  H   1.0    0.11    1.08    1.44   246.94372   101.57466   254.49506
   101  N   5.0   -0.17    3.49    2.07   247.33678   109.24506   249.16604
   102  C   4.0    0.03    4.48    4.51   245.20328   110.96849   249.23407
   103  C   4.0    0.07    3.25    3.04   242.91293   109.86678   250.56632
   104  O   6.0   -0.30    1.13    1.80   241.31611   111.21415   251.47339
   105  C   4.0   -0.02    4.38    4.34   244.39070   111.79241   246.52987
   106  C   4.0   -0.08    4.22    4.04   246.59601   113.05285   245.12958
   107  C   4.0   -0.09    4.27    4.13   243.49308   109.50395   245.06911
   108  H   1.0    0.09    1.13    1.45   247.03820   107.82398   248.43471
   109  H   1.0    0.07    1.14    1.45   245.79099   112.41980   250.18649
   110  H   1.0    0.05    1.12    1.45   243.02821   113.00939   246.66971
   111  H   1.0    0.04    1.06    1.44   246.04988   113.55174   243.45150
   112  H   1.0    0.05    1.05    1.44   247.14403   114.53440   246.05933
   113  H   1.0    0.06    1.06    1.44   247.98874   111.86989   244.99163
   114  H   1.0    0.04    1.06    1.44   242.98663   110.01418   243.38347
   115  H   1.0    0.05    1.06    1.44   244.85368   108.27941   244.95384
   116  H   1.0    0.05    1.06    1.44   242.06445   108.74806   245.93271
   117  N   5.0   -0.22    3.24    1.96   245.56611   101.14947   244.07889
   118  C   4.0    0.04    4.43    4.43   247.43694   103.14124   243.60835
   119  C   4.0    0.16    3.44    3.09   247.51442   104.06910   240.89282
   120  O   6.0   -0.29    1.23    1.80   246.22751   102.98440   239.25631
   121  C   4.0    0.05    4.35    4.29   250.12224   102.34189   244.35101
   122  O   6.0   -0.26    2.15    1.85   250.75718   100.03264   243.11702
   123  C   4.0   -0.07    4.18    3.97   250.47751   102.15858   247.22151
   124  H   1.0    0.12    1.07    1.44   245.70028    99.83800   243.13025
   125  H   1.0    0.04    1.13    1.45   246.86435   104.51696   244.67605
   126  H   1.0    0.06    1.12    1.45   251.27686   103.65147   243.78977
   127  H   1.0    0.15    1.08    1.44   252.22928    99.60179   243.52520
   128  H   1.0    0.06    1.05    1.44   252.19905   101.64836   247.59378
   129  H   1.0    0.05    1.07    1.44   250.14680   103.79131   247.98496
   130  H   1.0    0.05    1.05    1.44   249.31343   100.91892   247.90370
   131  N   5.0   -0.16    3.54    2.10   248.83344   106.14213   240.42416
   132  C   4.0    0.04    4.60    4.67   249.12068   107.29486   237.96563
   133  C   4.0    0.16    3.51    3.12   251.89480   107.59533   237.42895
   134  O   6.0   -0.31    1.29    1.80   253.18359   109.06553   238.65916
   135  C   4.0   -0.02    4.48    4.51   247.86590   109.92725   237.85225
   136  C   4.0   -0.06    4.33    4.26   245.04832   109.70804   238.40216
   137  C   4.0   -0.09    4.26    4.12   248.40826   111.12344   235.30301
   138  C   4.0   -0.09    4.15    3.90   243.78032   112.22327   238.85758
   139  H   1.0    0.12    1.17    1.46   249.62146   106.94904   241.59390
   140  H   1.0    0.05    1.14    1.45   248.30810   106.21583   236.72597
   141  H   1.0    0.05    1.13    1.45   248.56888   111.02518   239.14104
   142  H   1.0    0.04    1.09    1.44   244.22818   108.87089   236.99242
   143  H   1.0    0.05    1.10    1.44   244.80644   108.64223   239.87425
   144  H   1.0    0.04    1.06    1.44   247.62213   112.77695   235.22364
   145  H   1.0    0.06    1.06    1.44   250.22050   111.29730   235.08191
   146  H   1.0    0.04    1.06    1.44   247.72984   110.06142   233.97264
   147  H   1.0    0.04    1.06    1.44   241.99831   111.95870   239.19584
   148  H   1.0    0.04    1.06    1.44   244.55888   113.04908   240.29755
   149  H   1.0    0.04    1.06    1.44   243.96929   113.28151   237.37226
   150  N   5.0   -0.15    3.51    2.08   252.82643   106.11567   235.62993
   151  C   4.0    0.04    4.51    4.56   255.51551   106.06654   234.92695
   152  C   4.0    0.15    3.42    3.08   256.25629   107.77674   232.72731
   153  O   6.0   -0.30    1.21    1.80   254.94104   107.88445   230.78845
   154  C   4.0   -0.03    4.36    4.30   256.33944   103.39825   234.34869
   155  C   4.0    0.25    3.14    3.03   255.63835   101.47639   236.45007
   156  O   6.0   -0.29    1.22    1.80   254.69537   102.27008   238.46263
   157  O   6.0   -0.29    1.17    1.80   256.06731    99.21061   236.07968
   158  H   1.0    0.10    1.13    1.45   251.90992   105.09144   234.76254
   159  H   1.0    0.07    1.15    1.45   256.38479   106.73550   236.39527
   160  H   1.0    0.06    1.09    1.44   255.57410   102.86534   232.77077
   161  H   1.0    0.06    1.09    1.44   258.15546   103.37368   234.09736
   162  N   5.0   -0.15    3.52    2.09   258.42569   109.00884   233.04856
   163  C   4.0    0.03    4.45    4.47   259.51229   110.68314   231.13616
   164  C   4.0    0.07    3.24    3.04   261.74216   109.34521   229.89461
   165  O   6.0   -0.29    1.16    1.80   262.85899   107.71627   231.11159
   166  C   4.0   -0.03    4.45    4.46   260.37400   113.22482   232.36259
   167  C   4.0   -0.06    4.34    4.27   258.18192   114.50416   233.72131
   168  C   4.0   -0.10    4.28    4.15   261.50028   114.93124   230.40295
   169  C   4.0   -0.09    4.17    3.94   258.83009   117.04774   234.80601
   170  H   1.0    0.12    1.16    1.45   259.31953   108.89546   234.39972
   171  H   1.0    0.05    1.12    1.45   258.24995   111.07431   229.86626
   172  H   1.0    0.05    1.13    1.45   261.66468   112.86010   233.61359
   173  H   1.0    0.04    1.10    1.44   256.78541   114.69503   232.54968
   174  H   1.0    0.05    1.10    1.44   257.59988   113.41190   235.07246
   175  H   1.0    0.04    1.06    1.44   262.02751   116.50160   231.18907
   176  H   1.0    0.04    1.06    1.44   262.95348   114.11299   229.64139
   177  H   1.0    0.04    1.06    1.44   260.25117   115.28462   229.10848
   178  H   1.0    0.04    1.06    1.44   257.35611   117.75071   235.63938
   179  H   1.0    0.04    1.06    1.44   260.19070   116.86632   236.02110
   180  H   1.0    0.05    1.06    1.44   259.36300   118.17023   233.45863
   181  N   5.0   -0.25    3.26    1.97   243.26820   119.39666   233.70052
   182  C   4.0    0.03    4.34    4.28   243.80866   120.29051   236.21952
   183  C   4.0    0.07    3.23    3.04   241.71863   122.10086   237.06423
   184  O   6.0   -0.30    1.11    1.80   240.70195   121.82307   239.14104
   185  C   4.0   -0.05    4.42    4.42   246.32956   121.68512   236.24031
   186  C   4.0   -0.02    3.58    3.15   248.54243   120.09775   237.12659
   187  C   4.0   -0.04    3.52    3.12   250.97639   120.95191   236.75243
   188  C   4.0   -0.05    3.54    3.13   248.19850   117.81118   238.37948
   189  C   4.0   -0.04    3.46    3.10   253.02864   119.54784   237.60469
   190  C   4.0   -0.05    3.43    3.09   250.28475   116.39767   239.26576
   191  C   4.0   -0.05    3.44    3.09   252.68471   117.30285   238.86703
   192  H   1.0    0.10    1.09    1.44   244.40771   119.79729   232.61393
   193  H   1.0    0.05    1.14    1.45   243.89370   118.85998   237.36092
   194  H   1.0    0.04    1.10    1.44   246.68105   122.29928   234.54901
   195  H   1.0    0.05    1.10    1.44   246.18405   123.15533   237.32501
   196  H   1.0    0.05    1.10    1.44   251.24662   122.47881   235.92473
   197  H   1.0    0.05    1.10    1.44   246.56955   117.20269   238.63837
   198  H   1.0    0.05    1.10    1.44   254.65947   120.13744   237.31556
   199  H   1.0    0.05    1.09    1.44   250.03531   114.87455   240.10669
   200  H   1.0    0.05    1.10    1.44   254.07365   116.39956   239.44906
   201  H   1.0    0.10    1.07    1.44   255.62453   124.27101   253.53251
   202  H   1.0    0.05    1.04    1.44   252.50944   125.11624   245.25892
   203  H   1.0    0.10    1.08    1.44   260.42333   123.31774   243.23059
   204  H   1.0    0.06    1.05    1.44   257.03150   124.85762   237.96479
   205  H   1.0    0.09    1.08    1.44   267.14906   105.48804   235.76431
   206  H   1.0    0.05    1.05    1.44   242.70983   107.99296   250.70275
   207  H   1.0    0.09    1.08    1.44   245.70963   100.60331   245.68316
   208  H   1.0    0.04    1.04    1.43   262.25835   109.80301   228.13534
   209  H   1.0    0.09    1.08    1.44   243.15042   117.70004   233.71322
   210  H   1.0    0.05    1.04    1.43   241.17570   123.51198   235.93064

  Z AO/shell   Hii/eV     exponent
  1     Wed Apr 25 08:07:45 CEST 2018   EN: 2.200 GM2: 0.406  GM3: 0.0800  RAES: 1.40
     1s    -10.707211    1.230000
  6     Wed Apr 25 08:07:45 CEST 2018   EN: 2.550 GM2: 0.538  GM3: 0.1500  RAES: 3.00
     2s    -13.970922    2.096432
     2p    -10.063292    1.800000
  7     Wed Apr 25 08:07:45 CEST 2018   EN: 3.040 GM2: 0.461  GM3:-0.0640  RAES: 1.90
     2s    -16.686243    2.339881
     2p    -12.523956    2.014332
  8     Wed Apr 25 08:07:45 CEST 2018   EN: 3.440 GM2: 0.452  GM3:-0.0517  RAES: 1.80
     2s    -20.229985    2.439742
     2p    -15.503117    2.137023
 no old-style atom pair restraining (fixing) potential

molecular fragmentation (1/2 indicates fragments):
111111111111111111111111222222222222222222222222222222222222222222222222
222222222222222222222222222222222222222222222222222222222222222222222222
222222222222222222222222222222222222222222222222222222221122222222
# atoms in fragment 1/2:    26   184
 fragment masses (1/2) :      187.20     1208.48
CMA distance (Bohr)    :  13.957
constraining FC (au)   :  0.0500
           ------------------------------------------------- 
          |        Self-Consistent Charge Iterations        |
           ------------------------------------------------- 

 Ncao       : 504
 Nao        : 504
 Nshell     : 308
 Nel        : 558
 T(el)      :   500.0
 intcut     :    35.0
 scfconv/Eh :  0.100E-06
   qconv/e  :  0.100E-04
 intneglect :  0.100E-08
 broydamp   :      0.400
 iter      E             dE          RMSdq      gap      omega  full diag
   1   -320.1897659 -0.320190E+03  0.459E+00    3.68       0.0  T
   2   -321.0156865 -0.825921E+00  0.213E+00    2.06       1.0  T
   3   -321.0645591 -0.488726E-01  0.124E+00    2.19       1.0  T
   4   -321.1088082 -0.442491E-01  0.226E-01    1.60       1.0  T
   5   -321.1118302 -0.302199E-02  0.104E-01    1.75       1.0  T
   6   -321.1121586 -0.328445E-03  0.446E-02    1.72       1.0  T
   7   -321.1122363 -0.776613E-04  0.164E-02    1.71       1.0  T
   8   -321.1122439 -0.764040E-05  0.820E-03    1.70       1.0  T
   9   -321.1122468 -0.293188E-05  0.339E-03    1.70       2.0  T
  10   -321.1122474 -0.535446E-06  0.136E-03    1.70       5.1  T
  11   -321.1122474 -0.730356E-07  0.521E-04    1.70      13.3  T
  12   -321.1122475 -0.793398E-08  0.228E-04    1.70      30.3  T
  13   -321.1122475 -0.182320E-08  0.103E-04    1.70      67.2  T
  14   -321.1122475 -0.511363E-09  0.441E-05    1.70     156.4  T
  15   -321.1122475 -0.504770E-10  0.175E-05    1.70     394.5  T
speedup  1.00
cpu  time for SCC    1.11 s
wall time for SCC    1.11 s

   *** convergence criteria satisfied after 15 iterations ***

          eigenvalues
 #    :         267        268        269        270        271        272        273        274
 occ. :        2.000      2.000      2.000      2.000      2.000      2.000      2.000      2.000
 eps  :       -10.974    -10.817    -10.805    -10.767    -10.718    -10.668    -10.273    -10.174
 #    :         275        276        277        278        279        280        281        282
 occ. :        2.000      2.000      2.000      2.000      2.000      0.000      0.000      0.000
 eps  :       -10.085    -10.016     -9.940     -9.838     -9.660     -7.962     -7.848     -7.632
 #    :         283        284        285        286        287        288        289        290
 occ. :        0.000      0.000      0.000      0.000      0.000      0.000      0.000      0.000
 eps  :        -7.618     -7.361     -6.712     -6.587     -6.402     -6.257     -6.241     -6.235


   #   Z            q   n(s)   n(p)   n(d)      C6AA      α(0)
   1   7 N     -0.418  1.281  4.137  0.000    30.890     8.254
   2   6 C      0.028  1.027  2.944  0.000    20.102     6.384
   3   6 C      0.265  1.049  2.687  0.000    22.536     7.774
   4   8 O     -0.501  1.757  4.744  0.000    23.807     6.542
   5   6 C     -0.133  1.019  3.114  0.000    23.031     6.830
   6   6 C      0.290  1.032  2.678  0.000    22.082     7.694
   7   8 O     -0.497  1.749  4.748  0.000    23.725     6.531
   8   7 N     -0.305  1.197  4.108  0.000    27.861     7.839
   9   1 H      0.191  0.809  0.000  0.000     1.151     1.680
  10   1 H      0.070  0.930  0.000  0.000     2.086     2.258
  11   1 H      0.092  0.908  0.000  0.000     1.863     2.134
  12   1 H      0.083  0.917  0.000  0.000     1.947     2.182
  13   1 H      0.242  0.758  0.000  0.000     0.913     1.497
  14   1 H      0.234  0.766  0.000  0.000     0.946     1.524
  15   7 N     -0.185  1.212  3.973  0.000    25.008     7.427
  16   6 C      0.014  1.043  2.943  0.000    20.345     6.424
  17   6 C      0.200  1.085  2.715  0.000    23.739     7.979
  18   8 O     -0.348  1.754  4.593  0.000    20.661     6.094
  19   6 C     -0.163  0.985  3.178  0.000    23.709     6.940
  20   1 H      0.230  0.770  0.000  0.000     0.963     1.537
  21   1 H      0.095  0.905  0.000  0.000     1.828     2.114
  22   1 H      0.086  0.914  0.000  0.000     1.916     2.165
  23   1 H      0.091  0.909  0.000  0.000     1.866     2.136
  24   1 H      0.088  0.912  0.000  0.000     1.898     2.154
  25   7 N     -0.412  1.280  4.132  0.000    30.697     8.229
  26   6 C     -0.020  0.997  3.023  0.000    21.002     6.537
  27   6 C      0.208  1.084  2.708  0.000    23.597     7.956
  28   8 O     -0.389  1.754  4.634  0.000    21.457     6.210
  29   1 H      0.192  0.808  0.000  0.000     1.149     1.679
  30   1 H      0.072  0.928  0.000  0.000     2.063     2.246
  31   1 H      0.085  0.915  0.000  0.000     1.923     2.168
  32   7 N     -0.417  1.288  4.129  0.000    30.851     8.249
  33   6 C      0.029  1.028  2.944  0.000    20.095     6.384
  34   6 C      0.269  1.051  2.680  0.000    22.463     7.761
  35   8 O     -0.496  1.741  4.755  0.000    23.695     6.526
  36   6 C     -0.087  1.006  3.081  0.000    22.145     6.696
  37   6 C     -0.029  1.035  2.994  0.000    21.046     6.525
  38   6 C     -0.146  0.975  3.172  0.000    23.352     6.886
  39   6 C     -0.152  0.980  3.172  0.000    23.480     6.905
  40   1 H      0.189  0.811  0.000  0.000     1.164     1.690
  41   1 H      0.044  0.956  0.000  0.000     2.401     2.423
  42   1 H      0.060  0.940  0.000  0.000     2.195     2.317
  43   1 H      0.046  0.954  0.000  0.000     2.365     2.405
  44   1 H      0.046  0.954  0.000  0.000     2.368     2.406
  45   1 H      0.057  0.943  0.000  0.000     2.230     2.335
  46   1 H      0.045  0.955  0.000  0.000     2.383     2.414
  47   1 H      0.052  0.948  0.000  0.000     2.294     2.368
  48   1 H      0.062  0.938  0.000  0.000     2.175     2.306
  49   1 H      0.056  0.944  0.000  0.000     2.240     2.341
  50   1 H      0.050  0.950  0.000  0.000     2.314     2.379
  51   7 N     -0.202  1.218  3.985  0.000    25.398     7.485
  52   6 C      0.009  1.043  2.948  0.000    20.426     6.436
  53   6 C      0.272  1.039  2.689  0.000    22.400     7.750
  54   8 O     -0.493  1.730  4.762  0.000    23.621     6.516
  55   6 C      0.116  1.027  2.857  0.000    18.781     6.188
  56   8 O     -0.500  1.676  4.824  0.000    22.889     6.458
  57   6 C     -0.152  0.979  3.173  0.000    23.477     6.906
  58   1 H      0.220  0.780  0.000  0.000     1.008     1.573
  59   1 H      0.066  0.934  0.000  0.000     2.125     2.279
  60   1 H      0.036  0.964  0.000  0.000     2.497     2.471
  61   1 H      0.340  0.660  0.000  0.000     0.612     1.228
  62   1 H      0.082  0.918  0.000  0.000     1.961     2.190
  63   1 H      0.056  0.944  0.000  0.000     2.242     2.341
  64   1 H      0.071  0.929  0.000  0.000     2.076     2.253
  65   7 N     -0.176  1.218  3.959  0.000    24.817     7.399
  66   6 C      0.014  1.035  2.951  0.000    20.330     6.417
  67   6 C      0.270  1.041  2.689  0.000    22.443     7.758
  68   8 O     -0.500  1.744  4.756  0.000    23.783     6.539
  69   6 C     -0.035  1.033  3.002  0.000    21.151     6.540
  70   6 C     -0.086  1.006  3.081  0.000    22.133     6.696
  71   6 C     -0.153  0.976  3.177  0.000    23.480     6.904
  72   6 C     -0.145  0.972  3.173  0.000    23.332     6.884
  73   1 H      0.211  0.789  0.000  0.000     1.051     1.606
  74   1 H      0.092  0.908  0.000  0.000     1.858     2.131
  75   1 H      0.079  0.921  0.000  0.000     1.992     2.207
  76   1 H      0.046  0.954  0.000  0.000     2.375     2.410
  77   1 H      0.066  0.934  0.000  0.000     2.132     2.283
  78   1 H      0.076  0.924  0.000  0.000     2.022     2.224
  79   1 H      0.057  0.943  0.000  0.000     2.234     2.337
  80   1 H      0.059  0.941  0.000  0.000     2.208     2.324
  81   1 H      0.052  0.948  0.000  0.000     2.299     2.371
  82   1 H      0.062  0.938  0.000  0.000     2.178     2.307
  83   1 H      0.038  0.962  0.000  0.000     2.470     2.458
  84   7 N     -0.184  1.212  3.972  0.000    24.996     7.425
  85   6 C      0.007  1.034  2.959  0.000    20.457     6.439
  86   6 C      0.264  1.041  2.695  0.000    22.546     7.776
  87   8 O     -0.465  1.740  4.724  0.000    23.018     6.432
  88   6 C     -0.093  1.008  3.085  0.000    22.257     6.714
  89   6 C     -0.127  1.013  3.113  0.000    22.914     6.813
  90   6 C      0.277  1.040  2.683  0.000    22.308     7.734
  91   8 O     -0.503  1.761  4.743  0.000    23.858     6.549
  92   7 N     -0.312  1.201  4.111  0.000    28.023     7.862
  93   1 H      0.225  0.775  0.000  0.000     0.986     1.555
  94   1 H      0.073  0.927  0.000  0.000     2.050     2.239
  95   1 H      0.084  0.916  0.000  0.000     1.936     2.175
  96   1 H      0.089  0.911  0.000  0.000     1.886     2.148
  97   1 H      0.113  0.887  0.000  0.000     1.673     2.023
  98   1 H      0.082  0.918  0.000  0.000     1.955     2.186
  99   1 H      0.237  0.763  0.000  0.000     0.936     1.516
 100   1 H      0.237  0.763  0.000  0.000     0.934     1.514
 101   7 N     -0.176  1.203  3.973  0.000    24.821     7.399
 102   6 C     -0.002  1.046  2.956  0.000    20.612     6.464
 103   6 C      0.200  1.077  2.722  0.000    23.736     7.979
 104   8 O     -0.352  1.748  4.604  0.000    20.743     6.106
 105   6 C     -0.031  1.044  2.987  0.000    21.088     6.531
 106   6 C     -0.152  0.979  3.173  0.000    23.480     6.905
 107   6 C     -0.157  0.976  3.181  0.000    23.577     6.919
 108   1 H      0.201  0.799  0.000  0.000     1.099     1.642
 109   1 H      0.125  0.875  0.000  0.000     1.570     1.959
 110   1 H      0.085  0.915  0.000  0.000     1.929     2.172
 111   1 H      0.073  0.927  0.000  0.000     2.054     2.241
 112   1 H      0.066  0.934  0.000  0.000     2.128     2.281
 113   1 H      0.053  0.947  0.000  0.000     2.284     2.363
 114   1 H      0.078  0.922  0.000  0.000     1.999     2.211
 115   1 H      0.047  0.953  0.000  0.000     2.353     2.398
 116   1 H      0.059  0.941  0.000  0.000     2.215     2.327
 117   7 N     -0.404  1.280  4.125  0.000    30.490     8.201
 118   6 C      0.020  1.037  2.944  0.000    20.249     6.408
 119   6 C      0.273  1.044  2.683  0.000    22.392     7.749
 120   8 O     -0.517  1.756  4.760  0.000    24.153     6.589
 121   6 C      0.109  1.021  2.869  0.000    18.871     6.200
 122   8 O     -0.507  1.686  4.821  0.000    23.031     6.478
 123   6 C     -0.155  0.983  3.172  0.000    23.544     6.916
 124   1 H      0.178  0.822  0.000  0.000     1.223     1.732
 125   1 H      0.072  0.928  0.000  0.000     2.061     2.245
 126   1 H      0.029  0.971  0.000  0.000     2.602     2.522
 127   1 H      0.315  0.685  0.000  0.000     0.676     1.291
 128   1 H      0.060  0.940  0.000  0.000     2.200     2.319
 129   1 H      0.065  0.935  0.000  0.000     2.146     2.290
 130   1 H      0.072  0.928  0.000  0.000     2.062     2.245
 131   7 N     -0.188  1.207  3.980  0.000    25.066     7.436
 132   6 C      0.020  1.033  2.947  0.000    20.238     6.404
 133   6 C      0.281  1.038  2.681  0.000    22.249     7.725
 134   8 O     -0.485  1.727  4.757  0.000    23.444     6.492
 135   6 C     -0.034  1.040  2.994  0.000    21.132     6.537
 136   6 C     -0.089  1.002  3.087  0.000    22.184     6.703
 137   6 C     -0.147  0.975  3.173  0.000    23.375     6.889
 138   6 C     -0.148  0.975  3.173  0.000    23.386     6.892
 139   1 H      0.227  0.773  0.000  0.000     0.977     1.549
 140   1 H      0.064  0.936  0.000  0.000     2.155     2.295
 141   1 H      0.074  0.926  0.000  0.000     2.041     2.234
 142   1 H      0.050  0.950  0.000  0.000     2.320     2.382
 143   1 H      0.051  0.949  0.000  0.000     2.312     2.377
 144   1 H      0.082  0.918  0.000  0.000     1.963     2.191
 145   1 H      0.042  0.958  0.000  0.000     2.416     2.430
 146   1 H      0.049  0.951  0.000  0.000     2.327     2.385
 147   1 H      0.062  0.938  0.000  0.000     2.179     2.308
 148   1 H      0.062  0.938  0.000  0.000     2.180     2.309
 149   1 H      0.056  0.944  0.000  0.000     2.241     2.341
 150   7 N     -0.190  1.217  3.973  0.000    25.114     7.443
 151   6 C      0.033  1.031  2.936  0.000    20.016     6.370
 152   6 C      0.263  1.048  2.689  0.000    22.569     7.779
 153   8 O     -0.514  1.752  4.761  0.000    24.086     6.580
 154   6 C     -0.114  1.016  3.098  0.000    22.662     6.775
 155   6 C      0.371  1.022  2.607  0.000    20.715     7.448
 156   8 O     -0.644  1.769  4.875  0.000    27.214     6.994
 157   8 O     -0.639  1.768  4.871  0.000    27.097     6.979
 158   1 H      0.197  0.803  0.000  0.000     1.121     1.658
 159   1 H      0.080  0.920  0.000  0.000     1.983     2.202
 160   1 H      0.047  0.953  0.000  0.000     2.360     2.402
 161   1 H      0.052  0.948  0.000  0.000     2.295     2.369
 162   7 N     -0.171  1.209  3.962  0.000    24.707     7.382
 163   6 C      0.010  1.045  2.945  0.000    20.411     6.433
 164   6 C      0.193  1.085  2.722  0.000    23.884     8.004
 165   8 O     -0.364  1.762  4.602  0.000    20.970     6.140
 166   6 C     -0.028  1.041  2.987  0.000    21.026     6.521
 167   6 C     -0.084  1.000  3.084  0.000    22.089     6.689
 168   6 C     -0.161  0.977  3.185  0.000    23.659     6.931
 169   6 C     -0.146  0.974  3.172  0.000    23.352     6.887
 170   1 H      0.229  0.771  0.000  0.000     0.971     1.544
 171   1 H      0.101  0.899  0.000  0.000     1.771     2.081
 172   1 H      0.063  0.937  0.000  0.000     2.169     2.303
 173   1 H      0.054  0.946  0.000  0.000     2.268     2.355
 174   1 H      0.046  0.954  0.000  0.000     2.374     2.409
 175   1 H      0.086  0.914  0.000  0.000     1.915     2.164
 176   1 H      0.057  0.943  0.000  0.000     2.228     2.334
 177   1 H      0.069  0.931  0.000  0.000     2.098     2.265
 178   1 H      0.058  0.942  0.000  0.000     2.217     2.328
 179   1 H      0.055  0.945  0.000  0.000     2.260     2.351
 180   1 H      0.064  0.936  0.000  0.000     2.147     2.291
 181   7 N     -0.416  1.281  4.134  0.000    30.810     8.244
 182   6 C      0.028  1.031  2.941  0.000    20.115     6.387
 183   6 C      0.195  1.095  2.710  0.000    23.842     7.997
 184   8 O     -0.384  1.764  4.621  0.000    21.372     6.198
 185   6 C     -0.099  1.013  3.086  0.000    22.365     6.729
 186   6 C      0.003  1.085  2.912  0.000    27.964     8.674
 187   6 C     -0.057  1.055  3.002  0.000    29.425     8.896
 188   6 C     -0.070  1.058  3.012  0.000    29.732     8.942
 189   6 C     -0.049  1.054  2.994  0.000    29.205     8.863
 190   6 C     -0.055  1.060  2.995  0.000    29.362     8.886
 191   6 C     -0.060  1.051  3.009  0.000    29.485     8.905
 192   1 H      0.193  0.807  0.000  0.000     1.143     1.675
 193   1 H      0.078  0.922  0.000  0.000     2.003     2.213
 194   1 H      0.080  0.920  0.000  0.000     1.979     2.200
 195   1 H      0.074  0.926  0.000  0.000     2.042     2.234
 196   1 H      0.060  0.940  0.000  0.000     2.200     2.319
 197   1 H      0.066  0.934  0.000  0.000     2.134     2.284
 198   1 H      0.050  0.950  0.000  0.000     2.323     2.383
 199   1 H      0.060  0.940  0.000  0.000     2.195     2.317
 200   1 H      0.054  0.946  0.000  0.000     2.273     2.357
 201   1 H      0.180  0.820  0.000  0.000     1.213     1.725
 202   1 H      0.077  0.923  0.000  0.000     2.011     2.217
 203   1 H      0.180  0.820  0.000  0.000     1.212     1.725
 204   1 H      0.073  0.927  0.000  0.000     2.047     2.237
 205   1 H      0.182  0.818  0.000  0.000     1.205     1.719
 206   1 H      0.075  0.925  0.000  0.000     2.031     2.229
 207   1 H      0.195  0.805  0.000  0.000     1.134     1.668
 208   1 H      0.087  0.913  0.000  0.000     1.904     2.158
 209   1 H      0.178  0.822  0.000  0.000     1.228     1.736
 210   1 H      0.075  0.925  0.000  0.000     2.027     2.226

 Mol. C6AA /au·bohr⁶  :     391501.185997
 Mol. C8AA /au·bohr⁸  :    8653305.628042
 Mol. α(0) /au        :        935.117090

 
molecular dipole:
                 x           y           z       tot (Debye)
 q only:     -256.633    -100.673    -233.974
   full:     -255.401    -102.445    -233.643     917.564
molecular quadrupole (traceless):
                xx          xy          yy          xz          yz          zz
 q only:   -33433.783  -38812.495   50074.158  -90147.697  -35335.667  -16640.375
  q+dip:   -32701.235  -39280.486   49279.895  -89574.433  -35920.710  -16578.660
   full:   -32702.237  -39280.116   49279.583  -89573.853  -35916.873  -16577.346
speedup  1.00
cpu  time for grad    1.58 s
wall time for grad    1.58 s

SCC energy    :    -321.1193188
rep           :       6.9572346
ES            :       0.9777950
AES           :      -0.0174113
AXC           :       0.0501729
disp          :      -0.2569436
XB            :       0.0000000
fix           :       0.0000000
Gborn         :       0.0000000
Gsasa         :       0.0000000
Ghb           :       0.0000000
Gshift        :       0.0000000
Gsolv         :      -0.2216284     -139.07
Etot ala COSMO:    -321.1193188
grad norm     :       1.8432647
total E       :    -314.1386016
atomizationE  :      56.6940367    35576.05
(atE without considering molecular charge,
 total energy contains solvation terms)
H-L gap (eV)  :          1.6973

------------------------------------------------------------------------
 * finished run on 2019/03/07 at 11:37:51.531     
------------------------------------------------------------------------
 total:
 * wall-time:     0 d,  0 h,  0 min,  1.884 sec
 *  cpu-time:     0 d,  0 h,  0 min,  1.779 sec
 * ratio c/w:     0.944 speedup
 SCF:
 * wall-time:     0 d,  0 h,  0 min,  1.724 sec
 *  cpu-time:     0 d,  0 h,  0 min,  1.724 sec
 * ratio c/w:     1.000 speedup

