      -----------------------------------------------------------      
     |                   =====================                   |     
     |                           x T B                           |     
     |                   =====================                   |     
     |                         S. Grimme                         |     
     |          Mulliken Center for Theoretical Chemistry        |     
     |                    University of Bonn                     |     
     |                Version 6.1 RC1 (SAW190329)                |     
      -----------------------------------------------------------      

   This program is distributed in the hope that it will be useful,
   but WITHOUT ANY WARRANTY; without even the implied warranty of
   MERCHANTABILITY or FITNESS FOR A PARTICULAR PURPOSE.
   
   FOR NON-COMMERCIAL, ACADEMIA USE ONLY.
   
   Cite this work as:
   S. Grimme, C. Bannwarth, P. Shushkov, J. Comput. Theory Chem., 2017,
   13, 1989-2009. DOI: 10.1021/acs.jctc.7b00118
   C. Bannwarth, S. Ehlert and S. Grimme., J. Comput. Theory Chem., 2019,
   just accepted. DOI: 10.1021/acs.jctc.8b01176
   
   for sTDA-xTB:
   S. Grimme and C. Bannwarth, J. Chem. Phys., 2016, 145, 054103.
   DOI: 10.1063/1.4959605
   
   in the mass-spec context:
   V. Asgeirsson, C. Bauer and S. Grimme, Chem. Sci., 2017, 8, 4879.
   DOI: 10.1039/c7sc00601b
   
   for metadynamics refer to:
   S. Grimme, ChemRxiv, Preprint. DOI: 10.26434/chemrxiv.7660532.v1
   
   with help from (in alphabetical order)
   C. Bannwarth, F. Bohle, G. Brandenburg, E. Caldeweyher, M. Checinski,
   S. Dohm, S. Ehlert, S. Ehrlich, F. März, H. Neugebauer, J. Pisarek,
   P. Pracht, P. Shushkov, and S. Spicher.
   
 * started run on 2019/05/31 at 07:35:55.430     

           -------------------------------------------------
          |                Calculation Setup                |
           -------------------------------------------------

          program call               : /home/lum/install/xtb/xtb-190329/bin/xtb xtb_tmp.xyz --chrg 1 --grad --gfn 2 --etemp 500 --acc 0.1 --gbsa h2o --parallel 1
          hostname                   : cu05
          coordinate file            : xtb_tmp.xyz
          omp threads                :                     1
          number of atoms            :                   491
          number of electrons        :                  1276
          charge                     :                     1
          spin                       :                   0.0
          first test random number   :      0.44566368399254


molecular fragmentation (1/2 indicates fragments):
111111111111111111111111111111111111111111111111111111111111111111111111
111111111111111111111111111111111111111111111111111111111111111111111111
111111111111111111111111111111111111111111111111111111111111111111111111
111111111111111111111111111111111111111111111111111111111111111111111111
111111111111111111111111111111111111122222222222222222222222222222222222
222222222222222222222222222222222222222222222222222222222222222222222222
22222222222222222222222222222222222222222222211222222222222
# atoms in fragment 1/2:   327   164
 fragment masses (1/2) :     2179.71     1027.34
CMA distance (Bohr)    :  12.846
constraining FC (au)   :  0.0500

########################################################################
# WARNING! Please study the warnings concerning your input carefully
#  - XTBPATH is not set, using XTBHOME instead
########################################################################

           ------------------------------------------------- 
          |                 G F N 2 - x T B                 |
          | Geometry, Frequencies, Noncovalent interactions |
          |            JCTC 2018 parametrisation            |
           ------------------------------------------------- 
 
             k(s)              :                1.8500
             k(p)              :                2.2300
             k(d)              :                2.2300
             k(f)              :                2.0000
             kEN (H0ij)        :               -2.0000
             D4 a1             :                0.5200
             D4 a2             :                5.0000
             D4 s6             :                1.0000
             D4 s8             :                2.7000
             D4 s9             :                5.0000
             alphaj            :                2.0000

  Z AO/shell   Hii/eV     exponent
  1     Wed Apr 25 08:07:45 CEST 2018   EN: 2.200 GM2: 0.406  GM3: 0.0800  RAES: 1.40
     1s    -10.707211    1.230000
  6     Wed Apr 25 08:07:45 CEST 2018   EN: 2.550 GM2: 0.538  GM3: 0.1500  RAES: 3.00
     2s    -13.970922    2.096432
     2p    -10.063292    1.800000
  7     Wed Apr 25 08:07:45 CEST 2018   EN: 3.040 GM2: 0.461  GM3:-0.0640  RAES: 1.90
     2s    -16.686243    2.339881
     2p    -12.523956    2.014332
  8     Wed Apr 25 08:07:45 CEST 2018   EN: 3.440 GM2: 0.452  GM3:-0.0517  RAES: 1.80
     2s    -20.229985    2.439742
     2p    -15.503117    2.137023

 Solvent             : h2o
 Using internal parameter file: .param_gbsa2_h2o
 Gsolv ref. state (COSMO-RS): gsolv [1 M gas/solution]
 temperature (mdtemp)       :    298.150000000000     
 dielectric constant        :    80.2000000000000     
 rho                        :    1.00000000000000     
 mass                       :    18.0000000000000     
 surface tension            :    15.5689454083859     
 probe radius               :   0.975313790000000     
 vdW radii scaling          :    1.00000000000000     
 Gshift (Eh)                :   1.857443126794793E-003
 c1                         :    1.55243817000000     
 soset                      :   0.130326360000000     
 HB correction              :  T
 Number of grid points      :          230

            Z     q(EN)     CN     RAES       Cart. coordinates
     1  N   5.0   -0.72    3.00    1.93    43.82518    68.85260    51.19803
     2  C   4.0    0.07    3.98    3.59    43.64154    69.85725    53.74281
     3  C   4.0    0.29    3.01    3.02    43.05324    72.67905    53.69057
     4  O   6.0   -0.49    1.00    1.80    41.40686    73.61760    55.06025
     5  C   4.0   -0.13    3.99    3.60    46.13058    69.34889    55.14482
     6  C   4.0   -0.03    3.12    3.03    46.00415    69.99983    57.88713
     7  C   4.0    0.02    3.23    3.04    45.25141    68.42067    59.79010
     8  C   4.0    0.02    3.18    3.03    46.68033    72.33421    59.06024
     9  N   5.0   -0.47    3.10    1.94    45.44347    69.59946    62.07230
    10  C   4.0    0.13    3.23    3.04    46.31382    71.99433    61.69615
    11  C   4.0   -0.11    3.02    3.02    47.58613    74.64992    58.17403
    12  C   4.0   -0.09    3.02    3.02    46.86294    73.89910    63.42189
    13  C   4.0   -0.12    3.03    3.02    48.12762    76.52604    59.89435
    14  C   4.0   -0.12    3.03    3.02    47.78299    76.15185    62.49092
    15  H   1.0    0.25    1.00    1.43    45.46545    68.01188    50.67242
    16  H   1.0    0.13    0.99    1.43    42.06372    68.92428    54.71430
    17  H   1.0    0.11    0.99    1.43    46.55663    67.34014    54.94084
    18  H   1.0    0.11    0.99    1.43    47.61389    70.43976    54.22019
    19  H   1.0    0.12    1.00    1.43    44.61101    66.50409    59.65149
    20  H   1.0    0.28    1.00    1.43    44.91548    68.85357    63.75525
    21  H   1.0    0.11    1.00    1.43    47.87324    74.95635    56.17677
    22  H   1.0    0.13    1.00    1.43    46.61710    73.61211    65.42566
    23  H   1.0    0.11    0.99    1.43    48.85114    78.32733    59.25347
    24  H   1.0    0.11    0.99    1.43    48.25764    77.66611    63.77868
    25  N   5.0   -0.49    3.01    1.93    44.43915    74.05032    52.12141
    26  C   4.0    0.07    4.00    3.62    44.04512    76.73992    51.86807
    27  C   4.0    0.29    3.02    3.02    41.32460    77.33621    51.13332
    28  O   6.0   -0.48    1.00    1.80    40.23236    79.16955    52.05525
    29  C   4.0   -0.15    3.99    3.60    45.81824    77.86901    49.88764
    30  C   4.0   -0.11    3.98    3.58    48.56377    78.04968    50.79392
    31  C   4.0   -0.23    3.98    3.59    50.29686    78.60644    48.55461
    32  C   4.0   -0.23    3.98    3.59    48.87064    80.09005    52.80845
    33  H   1.0    0.23    1.00    1.43    45.79264    73.22925    51.03416
    34  H   1.0    0.12    0.99    1.43    44.35065    77.64098    53.71216
    35  H   1.0    0.10    0.99    1.43    45.69926    76.68388    48.20356
    36  H   1.0    0.11    0.99    1.43    45.13918    79.75379    49.39355
    37  H   1.0    0.11    0.99    1.43    49.09950    76.21772    51.58928
    38  H   1.0    0.10    0.99    1.43    52.23740    78.81800    49.19037
    39  H   1.0    0.10    0.99    1.43    50.22890    77.07263    47.18860
    40  H   1.0    0.10    0.99    1.43    49.72707    80.34653    47.62207
    41  H   1.0    0.10    0.99    1.43    50.80354    80.14016    53.49424
    42  H   1.0    0.10    0.99    1.43    48.40443    81.93457    52.03164
    43  H   1.0    0.10    0.99    1.43    47.64903    79.75406    54.42450
    44  N   5.0   -0.48    3.01    1.93    40.26454    75.83730    49.41906
    45  C   4.0    0.07    4.00    3.63    37.69135    76.29672    48.61097
    46  C   4.0    0.29    3.02    3.02    35.94793    76.08827    50.90091
    47  O   6.0   -0.46    1.00    1.80    34.42451    77.75873    51.42108
    48  C   4.0   -0.10    3.98    3.58    36.87762    74.51774    46.47541
    49  C   4.0   -0.23    3.98    3.59    34.10040    74.98539    45.84808
    50  C   4.0   -0.23    3.98    3.59    38.50252    74.94413    44.13062
    51  H   1.0    0.24    1.00    1.43    41.24782    74.40041    48.62250
    52  H   1.0    0.12    0.99    1.43    37.54730    78.26589    47.96122
    53  H   1.0    0.12    0.99    1.43    37.12773    72.57665    47.14399
    54  H   1.0    0.10    0.99    1.43    33.52108    73.80387    44.27294
    55  H   1.0    0.11    0.99    1.43    32.90207    74.56771    47.46215
    56  H   1.0    0.10    0.99    1.43    33.81533    76.95140    45.32015
    57  H   1.0    0.10    0.99    1.43    37.88268    73.70430    42.61561
    58  H   1.0    0.10    0.99    1.43    38.34246    76.88875    43.48610
    59  H   1.0    0.10    0.99    1.43    40.47915    74.54656    44.50769
    60  N   5.0   -0.47    3.01    1.93    36.20440    74.01377    52.31931
    61  C   4.0    0.07    4.00    3.62    34.66300    73.78408    54.56243
    62  C   4.0    0.30    3.01    3.02    34.93166    76.16135    56.20519
    63  O   6.0   -0.46    1.00    1.80    33.06662    77.23256    57.06907
    64  C   4.0   -0.02    3.98    3.58    35.28301    71.40707    56.15911
    65  O   6.0   -0.48    1.99    1.82    37.62590    70.29992    55.72533
    66  H   1.0    0.26    1.00    1.43    37.40507    72.59353    51.84194
    67  H   1.0    0.11    0.99    1.43    32.66298    73.70616    54.00235
    68  H   1.0    0.12    0.99    1.43    35.08139    71.94275    58.16278
    69  H   1.0    0.13    0.99    1.43    33.89793    69.93803    55.72448
    70  H   1.0    0.31    0.99    1.43    38.97168    71.57802    55.74819
    71  N   5.0   -0.47    3.01    1.93    37.30026    76.84232    56.73095
    72  C   4.0    0.07    4.00    3.61    37.86743    78.97620    58.36373
    73  C   4.0    0.30    3.01    3.02    36.41739    81.30360    57.44910
    74  O   6.0   -0.46    1.00    1.80    35.14141    82.60417    58.88785
    75  C   4.0   -0.14    3.99    3.60    40.70759    79.51801    58.32900
    76  C   4.0   -0.10    3.98    3.58    41.44658    81.72242    60.08193
    77  C   4.0   -0.23    3.98    3.59    42.39992    80.73979    62.62168
    78  C   4.0   -0.23    3.98    3.59    43.44985    83.38561    58.83542
    79  H   1.0    0.30    1.00    1.43    38.79525    75.87266    56.01907
    80  H   1.0    0.12    0.99    1.43    37.21881    78.56392    60.29157
    81  H   1.0    0.12    0.99    1.43    41.71701    77.80802    58.88927
    82  H   1.0    0.13    0.99    1.43    41.23601    79.96512    56.38721
    83  H   1.0    0.13    0.99    1.43    39.76976    82.88761    60.41889
    84  H   1.0    0.10    0.99    1.43    42.85383    82.30460    63.87194
    85  H   1.0    0.11    0.99    1.43    40.98175    79.56832    63.53551
    86  H   1.0    0.11    0.99    1.43    44.09832    79.61643    62.34720
    87  H   1.0    0.10    0.99    1.43    43.90292    84.97943    60.04768
    88  H   1.0    0.10    0.99    1.43    45.18166    82.32587    58.51938
    89  H   1.0    0.10    0.99    1.43    42.77281    84.11394    57.03577
    90  N   5.0   -0.48    3.01    1.93    36.73284    81.81815    55.01332
    91  C   4.0    0.07    3.99    3.61    35.63551    84.02116    53.80660
    92  C   4.0    0.30    3.02    3.02    32.80148    84.03473    54.30335
    93  O   6.0   -0.49    1.00    1.80    31.73018    85.84893    55.30939
    94  C   4.0   -0.14    3.99    3.60    36.30909    83.91604    50.99373
    95  C   4.0   -0.11    3.97    3.58    35.47170    86.16948    49.37002
    96  C   4.0   -0.22    3.98    3.59    32.64151    86.12578    48.81186
    97  C   4.0   -0.23    3.98    3.59    36.24375    88.69798    50.52932
    98  H   1.0    0.31    1.00    1.43    37.83464    80.68635    53.92137
    99  H   1.0    0.12    0.99    1.43    36.41868    85.73174    54.68234
   100  H   1.0    0.11    0.99    1.43    38.36510    83.75871    50.89710
   101  H   1.0    0.13    0.99    1.43    35.51233    82.17923    50.21500
   102  H   1.0    0.10    0.99    1.43    36.46666    85.96707    47.56337
   103  H   1.0    0.09    0.99    1.43    32.16687    87.62181    47.48726
   104  H   1.0    0.10    0.99    1.43    32.08806    84.32478    47.99125
   105  H   1.0    0.12    0.99    1.43    31.55040    86.43661    50.52091
   106  H   1.0    0.10    0.99    1.43    35.91345    90.21656    49.18674
   107  H   1.0    0.12    0.99    1.43    35.14979    89.11012    52.21987
   108  H   1.0    0.10    0.99    1.43    38.23768    88.69323    51.02507
   109  N   5.0   -0.48    3.01    1.93    31.56027    81.97632    53.59548
   110  C   4.0    0.07    4.00    3.62    28.84361    81.82722    53.88812
   111  C   4.0    0.30    3.01    3.02    28.08455    82.46761    56.60596
   112  O   6.0   -0.47    1.00    1.80    26.35771    83.94602    57.07099
   113  C   4.0   -0.14    3.99    3.60    27.89334    79.20188    53.16152
   114  C   4.0   -0.10    3.98    3.58    28.13857    78.61668    50.33076
   115  C   4.0   -0.23    3.98    3.59    27.58130    75.81804    49.89856
   116  C   4.0   -0.23    3.98    3.59    26.36115    80.23209    48.73283
   117  H   1.0    0.29    1.00    1.43    32.49728    80.45970    52.88980
   118  H   1.0    0.11    0.99    1.43    27.96272    83.27770    52.69639
   119  H   1.0    0.12    0.99    1.43    28.98796    77.82307    54.23651
   120  H   1.0    0.10    0.99    1.43    25.91430    79.04498    53.72122
   121  H   1.0    0.13    0.99    1.43    30.08867    78.98324    49.74982
   122  H   1.0    0.10    0.99    1.43    27.70688    75.37165    47.89803
   123  H   1.0    0.10    0.99    1.43    28.93577    74.65039    50.91219
   124  H   1.0    0.10    0.99    1.43    25.68854    75.35457    50.54995
   125  H   1.0    0.10    0.99    1.43    26.53467    79.72078    46.75047
   126  H   1.0    0.10    0.99    1.43    24.41168    79.93602    49.31192
   127  H   1.0    0.09    0.99    1.43    26.79490    82.23124    48.91396
   128  N   5.0   -0.47    3.01    1.93    29.36945    81.24143    58.38934
   129  C   4.0    0.07    4.00    3.61    28.81954    81.60769    61.04762
   130  C   4.0    0.30    3.01    3.02    29.04159    84.40546    61.74719
   131  O   6.0   -0.46    1.00    1.80    27.43235    85.48720    63.01666
   132  C   4.0   -0.21    3.99    3.60    30.63959    80.05020    62.64067
   133  H   1.0    0.30    1.00    1.43    30.76434    80.01139    57.92616
   134  H   1.0    0.11    0.99    1.43    26.85429    81.04489    61.41073
   135  H   1.0    0.10    0.99    1.43    30.16969    80.23759    64.62950
   136  H   1.0    0.10    0.99    1.43    30.50237    78.07798    62.08510
   137  H   1.0    0.13    0.99    1.43    32.56504    80.69075    62.31816
   138  N   5.0   -0.48    3.01    1.93    31.14383    85.52709    60.93185
   139  C   4.0    0.08    3.99    3.61    31.67502    88.13896    61.54223
   140  C   4.0    0.32    3.01    3.02    29.54358    89.85394    60.61097
   141  O   6.0   -0.47    1.00    1.80    28.79291    91.63149    61.89739
   142  C   4.0   -0.02    3.98    3.58    34.23570    88.96636    60.43186
   143  O   6.0   -0.48    1.99    1.82    34.16972    89.59084    57.86483
   144  H   1.0    0.31    1.00    1.43    32.46354    84.52492    59.96028
   145  H   1.0    0.11    0.99    1.43    31.75880    88.34606    63.60679
   146  H   1.0    0.11    0.99    1.43    34.87391    90.66638    61.41625
   147  H   1.0    0.12    0.99    1.43    35.59541    87.43485    60.78653
   148  H   1.0    0.31    0.99    1.43    33.42961    88.18036    56.91494
   149  N   5.0   -0.46    3.01    1.93    28.60657    89.27978    58.35135
   150  C   4.0    0.08    4.00    3.62    26.56525    90.72119    57.23795
   151  C   4.0    0.29    3.01    3.02    24.23677    90.54679    58.93671
   152  O   6.0   -0.47    1.00    1.80    23.06837    92.44560    59.57773
   153  C   4.0   -0.09    3.98    3.59    26.00672    89.78972    54.54876
   154  C   4.0   -0.23    3.98    3.59    23.54950    90.93867    53.56668
   155  C   4.0   -0.22    3.98    3.59    28.19985    90.47298    52.80423
   156  H   1.0    0.30    1.00    1.43    29.31309    87.80851    57.35284
   157  H   1.0    0.12    0.99    1.43    27.10493    92.72681    57.18529
   158  H   1.0    0.14    0.99    1.43    25.80684    87.73208    54.63514
   159  H   1.0    0.09    0.99    1.43    23.22832    90.35264    51.62577
   160  H   1.0    0.11    0.99    1.43    21.94572    90.34055    54.70325
   161  H   1.0    0.10    0.99    1.43    23.65285    92.99096    53.61736
   162  H   1.0    0.09    0.99    1.43    27.84057    89.76088    50.91202
   163  H   1.0    0.10    0.99    1.43    28.41968    92.51340    52.69996
   164  H   1.0    0.13    0.99    1.43    29.95804    89.66437    53.48853
   165  N   5.0   -0.48    3.01    1.93    23.58352    88.22952    59.66978
   166  C   4.0    0.08    4.00    3.62    21.41801    87.84429    61.31003
   167  C   4.0    0.30    3.01    3.02    21.68642    89.53780    63.64380
   168  O   6.0   -0.46    1.00    1.80    20.00786    90.97947    64.33491
   169  C   4.0   -0.09    3.98    3.58    21.16516    85.04921    62.04855
   170  C   4.0   -0.23    3.98    3.59    19.09862    84.72273    64.03736
   171  C   4.0   -0.23    3.98    3.59    20.57074    83.44474    59.72340
   172  H   1.0    0.29    1.00    1.43    24.57530    86.70464    59.07187
   173  H   1.0    0.11    0.99    1.43    19.69857    88.46987    60.32332
   174  H   1.0    0.14    0.99    1.43    22.98027    84.44815    62.83772
   175  H   1.0    0.09    0.99    1.43    18.89112    82.73612    64.51242
   176  H   1.0    0.11    0.99    1.43    19.54443    85.76878    65.74726
   177  H   1.0    0.10    0.99    1.43    17.30056    85.40807    63.31606
   178  H   1.0    0.09    0.99    1.43    20.33501    81.47995    60.27369
   179  H   1.0    0.10    0.99    1.43    18.82878    84.08014    58.83762
   180  H   1.0    0.13    0.99    1.43    22.08502    83.54651    58.34057
   181  N   5.0   -0.48    3.01    1.93    23.85740    89.26457    64.89408
   182  C   4.0    0.07    4.00    3.61    24.42019    90.75020    67.12795
   183  C   4.0    0.31    3.01    3.02    23.90379    93.55464    66.62756
   184  O   6.0   -0.45    1.00    1.80    22.58681    94.81992    68.05496
   185  C   4.0   -0.13    3.99    3.59    27.18294    90.32201    67.90316
   186  C   4.0   -0.03    3.12    3.03    28.02406    92.11747    69.91163
   187  C   4.0    0.01    3.22    3.04    27.61449    91.96966    72.45636
   188  C   4.0    0.02    3.18    3.03    29.43851    94.37994    69.49513
   189  N   5.0   -0.48    3.10    1.94    28.68242    93.99806    73.65029
   190  C   4.0    0.11    3.22    3.04    29.82312    95.49904    71.89399
   191  C   4.0   -0.11    3.02    3.02    30.44696    95.53489    67.34985
   192  C   4.0   -0.11    3.02    3.02    31.16312    97.74093    72.18003
   193  C   4.0   -0.11    3.03    3.02    31.76830    97.75603    67.64741
   194  C   4.0   -0.12    3.03    3.02    32.12339    98.84930    70.02877
   195  H   1.0    0.30    1.00    1.43    25.20353    88.06813    64.23811
   196  H   1.0    0.12    0.99    1.43    23.13892    90.18415    68.66104
   197  H   1.0    0.11    0.99    1.43    27.37739    88.36824    68.53809
   198  H   1.0    0.14    0.99    1.43    28.35705    90.58954    66.22943
   199  H   1.0    0.11    1.00    1.43    26.65091    90.52155    73.49840
   200  H   1.0    0.25    1.00    1.43    28.76371    94.27737    75.52974
   201  H   1.0    0.13    0.99    1.43    30.21492    94.69332    65.50456
   202  H   1.0    0.11    1.00    1.43    31.45936    98.57735    74.01359
   203  H   1.0    0.11    0.99    1.43    32.56747    98.67849    66.00904
   204  H   1.0    0.11    0.99    1.43    33.17705   100.59222    70.16650
   205  N   5.0   -0.48    3.01    1.93    25.02591    94.48125    64.57943
   206  C   4.0    0.08    4.00    3.61    24.82535    97.10995    63.85862
   207  C   4.0    0.30    3.01    3.02    22.05976    97.92799    63.68095
   208  O   6.0   -0.44    1.00    1.80    21.29835    99.87619    64.68181
   209  C   4.0   -0.13    3.99    3.61    26.13990    97.49632    61.30694
   210  C   4.0   -0.03    3.03    3.02    25.93604   100.18247    60.41352
   211  C   4.0   -0.08    3.03    3.02    23.96875   100.91853    58.83871
   212  C   4.0   -0.10    3.03    3.02    27.71305   101.96940    61.14626
   213  C   4.0   -0.09    3.03    3.02    23.79430   103.38506    57.98824
   214  C   4.0   -0.11    3.03    3.02    27.55616   104.43262    60.28073
   215  C   4.0   -0.09    3.03    3.02    25.60005   105.14362    58.69113
   216  H   1.0    0.30    1.00    1.43    26.13589    93.36124    63.49010
   217  H   1.0    0.12    0.99    1.43    25.71349    98.29905    65.31277
   218  H   1.0    0.11    0.99    1.43    28.11986    96.95639    61.51740
   219  H   1.0    0.14    0.99    1.43    25.25632    96.22532    59.94497
   220  H   1.0    0.12    0.99    1.43    22.57575    99.54006    58.26211
   221  H   1.0    0.11    1.00    1.43    29.24159   101.41453    62.37957
   222  H   1.0    0.12    1.00    1.43    22.25336   103.93523    56.76890
   223  H   1.0    0.11    0.99    1.43    28.97985   105.79086    60.82758
   224  H   1.0    0.12    1.00    1.43    25.47499   107.05930    58.00027
   225  N   5.0   -0.48    3.01    1.93    20.57309    96.40613    62.33681
   226  C   4.0    0.08    4.00    3.62    17.91651    96.98588    62.00820
   227  C   4.0    0.30    3.01    3.02    16.76841    97.53916    64.60272
   228  O   6.0   -0.47    1.00    1.80    15.55982    99.47638    65.03242
   229  C   4.0   -0.09    3.98    3.59    16.54392    94.80355    60.66762
   230  C   4.0   -0.16    3.98    3.59    17.41222    94.65403    57.90545
   231  C   4.0   -0.23    3.98    3.59    13.68514    95.14680    60.85571
   232  C   4.0   -0.24    3.98    3.58    16.37398    92.35346    56.51419
   233  H   1.0    0.30    1.00    1.43    21.26811    94.79407    61.57016
   234  H   1.0    0.12    0.99    1.43    17.72609    98.73254    60.89718
   235  H   1.0    0.14    0.99    1.43    17.08333    93.05582    61.63332
   236  H   1.0    0.10    0.99    1.43    16.82875    96.37200    56.92031
   237  H   1.0    0.13    0.99    1.43    19.47148    94.55871    57.86100
   238  H   1.0    0.09    0.99    1.43    12.71323    93.53799    60.03551
   239  H   1.0    0.11    0.99    1.43    13.09651    95.31276    62.81623
   240  H   1.0    0.10    0.99    1.43    13.10023    96.85057    59.86557
   241  H   1.0    0.10    0.99    1.43    17.21101    92.23050    54.64243
   242  H   1.0    0.10    0.99    1.43    16.82962    90.62981    57.53814
   243  H   1.0    0.10    0.99    1.43    14.33732    92.46729    56.29513
   244  N   5.0   -0.48    3.01    1.93    17.14481    95.73637    66.31813
   245  C   4.0    0.07    3.99    3.61    16.09290    95.91415    68.83769
   246  C   4.0    0.29    3.01    3.02    16.84408    98.40330    70.11202
   247  O   6.0   -0.43    1.00    1.80    15.28333    99.64965    71.28698
   248  C   4.0   -0.14    3.98    3.59    16.94036    93.68623    70.47989
   249  C   4.0   -0.11    3.97    3.58    15.19587    91.36581    70.36396
   250  C   4.0   -0.23    3.98    3.59    12.73305    91.84503    71.79434
   251  C   4.0   -0.22    3.98    3.59    14.65872    90.52309    67.65877
   252  H   1.0    0.29    1.00    1.43    18.20505    94.20610    65.87371
   253  H   1.0    0.11    0.99    1.43    14.02287    95.97594    68.69288
   254  H   1.0    0.14    0.99    1.43    18.84913    93.18196    69.88430
   255  H   1.0    0.10    0.99    1.43    17.01434    94.33299    72.43696
   256  H   1.0    0.10    0.99    1.43    16.19589    89.82582    71.32085
   257  H   1.0    0.10    0.99    1.43    11.53438    90.17887    71.72054
   258  H   1.0    0.09    0.99    1.43    13.11516    92.28321    73.76428
   259  H   1.0    0.10    0.99    1.43    11.69180    93.41784    70.97784
   260  H   1.0    0.09    0.99    1.43    13.61670    88.75235    67.66864
   261  H   1.0    0.10    0.99    1.43    13.52987    91.91810    66.65838
   262  H   1.0    0.13    0.99    1.43    16.40537    90.23940    66.61719
   263  N   5.0   -0.48    3.01    1.93    19.29207    98.99148    70.00375
   264  C   4.0    0.08    3.99    3.61    20.29009   101.27255    71.14964
   265  C   4.0    0.30    3.01    3.02    18.66404   103.60305    70.57641
   266  O   6.0   -0.38    1.00    1.80    18.36159   105.24923    72.16739
   267  C   4.0   -0.09    3.98    3.59    23.03597   101.70185    70.28313
   268  C   4.0   -0.22    3.98    3.59    24.01122   104.28473    71.12253
   269  C   4.0   -0.21    3.98    3.59    24.77295    99.62998    71.29953
   270  H   1.0    0.30    1.00    1.43    20.46870    97.93436    68.92129
   271  H   1.0    0.12    0.99    1.43    20.20723   101.08539    73.21756
   272  H   1.0    0.14    0.99    1.43    23.01862   101.63074    68.21859
   273  H   1.0    0.10    0.99    1.43    25.99509   104.47200    70.62722
   274  H   1.0    0.13    0.99    1.43    22.96617   105.80143    70.21280
   275  H   1.0    0.11    0.99    1.43    23.79822   104.51587    73.15259
   276  H   1.0    0.11    0.99    1.43    26.65158    99.86346    70.50268
   277  H   1.0    0.11    0.99    1.43    24.92192    99.77124    73.34019
   278  H   1.0    0.15    0.99    1.43    24.09687    97.76422    70.78039
   279  N   5.0   -0.47    3.01    1.93    17.75477   103.75434    68.21555
   280  C   4.0    0.08    4.00    3.62    16.23066   105.86677    67.40508
   281  C   4.0    0.29    3.01    3.02    13.42492   105.55805    68.05183
   282  O   6.0   -0.36    1.00    1.80    12.20790   107.28978    68.99462
   283  C   4.0   -0.12    3.99    3.60    16.53149   106.29439    64.55071
   284  C   4.0    0.12    3.34    3.06    19.10657   107.28654    63.98001
   285  N   5.0   -0.37    2.10    1.90    19.54996   109.81018    63.65867
   286  C   4.0    0.04    3.22    3.04    21.34221   105.99066    63.82971
   287  C   4.0    0.17    3.41    3.08    21.98309   110.02798    63.31625
   288  N   5.0   -0.48    3.14    1.94    23.16530   107.76763    63.41212
   289  H   1.0    0.29    1.00    1.43    18.04437   102.33608    66.96898
   290  H   1.0    0.16    0.99    1.43    16.86942   107.54057    68.44761
   291  H   1.0    0.12    0.99    1.43    16.21484   104.49471    63.59291
   292  H   1.0    0.13    0.99    1.43    15.12408   107.66767    63.93420
   293  H   1.0    0.14    1.00    1.43    21.74763   104.01492    63.95716
   294  H   1.0    0.11    1.00    1.43    22.93734   111.78696    63.01171
   295  H   1.0    0.23    1.00    1.43    25.01698   107.41404    63.14444
   296  N   5.0   -0.49    3.01    1.93    12.40770   103.32960    67.44303
   297  C   4.0    0.08    4.00    3.62     9.75471   102.80758    67.88899
   298  C   4.0    0.30    3.01    3.02     9.06090   103.29760    70.66310
   299  O   6.0   -0.39    1.00    1.80     7.07519   104.30722    71.27937
   300  C   4.0   -0.09    3.98    3.59     9.16533   100.05618    67.15663
   301  C   4.0   -0.21    3.98    3.59     6.61253    99.20257    68.19334
   302  C   4.0   -0.22    3.98    3.59     9.24302    99.76321    64.28663
   303  H   1.0    0.29    1.00    1.43    13.49761   101.93868    66.70209
   304  H   1.0    0.13    0.99    1.43     8.59460   104.11165    66.76346
   305  H   1.0    0.13    0.99    1.43    10.64727    98.88171    67.99994
   306  H   1.0    0.10    0.99    1.43     6.15755    97.33281    67.47591
   307  H   1.0    0.15    0.99    1.43     6.64685    99.13184    70.24574
   308  H   1.0    0.12    0.99    1.43     5.13370   100.50589    67.61573
   309  H   1.0    0.10    0.99    1.43     8.82335    97.82142    63.76429
   310  H   1.0    0.11    0.99    1.43     7.84236   100.98526    63.41255
   311  H   1.0    0.12    0.99    1.43    11.09755   100.25273    63.55318
   312  N   5.0   -0.44    3.01    1.93    10.77055   102.39663    72.28202
   313  C   4.0    0.10    3.99    3.60    10.39319   102.16390    74.97001
   314  C   4.0    0.07    3.00    3.02    12.43011   103.63036    76.40858
   315  O   6.0   -0.37    1.00    1.80    14.67555   103.33822    76.00492
   316  C   4.0    0.04    3.98    3.59    10.58037    99.34455    75.69786
   317  O   6.0   -0.48    1.99    1.82     8.62600    98.06375    74.39893
   318  C   4.0   -0.22    3.98    3.58    10.39476    98.96317    78.54523
   319  H   1.0    0.32    1.00    1.43    12.40613   101.65808    71.59815
   320  H   1.0    0.14    0.99    1.43     8.49960   102.88127    75.39866
   321  H   1.0    0.14    0.99    1.43    12.42824    98.68172    75.01019
   322  H   1.0    0.24    0.99    1.43     8.41661    96.41459    75.15701
   323  H   1.0    0.09    0.99    1.43    10.53974    96.96198    78.99029
   324  H   1.0    0.11    0.99    1.43    11.90853    99.96848    79.50363
   325  H   1.0    0.12    0.99    1.43     8.58807    99.66415    79.23179
   326  N   5.0   -0.67    3.00    1.93    17.55364   105.93567    81.08664
   327  C   4.0    0.06    3.98    3.58    19.67549   104.66155    82.25248
   328  C   4.0    0.07    3.00    3.02    19.67535   105.35955    85.08326
   329  O   6.0   -0.37    1.00    1.80    17.79595   104.98560    86.37239
   330  C   4.0   -0.17    3.98    3.59    22.05533   105.24814    80.70617
   331  C   4.0   -0.17    3.98    3.59    24.07533   103.18889    80.95660
   332  C   4.0   -0.04    3.99    3.60    23.44551   100.97535    79.20614
   333  N   5.0   -0.49    3.02    1.93    24.89535    98.74146    79.88942
   334  C   4.0    0.35    3.01    3.02    24.58148    96.46560    78.87943
   335  N   5.0   -0.66    3.01    1.93    23.02125    96.10824    76.94601
   336  N   5.0   -0.66    3.02    1.93    25.97165    94.53348    79.74482
   337  H   1.0    0.27    1.00    1.43    17.54054   107.86401    81.08590
   338  H   1.0    0.13    0.99    1.43    19.19221   102.64525    82.16073
   339  H   1.0    0.11    0.99    1.43    21.44914   105.39002    78.73861
   340  H   1.0    0.11    0.99    1.43    22.78510   107.10777    81.21275
   341  H   1.0    0.10    0.99    1.43    25.91068   103.96831    80.44835
   342  H   1.0    0.11    0.99    1.43    24.13065   102.55942    82.91530
   343  H   1.0    0.11    0.99    1.43    21.42167   100.56318    79.34126
   344  H   1.0    0.10    0.99    1.43    23.87428   101.52997    77.25999
   345  H   1.0    0.23    1.00    1.43    26.23837    98.95594    81.23097
   346  H   1.0    0.25    1.00    1.43    22.01831    97.53063    76.17493
   347  H   1.0    0.26    1.00    1.43    22.82187    94.38415    76.16258
   348  H   1.0    0.24    1.00    1.43    26.64415    94.58754    81.53916
   349  H   1.0    0.26    1.00    1.43    25.57795    92.77622    79.11229
   350  N   5.0   -0.72    3.00    1.93    20.82851    88.43454    84.73738
   351  C   4.0    0.07    3.98    3.59    20.87066    88.45384    82.00235
   352  C   4.0    0.28    3.01    3.02    23.50879    87.87568    80.97064
   353  O   6.0   -0.47    1.00    1.80    23.77656    86.71941    78.97915
   354  C   4.0   -0.14    3.99    3.60    20.00080    91.01690    80.97814
   355  C   4.0   -0.11    3.98    3.58    17.19562    91.60130    81.43646
   356  C   4.0   -0.23    3.98    3.59    16.65857    94.31199    80.58865
   357  C   4.0   -0.23    3.98    3.59    15.46504    89.76460    80.03938
   358  H   1.0    0.25    1.00    1.43    20.28004    90.04610    85.62220
   359  H   1.0    0.11    0.99    1.43    19.64204    86.94745    81.28276
   360  H   1.0    0.12    0.99    1.43    21.13664    92.48226    81.88154
   361  H   1.0    0.11    0.99    1.43    20.34200    91.03878    78.94559
   362  H   1.0    0.11    0.99    1.43    16.81020    91.47901    83.46104
   363  H   1.0    0.10    0.99    1.43    14.69164    94.80384    80.91965
   364  H   1.0    0.11    0.99    1.43    17.80526    95.65674    81.63773
   365  H   1.0    0.10    0.99    1.43    17.03176    94.54883    78.58278
   366  H   1.0    0.10    0.99    1.43    13.50744    90.34216    80.26655
   367  H   1.0    0.10    0.99    1.43    15.89538    89.74608    78.02976
   368  H   1.0    0.10    0.99    1.43    15.64404    87.85426    80.77128
   369  N   5.0   -0.49    3.01    1.93    25.45160    88.85163    82.25385
   370  C   4.0    0.06    3.99    3.60    28.05010    88.33911    81.50570
   371  C   4.0    0.08    3.00    3.02    28.52577    85.48270    81.63494
   372  O   6.0   -0.41    1.00    1.80    29.27478    84.28885    79.79504
   373  C   4.0   -0.15    3.98    3.59    29.89760    89.86828    83.13052
   374  C   4.0   -0.11    3.98    3.58    32.21682    90.78048    81.64881
   375  C   4.0   -0.23    3.98    3.59    33.71879    92.66897    83.23252
   376  C   4.0   -0.21    3.98    3.59    33.90060    88.57149    80.87227
   377  H   1.0    0.24    1.00    1.43    25.17292    89.80265    83.89257
   378  H   1.0    0.14    0.99    1.43    28.25721    88.84291    79.50418
   379  H   1.0    0.10    0.99    1.43    28.89020    91.50486    83.87948
   380  H   1.0    0.11    0.99    1.43    30.51377    88.73614    84.73943
   381  H   1.0    0.11    0.99    1.43    31.56991    91.73774    79.93389
   382  H   1.0    0.10    0.99    1.43    35.32629    93.37001    82.16452
   383  H   1.0    0.10    0.99    1.43    32.54929    94.26491    83.77893
   384  H   1.0    0.11    0.99    1.43    34.42911    91.76704    84.93632
   385  H   1.0    0.10    0.99    1.43    35.50025    89.24168    79.77184
   386  H   1.0    0.11    0.99    1.43    34.62691    87.60252    82.53426
   387  H   1.0    0.13    0.99    1.43    32.86925    87.20983    79.73270
   388  N   5.0   -0.69    3.00    1.92    25.05168    82.19315    76.41000
   389  C   4.0    0.01    3.98    3.58    26.32363    82.49090    74.00999
   390  C   4.0    0.08    3.00    3.02    28.53435    80.65779    73.74297
   391  O   6.0   -0.48    1.00    1.80    28.89760    79.44938    71.79445
   392  H   1.0    0.33    1.00    1.43    24.77089    83.75940    77.48421
   393  H   1.0    0.10    0.99    1.43    25.01933    82.13509    72.44217
   394  H   1.0    0.12    0.99    1.43    27.03722    84.41898    73.88106
   395  N   5.0   -0.69    3.00    1.93    26.21015    74.05779    72.79445
   396  C   4.0    0.08    3.99    3.60    25.40188    73.87393    70.18517
   397  C   4.0    0.28    3.02    3.02    27.71311    73.39513    68.53226
   398  O   6.0   -0.48    1.00    1.80    27.77516    71.70577    66.94454
   399  C   4.0   -0.09    3.98    3.59    24.00883    76.28701    69.36595
   400  C   4.0   -0.23    3.98    3.59    23.60322    76.30959    66.50944
   401  C   4.0   -0.23    3.98    3.59    21.47639    76.49080    70.73174
   402  H   1.0    0.27    1.00    1.43    25.70896    75.61617    73.79673
   403  H   1.0    0.11    0.99    1.43    24.15920    72.22488    69.95496
   404  H   1.0    0.14    0.99    1.43    25.20566    77.89099    69.88437
   405  H   1.0    0.09    0.99    1.43    22.61076    78.02076    65.95951
   406  H   1.0    0.11    0.99    1.43    25.39711    76.24660    65.50986
   407  H   1.0    0.10    0.99    1.43    22.48945    74.68233    65.93174
   408  H   1.0    0.09    0.99    1.43    20.49184    78.18239    70.11174
   409  H   1.0    0.10    0.99    1.43    20.30189    74.86001    70.30567
   410  H   1.0    0.10    0.99    1.43    21.73451    76.59650    72.76457
   411  N   5.0   -0.49    3.01    1.93    29.64674    74.97137    68.91837
   412  C   4.0    0.07    3.99    3.61    31.87995    74.74770    67.36388
   413  C   4.0    0.11    3.00    3.02    32.89606    72.04353    67.45426
   414  O   6.0   -0.48    1.00    1.80    33.65342    71.02399    65.51221
   415  C   4.0   -0.02    3.98    3.58    33.95661    76.64894    68.12305
   416  O   6.0   -0.48    1.99    1.82    35.63662    75.75032    69.95338
   417  H   1.0    0.30    1.00    1.43    29.49505    76.45191    70.13463
   418  H   1.0    0.11    0.99    1.43    31.35937    75.09672    65.38365
   419  H   1.0    0.11    0.99    1.43    35.10507    77.06645    66.45928
   420  H   1.0    0.12    0.99    1.43    33.02432    78.39674    68.74529
   421  H   1.0    0.27    0.99    1.43    34.68712    75.42083    71.50856
   422  N   5.0   -0.69    3.00    1.93    28.97741    67.41442    63.68373
   423  C   4.0    0.08    3.98    3.59    29.51312    67.84147    61.03683
   424  C   4.0    0.28    3.01    3.02    32.07447    66.71681    60.31572
   425  O   6.0   -0.39    1.00    1.80    32.29075    65.42601    58.39493
   426  C   4.0   -0.13    3.99    3.60    29.40296    70.66378    60.41458
   427  C   4.0   -0.11    3.98    3.58    26.78021    71.56949    59.57180
   428  C   4.0   -0.22    3.98    3.59    24.72808    70.90081    61.48568
   429  C   4.0   -0.23    3.98    3.59    26.85654    74.42637    59.16100
   430  H   1.0    0.32    1.00    1.43    28.70477    68.94535    64.80352
   431  H   1.0    0.11    0.99    1.43    28.11788    66.80631    59.89828
   432  H   1.0    0.14    0.99    1.43    30.00918    71.71341    62.08181
   433  H   1.0    0.10    0.99    1.43    30.74497    71.06535    58.90187
   434  H   1.0    0.11    0.99    1.43    26.33963    70.64899    57.77152
   435  H   1.0    0.09    0.99    1.43    22.95048    71.76933    60.93331
   436  H   1.0    0.10    0.99    1.43    24.44368    68.87050    61.59890
   437  H   1.0    0.13    0.99    1.43    25.25452    71.58617    63.34679
   438  H   1.0    0.09    0.99    1.43    25.14557    75.06803    58.22632
   439  H   1.0    0.10    0.99    1.43    27.00076    75.38948    60.96926
   440  H   1.0    0.11    0.99    1.43    28.46873    74.96339    58.00601
   441  N   5.0   -0.48    3.01    1.93    34.01237    67.23434    61.82370
   442  C   4.0    0.07    3.99    3.61    36.48393    66.15717    61.33402
   443  C   4.0    0.10    3.00    3.02    36.22509    63.31713    60.82529
   444  O   6.0   -0.37    1.00    1.80    37.34107    62.29168    59.07029
   445  C   4.0   -0.13    3.99    3.60    38.24504    66.53138    63.59349
   446  C   4.0   -0.11    3.98    3.59    39.08487    69.28096    63.93916
   447  C   4.0    0.28    3.00    3.02    40.70932    69.49846    66.29513
   448  O   6.0   -0.42    1.00    1.80    42.60560    68.20662    66.61031
   449  N   5.0   -0.64    3.00    1.93    39.94383    71.18230    68.02055
   450  H   1.0    0.30    1.00    1.43    33.78627    68.33438    63.37841
   451  H   1.0    0.15    0.99    1.43    37.28897    67.01756    59.62229
   452  H   1.0    0.13    0.99    1.43    37.25463    65.88033    65.28268
   453  H   1.0    0.13    0.99    1.43    39.90834    65.33969    63.33919
   454  H   1.0    0.12    0.99    1.43    40.21735    69.85810    62.31366
   455  H   1.0    0.14    0.99    1.43    37.44329    70.50739    64.08573
   456  H   1.0    0.29    1.00    1.43    38.44068    72.31919    67.76359
   457  H   1.0    0.29    1.00    1.43    40.98705    71.44178    69.59447
   458  N   5.0   -0.70    3.00    1.93    57.46478    81.41649    64.11153
   459  C   4.0    0.07    3.98    3.59    55.54672    83.18734    64.93141
   460  C   4.0    0.08    3.00    3.02    55.70519    83.62779    67.79341
   461  O   6.0   -0.39    1.00    1.80    55.74939    85.75586    68.70450
   462  C   4.0   -0.13    3.99    3.60    52.90937    82.24847    64.15447
   463  C   4.0   -0.04    3.03    3.02    52.24009    83.20432    61.55976
   464  C   4.0   -0.10    3.03    3.02    53.55332    82.36205    59.44471
   465  C   4.0   -0.10    3.03    3.02    50.38877    85.04038    61.25926
   466  C   4.0   -0.11    3.03    3.02    53.05748    83.37821    57.08822
   467  C   4.0   -0.11    3.03    3.02    49.86288    86.02774    58.89353
   468  C   4.0   -0.11    3.03    3.02    51.21200    85.21283    56.80709
   469  H   1.0    0.25    1.00    1.43    56.89108    79.75658    63.34718
   470  H   1.0    0.14    0.99    1.43    55.93207    85.03531    64.06095
   471  H   1.0    0.11    0.99    1.43    52.91467    80.18446    64.21431
   472  H   1.0    0.11    0.99    1.43    51.53141    82.92869    65.52976
   473  H   1.0    0.11    1.00    1.43    54.95557    80.89780    59.65213
   474  H   1.0    0.11    0.99    1.43    49.35398    85.70043    62.89304
   475  H   1.0    0.11    1.00    1.43    54.13176    82.74886    55.47251
   476  H   1.0    0.11    1.00    1.43    48.40872    87.44495    58.69049
   477  H   1.0    0.11    1.00    1.43    50.83190    86.01282    54.97139
   478  H   1.0    0.30    1.00    1.43    42.63058    67.66382    50.96939
   479  H   1.0    0.14    1.00    1.43    11.93436   104.88182    77.73491
   480  H   1.0    0.32    1.00    1.43    17.45788   105.49479    79.44682
   481  H   1.0    0.12    1.00    1.43    21.21638   106.12055    85.86886
   482  H   1.0    0.29    1.00    1.43    19.75334    87.23372    85.28014
   483  H   1.0    0.14    1.00    1.43    28.22507    84.54682    83.24887
   484  H   1.0    0.29    1.00    1.43    23.49779    81.55123    76.15321
   485  H   1.0    0.16    1.00    1.43    29.73780    80.41326    75.17928
   486  H   1.0    0.29    1.00    1.43    25.57781    72.74947    73.67820
   487  H   1.0    0.15    1.00    1.43    32.94351    71.10632    69.09452
   488  H   1.0    0.30    1.00    1.43    27.55274    66.49773    63.83392
   489  H   1.0    0.15    1.00    1.43    35.12644    62.25445    61.93649
   490  H   1.0    0.30    1.00    1.43    58.43222    82.14107    62.91504
   491  H   1.0    0.14    1.00    1.43    55.77574    82.15374    68.97377

           ------------------------------------------------- 
          |        Self-Consistent Charge Iterations        |
           ------------------------------------------------- 

          ...................................................
          :                      SETUP                      :
          :.................................................:
          :  # basis functions                1175          :
          :  # atomic orbitals                1175          :
          :  # shells                          719          :
          :  # electrons                      1276          :
          :  max. iterations                   250          :
          :  Hamiltonian                  GFN2-xTB          :
          :  restarted?                      false          :
          :  GBSA solvation                   true          :
          :  PC potential                    false          :
          :  electronic temp.          500.0000000     K    :
          :  accuracy                    0.1000000          :
          :  -> integral cutoff          0.3500000E+02      :
          :  -> integral neglect         0.1000000E-08      :
          :  -> SCF convergence          0.1000000E-06 Eh   :
          :  -> wf. convergence          0.1000000E-04 e    :
          :  Broyden damping             0.4000000          :
          ...................................................

 iter      E             dE          RMSdq      gap      omega  full diag
   1   -721.8254965 -0.721825E+03  0.392E+00    1.81       0.0  T
   2   -723.5415681 -0.171607E+01  0.210E+00    1.49       1.0  T
   3   -723.6059487 -0.643806E-01  0.112E+00    1.87       1.0  T
   4   -723.6252418 -0.192931E-01  0.292E-01    1.36       1.0  T
   5   -723.6529035 -0.276617E-01  0.105E-01    1.47       1.0  T
   6   -723.6540424 -0.113896E-02  0.573E-02    1.48       1.0  T
   7   -723.6544447 -0.402267E-03  0.267E-02    1.48       1.0  T
   8   -723.6545150 -0.702481E-04  0.966E-03    1.49       1.0  T
   9   -723.6545247 -0.969106E-05  0.506E-03    1.49       1.0  T
  10   -723.6545277 -0.309844E-05  0.252E-03    1.49       1.8  T
  11   -723.6545283 -0.561820E-06  0.109E-03    1.49       4.1  T
  12   -723.6545285 -0.168148E-06  0.441E-04    1.49      10.2  T
  13   -723.6545285 -0.178131E-07  0.251E-04    1.49      18.0  T
  14   -723.6545285 -0.816169E-08  0.105E-04    1.49      42.9  T
  15   -723.6545285 -0.111982E-08  0.476E-05    1.49      94.9  T
  16   -723.6545285 -0.294335E-09  0.207E-05    1.49     218.1  T

   *** convergence criteria satisfied after 16 iterations ***

         #    Occupation            Energy/Eh            Energy/eV
      -------------------------------------------------------------
         1        2.0000           -0.7414619             -20.1762
       ...           ...                  ...                  ...
       632        2.0000           -0.3709111             -10.0930
       633        2.0000           -0.3686121             -10.0304
       634        2.0000           -0.3616025              -9.8397
       635        2.0000           -0.3612715              -9.8307
       636        2.0000           -0.3603321              -9.8051
       637        2.0000           -0.3600620              -9.7978
       638        2.0000           -0.3563745              -9.6974 (HOMO)
       639                         -0.3015098              -8.2045 (LUMO)
       640                         -0.2900624              -7.8930
       641                         -0.2865771              -7.7982
       642                         -0.2852333              -7.7616
       643                         -0.2844546              -7.7404
       ...                                ...                  ...
      1175                          0.7192581              19.5720
      -------------------------------------------------------------
                  HL-Gap            0.0548647 Eh            1.4929 eV
             Fermi-level           -0.3287583 Eh           -8.9460 eV

 SCC (total)                   0 d,  0 h,  0 min, 24.770 sec
 SCC setup                      ...        0 min,  0.177 sec (  0.716%)
 Dispersion                     ...        0 min,  0.198 sec (  0.800%)
 integral evaluation            ...        0 min,  0.776 sec (  3.132%)
 zeroth order Hamiltonian       ...        0 min,  0.009 sec (  0.036%)
 iterations                     ...        0 min, 18.684 sec ( 75.428%)
 molecular gradient             ...        0 min,  4.745 sec ( 19.154%)
 printout                       ...        0 min,  0.182 sec (  0.734%)

         :::::::::::::::::::::::::::::::::::::::::::::::::::::
         ::                     SUMMARY                     ::
         :::::::::::::::::::::::::::::::::::::::::::::::::::::
         :: total energy             -714.264588159332 Eh   ::
         :: total w/o Gsasa/hb       -714.199155965844 Eh   ::
         :: gradient norm               0.588496907762 Eh/α ::
         :: HOMO-LUMO gap               1.492944807145 eV   ::
         ::.................................................::
         :: SCC energy               -723.684753307223 Eh   ::
         :: -> isotropic ES             1.562406507480 Eh   ::
         :: -> anisotropic ES          -0.050297001023 Eh   ::
         :: -> anisotropic XC           0.272515682305 Eh   ::
         :: -> dispersion              -0.656395735456 Eh   ::
         :: -> Gsolv                   -0.304962447570 Eh   ::
         ::    -> Gborn                -0.239530254081 Eh   ::
         ::    -> Gsasa                -0.032082243788 Eh   ::
         ::    -> Ghb                  -0.035207392827 Eh   ::
         ::    -> Gshift                0.001857443127 Eh   ::
         :: repulsion energy            9.356114303628 Eh   ::
         :: add. restraining            0.000000000000 Eh   ::
         :::::::::::::::::::::::::::::::::::::::::::::::::::::

           -------------------------------------------------
          |                Property Printout                |
           -------------------------------------------------

    * Orbital Energies and Occupations

         #    Occupation            Energy/Eh            Energy/eV
      -------------------------------------------------------------
         1        2.0000           -0.7414619             -20.1762
       ...           ...                  ...                  ...
       626        2.0000           -0.3840266             -10.4499
       627        2.0000           -0.3797375             -10.3332
       628        2.0000           -0.3793600             -10.3229
       629        2.0000           -0.3767054             -10.2507
       630        2.0000           -0.3750582             -10.2059
       631        2.0000           -0.3712421             -10.1020
       632        2.0000           -0.3709111             -10.0930
       633        2.0000           -0.3686121             -10.0304
       634        2.0000           -0.3616025              -9.8397
       635        2.0000           -0.3612715              -9.8307
       636        2.0000           -0.3603321              -9.8051
       637        2.0000           -0.3600620              -9.7978
       638        2.0000           -0.3563745              -9.6974 (HOMO)
       639                         -0.3015098              -8.2045 (LUMO)
       640                         -0.2900624              -7.8930
       641                         -0.2865771              -7.7982
       642                         -0.2852333              -7.7616
       643                         -0.2844546              -7.7404
       644                         -0.2833155              -7.7094
       645                         -0.2804229              -7.6307
       646                         -0.2529754              -6.8838
       647                         -0.2475219              -6.7354
       648                         -0.2442724              -6.6470
       649                         -0.2420643              -6.5869
       ...                                ...                  ...
      1175                          0.7192581              19.5720
      -------------------------------------------------------------
                  HL-Gap            0.0548647 Eh            1.4929 eV
             Fermi-level           -0.3287583 Eh           -8.9460 eV

   #   Z        covCN         q      C6AA      α(0)
   1   7 N      2.636    -0.397    30.287     8.173
   2   6 C      3.788     0.026    20.157     6.395
   3   6 C      2.760     0.267    22.487     7.766
   4   8 O      0.859    -0.506    23.910     6.556
   5   6 C      3.809    -0.068    21.798     6.646
   6   6 C      3.055    -0.044    29.038     8.837
   7   6 C      3.043    -0.006    28.130     8.699
   8   6 C      3.113    -0.023    28.425     8.734
   9   7 N      2.773    -0.115    23.505     7.201
  10   6 C      3.096     0.044    26.911     8.502
  11   6 C      2.911    -0.045    29.112     8.847
  12   6 C      2.908    -0.056    29.396     8.890
  13   6 C      2.918    -0.047    29.156     8.855
  14   6 C      2.923    -0.043    29.073     8.842
  15   1 H      0.860     0.169     1.279     1.772
  16   1 H      0.924     0.050     2.326     2.385
  17   1 H      0.924     0.050     2.314     2.379
  18   1 H      0.924     0.052     2.296     2.370
  19   1 H      0.926     0.033     2.550     2.497
  20   1 H      0.860     0.198     1.116     1.655
  21   1 H      0.926     0.026     2.650     2.546
  22   1 H      0.926     0.028     2.608     2.525
  23   1 H      0.925     0.025     2.661     2.551
  24   1 H      0.925     0.028     2.612     2.527
  25   7 N      2.691    -0.155    24.360     7.330
  26   6 C      3.801     0.015    20.324     6.419
  27   6 C      2.764     0.272    22.397     7.750
  28   8 O      0.859    -0.485    23.461     6.494
  29   6 C      3.812    -0.081    22.035     6.682
  30   6 C      3.850    -0.011    20.745     6.478
  31   6 C      3.757    -0.119    22.835     6.813
  32   6 C      3.756    -0.114    22.731     6.798
  33   1 H      0.860     0.225     0.987     1.557
  34   1 H      0.923     0.087     1.904     2.158
  35   1 H      0.924     0.061     2.184     2.311
  36   1 H      0.924     0.067     2.116     2.275
  37   1 H      0.924     0.038     2.482     2.464
  38   1 H      0.925     0.046     2.368     2.407
  39   1 H      0.925     0.042     2.420     2.433
  40   1 H      0.925     0.045     2.385     2.415
  41   1 H      0.925     0.045     2.380     2.413
  42   1 H      0.925     0.044     2.402     2.424
  43   1 H      0.925     0.036     2.499     2.472
  44   7 N      2.691    -0.172    24.728     7.385
  45   6 C      3.807     0.013    20.350     6.422
  46   6 C      2.767     0.277    22.312     7.736
  47   8 O      0.859    -0.476    23.264     6.467
  48   6 C      3.852    -0.023    20.944     6.509
  49   6 C      3.758    -0.119    22.840     6.814
  50   6 C      3.757    -0.127    22.994     6.837
  51   1 H      0.860     0.214     1.039     1.597
  52   1 H      0.923     0.087     1.906     2.159
  53   1 H      0.924     0.048     2.341     2.393
  54   1 H      0.925     0.060     2.194     2.316
  55   1 H      0.925     0.038     2.476     2.461
  56   1 H      0.925     0.054     2.270     2.356
  57   1 H      0.925     0.062     2.181     2.309
  58   1 H      0.925     0.057     2.231     2.336
  59   1 H      0.925     0.052     2.299     2.371
  60   7 N      2.688    -0.174    24.777     7.393
  61   6 C      3.801     0.013    20.354     6.423
  62   6 C      2.756     0.275    22.344     7.740
  63   8 O      0.858    -0.490    23.563     6.508
  64   6 C      3.675     0.081    19.451     6.320
  65   8 O      1.654    -0.479    22.452     6.396
  66   1 H      0.860     0.214     1.037     1.595
  67   1 H      0.923     0.064     2.152     2.294
  68   1 H      0.923     0.029     2.599     2.521
  69   1 H      0.924     0.054     2.271     2.356
  70   1 H      0.803     0.336     0.621     1.238
  71   7 N      2.690    -0.187    25.043     7.432
  72   6 C      3.798     0.023    20.189     6.398
  73   6 C      2.757     0.281    22.249     7.724
  74   8 O      0.858    -0.502    23.831     6.545
  75   6 C      3.809    -0.085    22.111     6.694
  76   6 C      3.849    -0.011    20.745     6.479
  77   6 C      3.756    -0.120    22.858     6.817
  78   6 C      3.756    -0.114    22.731     6.798
  79   1 H      0.860     0.229     0.971     1.544
  80   1 H      0.923     0.067     2.121     2.278
  81   1 H      0.924     0.064     2.149     2.292
  82   1 H      0.924     0.064     2.158     2.297
  83   1 H      0.924     0.029     2.602     2.522
  84   1 H      0.925     0.047     2.355     2.400
  85   1 H      0.925     0.040     2.446     2.446
  86   1 H      0.925     0.048     2.342     2.393
  87   1 H      0.925     0.045     2.384     2.415
  88   1 H      0.925     0.044     2.398     2.422
  89   1 H      0.925     0.037     2.486     2.466
  90   7 N      2.696    -0.187    25.045     7.433
  91   6 C      3.796     0.024    20.168     6.395
  92   6 C      2.762     0.283    22.216     7.719
  93   8 O      0.859    -0.510    24.001     6.568
  94   6 C      3.808    -0.082    22.065     6.687
  95   6 C      3.848    -0.015    20.807     6.488
  96   6 C      3.755    -0.117    22.801     6.809
  97   6 C      3.755    -0.120    22.855     6.817
  98   1 H      0.860     0.238     0.931     1.511
  99   1 H      0.923     0.074     2.040     2.234
 100   1 H      0.924     0.067     2.114     2.274
 101   1 H      0.924     0.061     2.192     2.315
 102   1 H      0.924     0.048     2.343     2.394
 103   1 H      0.925     0.047     2.356     2.400
 104   1 H      0.925     0.040     2.448     2.447
 105   1 H      0.925     0.034     2.527     2.486
 106   1 H      0.925     0.047     2.360     2.403
 107   1 H      0.925     0.040     2.446     2.446
 108   1 H      0.925     0.044     2.398     2.422
 109   7 N      2.692    -0.170    24.683     7.379
 110   6 C      3.802     0.024    20.167     6.394
 111   6 C      2.758     0.276    22.325     7.737
 112   8 O      0.858    -0.500    23.787     6.539
 113   6 C      3.810    -0.077    21.957     6.670
 114   6 C      3.849    -0.013    20.770     6.482
 115   6 C      3.758    -0.113    22.711     6.794
 116   6 C      3.755    -0.120    22.848     6.816
 117   1 H      0.860     0.235     0.944     1.522
 118   1 H      0.924     0.072     2.065     2.247
 119   1 H      0.924     0.056     2.249     2.345
 120   1 H      0.924     0.056     2.247     2.344
 121   1 H      0.924     0.045     2.385     2.415
 122   1 H      0.925     0.049     2.339     2.391
 123   1 H      0.925     0.028     2.616     2.529
 124   1 H      0.925     0.044     2.395     2.420
 125   1 H      0.925     0.049     2.329     2.387
 126   1 H      0.925     0.044     2.395     2.420
 127   1 H      0.925     0.038     2.470     2.458
 128   7 N      2.691    -0.181    24.928     7.415
 129   6 C      3.798     0.027    20.119     6.387
 130   6 C      2.760     0.277    22.312     7.735
 131   8 O      0.858    -0.492    23.610     6.515
 132   6 C      3.758    -0.135    23.153     6.860
 133   1 H      0.860     0.227     0.977     1.548
 134   1 H      0.923     0.072     2.062     2.245
 135   1 H      0.925     0.073     2.051     2.239
 136   1 H      0.925     0.068     2.109     2.271
 137   1 H      0.925     0.072     2.061     2.245
 138   7 N      2.690    -0.190    25.123     7.444
 139   6 C      3.797     0.012    20.372     6.427
 140   6 C      2.758     0.283    22.214     7.718
 141   8 O      0.859    -0.496    23.703     6.527
 142   6 C      3.677     0.074    19.561     6.336
 143   8 O      1.654    -0.486    22.588     6.416
 144   1 H      0.860     0.235     0.946     1.523
 145   1 H      0.923     0.074     2.041     2.234
 146   1 H      0.924     0.064     2.148     2.292
 147   1 H      0.923     0.047     2.352     2.398
 148   1 H      0.803     0.326     0.648     1.264
 149   7 N      2.692    -0.176    24.811     7.398
 150   6 C      3.803     0.024    20.165     6.393
 151   6 C      2.760     0.278    22.289     7.731
 152   8 O      0.859    -0.495    23.685     6.525
 153   6 C      3.853    -0.021    20.907     6.503
 154   6 C      3.756    -0.116    22.784     6.806
 155   6 C      3.757    -0.120    22.862     6.817
 156   1 H      0.860     0.225     0.985     1.555
 157   1 H      0.923     0.065     2.137     2.286
 158   1 H      0.924     0.053     2.285     2.364
 159   1 H      0.925     0.059     2.205     2.322
 160   1 H      0.925     0.037     2.488     2.467
 161   1 H      0.925     0.046     2.368     2.406
 162   1 H      0.925     0.055     2.264     2.353
 163   1 H      0.925     0.048     2.348     2.396
 164   1 H      0.925     0.052     2.298     2.371
 165   7 N      2.691    -0.181    24.918     7.414
 166   6 C      3.804     0.025    20.149     6.390
 167   6 C      2.757     0.281    22.245     7.724
 168   8 O      0.859    -0.495    23.675     6.524
 169   6 C      3.852    -0.023    20.950     6.510
 170   6 C      3.756    -0.118    22.816     6.810
 171   6 C      3.756    -0.124    22.926     6.827
 172   1 H      0.860     0.222     1.000     1.567
 173   1 H      0.923     0.059     2.210     2.325
 174   1 H      0.924     0.055     2.256     2.349
 175   1 H      0.925     0.058     2.218     2.329
 176   1 H      0.925     0.041     2.430     2.438
 177   1 H      0.925     0.049     2.327     2.385
 178   1 H      0.925     0.054     2.268     2.355
 179   1 H      0.925     0.046     2.369     2.407
 180   1 H      0.925     0.052     2.301     2.372
 181   7 N      2.691    -0.191    25.145     7.447
 182   6 C      3.799     0.025    20.154     6.392
 183   6 C      2.756     0.282    22.222     7.719
 184   8 O      0.858    -0.491    23.592     6.512
 185   6 C      3.808    -0.076    21.946     6.669
 186   6 C      3.056    -0.039    28.911     8.818
 187   6 C      3.034    -0.019    28.451     8.749
 188   6 C      3.118    -0.024    28.424     8.732
 189   7 N      2.778    -0.098    23.149     7.146
 190   6 C      3.089     0.040    26.996     8.517
 191   6 C      2.911    -0.044    29.091     8.844
 192   6 C      2.908    -0.060    29.495     8.905
 193   6 C      2.920    -0.046    29.134     8.851
 194   6 C      2.924    -0.042    29.053     8.839
 195   1 H      0.860     0.224     0.992     1.561
 196   1 H      0.923     0.072     2.069     2.249
 197   1 H      0.924     0.060     2.196     2.317
 198   1 H      0.924     0.056     2.246     2.344
 199   1 H      0.926     0.057     2.231     2.336
 200   1 H      0.860     0.207     1.072     1.622
 201   1 H      0.926     0.018     2.769     2.602
 202   1 H      0.926     0.059     2.213     2.326
 203   1 H      0.926     0.009     2.906     2.666
 204   1 H      0.926     0.028     2.612     2.527
 205   7 N      2.692    -0.181    24.929     7.415
 206   6 C      3.799     0.035    19.989     6.366
 207   6 C      2.760     0.282    22.233     7.722
 208   8 O      0.859    -0.503    23.859     6.549
 209   6 C      3.814    -0.077    21.965     6.671
 210   6 C      2.970     0.010    27.784     8.646
 211   6 C      2.925    -0.037    28.929     8.820
 212   6 C      2.924    -0.040    29.003     8.832
 213   6 C      2.919    -0.031    28.774     8.796
 214   6 C      2.919    -0.038    28.945     8.823
 215   6 C      2.920    -0.037    28.921     8.819
 216   1 H      0.860     0.226     0.983     1.554
 217   1 H      0.923     0.066     2.127     2.281
 218   1 H      0.924     0.065     2.147     2.291
 219   1 H      0.924     0.060     2.195     2.317
 220   1 H      0.926     0.025     2.657     2.549
 221   1 H      0.926     0.046     2.376     2.410
 222   1 H      0.926     0.034     2.528     2.487
 223   1 H      0.926     0.045     2.386     2.415
 224   1 H      0.926     0.039     2.461     2.453
 225   7 N      2.692    -0.188    25.070     7.436
 226   6 C      3.805     0.028    20.101     6.383
 227   6 C      2.759     0.284    22.185     7.713
 228   8 O      0.858    -0.511    24.033     6.573
 229   6 C      3.853    -0.027    21.014     6.520
 230   6 C      3.804    -0.063    21.704     6.633
 231   6 C      3.755    -0.115    22.748     6.801
 232   6 C      3.751    -0.107    22.613     6.782
 233   1 H      0.860     0.231     0.962     1.537
 234   1 H      0.923     0.051     2.303     2.373
 235   1 H      0.924     0.059     2.208     2.324
 236   1 H      0.924     0.036     2.499     2.472
 237   1 H      0.924     0.044     2.400     2.423
 238   1 H      0.925     0.062     2.180     2.309
 239   1 H      0.925     0.033     2.539     2.492
 240   1 H      0.925     0.044     2.397     2.421
 241   1 H      0.925     0.043     2.412     2.429
 242   1 H      0.925     0.033     2.547     2.496
 243   1 H      0.925     0.047     2.360     2.403
 244   7 N      2.690    -0.178    24.854     7.404
 245   6 C      3.797     0.029    20.099     6.384
 246   6 C      2.756     0.275    22.358     7.743
 247   8 O      0.859    -0.499    23.752     6.534
 248   6 C      3.808    -0.083    22.080     6.689
 249   6 C      3.848    -0.014    20.796     6.486
 250   6 C      3.755    -0.119    22.831     6.813
 251   6 C      3.755    -0.120    22.855     6.817
 252   1 H      0.860     0.227     0.979     1.550
 253   1 H      0.923     0.062     2.172     2.305
 254   1 H      0.924     0.073     2.048     2.238
 255   1 H      0.924     0.062     2.177     2.307
 256   1 H      0.924     0.051     2.313     2.379
 257   1 H      0.925     0.048     2.346     2.395
 258   1 H      0.925     0.046     2.373     2.409
 259   1 H      0.925     0.034     2.529     2.487
 260   1 H      0.925     0.044     2.393     2.419
 261   1 H      0.925     0.030     2.583     2.513
 262   1 H      0.925     0.048     2.341     2.393
 263   7 N      2.688    -0.179    24.886     7.409
 264   6 C      3.798     0.018    20.273     6.411
 265   6 C      2.755     0.287    22.131     7.704
 266   8 O      0.858    -0.490    23.554     6.507
 267   6 C      3.853    -0.023    20.950     6.510
 268   6 C      3.756    -0.116    22.773     6.804
 269   6 C      3.756    -0.134    23.135     6.858
 270   1 H      0.860     0.226     0.981     1.552
 271   1 H      0.923     0.076     2.025     2.225
 272   1 H      0.924     0.047     2.359     2.402
 273   1 H      0.925     0.063     2.163     2.300
 274   1 H      0.925     0.020     2.734     2.586
 275   1 H      0.925     0.056     2.242     2.342
 276   1 H      0.925     0.055     2.257     2.349
 277   1 H      0.925     0.065     2.138     2.287
 278   1 H      0.925     0.062     2.177     2.308
 279   7 N      2.688    -0.186    25.029     7.430
 280   6 C      3.800     0.031    20.047     6.375
 281   6 C      2.756     0.275    22.357     7.743
 282   8 O      0.858    -0.515    24.120     6.585
 283   6 C      3.809    -0.074    21.898     6.661
 284   6 C      3.200     0.058    26.163     8.336
 285   7 N      1.916    -0.311    28.903     7.971
 286   6 C      3.037    -0.029    28.693     8.786
 287   6 C      3.151     0.087    25.808     8.309
 288   7 N      2.811    -0.094    23.072     7.134
 289   1 H      0.860     0.207     1.073     1.623
 290   1 H      0.924     0.068     2.108     2.271
 291   1 H      0.924     0.053     2.280     2.361
 292   1 H      0.924     0.061     2.192     2.316
 293   1 H      0.927     0.052     2.290     2.366
 294   1 H      0.926     0.048     2.349     2.397
 295   1 H      0.860     0.199     1.109     1.650
 296   7 N      2.690    -0.191    25.153     7.449
 297   6 C      3.802     0.024    20.175     6.395
 298   6 C      2.752     0.289    22.106     7.699
 299   8 O      0.858    -0.504    23.881     6.552
 300   6 C      3.853    -0.011    20.745     6.478
 301   6 C      3.755    -0.120    22.850     6.816
 302   6 C      3.756    -0.121    22.865     6.818
 303   1 H      0.860     0.229     0.971     1.544
 304   1 H      0.923     0.055     2.260     2.351
 305   1 H      0.924     0.040     2.451     2.448
 306   1 H      0.925     0.061     2.188     2.313
 307   1 H      0.925     0.052     2.295     2.369
 308   1 H      0.925     0.041     2.434     2.440
 309   1 H      0.925     0.057     2.229     2.335
 310   1 H      0.925     0.045     2.377     2.411
 311   1 H      0.925     0.048     2.349     2.397
 312   7 N      2.694    -0.175    24.793     7.395
 313   6 C      3.790     0.024    20.176     6.397
 314   6 C      2.767     0.193    23.871     8.002
 315   8 O      0.856    -0.333    20.380     6.053
 316   6 C      3.729     0.118    18.748     6.181
 317   8 O      1.655    -0.486    22.585     6.415
 318   6 C      3.752    -0.141    23.277     6.880
 319   1 H      0.860     0.226     0.984     1.554
 320   1 H      0.924     0.078     2.003     2.213
 321   1 H      0.923     0.050     2.325     2.384
 322   1 H      0.805     0.342     0.607     1.224
 323   1 H      0.925     0.073     2.053     2.240
 324   1 H      0.925     0.060     2.198     2.318
 325   1 H      0.925     0.062     2.172     2.305
 326   7 N      2.639    -0.376    29.716     8.096
 327   6 C      3.781     0.028    20.130     6.391
 328   6 C      2.764     0.201    23.716     7.975
 329   8 O      0.856    -0.366    21.020     6.147
 330   6 C      3.806    -0.086    22.136     6.698
 331   6 C      3.803    -0.089    22.204     6.709
 332   6 C      3.740    -0.027    21.134     6.559
 333   7 N      2.700    -0.132    23.864     7.255
 334   6 C      2.737     0.220    23.366     7.914
 335   7 N      2.650    -0.216    25.725     7.533
 336   7 N      2.651    -0.245    26.384     7.629
 337   1 H      0.860     0.141     1.462     1.894
 338   1 H      0.923     0.090     1.883     2.146
 339   1 H      0.924     0.055     2.260     2.351
 340   1 H      0.924     0.050     2.316     2.380
 341   1 H      0.925     0.079     1.985     2.204
 342   1 H      0.925     0.073     2.048     2.238
 343   1 H      0.924     0.079     1.993     2.208
 344   1 H      0.924     0.078     2.002     2.213
 345   1 H      0.860     0.251     0.880     1.470
 346   1 H      0.860     0.227     0.977     1.549
 347   1 H      0.860     0.237     0.937     1.516
 348   1 H      0.860     0.244     0.906     1.491
 349   1 H      0.860     0.226     0.985     1.554
 350   7 N      2.635    -0.393    30.190     8.160
 351   6 C      3.785     0.027    20.132     6.391
 352   6 C      2.758     0.260    22.617     7.788
 353   8 O      0.859    -0.496    23.693     6.526
 354   6 C      3.811    -0.086    22.126     6.696
 355   6 C      3.849    -0.012    20.755     6.480
 356   6 C      3.757    -0.123    22.902     6.823
 357   6 C      3.755    -0.113    22.715     6.796
 358   1 H      0.860     0.170     1.273     1.767
 359   1 H      0.924     0.041     2.440     2.443
 360   1 H      0.924     0.060     2.196     2.317
 361   1 H      0.924     0.053     2.289     2.366
 362   1 H      0.924     0.036     2.509     2.477
 363   1 H      0.925     0.036     2.504     2.475
 364   1 H      0.925     0.048     2.343     2.393
 365   1 H      0.925     0.044     2.395     2.420
 366   1 H      0.925     0.035     2.513     2.479
 367   1 H      0.925     0.042     2.416     2.431
 368   1 H      0.925     0.030     2.584     2.514
 369   7 N      2.689    -0.172    24.722     7.385
 370   6 C      3.792     0.016    20.320     6.420
 371   6 C      2.764     0.205    23.652     7.965
 372   8 O      0.856    -0.353    20.770     6.110
 373   6 C      3.807    -0.089    22.194     6.706
 374   6 C      3.850    -0.019    20.877     6.499
 375   6 C      3.757    -0.124    22.929     6.827
 376   6 C      3.756    -0.119    22.827     6.812
 377   1 H      0.860     0.229     0.970     1.543
 378   1 H      0.924     0.095     1.832     2.117
 379   1 H      0.924     0.080     1.978     2.199
 380   1 H      0.924     0.065     2.141     2.288
 381   1 H      0.924     0.056     2.241     2.341
 382   1 H      0.925     0.046     2.375     2.410
 383   1 H      0.925     0.054     2.272     2.357
 384   1 H      0.925     0.039     2.466     2.456
 385   1 H      0.925     0.041     2.430     2.438
 386   1 H      0.925     0.032     2.561     2.503
 387   1 H      0.925     0.040     2.446     2.446
 388   7 N      2.632    -0.392    30.160     8.156
 389   6 C      3.731    -0.002    20.705     6.495
 390   6 C      2.762     0.200    23.750     7.981
 391   8 O      0.856    -0.379    21.273     6.184
 392   1 H      0.860     0.187     1.177     1.700
 393   1 H      0.924     0.053     2.282     2.362
 394   1 H      0.925     0.084     1.934     2.175
 395   7 N      2.637    -0.391    30.124     8.151
 396   6 C      3.791     0.030    20.073     6.380
 397   6 C      2.765     0.271    22.419     7.754
 398   8 O      0.859    -0.498    23.745     6.533
 399   6 C      3.853    -0.025    20.976     6.514
 400   6 C      3.756    -0.112    22.698     6.793
 401   6 C      3.757    -0.113    22.717     6.796
 402   1 H      0.860     0.159     1.341     1.814
 403   1 H      0.923     0.031     2.566     2.505
 404   1 H      0.924     0.055     2.260     2.351
 405   1 H      0.925     0.048     2.340     2.392
 406   1 H      0.925     0.029     2.595     2.519
 407   1 H      0.925     0.041     2.432     2.439
 408   1 H      0.925     0.049     2.327     2.385
 409   1 H      0.925     0.039     2.456     2.451
 410   1 H      0.925     0.041     2.435     2.440
 411   7 N      2.690    -0.182    24.932     7.416
 412   6 C      3.797     0.015    20.332     6.421
 413   6 C      2.766     0.209    23.568     7.950
 414   8 O      0.856    -0.360    20.899     6.129
 415   6 C      3.676     0.064    19.725     6.363
 416   8 O      1.654    -0.466    22.183     6.358
 417   1 H      0.860     0.244     0.906     1.491
 418   1 H      0.923     0.076     2.018     2.222
 419   1 H      0.924     0.073     2.058     2.243
 420   1 H      0.923     0.067     2.124     2.279
 421   1 H      0.803     0.349     0.591     1.207
 422   7 N      2.635    -0.408    30.602     8.216
 423   6 C      3.786     0.038    19.950     6.362
 424   6 C      2.760     0.267    22.494     7.767
 425   8 O      0.859    -0.525    24.353     6.616
 426   6 C      3.809    -0.069    21.814     6.648
 427   6 C      3.849    -0.007    20.676     6.468
 428   6 C      3.756    -0.112    22.695     6.793
 429   6 C      3.758    -0.114    22.730     6.797
 430   1 H      0.860     0.188     1.167     1.692
 431   1 H      0.923     0.026     2.642     2.542
 432   1 H      0.924     0.055     2.261     2.352
 433   1 H      0.924     0.020     2.730     2.584
 434   1 H      0.924     0.023     2.688     2.564
 435   1 H      0.925     0.038     2.474     2.460
 436   1 H      0.925     0.027     2.631     2.536
 437   1 H      0.925     0.056     2.247     2.344
 438   1 H      0.925     0.043     2.413     2.429
 439   1 H      0.925     0.040     2.455     2.450
 440   1 H      0.925     0.037     2.488     2.467
 441   7 N      2.690    -0.178    24.850     7.404
 442   6 C      3.796     0.028    20.102     6.384
 443   6 C      2.768     0.212    23.506     7.940
 444   8 O      0.856    -0.379    21.268     6.183
 445   6 C      3.810    -0.063    21.694     6.630
 446   6 C      3.805    -0.105    22.494     6.752
 447   6 C      2.746     0.290    22.076     7.693
 448   8 O      0.859    -0.501    23.797     6.540
 449   7 N      2.638    -0.272    27.036     7.722
 450   1 H      0.860     0.246     0.901     1.487
 451   1 H      0.923     0.086     1.919     2.166
 452   1 H      0.924     0.066     2.126     2.280
 453   1 H      0.924     0.068     2.109     2.271
 454   1 H      0.924     0.079     1.992     2.207
 455   1 H      0.925     0.081     1.970     2.195
 456   1 H      0.860     0.219     1.015     1.578
 457   1 H      0.860     0.237     0.934     1.514
 458   7 N      2.635    -0.389    30.055     8.142
 459   6 C      3.783     0.044    19.846     6.346
 460   6 C      2.764     0.200    23.738     7.979
 461   8 O      0.856    -0.383    21.346     6.194
 462   6 C      3.810    -0.069    21.818     6.649
 463   6 C      2.971     0.013    27.726     8.637
 464   6 C      2.924    -0.041    29.017     8.834
 465   6 C      2.924    -0.039    28.966     8.826
 466   6 C      2.919    -0.033    28.816     8.803
 467   6 C      2.919    -0.031    28.784     8.798
 468   6 C      2.920    -0.035    28.859     8.810
 469   1 H      0.860     0.171     1.267     1.763
 470   1 H      0.923     0.047     2.352     2.399
 471   1 H      0.924     0.063     2.163     2.300
 472   1 H      0.924     0.045     2.386     2.416
 473   1 H      0.926     0.037     2.494     2.469
 474   1 H      0.925     0.034     2.535     2.490
 475   1 H      0.926     0.035     2.516     2.480
 476   1 H      0.926     0.037     2.492     2.469
 477   1 H      0.926     0.037     2.491     2.468
 478   1 H      0.862     0.182     1.203     1.718
 479   1 H      0.930     0.081     1.970     2.194
 480   1 H      0.862     0.178     1.222     1.732
 481   1 H      0.930     0.075     2.029     2.227
 482   1 H      0.862     0.171     1.267     1.763
 483   1 H      0.930     0.070     2.080     2.255
 484   1 H      0.862     0.172     1.259     1.757
 485   1 H      0.930     0.085     1.927     2.171
 486   1 H      0.862     0.181     1.207     1.721
 487   1 H      0.930     0.087     1.903     2.157
 488   1 H      0.862     0.170     1.274     1.768
 489   1 H      0.930     0.067     2.116     2.275
 490   1 H      0.862     0.182     1.200     1.716
 491   1 H      0.930     0.076     2.021     2.223

 Mol. C6AA /au·bohr⁶  :    2174729.637314
 Mol. C8AA /au·bohr⁸  :   48406187.605261
 Mol. α(0) /au        :       2221.794793


Wiberg/Mayer (AO) data.
largest (>0.10) Wiberg bond orders for each atom
          total WBO             WBO to atom ...
     1  N   2.988        C    2 1.011    H  478 0.956    H   15 0.952
     2  C   3.982        N    1 1.011    H   16 0.961    C    5 0.957    C    3 0.949
     3  C   3.940        O    4 1.554    N   25 1.343    C    2 0.949
     4  O   1.974        C    3 1.554    N   25 0.183
     5  C   3.992        C    6 1.016    H   18 0.969    H   17 0.967    C    2 0.957
     6  C   3.972        C    7 1.566    C    8 1.213    C    5 1.016
     7  C   3.956        C    6 1.566    N    9 1.220    H   19 0.970
     8  C   3.983        C   11 1.328    C   10 1.239    C    6 1.213
     9  N   3.560        C    7 1.220    C   10 1.189    H   20 0.910
    10  C   3.960        C   12 1.336    C    8 1.239    N    9 1.189
    11  C   3.992        C   13 1.506    C    8 1.328    H   21 0.966    C   12 0.112
    12  C   3.989        C   14 1.496    C   10 1.336    H   22 0.968    C   11 0.112
    13  C   3.990        C   11 1.506    C   14 1.365    H   23 0.971
    14  C   3.990        C   12 1.496    C   13 1.365    H   24 0.970
    15  H   0.971        N    1 0.952
    16  H   0.997        C    2 0.961
    17  H   0.997        C    5 0.967
    18  H   0.997        C    5 0.969
    19  H   0.998        C    7 0.970
    20  H   0.960        N    9 0.910
    21  H   0.999        C   11 0.966
    22  H   0.999        C   12 0.968
    23  H   0.999        C   13 0.971
    24  H   0.999        C   14 0.970
    25  N   3.499        C    3 1.343    C   26 0.978    H   33 0.912    O    4 0.183
    26  C   3.961        N   25 0.978    C   29 0.976    C   27 0.941    H   34 0.939
    27  C   3.947        O   28 1.600    N   44 1.311    C   26 0.941
    28  O   1.969        C   27 1.600    N   44 0.190
    29  C   3.984        C   30 0.991    C   26 0.976    H   36 0.969    H   35 0.969
    30  C   3.994        C   32 1.011    C   31 1.007    C   29 0.991    H   37 0.965
    31  C   3.993        C   30 1.007    H   40 0.986    H   39 0.986    H   38 0.985
    32  C   3.994        C   30 1.011    H   42 0.985    H   41 0.982    H   43 0.979
    33  H   0.949        N   25 0.912
    34  H   0.992        C   26 0.939
    35  H   0.996        C   29 0.969
    36  H   0.995        C   29 0.969
    37  H   0.999        C   30 0.965
    38  H   0.997        C   31 0.985
    39  H   0.998        C   31 0.986
    40  H   0.998        C   31 0.986
    41  H   0.998        C   32 0.982
    42  H   0.998        C   32 0.985
    43  H   0.999        C   32 0.979
[...]
   156  H   0.949        N  149 0.891
   157  H   0.995        C  150 0.951
   158  H   0.997        C  153 0.959
   159  H   0.996        C  154 0.984
   160  H   0.999        C  154 0.983
   161  H   0.998        C  154 0.986
   162  H   0.996        C  155 0.983
   163  H   0.998        C  155 0.985
   164  H   0.997        C  155 0.978
   165  N   3.483        C  151 1.329    C  166 0.973    H  172 0.897    O  152 0.195
   166  C   3.959        N  165 0.973    C  169 0.969    H  173 0.950    C  167 0.935
   167  C   3.949        O  168 1.602    N  181 1.322    C  166 0.935
   168  O   1.951        C  167 1.602    N  181 0.195
   169  C   3.987        C  171 1.008    C  170 1.008    C  166 0.969    H  174 0.960
   170  C   3.993        C  169 1.008    H  177 0.985    H  176 0.984    H  175 0.984
   171  C   3.992        C  169 1.008    H  179 0.986    H  178 0.983    H  180 0.978
   172  H   0.950        N  165 0.897
   173  H   0.996        C  166 0.950
   174  H   0.997        C  169 0.960
   175  H   0.996        C  170 0.984
   176  H   0.998        C  170 0.984
   177  H   0.997        C  170 0.985
   178  H   0.996        C  171 0.983
   179  H   0.998        C  171 0.986
   180  H   0.997        C  171 0.978
   181  N   3.473        C  167 1.322    C  182 0.972    H  195 0.892    O  168 0.195
   182  C   3.958        N  181 0.972    C  185 0.966    H  196 0.953    C  183 0.936
   183  C   3.947        O  184 1.599    N  205 1.326    C  182 0.936
   184  O   1.951        C  183 1.599    N  205 0.194
   185  C   3.985        C  186 1.011    H  197 0.967    C  182 0.966    H  198 0.963
   186  C   3.974        C  187 1.580    C  188 1.209    C  185 1.011
   187  C   3.954        C  186 1.580    N  189 1.206    H  199 0.967
   188  C   3.986        C  191 1.328    C  190 1.250    C  186 1.209
   189  N   3.549        C  187 1.206    C  190 1.187    H  200 0.927
   190  C   3.966        C  192 1.333    C  188 1.250    N  189 1.187
   191  C   3.993        C  193 1.508    C  188 1.328    H  201 0.966    C  192 0.114
   192  C   3.987        C  194 1.497    C  190 1.333    H  202 0.966    C  191 0.114
   193  C   3.990        C  191 1.508    C  194 1.367    H  203 0.972
   194  C   3.991        C  192 1.497    C  193 1.367    H  204 0.972
   195  H   0.950        N  181 0.892
   196  H   0.994        C  182 0.953
   197  H   0.995        C  185 0.967
   198  H   0.997        C  185 0.963
   199  H   0.996        C  187 0.967
   200  H   0.956        N  189 0.927
   201  H   0.999        C  191 0.966
   202  H   0.996        C  192 0.966
   203  H   1.000        C  193 0.972
   204  H   0.999        C  194 0.972
   205  N   3.483        C  183 1.326    C  206 0.980    H  216 0.885    O  184 0.194
   206  C   3.969        N  205 0.980    C  209 0.966    H  217 0.952    C  207 0.937
   207  C   3.947        O  208 1.600    N  225 1.325    C  206 0.937
   208  O   1.946        C  207 1.600    N  225 0.196
   209  C   3.988        C  210 1.009    C  206 0.966    H  218 0.965    H  219 0.962
   210  C   3.988        C  212 1.414    C  211 1.413    C  209 1.009    C  215 0.110
   211  C   3.992        C  213 1.446    C  210 1.413    H  220 0.969    C  214 0.111
   212  C   3.990        C  214 1.443    C  210 1.414    H  221 0.968    C  213 0.111
   213  C   3.992        C  211 1.446    C  215 1.437    H  222 0.971    C  212 0.111
   214  C   3.991        C  212 1.443    C  215 1.436    H  223 0.969    C  211 0.111
   215  C   3.991        C  213 1.437    C  214 1.436    H  224 0.971    C  210 0.110
   216  H   0.949        N  205 0.885
   217  H   0.995        C  206 0.952
   218  H   0.995        C  209 0.965
   219  H   0.996        C  209 0.962
   220  H   0.999        C  211 0.969
   221  H   0.998        C  212 0.968
   222  H   0.999        C  213 0.971
   223  H   0.998        C  214 0.969
   224  H   0.998        C  215 0.971
   225  N   3.478        C  207 1.325    C  226 0.977    H  233 0.883    O  208 0.196
   226  C   3.963        N  225 0.977    C  229 0.967    H  234 0.954    C  227 0.937
   227  C   3.947        O  228 1.584    N  244 1.330    C  226 0.937
   228  O   1.945        C  227 1.584    N  244 0.192
   229  C   3.986        C  231 1.009    C  230 0.995    C  226 0.967    H  235 0.957
   230  C   3.995        C  232 1.018    C  229 0.995    H  236 0.977    H  237 0.970
   231  C   3.993        C  229 1.009    H  240 0.986    H  239 0.981    H  238 0.981
   232  C   3.995        C  230 1.018    H  241 0.986    H  243 0.985    H  242 0.985
   233  H   0.947        N  225 0.883
   234  H   0.997        C  226 0.954
   235  H   0.996        C  229 0.957
   236  H   0.999        C  230 0.977
   237  H   0.998        C  230 0.970
   238  H   0.996        C  231 0.981
   239  H   0.999        C  231 0.981
   240  H   0.998        C  231 0.986
   241  H   0.998        C  232 0.986
   242  H   0.999        C  232 0.985
   243  H   0.998        C  232 0.985
   244  N   3.483        C  227 1.330    C  245 0.975    H  252 0.898    O  228 0.192
   245  C   3.959        C  248 0.978    N  244 0.975    H  253 0.944    C  246 0.935
   246  C   3.947        O  247 1.601    N  263 1.320    C  245 0.935
   247  O   1.962        C  246 1.601    N  263 0.194
   248  C   3.983        C  249 0.992    C  245 0.978    H  255 0.970    H  254 0.964
   249  C   3.994        C  251 1.010    C  250 1.010    C  248 0.992    H  256 0.966
   250  C   3.994        C  249 1.010    H  258 0.985    H  257 0.985    H  259 0.983
   251  C   3.995        C  249 1.010    H  260 0.985    H  261 0.985    H  262 0.977
   252  H   0.948        N  244 0.898
   253  H   0.996        C  245 0.944
   254  H   0.995        C  248 0.964
   255  H   0.996        C  248 0.970
   256  H   0.997        C  249 0.966
   257  H   0.998        C  250 0.985
   258  H   0.998        C  250 0.985
   259  H   0.999        C  250 0.983
   260  H   0.998        C  251 0.985
   261  H   0.999        C  251 0.985
   262  H   0.998        C  251 0.977
   263  N   3.476        C  246 1.320    C  264 0.979    H  270 0.893    O  247 0.194
   264  C   3.960        N  263 0.979    C  267 0.962    H  271 0.947    C  265 0.936
   265  C   3.941        O  266 1.643    N  279 1.281    C  264 0.936
   266  O   1.955        C  265 1.643    N  279 0.191
   267  C   3.984        C  268 1.008    C  269 1.006    C  264 0.962    H  272 0.959
   268  C   3.992        C  267 1.008    H  274 0.986    H  275 0.983    H  273 0.983
   269  C   3.989        C  267 1.006    H  276 0.980    H  277 0.978    H  278 0.975
   270  H   0.948        N  263 0.893
   271  H   0.994        C  264 0.947
   272  H   0.997        C  267 0.959
   273  H   0.996        C  268 0.983
   274  H   1.000        C  268 0.986
   275  H   0.997        C  268 0.983
   276  H   0.996        C  269 0.980
   277  H   0.996        C  269 0.978
   278  H   0.996        C  269 0.975
   279  N   3.460        C  265 1.281    C  280 0.990    H  289 0.912    O  266 0.191
   280  C   3.969        N  279 0.990    C  283 0.961    H  290 0.955    C  281 0.930
   281  C   3.945        O  282 1.622    N  296 1.311    C  280 0.930
   282  O   1.937        C  281 1.622    N  296 0.198
   283  C   3.991        C  284 1.012    H  292 0.970    H  291 0.967    C  280 0.961
   284  C   3.974        C  286 1.554    N  285 1.275    C  283 1.012
   285  N   3.012        C  287 1.542    C  284 1.275    N  288 0.106
   286  C   3.943        C  284 1.554    N  288 1.218    H  293 0.962    C  287 0.120
   287  C   3.956        N  285 1.542    N  288 1.270    H  294 0.964    C  286 0.120
   288  N   3.597        C  287 1.270    C  286 1.218    H  295 0.924    N  285 0.106
   289  H   0.957        N  279 0.912
   290  H   0.995        C  280 0.955
   291  H   0.997        C  283 0.967
   292  H   0.996        C  283 0.970
   293  H   0.997        C  286 0.962
   294  H   0.998        C  287 0.964
   295  H   0.960        N  288 0.924
   296  N   3.467        C  281 1.311    C  297 0.978    H  303 0.887    O  282 0.198
   297  C   3.961        N  296 0.978    C  300 0.965    H  304 0.953    C  298 0.930
   298  C   3.948        O  299 1.629    N  312 1.307    C  297 0.930
   299  O   1.941        C  298 1.629    N  312 0.195
   300  C   3.988        C  301 1.008    C  302 1.008    C  297 0.965    H  305 0.962
   301  C   3.992        C  300 1.008    H  308 0.987    H  306 0.983    H  307 0.981
   302  C   3.993        C  300 1.008    H  310 0.986    H  309 0.982    H  311 0.981
   303  H   0.948        N  296 0.887
   304  H   0.996        C  297 0.953
   305  H   0.998        C  300 0.962
   306  H   0.996        C  301 0.983
   307  H   0.997        C  301 0.981
   308  H   0.998        C  301 0.987
   309  H   0.996        C  302 0.982
   310  H   0.998        C  302 0.986
   311  H   0.998        C  302 0.981
   312  N   3.476        C  298 1.307    C  313 0.983    H  319 0.885    O  299 0.195
   313  C   3.966        N  312 0.983    C  314 0.966    H  320 0.958    C  316 0.940
   314  C   3.906        O  315 1.921    C  313 0.966    H  479 0.952
   315  O   2.064        C  314 1.921
   316  C   3.952        C  318 1.003    O  317 0.990    H  321 0.954    C  313 0.940
   317  O   1.932        C  316 0.990    H  322 0.864
   318  C   3.989        C  316 1.003    H  325 0.984    H  323 0.979    H  324 0.979
   319  H   0.949        N  312 0.885
   320  H   0.994        C  313 0.958
   321  H   0.998        C  316 0.954
   322  H   0.883        O  317 0.864
   323  H   0.994        C  318 0.979
   324  H   0.996        C  318 0.979
   325  H   0.996        C  318 0.984
   326  N   2.996        C  327 1.005    H  337 0.963    H  480 0.949
   327  C   3.977        N  326 1.005    C  330 0.987    C  328 0.972    H  338 0.929
   328  C   3.892        O  329 1.913    C  327 0.972    H  481 0.952
   329  O   2.048        C  328 1.913
   330  C   3.992        C  331 1.004    C  327 0.987    H  340 0.975    H  339 0.970
   331  C   3.988        C  332 1.007    C  330 1.004    H  341 0.974    H  342 0.971
   332  C   3.957        C  331 1.007    N  333 0.984    H  343 0.957    H  344 0.956
   333  N   3.487        C  334 1.337    C  332 0.984    H  345 0.905    N  335 0.112
   334  C   3.978        N  333 1.337    N  335 1.330    N  336 1.276
   335  N   3.429        C  334 1.330    H  347 0.923    H  346 0.922    N  333 0.112
   336  N   3.353        C  334 1.276    H  349 0.924    H  348 0.914
   337  H   0.980        N  326 0.963
   338  H   0.992        C  327 0.929
   339  H   0.997        C  330 0.970
   340  H   0.997        C  330 0.975
   341  H   0.994        C  331 0.974
   342  H   0.994        C  331 0.971
   343  H   0.994        C  332 0.957
   344  H   0.994        C  332 0.956
   345  H   0.937        N  333 0.905
   346  H   0.948        N  335 0.922
   347  H   0.944        N  335 0.923
   348  H   0.940        N  336 0.914
   349  H   0.949        N  336 0.924
   350  N   2.996        C  351 1.017    H  482 0.960    H  358 0.950
   351  C   3.984        N  350 1.017    C  354 0.973    H  359 0.956    C  352 0.939
   352  C   3.943        O  353 1.614    N  369 1.298    C  351 0.939
   353  O   1.960        C  352 1.614    N  369 0.190
   354  C   3.992        C  355 0.993    C  351 0.973    H  361 0.972    H  360 0.971
   355  C   3.995        C  357 1.011    C  356 1.006    C  354 0.993    H  362 0.966
   356  C   3.992        C  355 1.006    H  365 0.986    H  364 0.985    H  363 0.985
   357  C   3.995        C  355 1.011    H  367 0.986    H  366 0.985    H  368 0.983
   358  H   0.971        N  350 0.950
   359  H   0.998        C  351 0.956
   360  H   0.996        C  354 0.971
   361  H   0.997        C  354 0.972
   362  H   0.999        C  355 0.966
   363  H   0.998        C  356 0.985
   364  H   0.998        C  356 0.985
   365  H   0.998        C  356 0.986
   366  H   0.999        C  357 0.985
   367  H   0.998        C  357 0.986
   368  H   0.999        C  357 0.983
   369  N   3.464        C  352 1.298    C  370 0.971    H  377 0.910    O  353 0.190
   370  C   3.962        C  373 0.973    N  369 0.971    C  371 0.965    H  378 0.947
   371  C   3.899        O  372 1.911    C  370 0.965    H  483 0.954
   372  O   2.052        C  371 1.911
   373  C   3.982        C  374 0.995    C  370 0.973    H  380 0.972    H  379 0.958
   374  C   3.993        C  376 1.010    C  375 1.008    C  373 0.995    H  381 0.965
   375  C   3.992        C  374 1.008    H  384 0.986    H  382 0.985    H  383 0.984
   376  C   3.995        C  374 1.010    H  386 0.986    H  385 0.986    H  387 0.983
   377  H   0.947        N  369 0.910
   378  H   0.991        C  370 0.947
   379  H   0.994        C  373 0.958
   380  H   0.996        C  373 0.972
   381  H   0.997        C  374 0.965
   382  H   0.997        C  375 0.985
   383  H   0.997        C  375 0.984
   384  H   0.998        C  375 0.986
   385  H   0.998        C  376 0.986
   386  H   0.999        C  376 0.986
   387  H   0.998        C  376 0.983
   388  N   2.991        C  389 1.025    H  484 0.959    H  392 0.920
   389  C   3.989        N  388 1.025    C  390 1.000    H  393 0.966    H  394 0.933
   390  C   3.882        O  391 1.856    C  389 1.000    H  485 0.953
   391  O   2.049        C  390 1.856
   392  H   0.965        N  388 0.920
   393  H   0.997        C  389 0.966
   394  H   0.993        C  389 0.933
   395  N   2.994        C  396 1.012    H  486 0.957    H  402 0.952
   396  C   3.984        N  395 1.012    C  399 0.965    H  403 0.963    C  397 0.940
   397  C   3.941        O  398 1.603    N  411 1.309    C  396 0.940
   398  O   1.968        C  397 1.603    N  411 0.192
   399  C   3.992        C  401 1.009    C  400 1.008    C  396 0.965    H  404 0.958
   400  C   3.996        C  399 1.008    H  407 0.985    H  405 0.985    H  406 0.982
   401  C   3.995        C  399 1.009    H  409 0.986    H  408 0.984    H  410 0.983
   402  H   0.974        N  395 0.952
   403  H   0.998        C  396 0.963
   404  H   0.997        C  399 0.958
   405  H   0.998        C  400 0.985
   406  H   0.999        C  400 0.982
   407  H   0.998        C  400 0.985
   408  H   0.997        C  401 0.984
   409  H   0.998        C  401 0.986
   410  H   0.998        C  401 0.983
   411  N   3.463        C  397 1.309    C  412 0.987    H  417 0.874    O  398 0.192
   412  C   3.972        N  411 0.987    C  413 0.977    C  415 0.948    H  418 0.943
   413  C   3.896        O  414 1.858    C  412 0.977    H  487 0.952
   414  O   2.068        C  413 1.858
   415  C   3.956        O  416 1.020    H  419 0.969    H  420 0.958    C  412 0.948
   416  O   1.950        C  415 1.020    H  421 0.864
   417  H   0.940        N  411 0.874
   418  H   0.994        C  412 0.943
   419  H   0.994        C  415 0.969
   420  H   0.995        C  415 0.958
   421  H   0.878        O  416 0.864
   422  N   2.989        C  423 1.018    H  488 0.959    H  430 0.923
   423  C   3.987        N  422 1.018    C  426 0.976    H  431 0.962    C  424 0.936
   424  C   3.940        O  425 1.600    N  441 1.324    C  423 0.936
   425  O   1.935        C  424 1.600    N  441 0.195
   426  C   3.993        C  427 0.994    C  423 0.976    H  433 0.972    H  432 0.967
   427  C   3.995        C  428 1.010    C  429 1.007    C  426 0.994    H  434 0.970
   428  C   3.995        C  427 1.010    H  435 0.986    H  436 0.985    H  437 0.978
   429  C   3.995        C  427 1.007    H  438 0.986    H  440 0.983    H  439 0.983
   430  H   0.964        N  422 0.923
   431  H   0.999        C  423 0.962
   432  H   0.997        C  426 0.967
   433  H   1.000        C  426 0.972
   434  H   0.999        C  427 0.970
   435  H   0.998        C  428 0.986
   436  H   0.999        C  428 0.985
   437  H   0.997        C  428 0.978
   438  H   0.998        C  429 0.986
   439  H   0.998        C  429 0.983
   440  H   0.999        C  429 0.983
   441  N   3.471        C  424 1.324    C  442 0.980    H  450 0.873    O  425 0.195
   442  C   3.968        N  441 0.980    C  443 0.971    C  445 0.969    H  451 0.946
   443  C   3.900        O  444 1.883    C  442 0.971    H  489 0.955
   444  O   2.029        C  443 1.883
   445  C   3.986        C  446 0.992    H  452 0.973    H  453 0.971    C  442 0.969
   446  C   3.991        C  445 0.992    C  447 0.969    H  455 0.960    H  454 0.954
   447  C   3.944        O  448 1.618    N  449 1.325    C  446 0.969
   448  O   1.948        C  447 1.618    N  449 0.198
   449  N   3.414        C  447 1.325    H  456 0.929    H  457 0.922    O  448 0.198
   450  H   0.940        N  441 0.873
   451  H   0.992        C  442 0.946
   452  H   0.996        C  445 0.973
   453  H   0.994        C  445 0.971
   454  H   0.994        C  446 0.954
   455  H   0.993        C  446 0.960
   456  H   0.952        N  449 0.929
   457  H   0.943        N  449 0.922
   458  N   3.005        C  459 1.015    H  490 0.955    H  469 0.947
   459  C   3.984        N  458 1.015    C  460 0.969    H  470 0.962    C  462 0.948
   460  C   3.886        O  461 1.893    C  459 0.969    H  491 0.953
   461  O   2.028        C  460 1.893
   462  C   3.991        C  463 1.009    H  472 0.972    H  471 0.961    C  459 0.948
   463  C   3.988        C  465 1.414    C  464 1.407    C  462 1.009    C  468 0.109
   464  C   3.990        C  466 1.448    C  463 1.407    H  473 0.966    C  467 0.111
   465  C   3.992        C  467 1.442    C  463 1.414    H  474 0.969    C  466 0.111
   466  C   3.992        C  464 1.448    C  468 1.435    H  475 0.969    C  465 0.111
   467  C   3.992        C  465 1.442    C  468 1.441    H  476 0.970    C  464 0.111
   468  C   3.989        C  467 1.441    C  466 1.435    H  477 0.971    C  463 0.109
   469  H   0.971        N  458 0.947
   470  H   0.998        C  459 0.962
   471  H   0.996        C  462 0.961
   472  H   0.998        C  462 0.972
   473  H   0.999        C  464 0.966
   474  H   0.999        C  465 0.969
   475  H   0.998        C  466 0.969
   476  H   0.998        C  467 0.970
   477  H   0.998        C  468 0.971
   478  H   0.967        N    1 0.956
   479  H   0.993        C  314 0.952
   480  H   0.968        N  326 0.949
   481  H   0.994        C  328 0.952
   482  H   0.971        N  350 0.960
   483  H   0.995        C  371 0.954
   484  H   0.970        N  388 0.959
   485  H   0.993        C  390 0.953
   486  H   0.967        N  395 0.957
   487  H   0.992        C  413 0.952
   488  H   0.971        N  422 0.959
   489  H   0.995        C  443 0.955
   490  H   0.967        N  458 0.955
   491  H   0.994        C  460 0.953
 
molecular dipole:
                 x           y           z       tot (Debye)
 q only:       41.228      81.536      74.233
   full:       41.926      78.671      72.752     292.470
molecular quadrupole (traceless):
                xx          xy          yy          xz          yz          zz
 q only:    -4636.792    5351.061    2673.047    4220.193    9339.752    1963.746
  q+dip:    -4283.846    5362.402    2256.849    4204.181    8858.000    2026.997
   full:    -4278.044    5365.385    2252.758    4205.683    8855.004    2025.287


           -------------------------------------------------
          | TOTAL ENERGY             -714.264588159332 Eh   |
          | GRADIENT NORM               0.588496907762 Eh/α |
          | HOMO-LUMO GAP               1.492944807145 eV   |
           -------------------------------------------------

------------------------------------------------------------------------
 * finished run on 2019/05/31 at 07:36:21.491     
------------------------------------------------------------------------
 total:
 * wall-time:     0 d,  0 h,  0 min, 26.061 sec
 *  cpu-time:     0 d,  0 h,  0 min, 12.411 sec
 * ratio c/w:     0.476 speedup
 SCF:
 * wall-time:     0 d,  0 h,  0 min, 24.778 sec
 *  cpu-time:     0 d,  0 h,  0 min, 11.860 sec
 * ratio c/w:     0.479 speedup

