      -----------------------------------------------------------      
     |                   =====================                   |     
     |                           x T B                           |     
     |                   =====================                   |     
     |                         S. Grimme                         |     
     |          Mulliken Center for Theoretical Chemistry        |     
     |                    University of Bonn                     |     
     |                 Version 6.0.1 (SAW181210)                 |     
      -----------------------------------------------------------      

   This program is distributed in the hope that it will be useful,
   but WITHOUT ANY WARRANTY; without even the implied warranty of
   MERCHANTABILITY or FITNESS FOR A PARTICULAR PURPOSE.
   
   FOR NON-COMMERCIAL, ACADEMIA USE ONLY.
   
   Cite this work as:
   S. Grimme, C. Bannwarth, P. Shushkov, J. Comput. Theory Chem., 2017,
   13, 1989-2009.
   C. Bannwarth, S. Ehlert and S. Grimme., ChemRxiv, 2018, preprint.
   http://doi.org/10.26434/chemrxiv.7246238.v1
   
   for sTDA-xTB:
   S. Grimme and C. Bannwarth, J. Chem. Phys., 2016, 145, 054103.
   
   in the mass-spec context:
   V. Asgeirsson, C. Bauer and S. Grimme, Chem. Sci., 2017, 8, 4879.
   
   if GBSA is used:
   P. Shushkov, F. März and S. Grimme, unpublished.
   
   for ANC optimizer:
   S. Grimme, unpublished.
   Rational Function algorithm used in ANCopt:
   F. Eckert, P. Pulay, H.-J. Werner, J. Comput. Chem., 1997, 18, 1473.
   
   with help from (in alphabetical order)
   C. Bannwarth, F. Bohle, G. Brandenburg, E. Caldeweyher, M. Checinski,
   S. Dohm, S. Ehlert, S. Ehrlich, F. März, H. Neugebauer, J. Pisarek,
   P. Pracht, P. Shushkov, and S. Spicher.
   
 * started run on 2019/03/14 at 15:08:20.729     
========================================================================
 # omp threads = 1
========================================================================
number of atoms            : 558
number of electrons        : 1406
charge                     : 0
spin                       : .0
first test random number   : .3702
           ------------------------------------------------- 
          |                 G F N 2 - x T B                 |
          | Geometry, Frequencies, Noncovalent interactions |
          |            JCTC 2018 parametrisation            |
           ------------------------------------------------- 
 
      method parameters     
 k(s)        :  1.8500
 k(p)        :  2.2300
 k(d)        :  2.2300
 k(f)        :  2.0000
 kEN (H0ij)  : -2.0000
 D4 a1       :  0.5200
 D4 a2       :  5.0000
 D4 s6       :  1.0000
 D4 s8       :  2.7000
 D4 s9       :  5.0000
 alphaj      :  2.0000

 Solvent             : h2o
 Using internal parameter file: .param_gbsa2_h2o
 Gsolv ref. state (COSMO-RS): gsolv [1 M gas/solution]
 temperature (mdtemp)       :    298.150000000000     
 dielectric constant        :    80.2000000000000     
 rho                        :    1.00000000000000     
 mass                       :    18.0000000000000     
 surface tension            :    15.5689454083859     
 probe radius               :   0.975313790000000     
 vdW radii scaling          :    1.00000000000000     
 Gshift (Eh)                :   1.857443126794793E-003
 c1                         :    1.55243817000000     
 soset                      :   0.130326360000000     
 HB correction              :  T

            Z     q(EN)     CN     RAES       Cart. coordinates
     1  N   5.0   -0.22    3.20    1.96   111.97969    55.69138    60.71164
     2  C   4.0    0.03    4.21    4.03   110.02008    56.15411    58.86797
     3  C   4.0    0.07    3.22    3.04   110.43905    58.74370    57.65178
     4  O   6.0   -0.31    1.17    1.80   110.03220    59.00812    55.38754
     5  C   4.0   -0.05    4.33    4.26   107.31598    55.99325    59.87742
     6  C   4.0   -0.03    4.17    3.95   106.67325    53.68298    61.50706
     7  C   4.0   -0.08    4.12    3.83   104.10795    54.16774    62.74071
     8  C   4.0   -0.08    4.09    3.79   106.60683    51.22589    60.00273
     9  H   1.0    0.08    1.02    1.43   111.51799    55.64259    62.57260
    10  H   1.0    0.04    1.06    1.44   110.26692    54.78357    57.32425
    11  H   1.0    0.04    1.03    1.43   106.94393    57.69742    60.97707
    12  H   1.0    0.04    1.03    1.43   106.07102    55.99320    58.22936
    13  H   1.0    0.04    1.06    1.44   108.08078    53.50281    62.99895
    14  H   1.0    0.03    1.00    1.43   103.50368    52.52384    63.80969
    15  H   1.0    0.04    1.00    1.43   104.22861    55.77833    64.01156
    16  H   1.0    0.03    1.00    1.43   102.69950    54.57173    61.30137
    17  H   1.0    0.03    1.00    1.43   106.29672    49.64180    61.27500
    18  H   1.0    0.03    1.00    1.43   105.07919    51.25037    58.62901
    19  H   1.0    0.03    1.00    1.43   108.37178    50.90680    59.00042
    20  N   5.0   -0.20    3.20    1.96   114.84344    58.04063    52.98541
    21  C   4.0    0.04    4.22    4.04   113.43868    57.11361    50.82396
    22  C   4.0    0.10    3.25    3.04   112.12696    59.36720    49.53103
    23  O   6.0   -0.28    1.12    1.80   112.36706    59.60671    47.23573
    24  C   4.0   -0.03    4.29    4.17   111.62219    54.94152    51.52878
    25  C   4.0   -0.01    3.60    3.17   109.04548    55.28956    50.37295
    26  C   4.0   -0.03    3.49    3.11   107.05297    56.25002    51.78185
    27  C   4.0   -0.03    3.48    3.10   108.61937    54.65727    47.86495
    28  C   4.0   -0.04    3.39    3.08   104.76037    56.79333    50.66291
    29  C   4.0   -0.04    3.39    3.08   106.32296    55.21338    46.73256
    30  C   4.0   -0.04    3.39    3.08   104.43060    56.38158    48.10344
    31  H   1.0    0.09    1.03    1.43   114.32449    57.45613    54.73584
    32  H   1.0    0.05    1.05    1.44   114.79868    56.44480    49.40196
    33  H   1.0    0.03    1.03    1.43   112.42080    53.14932    50.89591
    34  H   1.0    0.05    1.04    1.43   111.47713    54.89695    53.57808
    35  H   1.0    0.07    1.05    1.44   107.30724    56.62958    53.75774
    36  H   1.0    0.05    1.03    1.43   110.09012    53.72731    46.80016
    37  H   1.0    0.05    1.03    1.43   103.22488    57.51089    51.79371
    38  H   1.0    0.05    1.03    1.43   105.99031    54.71681    44.77792
    39  H   1.0    0.05    1.04    1.43   102.69614    56.93421    47.20154
    40  N   5.0   -0.21    3.22    1.96    72.40846    51.88924    59.19922
    41  C   4.0    0.03    4.24    4.08    74.92525    51.93744    58.13088
    42  C   4.0    0.08    3.27    3.05    75.25152    49.68406    56.38301
    43  O   6.0   -0.33    1.24    1.80    76.33906    49.86700    54.34366
    44  C   4.0   -0.04    4.35    4.29    76.85856    51.79939    60.27493
    45  C   4.0   -0.02    3.58    3.16    79.44999    50.94989    59.51068
    46  C   4.0   -0.05    3.47    3.10    80.81253    49.37176    61.10373
    47  C   4.0   -0.04    3.56    3.14    80.58994    51.81368    57.31752
    48  C   4.0   -0.05    3.39    3.08    83.30896    48.82033    60.59629
    49  C   4.0   -0.05    3.40    3.08    83.10808    51.30511    56.82067
    50  C   4.0   -0.05    3.41    3.08    84.48301    49.86201    58.49931
    51  H   1.0    0.08    1.03    1.43    72.33641    51.65195    61.10112
    52  H   1.0    0.04    1.05    1.44    75.17495    53.64486    56.98640
    53  H   1.0    0.03    1.03    1.43    76.98959    53.65829    61.17145
    54  H   1.0    0.04    1.04    1.43    76.14362    50.47876    61.67824
    55  H   1.0    0.04    1.03    1.43    79.92714    48.58562    62.76623
    56  H   1.0    0.05    1.04    1.43    79.49555    52.90404    55.99059
    57  H   1.0    0.05    1.04    1.43    84.34513    47.59566    61.84746
    58  H   1.0    0.04    1.03    1.43    83.98719    52.07033    55.15070
    59  H   1.0    0.05    1.03    1.43    86.47111    49.55894    58.17120
    60  N   5.0   -0.21    3.22    1.96    77.22374    50.47679    49.45714
    61  C   4.0    0.03    4.28    4.15    79.09831    49.05140    48.05991
    62  C   4.0    0.09    3.25    3.04    77.75935    47.35327    46.16781
    63  O   6.0   -0.32    1.30    1.80    78.48126    47.23289    43.97727
    64  C   4.0    0.05    4.24    4.07    80.93696    47.43308    49.63499
    65  O   6.0   -0.26    2.11    1.84    79.71291    45.39686    50.82860
    66  C   4.0   -0.08    4.08    3.77    82.45410    49.04658    51.46654
    67  H   1.0    0.12    1.10    1.44    76.67169    49.88283    51.20104
    68  H   1.0    0.04    1.06    1.44    80.23463    50.36314    46.94405
    69  H   1.0    0.05    1.08    1.44    82.23128    46.57305    48.27407
    70  H   1.0    0.13    1.03    1.43    78.21313    46.02114    51.65376
    71  H   1.0    0.05    1.00    1.43    83.68938    47.84560    52.58403
    72  H   1.0    0.03    1.00    1.43    83.59803    50.37937    50.40668
    73  H   1.0    0.05    1.01    1.43    81.18193    50.03967    52.72397
    74  N   5.0   -0.21    3.26    1.97    79.43193    48.45080    39.20138
    75  C   4.0    0.04    4.25    4.11    79.72339    46.22700    37.65074
    76  C   4.0    0.08    3.20    3.04    77.68054    45.89435    35.62648
    77  O   6.0   -0.28    1.11    1.80    78.20743    45.03141    33.53767
    78  C   4.0   -0.03    4.39    4.36    79.54056    43.93178    39.41050
    79  C   4.0   -0.00    3.61    3.17    81.49072    43.89030    41.45264
    80  C   4.0   -0.03    3.56    3.14    80.87024    42.75925    43.73719
    81  C   4.0   -0.04    3.50    3.12    83.77133    45.13687    41.23742
    82  C   4.0   -0.04    3.43    3.09    82.45258    42.92274    45.80629
    83  C   4.0   -0.05    3.43    3.09    85.32965    45.34358    43.32004
    84  C   4.0   -0.05    3.40    3.08    84.70610    44.23044    45.59616
    85  H   1.0    0.13    1.12    1.45    78.78876    48.12901    40.97854
    86  H   1.0    0.05    1.05    1.44    81.52638    46.30318    36.62755
    87  H   1.0    0.05    1.05    1.44    77.70972    44.02152    40.34781
    88  H   1.0    0.05    1.03    1.43    79.60839    42.20206    38.31327
    89  H   1.0    0.05    1.03    1.43    79.08046    41.79305    43.88875
    90  H   1.0    0.05    1.03    1.43    84.29817    46.03184    39.48214
    91  H   1.0    0.05    1.03    1.43    81.87426    42.13025    47.59242
    92  H   1.0    0.04    1.07    1.44    86.97871    46.48547    43.14797
    93  H   1.0    0.04    1.03    1.43    85.95492    44.38837    47.19876
    94  N   5.0   -0.22    3.21    1.96    86.50870    63.60355    47.20145
    95  C   4.0    0.03    4.23    4.06    88.54212    62.49001    48.65966
    96  C   4.0    0.07    3.22    3.04    89.25052    64.18055    50.87780
    97  O   6.0   -0.33    1.23    1.80    89.53157    63.30169    53.01586
    98  C   4.0   -0.05    4.37    4.32    90.90783    62.07589    47.05008
    99  C   4.0   -0.03    4.19    3.99    90.44054    60.37459    44.75606
   100  C   4.0   -0.08    4.12    3.84    92.75978    60.42602    43.04683
   101  C   4.0   -0.08    4.11    3.83    89.79642    57.70452    45.61795
   102  H   1.0    0.08    1.03    1.43    86.65263    63.63008    45.28798
   103  H   1.0    0.04    1.05    1.44    87.88307    60.69755    49.47194
   104  H   1.0    0.04    1.03    1.43    91.57891    63.91578    46.41598
   105  H   1.0    0.04    1.03    1.43    92.35857    61.23141    48.25102
   106  H   1.0    0.04    1.06    1.44    88.82914    61.10899    43.69117
   107  H   1.0    0.04    1.00    1.43    92.44657    59.29725    41.36390
   108  H   1.0    0.04    1.00    1.43    93.19837    62.33747    42.47616
   109  H   1.0    0.04    1.01    1.43    94.39689    59.71682    44.04754
   110  H   1.0    0.04    1.00    1.43    89.60272    56.45198    44.00709
   111  H   1.0    0.04    1.00    1.43    91.26554    56.97375    46.85466
   112  H   1.0    0.04    1.00    1.43    88.01942    57.71052    46.64415
   113  N   5.0   -0.20    3.28    1.98    84.15838    65.03357    55.90518
   114  C   4.0    0.03    4.37    4.33    83.81091    62.55064    56.99036
   115  C   4.0    0.15    3.45    3.09    85.85991    62.15324    58.96363
   116  O   6.0   -0.32    1.29    1.80    85.37427    61.54571    61.14726
   117  C   4.0   -0.05    4.40    4.38    83.95651    60.65356    54.81522
   118  C   4.0   -0.02    4.16    3.93    83.51160    57.86557    55.49281
   119  C   4.0   -0.08    4.15    3.90    81.74468    57.63491    57.75363
   120  C   4.0   -0.08    4.11    3.82    82.49485    56.57528    53.11232
   121  H   1.0    0.08    1.04    1.43    84.29348    65.06287    54.00103
   122  H   1.0    0.04    1.05    1.44    81.97391    62.45289    57.94118
   123  H   1.0    0.04    1.04    1.43    82.51275    61.23051    53.45776
   124  H   1.0    0.05    1.03    1.43    85.79138    60.87016    53.90684
   125  H   1.0    0.04    1.05    1.44    85.30612    56.98458    56.02614
   126  H   1.0    0.04    1.04    1.43    81.26505    55.68319    58.12748
   127  H   1.0    0.05    1.01    1.43    82.68233    58.36362    59.42146
   128  H   1.0    0.04    1.00    1.43    80.02759    58.70420    57.45232
   129  H   1.0    0.04    1.01    1.43    81.77442    54.70064    53.47488
   130  H   1.0    0.04    1.00    1.43    80.94502    57.67259    52.33331
   131  H   1.0    0.03    1.00    1.43    83.99662    56.42600    51.71957
   132  N   5.0   -0.14    3.52    2.09    88.18091    62.53435    58.07329
   133  C   4.0    0.04    4.37    4.34    90.41404    62.34130    59.61709
   134  C   4.0    0.08    3.25    3.04    90.16375    64.10623    61.87661
   135  O   6.0   -0.29    1.12    1.80    90.46747    63.24671    64.01130
   136  C   4.0    0.05    4.22    4.04    92.80274    62.79951    57.99322
   137  O   6.0   -0.26    2.13    1.84    93.03456    60.93444    56.11790
   138  C   4.0   -0.06    4.10    3.80    95.16683    62.65125    59.62505
   139  H   1.0    0.11    1.12    1.45    88.44382    63.10550    56.26340
   140  H   1.0    0.06    1.06    1.44    90.52541    60.42416    60.41911
   141  H   1.0    0.05    1.03    1.43    92.63233    64.68856    57.14145
   142  H   1.0    0.15    1.06    1.44    91.87578    61.28633    54.74170
   143  H   1.0    0.05    1.00    1.43    96.83110    62.74661    58.42716
   144  H   1.0    0.05    1.00    1.43    95.20447    64.18066    60.98621
   145  H   1.0    0.05    1.00    1.43    95.18253    60.85044    60.60786
   146  N   5.0   -0.19    3.22    1.96    85.42489    61.31673    66.48764
   147  C   4.0    0.03    4.23    4.06    86.38825    59.11179    67.78315
   148  C   4.0    0.08    3.22    3.04    88.39137    59.86752    69.70803
   149  O   6.0   -0.32    1.18    1.80    88.40235    58.93303    71.83872
   150  C   4.0   -0.04    4.35    4.29    87.53384    57.17250    65.97634
   151  C   4.0   -0.02    4.18    3.97    85.67209    56.10916    64.02969
   152  C   4.0   -0.08    4.11    3.83    87.05247    54.26254    62.30048
   153  C   4.0   -0.08    4.11    3.82    83.43084    54.79834    65.27699
   154  H   1.0    0.12    1.07    1.44    85.69554    61.47976    64.59789
   155  H   1.0    0.05    1.05    1.44    84.84149    58.25530    68.86772
   156  H   1.0    0.05    1.03    1.43    89.10990    58.06809    64.99298
   157  H   1.0    0.04    1.03    1.43    88.27884    55.62064    67.11605
   158  H   1.0    0.06    1.06    1.44    84.97252    57.67685    62.88622
   159  H   1.0    0.04    1.01    1.43    85.76656    53.54718    60.87035
   160  H   1.0    0.04    1.00    1.43    88.63547    55.17934    61.36809
   161  H   1.0    0.04    1.00    1.43    87.76351    52.66969    63.38437
   162  H   1.0    0.04    1.00    1.43    82.27321    53.88034    63.85082
   163  H   1.0    0.04    1.00    1.43    84.07617    53.36803    66.60351
   164  H   1.0    0.04    1.00    1.43    82.25885    56.15014    66.28176
   165  N   5.0   -0.21    3.22    1.96    88.49004    58.56295    77.25769
   166  C   4.0    0.03    4.28    4.17    90.71037    57.68205    78.60049
   167  C   4.0    0.08    3.22    3.04    91.53652    59.65438    80.56040
   168  O   6.0   -0.30    1.15    1.80    93.33872    59.32960    81.97096
   169  C   4.0   -0.02    4.26    4.12    92.93540    57.11742    76.79818
   170  C   4.0   -0.07    4.14    3.88    95.13383    55.91481    78.23495
   171  C   4.0   -0.08    4.12    3.85    92.15697    55.32859    74.67062
   172  H   1.0    0.12    1.06    1.44    88.71267    58.94140    75.39372
   173  H   1.0    0.04    1.05    1.44    90.22310    55.91264    79.57496
   174  H   1.0    0.05    1.05    1.44    93.51207    58.94780    76.02172
   175  H   1.0    0.04    1.00    1.43    96.66997    55.48518    76.94358
   176  H   1.0    0.07    1.02    1.43    95.82378    57.16670    79.70180
   177  H   1.0    0.04    1.00    1.43    94.52600    54.15547    79.10680
   178  H   1.0    0.04    1.00    1.43    93.77832    54.94293    73.46834
   179  H   1.0    0.04    1.00    1.43    91.49834    53.54169    75.44174
   180  H   1.0    0.06    1.02    1.43    90.68192    56.14847    73.51228
   181  N   5.0   -0.22    3.25    1.97    88.64273    38.02656    77.70691
   182  C   4.0    0.02    4.35    4.29    88.15254    40.47470    76.59985
   183  C   4.0    0.15    3.44    3.09    90.42823    41.24161    74.99182
   184  O   6.0   -0.32    1.29    1.80    90.14789    42.08348    72.85494
   185  C   4.0    0.05    4.21    4.02    87.48856    42.52027    78.58126
   186  O   6.0   -0.26    2.11    1.84    89.59449    43.40360    79.92443
   187  C   4.0   -0.08    4.07    3.75    85.37101    41.59462    80.31958
   188  H   1.0    0.08    1.02    1.43    88.85022    37.85228    79.59565
   189  H   1.0    0.04    1.05    1.44    86.55737    40.29546    75.28174
   190  H   1.0    0.05    1.04    1.43    86.81981    44.16956    77.51803
   191  H   1.0    0.11    1.02    1.43    90.43124    42.00311    80.79001
   192  H   1.0    0.05    1.00    1.43    84.90371    43.07880    81.65879
   193  H   1.0    0.04    1.00    1.43    83.71360    41.16422    79.19189
   194  H   1.0    0.04    1.00    1.43    85.92476    39.92298    81.38190
   195  N   5.0   -0.14    3.48    2.07    92.69705    40.88079    76.04657
   196  C   4.0    0.03    4.41    4.40    94.95289    41.74096    74.74670
   197  C   4.0    0.15    3.51    3.12    95.25671    40.27970    72.26531
   198  O   6.0   -0.33    1.34    1.80    95.71110    41.41770    70.30056
   199  C   4.0   -0.05    4.30    4.19    97.31525    41.64453    76.44491
   200  C   4.0   -0.04    4.13    3.85    99.01775    39.41390    75.84212
   201  S   6.0   -0.05    2.46    3.10   101.44045    38.89299    78.23678
   202  C   4.0   -0.07    3.89    3.45   102.43997    35.81650    77.07746
   203  H   1.0    0.07    1.06    1.44    92.84311    40.38313    77.89073
   204  H   1.0    0.05    1.06    1.44    94.65609    43.70760    74.15367
   205  H   1.0    0.04    1.03    1.43    98.37206    43.39920    76.21425
   206  H   1.0    0.04    1.04    1.43    96.70389    41.52974    78.41340
   207  H   1.0    0.04    1.09    1.44    97.91487    37.68528    75.80449
   208  H   1.0    0.04    1.07    1.44    99.97648    39.68108    74.03676
   209  H   1.0    0.04    1.04    1.44   103.98596    35.19768    78.26847
   210  H   1.0    0.04    1.04    1.43   100.85821    34.51343    77.19971
   211  H   1.0    0.04    1.04    1.43   103.07354    35.99411    75.13312
   212  N   5.0   -0.15    3.52    2.09    95.01514    37.77079    72.31625
   213  C   4.0    0.03    4.54    4.59    95.51502    36.34661    70.03240
   214  C   4.0    0.16    3.52    3.12    93.57582    36.96522    68.01583
   215  O   6.0   -0.32    1.33    1.80    94.20066    37.03506    65.78333
   216  C   4.0   -0.03    4.33    4.25    95.62585    33.45692    70.40910
   217  C   4.0   -0.05    4.22    4.04    93.11299    32.49567    71.46506
   218  C   4.0   -0.08    4.11    3.82    97.86331    32.75961    72.07928
   219  C   4.0   -0.08    4.00    3.63    92.89199    29.63794    71.75186
   220  H   1.0    0.07    1.06    1.44    94.61479    36.83545    73.93889
   221  H   1.0    0.05    1.06    1.44    97.32434    36.99754    69.23518
   222  H   1.0    0.04    1.06    1.44    95.92270    32.64600    68.52749
   223  H   1.0    0.04    1.03    1.43    92.79338    33.41755    73.27026
   224  H   1.0    0.04    1.05    1.44    91.61000    33.09494    70.19520
   225  H   1.0    0.04    1.00    1.43    98.01948    30.72019    72.22403
   226  H   1.0    0.04    1.00    1.43    99.60507    33.48665    71.26806
   227  H   1.0    0.04    1.00    1.43    97.58835    33.55057    73.95103
   228  H   1.0    0.04    1.00    1.43    90.99135    29.17166    72.38560
   229  H   1.0    0.04    1.00    1.43    93.19145    28.74708    69.92809
   230  H   1.0    0.04    1.00    1.43    94.23415    28.85953    73.09593
   231  N   5.0   -0.14    3.52    2.09    91.20185    37.32769    68.77836
   232  C   4.0    0.03    4.45    4.46    89.30505    38.02743    66.92833
   233  C   4.0    0.16    3.57    3.15    89.97400    40.64541    65.93730
   234  O   6.0   -0.32    1.49    1.80    90.56137    40.87159    63.69253
   235  C   4.0   -0.04    4.31    4.22    86.67657    37.77696    68.08222
   236  C   4.0   -0.01    3.54    3.13    84.55336    39.25835    66.88822
   237  C   4.0   -0.04    3.48    3.11    82.30445    39.43274    68.24023
   238  C   4.0   -0.03    3.51    3.12    84.71591    40.48557    64.57372
   239  C   4.0   -0.04    3.38    3.07    80.35463    40.93673    67.38292
   240  C   4.0   -0.04    3.38    3.07    82.79426    42.06874    63.75520
   241  C   4.0   -0.04    3.37    3.07    80.63185    42.33640    65.18872
   242  H   1.0    0.08    1.06    1.44    90.72533    37.36041    70.63683
   243  H   1.0    0.06    1.06    1.44    89.52607    36.77283    65.28527
   244  H   1.0    0.04    1.03    1.43    86.21069    35.76560    68.07491
   245  H   1.0    0.05    1.04    1.43    86.79759    38.37594    70.05573
   246  H   1.0    0.05    1.03    1.43    82.06805    38.37507    69.97190
   247  H   1.0    0.07    1.05    1.44    86.33765    40.19278    63.38634
   248  H   1.0    0.05    1.03    1.43    78.64838    41.02698    68.48901
   249  H   1.0    0.05    1.03    1.43    82.95551    43.11933    62.01035
   250  H   1.0    0.05    1.03    1.43    79.18562    43.61933    64.54133
   251  N   5.0   -0.14    3.50    2.08    90.00508    42.57241    67.52227
   252  C   4.0    0.04    4.51    4.55    90.41826    45.11500    66.56852
   253  C   4.0    0.16    3.51    3.12    92.81486    45.19193    64.96243
   254  O   6.0   -0.32    1.32    1.80    92.88410    46.42721    63.00315
   255  C   4.0   -0.02    4.25    4.11    90.40311    47.01771    68.76992
   256  C   4.0   -0.07    4.14    3.88    92.82326    46.88245    70.32558
   257  C   4.0   -0.08    4.10    3.80    89.97999    49.70766    67.82383
   258  H   1.0    0.11    1.10    1.44    89.62793    42.36888    69.39049
   259  H   1.0    0.06    1.06    1.44    88.88243    45.56961    65.24246
   260  H   1.0    0.05    1.06    1.44    88.81975    46.47612    69.98943
   261  H   1.0    0.04    1.00    1.43    92.57682    47.92621    72.07743
   262  H   1.0    0.07    1.01    1.43    93.25938    44.93636    70.78267
   263  H   1.0    0.04    1.00    1.43    94.40788    47.68120    69.29186
   264  H   1.0    0.04    1.00    1.43    90.03970    51.02210    69.40309
   265  H   1.0    0.04    1.00    1.43    91.45415    50.23112    66.49196
   266  H   1.0    0.04    1.00    1.43    88.15705    49.89219    66.89639
   267  N   5.0   -0.14    3.54    2.10    94.79267    43.86127    65.79179
   268  C   4.0    0.04    4.53    4.58    97.08658    43.74453    64.32226
   269  C   4.0    0.16    3.53    3.13    96.63371    42.31593    61.88132
   270  O   6.0   -0.34    1.43    1.80    97.66923    43.08637    59.95310
   271  C   4.0   -0.02    4.35    4.29    99.32933    42.58971    65.75398
   272  C   4.0   -0.05    4.20    4.01   100.11007    44.32034    67.93421
   273  C   4.0   -0.08    4.16    3.91   101.56159    42.18276    63.97200
   274  C   4.0   -0.08    4.02    3.66   101.80902    42.95311    69.81014
   275  H   1.0    0.12    1.12    1.45    94.72073    42.82415    67.39715
   276  H   1.0    0.05    1.06    1.44    97.60617    45.66734    63.72659
   277  H   1.0    0.05    1.06    1.44    98.69763    40.77346    66.51193
   278  H   1.0    0.03    1.03    1.43   101.07405    45.97309    67.16427
   279  H   1.0    0.05    1.04    1.43    98.40878    44.94169    68.90925
   280  H   1.0    0.03    1.00    1.43   103.16010    41.40698    64.99526
   281  H   1.0    0.05    1.01    1.43   101.08416    40.89443    62.44845
   282  H   1.0    0.04    1.00    1.43   102.12531    43.97640    63.14055
   283  H   1.0    0.04    1.00    1.43   102.06905    44.08535    71.50183
   284  H   1.0    0.04    1.00    1.43   100.91730    41.17552    70.32742
   285  H   1.0    0.03    1.00    1.43   103.65354    42.54979    69.00700
   286  N   5.0   -0.13    3.53    2.10    95.18556    40.26789    61.90208
   287  C   4.0    0.04    4.42    4.41    94.66142    38.97469    59.55202
   288  C   4.0    0.16    3.53    3.13    93.13199    40.68152    57.81844
   289  O   6.0   -0.34    1.44    1.80    93.76003    40.97499    55.61081
   290  C   4.0    0.03    4.15    3.90    93.29795    36.44862    59.95174
   291  O   6.0   -0.26    2.06    1.83    90.72102    36.69789    60.49300
   292  H   1.0    0.13    1.12    1.45    94.49894    39.46583    63.50353
   293  H   1.0    0.04    1.06    1.44    96.45596    38.60697    58.58450
   294  H   1.0    0.04    1.02    1.43    93.40812    35.34649    58.20700
   295  H   1.0    0.05    1.01    1.43    94.28260    35.43158    61.47023
   296  H   1.0    0.15    1.08    1.44    90.53290    38.04771    61.73802
   297  N   5.0   -0.13    3.57    2.13    91.10205    41.80717    58.76194
   298  C   4.0    0.04    4.42    4.42    89.67610    43.51115    57.18807
   299  C   4.0    0.16    3.45    3.10    91.39519    45.61100    56.20338
   300  O   6.0   -0.34    1.36    1.80    91.07369    46.40767    54.04539
   301  C   4.0    0.03    4.15    3.91    87.37328    44.44406    58.67867
   302  O   6.0   -0.25    2.08    1.84    88.04384    45.68814    60.91426
   303  H   1.0    0.13    1.14    1.45    90.78464    41.84265    60.65123
   304  H   1.0    0.05    1.05    1.44    88.99057    42.52682    55.48997
   305  H   1.0    0.04    1.02    1.43    86.17526    45.61636    57.46260
   306  H   1.0    0.04    1.02    1.43    86.29573    42.77932    59.25271
   307  H   1.0    0.12    1.02    1.43    88.66732    47.37026    60.56969
   308  N   5.0   -0.13    3.51    2.08    93.20483    46.43566    57.73900
   309  C   4.0    0.04    4.48    4.51    95.11640    48.25590    57.01302
   310  C   4.0    0.15    3.54    3.13    96.93930    47.14315    55.08338
   311  O   6.0   -0.34    1.48    1.80    97.44878    48.42957    53.19895
   312  C   4.0   -0.02    4.34    4.28    96.52634    49.19932    59.38094
   313  C   4.0   -0.05    4.17    3.94    95.10746    51.34368    60.72394
   314  C   4.0   -0.08    4.16    3.92    99.24811    49.91957    58.77048
   315  C   4.0   -0.08    4.02    3.65    95.03242    53.84176    59.29850
   316  H   1.0    0.12    1.12    1.45    93.21858    45.97702    59.60554
   317  H   1.0    0.05    1.06    1.44    94.22908    49.85503    56.02752
   318  H   1.0    0.06    1.07    1.44    96.57779    47.61116    60.69644
   319  H   1.0    0.05    1.03    1.43    93.18668    50.71122    61.12486
   320  H   1.0    0.04    1.03    1.43    96.05401    51.65854    62.53054
   321  H   1.0    0.03    1.00    1.43   100.15709    50.68950    60.44100
   322  H   1.0    0.04    1.01    1.43   100.30288    48.26427    58.16516
   323  H   1.0    0.04    1.00    1.43    99.30570    51.31476    57.26731
   324  H   1.0    0.04    1.00    1.43    94.04338    55.25271    60.41623
   325  H   1.0    0.04    1.00    1.43    96.92978    54.53531    58.94866
   326  H   1.0    0.05    1.00    1.43    94.06535    53.67188    57.49591
   327  N   5.0   -0.14    3.55    2.12    97.95137    44.88478    55.41865
   328  C   4.0    0.03    4.58    4.64    99.66898    43.94794    53.50867
   329  C   4.0    0.16    3.58    3.15    98.20282    43.35419    51.11903
   330  O   6.0   -0.33    1.34    1.80    99.27145    43.41352    49.06159
   331  C   4.0   -0.02    4.34    4.26   101.15888    41.54116    54.19008
   332  C   4.0   -0.04    4.26    4.11    99.28226    39.35248    54.43271
   333  C   4.0   -0.08    4.11    3.81   102.79330    42.01246    56.50667
   334  C   4.0   -0.08    4.01    3.63   100.30945    36.85955    55.41810
   335  H   1.0    0.12    1.17    1.46    97.68005    43.91092    57.05750
   336  H   1.0    0.05    1.06    1.44   101.00074    45.46729    53.03369
   337  H   1.0    0.04    1.06    1.44   102.39387    41.16624    52.56932
   338  H   1.0    0.06    1.06    1.44    97.74207    39.95780    55.64149
   339  H   1.0    0.04    1.05    1.44    98.48651    39.00453    52.56282
   340  H   1.0    0.04    1.00    1.43   103.85345    40.32925    57.00418
   341  H   1.0    0.03    1.00    1.43   104.13847    43.51035    56.09719
   342  H   1.0    0.05    1.01    1.43   101.60703    42.57385    58.08108
   343  H   1.0    0.04    1.00    1.43    98.74521    35.53312    55.57251
   344  H   1.0    0.04    1.00    1.43   101.69207    36.10191    54.10626
   345  H   1.0    0.04    1.00    1.43   101.15865    37.06427    57.27377
   346  N   5.0   -0.14    3.63    2.19    95.81741    42.66110    51.45858
   347  C   4.0    0.04    4.54    4.59    94.15811    42.29366    49.33664
   348  C   4.0    0.16    3.61    3.17    93.94462    44.90877    48.17563
   349  O   6.0   -0.33    1.51    1.80    94.57554    45.17223    45.96630
   350  C   4.0   -0.02    4.32    4.23    91.65626    40.98289    49.93589
   351  C   4.0   -0.04    4.20    4.00    92.11530    38.33653    51.02835
   352  C   4.0   -0.08    4.15    3.91    90.13434    40.80477    47.49697
   353  C   4.0   -0.08    4.02    3.65    89.70304    37.19618    52.11594
   354  H   1.0    0.12    1.16    1.46    95.06609    42.53249    53.21427
   355  H   1.0    0.05    1.07    1.44    95.15866    41.16724    47.90420
   356  H   1.0    0.05    1.05    1.44    90.61383    42.11928    51.31077
   357  H   1.0    0.03    1.03    1.43    92.89084    37.12340    49.55162
   358  H   1.0    0.06    1.05    1.44    93.50552    38.46853    52.53433
   359  H   1.0    0.03    1.00    1.43    88.32786    39.90776    47.85806
   360  H   1.0    0.04    1.01    1.43    89.77726    42.65486    46.69456
   361  H   1.0    0.04    1.00    1.43    91.18227    39.72079    46.09766
   362  H   1.0    0.04    1.00    1.43    90.10437    35.49735    53.19749
   363  H   1.0    0.04    1.00    1.43    88.82115    38.54324    53.39248
   364  H   1.0    0.03    1.00    1.43    88.37317    36.71528    50.63010
   365  N   5.0   -0.14    3.50    2.08    93.37228    46.89822    49.60522
   366  C   4.0    0.03    4.51    4.55    93.51324    49.31920    48.32714
   367  C   4.0    0.17    3.61    3.17    96.08664    49.48299    47.01738
   368  O   6.0   -0.33    1.49    1.80    96.20887    49.93645    44.73870
   369  C   4.0    0.05    4.19    3.98    92.86072    51.68630    49.88908
   370  O   6.0   -0.26    2.11    1.84    94.70472    52.41073    51.65018
   371  C   4.0   -0.07    4.07    3.74    90.25405    51.44582    51.13601
   372  H   1.0    0.12    1.13    1.45    92.75086    46.76328    51.41851
   373  H   1.0    0.04    1.09    1.44    92.15909    49.29296    46.76774
   374  H   1.0    0.04    1.04    1.44    92.79744    53.23935    48.50597
   375  H   1.0    0.15    1.09    1.44    95.53719    50.92520    52.36693
   376  H   1.0    0.04    1.00    1.43    89.92154    53.09020    52.32288
   377  H   1.0    0.03    1.00    1.43    88.78952    51.33234    49.70502
   378  H   1.0    0.07    1.02    1.43    90.19041    49.77838    52.32223
   379  N   5.0   -0.13    3.55    2.12    98.19656    49.16933    48.31578
   380  C   4.0    0.04    4.56    4.62   100.56978    49.65094    47.04732
   381  C   4.0    0.16    3.55    3.14   100.73197    48.20886    44.55762
   382  O   6.0   -0.32    1.28    1.80   101.59405    49.20729    42.63788
   383  C   4.0   -0.02    4.28    4.16   102.73601    48.97188    48.85039
   384  C   4.0   -0.07    4.13    3.87   105.27213    48.98942    47.48985
   385  C   4.0   -0.08    4.13    3.86   102.74341    50.82603    51.05749
   386  H   1.0    0.12    1.15    1.45    98.23810    48.79460    50.19195
   387  H   1.0    0.05    1.05    1.44   100.62045    51.65565    46.48866
   388  H   1.0    0.05    1.06    1.44   102.36873    47.05409    49.53573
   389  H   1.0    0.04    1.00    1.43   106.80261    48.75078    48.83725
   390  H   1.0    0.05    1.00    1.43   105.36309    47.48442    46.09555
   391  H   1.0    0.05    1.02    1.43   105.53040    50.78306    46.53493
   392  H   1.0    0.04    1.00    1.43   104.39659    50.54481    52.24057
   393  H   1.0    0.04    1.03    1.43   102.80833    52.73408    50.31713
   394  H   1.0    0.06    1.01    1.43   101.05811    50.63455    52.21055
   395  N   5.0   -0.14    3.55    2.12    99.96540    45.81560    44.61042
   396  C   4.0    0.04    4.54    4.59   100.23177    44.26440    42.38897
   397  C   4.0    0.15    3.44    3.09    98.19968    44.79190    40.40344
   398  O   6.0   -0.30    1.22    1.80    98.75923    44.50953    38.15656
   399  C   4.0   -0.02    4.28    4.15   100.22838    41.44434    43.09339
   400  C   4.0   -0.07    4.14    3.89   100.08494    39.76023    40.75816
   401  C   4.0   -0.07    4.13    3.86   102.62934    40.84496    44.56710
   402  H   1.0    0.12    1.14    1.45    99.55903    44.92941    46.26799
   403  H   1.0    0.05    1.06    1.44   102.06509    44.75661    41.53378
   404  H   1.0    0.05    1.05    1.44    98.56845    41.11790    44.28001
   405  H   1.0    0.04    1.00    1.43   100.45057    37.81148    41.28738
   406  H   1.0    0.05    1.00    1.43    98.23802    39.85685    39.86728
   407  H   1.0    0.05    1.00    1.43   101.50547    40.33216    39.38913
   408  H   1.0    0.04    1.00    1.43   102.66551    38.86210    45.09346
   409  H   1.0    0.04    1.00    1.43   104.26564    41.22747    43.38451
   410  H   1.0    0.05    1.00    1.43   102.72921    41.98163    46.27063
   411  N   5.0   -0.14    3.51    2.09    95.91779    45.42521    41.22921
   412  C   4.0    0.04    4.54    4.59    93.79833    46.08484    39.62327
   413  C   4.0    0.15    3.50    3.12    94.06227    48.70180    38.46077
   414  O   6.0   -0.28    1.23    1.80    93.06609    49.09865    36.39832
   415  C   4.0   -0.02    4.29    4.17    91.15436    45.97320    40.83757
   416  C   4.0   -0.08    4.12    3.85    90.77986    43.29138    41.81504
   417  C   4.0   -0.07    4.19    3.99    90.92598    48.11782    42.75284
   418  H   1.0    0.13    1.17    1.46    95.68244    45.61020    43.12535
   419  H   1.0    0.06    1.07    1.44    93.70284    44.73922    38.06707
   420  H   1.0    0.05    1.06    1.44    89.83177    46.33738    39.28353
   421  H   1.0    0.04    1.01    1.43    88.94894    42.94935    42.66901
   422  H   1.0    0.04    1.01    1.43    90.92976    42.00778    40.22057
   423  H   1.0    0.06    1.02    1.43    92.26030    42.89508    43.17116
   424  H   1.0    0.04    1.01    1.43    89.76537    47.60352    44.36166
   425  H   1.0    0.07    1.05    1.44    92.80149    48.57300    43.40496
   426  H   1.0    0.04    1.00    1.43    90.16487    49.80086    41.85058
   427  N   5.0   -0.14    3.58    2.14    95.33367    50.42274    39.77421
   428  C   4.0    0.04    4.52    4.57    95.97192    52.83591    38.65549
   429  C   4.0    0.16    3.57    3.15    98.06472    52.30033    36.77648
   430  O   6.0   -0.27    1.28    1.80    97.97210    53.13521    34.61555
   431  C   4.0   -0.02    4.32    4.24    96.72499    54.95443    40.50809
   432  C   4.0   -0.04    4.25    4.09    99.48739    54.69771    41.30531
   433  C   4.0   -0.08    4.17    3.94    94.88302    54.95473    42.70348
   434  C   4.0   -0.08    4.02    3.65   100.49942    56.84932    42.91417
   435  H   1.0    0.12    1.14    1.45    96.01883    50.00034    41.50712
   436  H   1.0    0.06    1.06    1.44    94.30582    53.47619    37.59828
   437  H   1.0    0.04    1.06    1.44    96.52030    56.72844    39.45958
   438  H   1.0    0.07    1.04    1.43    99.73727    52.90792    42.28817
   439  H   1.0    0.05    1.06    1.44   100.62786    54.69020    39.59114
   440  H   1.0    0.04    1.01    1.43    95.44269    56.32951    44.10860
   441  H   1.0    0.04    1.01    1.43    93.01123    55.37720    41.99401
   442  H   1.0    0.07    1.04    1.44    94.84454    53.12248    43.58522
   443  H   1.0    0.04    1.00    1.43   102.47212    56.47272    43.33839
   444  H   1.0    0.04    1.00    1.43   100.41487    58.60125    41.85163
   445  H   1.0    0.04    1.00    1.43    99.45803    57.05829    44.67106
   446  N   5.0   -0.14    3.52    2.09    99.90867    50.70757    37.48787
   447  C   4.0    0.05    4.40    4.37   101.86736    50.19132    35.64603
   448  C   4.0    0.11    3.30    3.05   100.56921    49.06462    33.33188
   449  O   6.0   -0.25    1.11    1.80   101.04306    49.75706    31.17063
   450  C   4.0   -0.03    4.30    4.19   103.90051    48.45028    36.72098
   451  C   4.0    0.16    3.23    3.04   106.39298    49.87976    36.91572
   452  O   6.0   -0.28    1.23    1.80   106.92352    51.57700    35.44883
   453  N   5.0   -0.19    3.18    1.95   107.94310    49.10087    38.75196
   454  H   1.0    0.10    1.09    1.44   100.30988    50.33082    39.32906
   455  H   1.0    0.08    1.07    1.44   102.75818    51.96328    35.01500
   456  H   1.0    0.06    1.03    1.43   103.31145    47.70524    38.54776
   457  H   1.0    0.05    1.04    1.43   104.20648    46.88229    35.41817
   458  H   1.0    0.10    1.03    1.43   109.66506    49.90831    38.91274
   459  H   1.0    0.08    1.03    1.43   107.44108    47.70531    39.93445
   460  N   5.0   -0.22    3.19    1.95    85.27228    31.42485    41.73099
   461  C   4.0    0.03    4.31    4.22    84.72092    32.99931    43.90605
   462  C   4.0    0.07    3.29    3.05    82.55737    31.85516    45.42464
   463  O   6.0   -0.33    1.25    1.80    82.80470    31.39620    47.67880
   464  C   4.0   -0.03    4.28    4.15    84.02700    35.71541    43.15723
   465  C   4.0   -0.08    4.20    4.00    82.56744    36.97330    45.28843
   466  C   4.0   -0.08    4.11    3.83    86.36303    37.30567    42.60302
   467  H   1.0    0.08    1.03    1.43    85.27988    32.32422    40.03235
   468  H   1.0    0.04    1.05    1.44    86.37716    33.00425    45.16158
   469  H   1.0    0.04    1.06    1.44    82.82245    35.62375    41.48256
   470  H   1.0    0.04    1.06    1.44    82.07115    38.86910    44.71997
   471  H   1.0    0.04    1.01    1.43    80.84236    35.96744    45.75266
   472  H   1.0    0.04    1.01    1.43    83.74854    37.08613    46.96021
   473  H   1.0    0.04    1.00    1.43    85.79248    39.20799    42.07553
   474  H   1.0    0.03    1.00    1.43    87.51700    37.42337    44.29240
   475  H   1.0    0.04    1.00    1.43    87.46508    36.49602    41.08147
   476  N   5.0   -0.20    3.21    1.96    84.08711    25.93311    48.46351
   477  C   4.0    0.03    4.31    4.22    85.73426    26.30761    50.61115
   478  C   4.0    0.15    3.43    3.09    84.42037    27.66588    52.79417
   479  O   6.0   -0.34    1.39    1.80    84.92958    27.00771    54.96063
   480  C   4.0   -0.05    4.36    4.30    88.14111    27.77660    49.98013
   481  C   4.0   -0.03    4.17    3.95    89.91338    26.48429    48.08563
   482  C   4.0   -0.08    4.11    3.82    92.01123    28.33343    47.37197
   483  C   4.0   -0.08    4.10    3.80    91.04219    24.04454    49.12293
   484  H   1.0    0.09    1.02    1.43    84.55378    26.81533    46.82391
   485  H   1.0    0.04    1.06    1.44    86.23141    24.43677    51.36807
   486  H   1.0    0.05    1.03    1.43    87.57260    29.61121    49.23181
   487  H   1.0    0.04    1.03    1.43    89.15550    28.07085    51.75513
   488  H   1.0    0.04    1.06    1.44    88.83204    26.05796    46.38396
   489  H   1.0    0.04    1.00    1.43    93.22266    27.52170    45.92532
   490  H   1.0    0.03    1.00    1.43    91.19493    30.06772    46.63326
   491  H   1.0    0.04    1.00    1.43    93.15489    28.78019    49.01871
   492  H   1.0    0.04    1.00    1.43    92.32086    23.22206    47.74150
   493  H   1.0    0.04    1.00    1.43    92.09826    24.40469    50.84888
   494  H   1.0    0.04    1.00    1.43    89.57619    22.66527    49.52912
   495  N   5.0   -0.15    3.48    2.06    82.86490    29.57850    52.31991
   496  C   4.0    0.04    4.41    4.40    81.59372    30.89956    54.35961
   497  C   4.0    0.08    3.26    3.04    79.51241    29.21649    55.44043
   498  O   6.0   -0.29    1.12    1.80    79.08882    29.09824    57.71946
   499  C   4.0   -0.02    4.32    4.23    80.55084    33.49343    53.54035
   500  C   4.0   -0.05    4.19    3.98    82.72904    35.24070    52.76335
   501  C   4.0   -0.07    4.14    3.89    79.04427    34.65671    55.71235
   502  C   4.0   -0.08    4.02    3.65    81.82335    37.77407    51.73149
   503  H   1.0    0.12    1.15    1.45    82.54849    30.15039    50.51715
   504  H   1.0    0.06    1.06    1.44    82.95235    31.18858    55.90429
   505  H   1.0    0.05    1.05    1.44    79.31076    33.19389    51.90885
   506  H   1.0    0.04    1.03    1.43    83.93979    35.56320    54.40044
   507  H   1.0    0.05    1.03    1.43    83.83553    34.28471    51.31153
   508  H   1.0    0.04    1.00    1.43    78.22036    36.45086    55.15843
   509  H   1.0    0.06    1.01    1.43    77.52441    33.41746    56.31911
   510  H   1.0    0.05    1.00    1.43    80.28065    34.97245    57.32270
   511  H   1.0    0.04    1.00    1.43    83.41207    38.84193    50.98689
   512  H   1.0    0.04    1.00    1.43    80.47165    37.47070    50.21660
   513  H   1.0    0.04    1.00    1.43    80.93111    38.91339    53.18410
   514  N   5.0   -0.20    3.25    1.97    84.09099    24.63680    59.28068
   515  C   4.0    0.03    4.30    4.21    85.18234    25.91776    61.44310
   516  C   4.0    0.08    3.24    3.04    83.07557    26.70128    63.25004
   517  O   6.0   -0.29    1.11    1.80    83.28304    26.41135    65.54760
   518  C   4.0   -0.02    4.33    4.25    86.71840    28.22023    60.55965
   519  C   4.0   -0.05    4.19    3.98    89.00040    27.46064    58.93573
   520  C   4.0   -0.07    4.13    3.86    87.54281    29.84241    62.79262
   521  C   4.0   -0.08    4.02    3.65    90.85948    25.64595    60.17091
   522  H   1.0    0.13    1.12    1.45    84.49447    25.33565    57.54225
   523  H   1.0    0.05    1.05    1.44    86.38560    24.59176    62.49651
   524  H   1.0    0.05    1.06    1.44    85.46172    29.34591    59.36138
   525  H   1.0    0.06    1.04    1.43    88.31910    26.60186    57.19690
   526  H   1.0    0.04    1.03    1.43    89.99543    29.19673    58.43384
   527  H   1.0    0.04    1.00    1.43    88.67594    31.41728    62.11620
   528  H   1.0    0.05    1.00    1.43    85.92382    30.59934    63.80353
   529  H   1.0    0.04    1.00    1.43    88.66071    28.73012    64.10411
   530  H   1.0    0.04    1.00    1.43    92.37590    25.24362    58.84629
   531  H   1.0    0.04    1.00    1.43    91.69055    26.44701    61.86743
   532  H   1.0    0.04    1.00    1.43    89.95038    23.86872    60.65029
   533  H   1.0    0.09    1.07    1.44   112.69462    54.17747    60.41245
   534  H   1.0    0.05    1.04    1.43   111.03800    60.19545    58.70285
   535  H   1.0    0.09    1.07    1.44   116.47457    57.58084    52.84205
   536  H   1.0    0.07    1.04    1.43   111.11323    60.58692    50.55851
   537  H   1.0    0.09    1.07    1.44    71.62096    53.35883    58.86351
   538  H   1.0    0.05    1.05    1.44    74.57097    47.99368    56.88355
   539  H   1.0    0.09    1.07    1.44    77.79333    52.05738    49.72147
   540  H   1.0    0.06    1.05    1.44    76.27271    46.32104    46.71136
   541  H   1.0    0.10    1.07    1.44    80.93492    49.22977    39.36505
   542  H   1.0    0.06    1.04    1.44    75.89321    46.38214    35.99872
   543  H   1.0    0.09    1.07    1.44    85.06202    62.76501    47.51215
   544  H   1.0    0.05    1.05    1.44    89.49515    66.03539    50.61175
   545  H   1.0    0.09    1.07    1.44    82.83830    66.02333    56.31788
   546  H   1.0    0.06    1.04    1.43    89.75831    65.93241    61.60875
   547  H   1.0    0.09    1.07    1.44    83.73735    61.39787    66.68305
   548  H   1.0    0.06    1.04    1.44    89.71514    61.13458    69.24622
   549  H   1.0    0.10    1.07    1.44    87.26674    57.38491    77.34905
   550  H   1.0    0.06    1.05    1.44    90.58912    61.28160    80.72062
   551  H   1.0    0.09    1.07    1.44    87.36189    36.97007    77.33833
   552  H   1.0    0.08    1.05    1.44    99.27411    47.70483    33.54343
   553  H   1.0    0.09    1.07    1.44    86.81446    30.73024    41.90925
   554  H   1.0    0.05    1.05    1.44    80.91088    31.47014    44.58091
   555  H   1.0    0.09    1.07    1.44    84.02230    24.27751    48.07963
   556  H   1.0    0.06    1.05    1.44    78.44767    28.16913    54.28267
   557  H   1.0    0.09    1.07    1.44    84.62257    23.02155    59.24986
   558  H   1.0    0.07    1.05    1.44    81.48643    27.46762    62.57298

  Z AO/shell   Hii/eV     exponent
  1     Wed Apr 25 08:07:45 CEST 2018   EN: 2.200 GM2: 0.406  GM3: 0.0800  RAES: 1.40
     1s    -10.707211    1.230000
  6     Wed Apr 25 08:07:45 CEST 2018   EN: 2.550 GM2: 0.538  GM3: 0.1500  RAES: 3.00
     2s    -13.970922    2.096432
     2p    -10.063292    1.800000
  7     Wed Apr 25 08:07:45 CEST 2018   EN: 3.040 GM2: 0.461  GM3:-0.0640  RAES: 1.90
     2s    -16.686243    2.339881
     2p    -12.523956    2.014332
  8     Wed Apr 25 08:07:45 CEST 2018   EN: 3.440 GM2: 0.452  GM3:-0.0517  RAES: 1.80
     2s    -20.229985    2.439742
     2p    -15.503117    2.137023
 16     Tue Apr 24 11:44:34 CEST 2018   EN: 2.580 GM2: 0.340  GM3:-0.0502  RAES: 3.10
     3s    -20.029654    1.981333
     3p    -11.377694    2.025643
     3d     -0.420282    1.702555
 no old-style atom pair restraining (fixing) potential

molecular fragmentation (1/2 indicates fragments):
111111111111111111122222222222222222222222222222222222222222222222222222
222222222222222222222222222222222222222222222222222222222222222222222222
222222222222222222222222222222222222222222222222222222222222222222222222
222222222222222222222222222222222222222222222222222222222222222222222222
222222222222222222222222222222222222222222222222222222222222222222222222
222222222222222222222222222222222222222222222222222222222222222222222222
222222222222222222222222222222222222222222222222222222222222222222222222
222222222222222222222222222211222222222222222222222222
# atoms in fragment 1/2:    21   537
 fragment masses (1/2) :      115.17     3389.47
CMA distance (Bohr)    :  19.845
constraining FC (au)   :  0.0500
           ------------------------------------------------- 
          |        Self-Consistent Charge Iterations        |
           ------------------------------------------------- 

 Ncao       : 1302
 Nao        : 1301
 Nshell     : 805
 Nel        : 1406
 T(el)      :   500.0
 intcut     :    35.0
 scfconv/Eh :  0.100E-06
   qconv/e  :  0.100E-04
 intneglect :  0.100E-08
 broydamp   :      0.400
 iter      E             dE          RMSdq      gap      omega  full diag
   1   -793.7047982 -0.793705E+03  0.423E+00    2.65       0.0  T
   2   -795.2728236 -0.156803E+01  0.202E+00    1.71       1.0  T
   3   -795.3589424 -0.861188E-01  0.115E+00    1.69       1.0  T
   4   -795.4865738 -0.127631E+00  0.211E-01    1.05       1.0  T
   5   -795.4921941 -0.562025E-02  0.976E-02    1.22       1.0  T
   6   -795.4933979 -0.120382E-02  0.416E-02    1.21       1.0  T
   7   -795.4936665 -0.268663E-03  0.179E-02    1.19       1.0  T
   8   -795.4937038 -0.372117E-04  0.798E-03    1.18       1.0  T
   9   -795.4937119 -0.818762E-05  0.383E-03    1.18       1.1  T
  10   -795.4937137 -0.174760E-05  0.176E-03    1.18       2.4  T
  11   -795.4937140 -0.325324E-06  0.901E-04    1.18       4.7  T
  12   -795.4937141 -0.946646E-07  0.429E-04    1.18       9.9  T
  13   -795.4937141 -0.349545E-07  0.214E-04    1.18      19.7  T
  14   -795.4937141 -0.560738E-08  0.103E-04    1.18      41.3  T
  15   -795.4937142 -0.145781E-08  0.384E-05    1.18     110.3  T
  16   -795.4937142 -0.199861E-09  0.171E-05    1.18     247.5  T
speedup  1.00
cpu  time for SCC   13.69 s
wall time for SCC   13.69 s

   *** convergence criteria satisfied after 16 iterations ***

          eigenvalues
 #    :         691        692        693        694        695        696        697        698
 occ. :        2.000      2.000      2.000      2.000      2.000      2.000      2.000      2.000
 eps  :       -10.211    -10.205    -10.097    -10.063    -10.003     -9.879     -9.849     -9.810
 #    :         699        700        701        702        703        704        705        706
 occ. :        2.000      2.000      2.000      2.000      2.000      0.000      0.000      0.000
 eps  :        -9.783     -9.649     -9.614     -9.508     -9.409     -8.230     -7.994     -7.792
 #    :         707        708        709        710        711        712        713        714
 occ. :        0.000      0.000      0.000      0.000      0.000      0.000      0.000      0.000
 eps  :        -7.789     -7.655     -7.643     -7.616     -7.614     -7.593     -7.579     -7.511


   #   Z            q   n(s)   n(p)   n(d)      C6AA      α(0)
   1   7 N     -0.393  1.313  4.079  0.000    30.175     8.158
   2   6 C      0.043  1.055  2.902  0.000    19.874     6.351
   3   6 C      0.190  1.093  2.718  0.000    23.943     8.014
   4   8 O     -0.360  1.758  4.602  0.000    20.892     6.128
   5   6 C     -0.071  1.058  3.013  0.000    21.853     6.654
   6   6 C     -0.008  1.055  2.953  0.000    20.694     6.470
   7   6 C     -0.117  1.043  3.074  0.000    22.796     6.807
   8   6 C     -0.116  1.039  3.077  0.000    22.779     6.805
   9   1 H      0.166  0.834  0.000  0.000     1.295     1.782
  10   1 H      0.045  0.955  0.000  0.000     2.385     2.415
  11   1 H      0.043  0.957  0.000  0.000     2.408     2.426
  12   1 H      0.047  0.953  0.000  0.000     2.363     2.404
  13   1 H      0.036  0.964  0.000  0.000     2.502     2.474
  14   1 H      0.046  0.954  0.000  0.000     2.377     2.411
  15   1 H      0.039  0.961  0.000  0.000     2.466     2.456
  16   1 H      0.043  0.957  0.000  0.000     2.409     2.427
  17   1 H      0.045  0.955  0.000  0.000     2.387     2.416
  18   1 H      0.043  0.957  0.000  0.000     2.408     2.426
  19   1 H      0.036  0.964  0.000  0.000     2.504     2.475
  20   7 N     -0.386  1.315  4.070  0.000    29.978     8.132
  21   6 C      0.045  1.060  2.895  0.000    19.833     6.344
  22   6 C      0.208  1.093  2.698  0.000    23.580     7.952
  23   8 O     -0.387  1.762  4.625  0.000    21.418     6.205
  24   6 C     -0.073  1.059  3.014  0.000    21.893     6.661
  25   6 C      0.010  1.083  2.907  0.000    27.793     8.648
  26   6 C     -0.043  1.083  2.960  0.000    29.074     8.843
  27   6 C     -0.040  1.081  2.959  0.000    28.989     8.830
  28   6 C     -0.035  1.080  2.955  0.000    28.874     8.812
  29   6 C     -0.031  1.078  2.953  0.000    28.773     8.796
  30   6 C     -0.042  1.079  2.963  0.000    29.045     8.838
  31   1 H      0.159  0.841  0.000  0.000     1.339     1.813
  32   1 H      0.047  0.953  0.000  0.000     2.352     2.398
  33   1 H      0.055  0.945  0.000  0.000     2.262     2.352
  34   1 H      0.064  0.936  0.000  0.000     2.157     2.297
  35   1 H      0.061  0.939  0.000  0.000     2.182     2.310
  36   1 H      0.031  0.969  0.000  0.000     2.571     2.507
  37   1 H      0.040  0.960  0.000  0.000     2.450     2.448
  38   1 H      0.019  0.981  0.000  0.000     2.747     2.592
  39   1 H      0.036  0.964  0.000  0.000     2.502     2.473
  40   7 N     -0.395  1.323  4.072  0.000    30.229     8.166
  41   6 C      0.044  1.051  2.905  0.000    19.851     6.346
  42   6 C      0.201  1.096  2.702  0.000    23.714     7.975
  43   8 O     -0.372  1.742  4.630  0.000    21.138     6.164
  44   6 C     -0.073  1.056  3.017  0.000    21.888     6.659
  45   6 C      0.002  1.080  2.917  0.000    27.972     8.675
  46   6 C     -0.042  1.080  2.962  0.000    29.047     8.839
  47   6 C     -0.042  1.078  2.964  0.000    29.043     8.838
  48   6 C     -0.038  1.082  2.956  0.000    28.950     8.823
  49   6 C     -0.038  1.081  2.957  0.000    28.957     8.824
  50   6 C     -0.038  1.077  2.961  0.000    28.933     8.821
  51   1 H      0.171  0.829  0.000  0.000     1.264     1.761
  52   1 H      0.054  0.946  0.000  0.000     2.271     2.357
  53   1 H      0.066  0.934  0.000  0.000     2.135     2.285
  54   1 H      0.062  0.938  0.000  0.000     2.175     2.307
  55   1 H      0.038  0.962  0.000  0.000     2.472     2.459
  56   1 H      0.043  0.957  0.000  0.000     2.405     2.425
  57   1 H      0.057  0.943  0.000  0.000     2.228     2.334
  58   1 H      0.049  0.951  0.000  0.000     2.333     2.388
  59   1 H      0.029  0.971  0.000  0.000     2.595     2.519
  60   7 N     -0.413  1.321  4.092  0.000    30.734     8.234
  61   6 C      0.023  1.060  2.917  0.000    20.202     6.402
  62   6 C      0.198  1.091  2.711  0.000    23.774     7.985
  63   8 O     -0.371  1.746  4.625  0.000    21.102     6.159
  64   6 C      0.104  1.046  2.851  0.000    18.965     6.217
  65   8 O     -0.474  1.719  4.756  0.000    22.347     6.382
  66   6 C     -0.129  1.043  3.087  0.000    23.042     6.845
  67   1 H      0.203  0.797  0.000  0.000     1.090     1.636
  68   1 H      0.052  0.948  0.000  0.000     2.297     2.370
  69   1 H      0.043  0.957  0.000  0.000     2.407     2.426
  70   1 H      0.323  0.677  0.000  0.000     0.654     1.271
  71   1 H      0.056  0.944  0.000  0.000     2.248     2.345
  72   1 H      0.045  0.955  0.000  0.000     2.387     2.416
  73   1 H      0.063  0.937  0.000  0.000     2.161     2.299
  74   7 N     -0.417  1.320  4.097  0.000    30.847     8.249
  75   6 C      0.047  1.052  2.901  0.000    19.803     6.339
  76   6 C      0.198  1.094  2.708  0.000    23.786     7.987
  77   8 O     -0.394  1.763  4.631  0.000    21.554     6.225
  78   6 C     -0.069  1.053  3.016  0.000    21.799     6.644
  79   6 C      0.024  1.078  2.898  0.000    27.461     8.596
  80   6 C     -0.038  1.080  2.958  0.000    28.953     8.824
  81   6 C     -0.037  1.074  2.963  0.000    28.928     8.820
  82   6 C     -0.034  1.081  2.953  0.000    28.839     8.806
  83   6 C     -0.051  1.081  2.969  0.000    29.256     8.870
  84   6 C     -0.041  1.076  2.965  0.000    29.022     8.834
  85   1 H      0.209  0.791  0.000  0.000     1.060     1.613
  86   1 H      0.040  0.960  0.000  0.000     2.443     2.444
  87   1 H      0.065  0.935  0.000  0.000     2.144     2.290
  88   1 H      0.047  0.953  0.000  0.000     2.362     2.404
  89   1 H      0.037  0.963  0.000  0.000     2.487     2.466
  90   1 H      0.021  0.979  0.000  0.000     2.713     2.576
  91   1 H      0.059  0.941  0.000  0.000     2.213     2.326
  92   1 H      0.055  0.945  0.000  0.000     2.262     2.352
  93   1 H      0.041  0.959  0.000  0.000     2.436     2.441
  94   7 N     -0.386  1.306  4.080  0.000    29.994     8.134
  95   6 C      0.042  1.053  2.904  0.000    19.883     6.352
  96   6 C      0.197  1.100  2.703  0.000    23.803     7.990
  97   8 O     -0.382  1.739  4.643  0.000    21.325     6.191
  98   6 C     -0.072  1.060  3.012  0.000    21.869     6.656
  99   6 C     -0.008  1.056  2.953  0.000    20.693     6.470
 100   6 C     -0.122  1.042  3.080  0.000    22.882     6.820
 101   6 C     -0.117  1.040  3.077  0.000    22.786     6.806
 102   1 H      0.169  0.831  0.000  0.000     1.282     1.774
 103   1 H      0.050  0.950  0.000  0.000     2.322     2.383
 104   1 H      0.055  0.945  0.000  0.000     2.257     2.349
 105   1 H      0.051  0.949  0.000  0.000     2.307     2.375
 106   1 H      0.038  0.962  0.000  0.000     2.481     2.463
 107   1 H      0.041  0.959  0.000  0.000     2.434     2.440
 108   1 H      0.041  0.959  0.000  0.000     2.431     2.438
 109   1 H      0.048  0.952  0.000  0.000     2.345     2.395
 110   1 H      0.038  0.962  0.000  0.000     2.476     2.461
 111   1 H      0.042  0.958  0.000  0.000     2.422     2.434
 112   1 H      0.044  0.956  0.000  0.000     2.395     2.420
 113   7 N     -0.402  1.322  4.080  0.000    30.419     8.191
 114   6 C      0.033  1.056  2.911  0.000    20.035     6.375
 115   6 C      0.273  1.045  2.682  0.000    22.379     7.747
 116   8 O     -0.498  1.744  4.754  0.000    23.731     6.531
 117   6 C     -0.076  1.065  3.011  0.000    21.933     6.665
 118   6 C     -0.011  1.056  2.955  0.000    20.736     6.477
 119   6 C     -0.123  1.036  3.086  0.000    22.903     6.824
 120   6 C     -0.118  1.041  3.076  0.000    22.800     6.807
 121   1 H      0.159  0.841  0.000  0.000     1.343     1.815
 122   1 H      0.038  0.962  0.000  0.000     2.481     2.463
 123   1 H      0.044  0.956  0.000  0.000     2.400     2.423
 124   1 H      0.044  0.956  0.000  0.000     2.397     2.421
 125   1 H      0.029  0.971  0.000  0.000     2.606     2.524
 126   1 H      0.053  0.947  0.000  0.000     2.278     2.360
 127   1 H      0.038  0.962  0.000  0.000     2.478     2.462
 128   1 H      0.032  0.968  0.000  0.000     2.564     2.504
 129   1 H      0.053  0.947  0.000  0.000     2.286     2.364
 130   1 H      0.036  0.964  0.000  0.000     2.502     2.474
 131   1 H      0.033  0.967  0.000  0.000     2.541     2.493
 132   7 N     -0.176  1.244  3.932  0.000    24.819     7.399
 133   6 C      0.016  1.065  2.919  0.000    20.306     6.417
 134   6 C      0.199  1.083  2.718  0.000    23.757     7.982
 135   8 O     -0.351  1.754  4.597  0.000    20.730     6.104
 136   6 C      0.118  1.045  2.836  0.000    18.747     6.182
 137   8 O     -0.461  1.715  4.746  0.000    22.062     6.341
 138   6 C     -0.129  1.041  3.088  0.000    23.035     6.844
 139   1 H      0.237  0.763  0.000  0.000     0.937     1.516
 140   1 H      0.080  0.920  0.000  0.000     1.975     2.198
 141   1 H      0.033  0.967  0.000  0.000     2.544     2.494
 142   1 H      0.331  0.669  0.000  0.000     0.634     1.251
 143   1 H      0.075  0.925  0.000  0.000     2.029     2.227
 144   1 H      0.048  0.952  0.000  0.000     2.345     2.395
 145   1 H      0.066  0.934  0.000  0.000     2.133     2.284
 146   7 N     -0.406  1.313  4.093  0.000    30.533     8.207
 147   6 C      0.048  1.053  2.900  0.000    19.792     6.337
 148   6 C      0.198  1.099  2.703  0.000    23.774     7.985
 149   8 O     -0.386  1.746  4.640  0.000    21.403     6.203
 150   6 C     -0.064  1.058  3.006  0.000    21.727     6.635
 151   6 C     -0.008  1.054  2.954  0.000    20.691     6.470
 152   6 C     -0.115  1.041  3.075  0.000    22.759     6.801
 153   6 C     -0.112  1.039  3.074  0.000    22.705     6.794
 154   1 H      0.185  0.815  0.000  0.000     1.188     1.708
 155   1 H      0.046  0.954  0.000  0.000     2.373     2.409
 156   1 H      0.043  0.957  0.000  0.000     2.406     2.426
 157   1 H      0.040  0.960  0.000  0.000     2.447     2.446
 158   1 H      0.043  0.957  0.000  0.000     2.403     2.424
 159   1 H      0.046  0.954  0.000  0.000     2.371     2.408
 160   1 H      0.031  0.969  0.000  0.000     2.577     2.510
 161   1 H      0.042  0.958  0.000  0.000     2.427     2.436
 162   1 H      0.041  0.959  0.000  0.000     2.430     2.438
 163   1 H      0.041  0.959  0.000  0.000     2.430     2.438
 164   1 H      0.030  0.970  0.000  0.000     2.581     2.512
 165   7 N     -0.411  1.322  4.089  0.000    30.684     8.227
 166   6 C      0.036  1.061  2.903  0.000    19.982     6.368
 167   6 C      0.199  1.095  2.707  0.000    23.768     7.984
 168   8 O     -0.389  1.756  4.634  0.000    21.473     6.213
 169   6 C     -0.007  1.062  2.946  0.000    20.674     6.467
 170   6 C     -0.121  1.042  3.079  0.000    22.873     6.819
 171   6 C     -0.117  1.040  3.076  0.000    22.783     6.805
 172   1 H      0.185  0.815  0.000  0.000     1.188     1.708
 173   1 H      0.057  0.943  0.000  0.000     2.240     2.341
 174   1 H      0.026  0.974  0.000  0.000     2.646     2.544
 175   1 H      0.045  0.955  0.000  0.000     2.383     2.414
 176   1 H      0.052  0.948  0.000  0.000     2.298     2.370
 177   1 H      0.043  0.957  0.000  0.000     2.413     2.429
 178   1 H      0.045  0.955  0.000  0.000     2.380     2.413
 179   1 H      0.042  0.958  0.000  0.000     2.425     2.435
 180   1 H      0.058  0.942  0.000  0.000     2.225     2.332
 181   7 N     -0.392  1.303  4.089  0.000    30.160     8.156
 182   6 C      0.011  1.066  2.923  0.000    20.402     6.434
 183   6 C      0.267  1.048  2.685  0.000    22.493     7.767
 184   8 O     -0.490  1.736  4.754  0.000    23.554     6.507
 185   6 C      0.111  1.046  2.843  0.000    18.854     6.200
 186   8 O     -0.479  1.731  4.747  0.000    22.444     6.395
 187   6 C     -0.132  1.043  3.089  0.000    23.093     6.853
 188   1 H      0.166  0.834  0.000  0.000     1.298     1.784
 189   1 H      0.049  0.951  0.000  0.000     2.339     2.391
 190   1 H      0.042  0.958  0.000  0.000     2.429     2.437
 191   1 H      0.327  0.673  0.000  0.000     0.646     1.262
 192   1 H      0.058  0.942  0.000  0.000     2.228     2.334
 193   1 H      0.053  0.947  0.000  0.000     2.285     2.364
 194   1 H      0.055  0.945  0.000  0.000     2.260     2.351
 195   7 N     -0.169  1.247  3.922  0.000    24.657     7.375
 196   6 C      0.012  1.064  2.924  0.000    20.385     6.429
 197   6 C      0.273  1.043  2.683  0.000    22.378     7.747
 198   8 O     -0.469  1.735  4.733  0.000    23.100     6.444
 199   6 C     -0.078  1.056  3.022  0.000    21.966     6.669
 200   6 C     -0.015  1.065  2.950  0.000    20.846     6.501
 201  16 S     -0.227  1.926  4.251  0.051   150.771    20.666
 202   6 C     -0.062  1.056  3.006  0.000    21.769     6.656
 203   1 H      0.220  0.780  0.000  0.000     1.010     1.574
 204   1 H      0.090  0.910  0.000  0.000     1.883     2.146
 205   1 H      0.077  0.923  0.000  0.000     2.014     2.220
 206   1 H      0.080  0.920  0.000  0.000     1.975     2.198
 207   1 H      0.057  0.943  0.000  0.000     2.229     2.334
 208   1 H      0.050  0.950  0.000  0.000     2.325     2.385
 209   1 H      0.064  0.936  0.000  0.000     2.149     2.293
 210   1 H      0.063  0.937  0.000  0.000     2.161     2.299
 211   1 H      0.059  0.941  0.000  0.000     2.209     2.324
 212   7 N     -0.177  1.241  3.935  0.000    24.828     7.400
 213   6 C      0.016  1.064  2.920  0.000    20.298     6.413
 214   6 C      0.274  1.041  2.686  0.000    22.371     7.746
 215   8 O     -0.482  1.738  4.744  0.000    23.386     6.484
 216   6 C     -0.026  1.065  2.961  0.000    21.001     6.518
 217   6 C     -0.071  1.048  3.023  0.000    21.863     6.657
 218   6 C     -0.121  1.040  3.081  0.000    22.877     6.820
 219   6 C     -0.113  1.036  3.077  0.000    22.726     6.799
 220   1 H      0.213  0.787  0.000  0.000     1.042     1.599
 221   1 H      0.080  0.920  0.000  0.000     1.977     2.199
 222   1 H      0.056  0.944  0.000  0.000     2.246     2.343
 223   1 H      0.046  0.954  0.000  0.000     2.367     2.406
 224   1 H      0.039  0.961  0.000  0.000     2.461     2.453
 225   1 H      0.064  0.936  0.000  0.000     2.148     2.292
 226   1 H      0.049  0.951  0.000  0.000     2.333     2.389
 227   1 H      0.050  0.950  0.000  0.000     2.326     2.385
 228   1 H      0.046  0.954  0.000  0.000     2.365     2.405
 229   1 H      0.039  0.961  0.000  0.000     2.461     2.453
 230   1 H      0.049  0.951  0.000  0.000     2.328     2.386
 231   7 N     -0.174  1.246  3.928  0.000    24.767     7.391
 232   6 C      0.018  1.061  2.921  0.000    20.277     6.411
 233   6 C      0.274  1.041  2.685  0.000    22.368     7.745
 234   8 O     -0.498  1.733  4.765  0.000    23.744     6.533
 235   6 C     -0.084  1.055  3.029  0.000    22.088     6.690
 236   6 C      0.008  1.079  2.913  0.000    27.845     8.656
 237   6 C     -0.044  1.080  2.964  0.000    29.097     8.846
 238   6 C     -0.047  1.078  2.968  0.000    29.163     8.856
 239   6 C     -0.033  1.080  2.953  0.000    28.824     8.804
 240   6 C     -0.033  1.081  2.952  0.000    28.817     8.803
 241   6 C     -0.035  1.079  2.955  0.000    28.862     8.810
 242   1 H      0.207  0.793  0.000  0.000     1.073     1.623
 243   1 H      0.091  0.909  0.000  0.000     1.872     2.140
 244   1 H      0.079  0.921  0.000  0.000     1.988     2.205
 245   1 H      0.068  0.932  0.000  0.000     2.111     2.272
 246   1 H      0.039  0.961  0.000  0.000     2.468     2.457
 247   1 H      0.040  0.960  0.000  0.000     2.447     2.446
 248   1 H      0.039  0.961  0.000  0.000     2.466     2.456
 249   1 H      0.045  0.955  0.000  0.000     2.378     2.411
 250   1 H      0.039  0.961  0.000  0.000     2.461     2.453
 251   7 N     -0.168  1.250  3.918  0.000    24.632     7.371
 252   6 C      0.010  1.068  2.921  0.000    20.404     6.431
 253   6 C      0.284  1.040  2.677  0.000    22.195     7.715
 254   8 O     -0.489  1.733  4.756  0.000    23.553     6.507
 255   6 C     -0.020  1.063  2.957  0.000    20.889     6.501
 256   6 C     -0.126  1.040  3.086  0.000    22.964     6.833
 257   6 C     -0.116  1.038  3.077  0.000    22.771     6.804
 258   1 H      0.241  0.759  0.000  0.000     0.919     1.502
 259   1 H      0.093  0.907  0.000  0.000     1.846     2.125
 260   1 H      0.057  0.943  0.000  0.000     2.237     2.339
 261   1 H      0.049  0.951  0.000  0.000     2.332     2.388
 262   1 H      0.061  0.939  0.000  0.000     2.183     2.311
 263   1 H      0.042  0.958  0.000  0.000     2.426     2.436
 264   1 H      0.052  0.948  0.000  0.000     2.298     2.371
 265   1 H      0.047  0.953  0.000  0.000     2.353     2.399
 266   1 H      0.046  0.954  0.000  0.000     2.374     2.410
 267   7 N     -0.188  1.247  3.941  0.000    25.078     7.438
 268   6 C      0.023  1.060  2.917  0.000    20.191     6.397
 269   6 C      0.273  1.043  2.683  0.000    22.378     7.747
 270   8 O     -0.493  1.725  4.768  0.000    23.638     6.519
 271   6 C     -0.020  1.065  2.956  0.000    20.900     6.502
 272   6 C     -0.067  1.051  3.016  0.000    21.783     6.644
 273   6 C     -0.117  1.039  3.079  0.000    22.802     6.808
 274   6 C     -0.105  1.037  3.069  0.000    22.573     6.775
 275   1 H      0.231  0.769  0.000  0.000     0.963     1.537
 276   1 H      0.073  0.927  0.000  0.000     2.054     2.241
 277   1 H      0.046  0.954  0.000  0.000     2.371     2.408
 278   1 H      0.043  0.957  0.000  0.000     2.404     2.425
 279   1 H      0.053  0.947  0.000  0.000     2.287     2.365
 280   1 H      0.059  0.941  0.000  0.000     2.214     2.327
 281   1 H      0.037  0.963  0.000  0.000     2.494     2.470
 282   1 H      0.050  0.950  0.000  0.000     2.317     2.381
 283   1 H      0.044  0.956  0.000  0.000     2.391     2.418
 284   1 H      0.033  0.967  0.000  0.000     2.547     2.496
 285   1 H      0.042  0.958  0.000  0.000     2.422     2.434
 286   7 N     -0.184  1.250  3.934  0.000    24.993     7.425
 287   6 C      0.010  1.061  2.929  0.000    20.405     6.431
 288   6 C      0.278  1.038  2.684  0.000    22.300     7.734
 289   8 O     -0.489  1.731  4.759  0.000    23.543     6.505
 290   6 C      0.071  1.037  2.892  0.000    19.598     6.342
 291   8 O     -0.481  1.718  4.762  0.000    22.479     6.400
 292   1 H      0.240  0.760  0.000  0.000     0.924     1.506
 293   1 H      0.080  0.920  0.000  0.000     1.980     2.201
 294   1 H      0.056  0.944  0.000  0.000     2.249     2.345
 295   1 H      0.058  0.942  0.000  0.000     2.226     2.333
 296   1 H      0.329  0.671  0.000  0.000     0.640     1.257
 297   7 N     -0.186  1.253  3.933  0.000    25.020     7.429
 298   6 C      0.015  1.061  2.924  0.000    20.317     6.417
 299   6 C      0.272  1.041  2.687  0.000    22.405     7.751
 300   8 O     -0.494  1.733  4.761  0.000    23.658     6.521
 301   6 C      0.064  1.036  2.900  0.000    19.721     6.361
 302   8 O     -0.437  1.700  4.737  0.000    21.586     6.272
 303   1 H      0.253  0.747  0.000  0.000     0.872     1.463
 304   1 H      0.077  0.923  0.000  0.000     2.007     2.215
 305   1 H      0.053  0.947  0.000  0.000     2.280     2.361
 306   1 H      0.079  0.921  0.000  0.000     1.991     2.207
 307   1 H      0.312  0.688  0.000  0.000     0.685     1.300
 308   7 N     -0.187  1.253  3.934  0.000    25.055     7.434
 309   6 C      0.021  1.063  2.916  0.000    20.225     6.404
 310   6 C      0.273  1.045  2.681  0.000    22.378     7.747
 311   8 O     -0.513  1.737  4.776  0.000    24.066     6.577
 312   6 C     -0.026  1.066  2.960  0.000    21.003     6.518
 313   6 C     -0.064  1.051  3.014  0.000    21.732     6.637
 314   6 C     -0.119  1.037  3.082  0.000    22.828     6.813
 315   6 C     -0.112  1.035  3.077  0.000    22.708     6.796
 316   1 H      0.237  0.763  0.000  0.000     0.937     1.517
 317   1 H      0.080  0.920  0.000  0.000     1.977     2.199
 318   1 H      0.061  0.939  0.000  0.000     2.193     2.316
 319   1 H      0.047  0.953  0.000  0.000     2.363     2.404
 320   1 H      0.048  0.952  0.000  0.000     2.347     2.396
 321   1 H      0.063  0.937  0.000  0.000     2.168     2.302
 322   1 H      0.039  0.961  0.000  0.000     2.460     2.453
 323   1 H      0.046  0.954  0.000  0.000     2.367     2.406
 324   1 H      0.039  0.961  0.000  0.000     2.464     2.455
 325   1 H      0.046  0.954  0.000  0.000     2.365     2.405
 326   1 H      0.038  0.962  0.000  0.000     2.470     2.458
 327   7 N     -0.189  1.259  3.931  0.000    25.107     7.442
 328   6 C      0.023  1.060  2.917  0.000    20.175     6.392
 329   6 C      0.276  1.040  2.684  0.000    22.334     7.740
 330   8 O     -0.506  1.735  4.771  0.000    23.920     6.557
 331   6 C     -0.020  1.064  2.956  0.000    20.898     6.502
 332   6 C     -0.075  1.049  3.026  0.000    21.934     6.667
 333   6 C     -0.128  1.039  3.089  0.000    23.014     6.840
 334   6 C     -0.114  1.036  3.077  0.000    22.735     6.800
 335   1 H      0.260  0.740  0.000  0.000     0.846     1.441
 336   1 H      0.068  0.932  0.000  0.000     2.110     2.271
 337   1 H      0.046  0.954  0.000  0.000     2.376     2.410
 338   1 H      0.056  0.944  0.000  0.000     2.249     2.345
 339   1 H      0.029  0.971  0.000  0.000     2.600     2.522
 340   1 H      0.060  0.940  0.000  0.000     2.194     2.316
 341   1 H      0.048  0.952  0.000  0.000     2.348     2.396
 342   1 H      0.064  0.936  0.000  0.000     2.154     2.295
 343   1 H      0.040  0.960  0.000  0.000     2.445     2.445
 344   1 H      0.045  0.955  0.000  0.000     2.388     2.417
 345   1 H      0.047  0.953  0.000  0.000     2.361     2.403
 346   7 N     -0.198  1.254  3.944  0.000    25.302     7.471
 347   6 C      0.028  1.060  2.912  0.000    20.094     6.381
 348   6 C      0.277  1.043  2.680  0.000    22.318     7.739
 349   8 O     -0.490  1.732  4.758  0.000    23.558     6.508
 350   6 C     -0.022  1.063  2.959  0.000    20.927     6.506
 351   6 C     -0.070  1.050  3.019  0.000    21.830     6.651
 352   6 C     -0.121  1.042  3.079  0.000    22.870     6.818
 353   6 C     -0.106  1.037  3.070  0.000    22.590     6.778
 354   1 H      0.247  0.753  0.000  0.000     0.897     1.483
 355   1 H      0.063  0.937  0.000  0.000     2.166     2.301
 356   1 H      0.047  0.953  0.000  0.000     2.357     2.401
 357   1 H      0.038  0.962  0.000  0.000     2.471     2.458
 358   1 H      0.058  0.942  0.000  0.000     2.225     2.333
 359   1 H      0.063  0.937  0.000  0.000     2.167     2.302
 360   1 H      0.043  0.957  0.000  0.000     2.414     2.430
 361   1 H      0.044  0.956  0.000  0.000     2.394     2.420
 362   1 H      0.041  0.959  0.000  0.000     2.433     2.439
 363   1 H      0.036  0.964  0.000  0.000     2.496     2.471
 364   1 H      0.044  0.956  0.000  0.000     2.391     2.418
 365   7 N     -0.203  1.259  3.944  0.000    25.407     7.486
 366   6 C      0.007  1.064  2.929  0.000    20.443     6.435
 367   6 C      0.287  1.041  2.672  0.000    22.132     7.705
 368   8 O     -0.511  1.736  4.776  0.000    24.037     6.573
 369   6 C      0.117  1.044  2.839  0.000    18.772     6.187
 370   8 O     -0.494  1.718  4.777  0.000    22.768     6.441
 371   6 C     -0.142  1.046  3.097  0.000    23.305     6.884
 372   1 H      0.242  0.758  0.000  0.000     0.914     1.497
 373   1 H      0.076  0.924  0.000  0.000     2.026     2.226
 374   1 H      0.035  0.965  0.000  0.000     2.516     2.481
 375   1 H      0.326  0.674  0.000  0.000     0.648     1.265
 376   1 H      0.065  0.935  0.000  0.000     2.140     2.288
 377   1 H      0.048  0.952  0.000  0.000     2.346     2.395
 378   1 H      0.075  0.925  0.000  0.000     2.030     2.228
 379   7 N     -0.196  1.259  3.938  0.000    25.262     7.465
 380   6 C      0.032  1.062  2.906  0.000    20.024     6.369
 381   6 C      0.285  1.041  2.674  0.000    22.167     7.710
 382   8 O     -0.523  1.744  4.780  0.000    24.310     6.610
 383   6 C     -0.018  1.061  2.956  0.000    20.850     6.494
 384   6 C     -0.119  1.039  3.080  0.000    22.836     6.813
 385   6 C     -0.130  1.041  3.089  0.000    23.038     6.843
 386   1 H      0.246  0.754  0.000  0.000     0.900     1.486
 387   1 H      0.059  0.941  0.000  0.000     2.216     2.328
 388   1 H      0.041  0.959  0.000  0.000     2.441     2.443
 389   1 H      0.058  0.942  0.000  0.000     2.219     2.329
 390   1 H      0.031  0.969  0.000  0.000     2.576     2.510
 391   1 H      0.051  0.949  0.000  0.000     2.308     2.376
 392   1 H      0.054  0.946  0.000  0.000     2.276     2.359
 393   1 H      0.051  0.949  0.000  0.000     2.303     2.373
 394   1 H      0.055  0.945  0.000  0.000     2.260     2.351
 395   7 N     -0.200  1.260  3.940  0.000    25.342     7.477
 396   6 C      0.031  1.062  2.907  0.000    20.054     6.375
 397   6 C      0.271  1.043  2.685  0.000    22.413     7.752
 398   8 O     -0.530  1.758  4.772  0.000    24.450     6.630
 399   6 C     -0.014  1.061  2.953  0.000    20.783     6.484
 400   6 C     -0.115  1.039  3.076  0.000    22.750     6.800
 401   6 C     -0.123  1.042  3.081  0.000    22.907     6.823
 402   1 H      0.242  0.758  0.000  0.000     0.917     1.500
 403   1 H      0.051  0.949  0.000  0.000     2.310     2.377
 404   1 H      0.042  0.958  0.000  0.000     2.420     2.433
 405   1 H      0.059  0.941  0.000  0.000     2.207     2.323
 406   1 H      0.032  0.968  0.000  0.000     2.553     2.499
 407   1 H      0.046  0.954  0.000  0.000     2.371     2.408
 408   1 H      0.058  0.942  0.000  0.000     2.221     2.331
 409   1 H      0.046  0.954  0.000  0.000     2.377     2.411
 410   1 H      0.054  0.946  0.000  0.000     2.266     2.354
 411   7 N     -0.204  1.254  3.950  0.000    25.427     7.489
 412   6 C      0.027  1.058  2.915  0.000    20.122     6.386
 413   6 C      0.277  1.042  2.681  0.000    22.308     7.735
 414   8 O     -0.535  1.758  4.777  0.000    24.580     6.647
 415   6 C     -0.008  1.060  2.948  0.000    20.677     6.467
 416   6 C     -0.130  1.041  3.089  0.000    23.053     6.845
 417   6 C     -0.131  1.041  3.089  0.000    23.066     6.848
 418   1 H      0.258  0.742  0.000  0.000     0.853     1.447
 419   1 H      0.055  0.945  0.000  0.000     2.261     2.352
 420   1 H      0.034  0.966  0.000  0.000     2.526     2.485
 421   1 H      0.066  0.934  0.000  0.000     2.124     2.279
 422   1 H      0.038  0.962  0.000  0.000     2.478     2.462
 423   1 H      0.066  0.934  0.000  0.000     2.131     2.283
 424   1 H      0.058  0.942  0.000  0.000     2.225     2.333
 425   1 H      0.076  0.924  0.000  0.000     2.021     2.223
 426   1 H      0.030  0.970  0.000  0.000     2.587     2.515
 427   7 N     -0.198  1.250  3.948  0.000    25.299     7.470
 428   6 C      0.027  1.060  2.912  0.000    20.115     6.385
 429   6 C      0.282  1.044  2.673  0.000    22.222     7.721
 430   8 O     -0.509  1.758  4.752  0.000    23.993     6.567
 431   6 C     -0.019  1.063  2.956  0.000    20.883     6.500
 432   6 C     -0.067  1.048  3.019  0.000    21.784     6.645
 433   6 C     -0.134  1.040  3.093  0.000    23.119     6.855
 434   6 C     -0.106  1.036  3.070  0.000    22.582     6.777
 435   1 H      0.246  0.754  0.000  0.000     0.899     1.486
 436   1 H      0.063  0.937  0.000  0.000     2.160     2.299
 437   1 H      0.040  0.960  0.000  0.000     2.448     2.447
 438   1 H      0.053  0.947  0.000  0.000     2.288     2.365
 439   1 H      0.015  0.985  0.000  0.000     2.813     2.623
 440   1 H      0.063  0.937  0.000  0.000     2.165     2.301
 441   1 H      0.047  0.953  0.000  0.000     2.357     2.401
 442   1 H      0.069  0.931  0.000  0.000     2.097     2.264
 443   1 H      0.048  0.952  0.000  0.000     2.346     2.395
 444   1 H      0.040  0.960  0.000  0.000     2.443     2.444
 445   1 H      0.045  0.955  0.000  0.000     2.389     2.417
 446   7 N     -0.198  1.266  3.931  0.000    25.293     7.469
 447   6 C      0.046  1.052  2.902  0.000    19.796     6.334
 448   6 C      0.217  1.082  2.701  0.000    23.413     7.925
 449   8 O     -0.373  1.753  4.620  0.000    21.149     6.166
 450   6 C     -0.102  1.062  3.041  0.000    22.448     6.744
 451   6 C      0.294  1.032  2.674  0.000    22.017     7.683
 452   8 O     -0.494  1.753  4.742  0.000    23.661     6.522
 453   7 N     -0.280  1.262  4.019  0.000    27.243     7.752
 454   1 H      0.230  0.770  0.000  0.000     0.965     1.539
 455   1 H      0.085  0.915  0.000  0.000     1.933     2.174
 456   1 H      0.091  0.909  0.000  0.000     1.868     2.137
 457   1 H      0.085  0.915  0.000  0.000     1.930     2.173
 458   1 H      0.248  0.752  0.000  0.000     0.891     1.479
 459   1 H      0.228  0.772  0.000  0.000     0.972     1.544
 460   7 N     -0.388  1.317  4.071  0.000    30.030     8.139
 461   6 C      0.037  1.058  2.905  0.000    19.965     6.364
 462   6 C      0.202  1.094  2.704  0.000    23.697     7.972
 463   8 O     -0.355  1.733  4.622  0.000    20.809     6.116
 464   6 C     -0.020  1.063  2.957  0.000    20.891     6.501
 465   6 C     -0.131  1.041  3.090  0.000    23.054     6.844
 466   6 C     -0.117  1.040  3.078  0.000    22.795     6.806
 467   1 H      0.164  0.836  0.000  0.000     1.312     1.794
 468   1 H      0.044  0.956  0.000  0.000     2.392     2.419
 469   1 H      0.043  0.957  0.000  0.000     2.408     2.426
 470   1 H      0.064  0.936  0.000  0.000     2.149     2.292
 471   1 H      0.036  0.964  0.000  0.000     2.507     2.476
 472   1 H      0.051  0.949  0.000  0.000     2.301     2.372
 473   1 H      0.044  0.956  0.000  0.000     2.396     2.421
 474   1 H      0.052  0.948  0.000  0.000     2.290     2.367
 475   1 H      0.039  0.961  0.000  0.000     2.463     2.454
 476   7 N     -0.390  1.314  4.077  0.000    30.106     8.149
 477   6 C      0.037  1.056  2.907  0.000    19.974     6.366
 478   6 C      0.263  1.052  2.685  0.000    22.560     7.778
 479   8 O     -0.511  1.740  4.771  0.000    24.025     6.572
 480   6 C     -0.069  1.058  3.011  0.000    21.818     6.649
 481   6 C     -0.008  1.055  2.953  0.000    20.685     6.469
 482   6 C     -0.115  1.042  3.073  0.000    22.753     6.801
 483   6 C     -0.111  1.039  3.073  0.000    22.683     6.791
 484   1 H      0.153  0.847  0.000  0.000     1.380     1.840
 485   1 H      0.034  0.966  0.000  0.000     2.530     2.488
 486   1 H      0.045  0.955  0.000  0.000     2.383     2.414
 487   1 H      0.040  0.960  0.000  0.000     2.452     2.449
 488   1 H      0.029  0.971  0.000  0.000     2.601     2.522
 489   1 H      0.040  0.960  0.000  0.000     2.443     2.444
 490   1 H      0.036  0.964  0.000  0.000     2.498     2.472
 491   1 H      0.043  0.957  0.000  0.000     2.405     2.425
 492   1 H      0.040  0.960  0.000  0.000     2.444     2.445
 493   1 H      0.040  0.960  0.000  0.000     2.451     2.448
 494   1 H      0.032  0.968  0.000  0.000     2.562     2.503
 495   7 N     -0.187  1.252  3.935  0.000    25.052     7.434
 496   6 C      0.027  1.063  2.911  0.000    20.131     6.388
 497   6 C      0.206  1.086  2.708  0.000    23.624     7.960
 498   8 O     -0.370  1.758  4.612  0.000    21.094     6.158
 499   6 C     -0.020  1.068  2.952  0.000    20.889     6.501
 500   6 C     -0.067  1.052  3.015  0.000    21.774     6.643
 501   6 C     -0.119  1.038  3.081  0.000    22.826     6.812
 502   6 C     -0.113  1.038  3.075  0.000    22.722     6.798
 503   1 H      0.255  0.745  0.000  0.000     0.864     1.456
 504   1 H      0.081  0.919  0.000  0.000     1.965     2.192
 505   1 H      0.051  0.949  0.000  0.000     2.307     2.375
 506   1 H      0.046  0.954  0.000  0.000     2.375     2.410
 507   1 H      0.048  0.952  0.000  0.000     2.347     2.396
 508   1 H      0.063  0.937  0.000  0.000     2.161     2.299
 509   1 H      0.033  0.967  0.000  0.000     2.539     2.492
 510   1 H      0.051  0.949  0.000  0.000     2.308     2.376
 511   1 H      0.042  0.958  0.000  0.000     2.416     2.431
 512   1 H      0.043  0.957  0.000  0.000     2.411     2.428
 513   1 H      0.049  0.951  0.000  0.000     2.328     2.386
 514   7 N     -0.425  1.324  4.101  0.000    31.075     8.279
 515   6 C      0.046  1.057  2.897  0.000    19.824     6.342
 516   6 C      0.204  1.095  2.701  0.000    23.666     7.967
 517   8 O     -0.397  1.756  4.641  0.000    21.617     6.234
 518   6 C     -0.013  1.065  2.948  0.000    20.768     6.482
 519   6 C     -0.061  1.049  3.012  0.000    21.676     6.628
 520   6 C     -0.114  1.039  3.075  0.000    22.731     6.798
 521   6 C     -0.107  1.035  3.072  0.000    22.602     6.780
 522   1 H      0.204  0.796  0.000  0.000     1.085     1.632
 523   1 H      0.037  0.963  0.000  0.000     2.496     2.471
 524   1 H      0.039  0.961  0.000  0.000     2.460     2.453
 525   1 H      0.052  0.948  0.000  0.000     2.298     2.371
 526   1 H      0.037  0.963  0.000  0.000     2.490     2.468
 527   1 H      0.052  0.948  0.000  0.000     2.296     2.369
 528   1 H      0.028  0.972  0.000  0.000     2.616     2.529
 529   1 H      0.045  0.955  0.000  0.000     2.381     2.413
 530   1 H      0.037  0.963  0.000  0.000     2.484     2.465
 531   1 H      0.040  0.960  0.000  0.000     2.444     2.445
 532   1 H      0.030  0.970  0.000  0.000     2.589     2.516
 533   1 H      0.182  0.818  0.000  0.000     1.202     1.717
 534   1 H      0.073  0.927  0.000  0.000     2.052     2.240
 535   1 H      0.188  0.812  0.000  0.000     1.170     1.695
 536   1 H      0.077  0.923  0.000  0.000     2.013     2.219
 537   1 H      0.186  0.814  0.000  0.000     1.182     1.703
 538   1 H      0.079  0.921  0.000  0.000     1.985     2.203
 539   1 H      0.179  0.821  0.000  0.000     1.221     1.731
 540   1 H      0.076  0.924  0.000  0.000     2.021     2.223
 541   1 H      0.172  0.828  0.000  0.000     1.260     1.759
 542   1 H      0.073  0.927  0.000  0.000     2.047     2.237
 543   1 H      0.180  0.820  0.000  0.000     1.213     1.725
 544   1 H      0.085  0.915  0.000  0.000     1.932     2.173
 545   1 H      0.183  0.817  0.000  0.000     1.198     1.714
 546   1 H      0.071  0.929  0.000  0.000     2.073     2.251
 547   1 H      0.172  0.828  0.000  0.000     1.262     1.760
 548   1 H      0.070  0.930  0.000  0.000     2.088     2.260
 549   1 H      0.179  0.821  0.000  0.000     1.218     1.728
 550   1 H      0.068  0.932  0.000  0.000     2.105     2.268
 551   1 H      0.188  0.812  0.000  0.000     1.169     1.693
 552   1 H      0.063  0.937  0.000  0.000     2.166     2.301
 553   1 H      0.180  0.820  0.000  0.000     1.212     1.724
 554   1 H      0.076  0.924  0.000  0.000     2.021     2.223
 555   1 H      0.179  0.821  0.000  0.000     1.222     1.731
 556   1 H      0.068  0.932  0.000  0.000     2.107     2.270
 557   1 H      0.166  0.834  0.000  0.000     1.296     1.783
 558   1 H      0.064  0.936  0.000  0.000     2.147     2.291

 Mol. C6AA /au·bohr⁶  :    2682018.966596
 Mol. C8AA /au·bohr⁸  :   59348061.748198
 Mol. α(0) /au        :       2459.820376

 
molecular dipole:
                 x           y           z       tot (Debye)
 q only:       -3.891      -7.195      26.454
   full:       -4.864      -8.543      27.970      75.357
molecular quadrupole (traceless):
                xx          xy          yy          xz          yz          zz
 q only:    -1601.397   -1462.623   -1654.288    3541.948    1198.261    3255.685
  q+dip:    -1807.162   -1770.874   -1758.198    3663.941    1168.488    3565.360
   full:    -1805.201   -1772.486   -1750.080    3665.527    1174.997    3555.281
speedup  1.00
cpu  time for grad   17.45 s
wall time for grad   17.46 s

SCC energy    :    -795.5268507
rep           :      10.4359566
ES            :       1.5921445
AES           :       0.0033797
AXC           :       0.3210273
disp          :      -0.7345101
XB            :       0.0000000
fix           :       0.0000000
Gborn         :       0.0000000
Gsasa         :       0.0000000
Ghb           :       0.0000000
Gshift        :       0.0000000
Gsolv         :      -0.2384233     -149.61
Etot ala COSMO:    -795.5268507
grad norm     :       0.7989478
total E       :    -785.0213613
atomizationE  :     151.0244179    94769.25
(atE without considering molecular charge,
 total energy contains solvation terms)
H-L gap (eV)  :          1.1786

------------------------------------------------------------------------
 * finished run on 2019/03/14 at 15:08:39.286     
------------------------------------------------------------------------
 total:
 * wall-time:     0 d,  0 h,  0 min, 18.556 sec
 *  cpu-time:     0 d,  0 h,  0 min, 18.394 sec
 * ratio c/w:     0.991 speedup
 SCF:
 * wall-time:     0 d,  0 h,  0 min, 18.117 sec
 *  cpu-time:     0 d,  0 h,  0 min, 18.115 sec
 * ratio c/w:     1.000 speedup

