      -----------------------------------------------------------      
     |                   =====================                   |     
     |                           x T B                           |     
     |                   =====================                   |     
     |                         S. Grimme                         |     
     |          Mulliken Center for Theoretical Chemistry        |     
     |                    University of Bonn                     |     
     |                 Version 6.0.1 (SAW181210)                 |     
      -----------------------------------------------------------      

   This program is distributed in the hope that it will be useful,
   but WITHOUT ANY WARRANTY; without even the implied warranty of
   MERCHANTABILITY or FITNESS FOR A PARTICULAR PURPOSE.
   
   FOR NON-COMMERCIAL, ACADEMIA USE ONLY.
   
   Cite this work as:
   S. Grimme, C. Bannwarth, P. Shushkov, J. Comput. Theory Chem., 2017,
   13, 1989-2009.
   C. Bannwarth, S. Ehlert and S. Grimme., ChemRxiv, 2018, preprint.
   http://doi.org/10.26434/chemrxiv.7246238.v1
   
   for sTDA-xTB:
   S. Grimme and C. Bannwarth, J. Chem. Phys., 2016, 145, 054103.
   
   in the mass-spec context:
   V. Asgeirsson, C. Bauer and S. Grimme, Chem. Sci., 2017, 8, 4879.
   
   if GBSA is used:
   P. Shushkov, F. März and S. Grimme, unpublished.
   
   for ANC optimizer:
   S. Grimme, unpublished.
   Rational Function algorithm used in ANCopt:
   F. Eckert, P. Pulay, H.-J. Werner, J. Comput. Chem., 1997, 18, 1473.
   
   with help from (in alphabetical order)
   C. Bannwarth, F. Bohle, G. Brandenburg, E. Caldeweyher, M. Checinski,
   S. Dohm, S. Ehlert, S. Ehrlich, F. März, H. Neugebauer, J. Pisarek,
   P. Pracht, P. Shushkov, and S. Spicher.
   
 * started run on 2019/03/07 at 11:37:45.677     
========================================================================
 # omp threads = 1
========================================================================
number of atoms            : 447
number of electrons        : 1226
charge                     : -2
spin                       : .0
first test random number   : .6703
           ------------------------------------------------- 
          |                 G F N 2 - x T B                 |
          | Geometry, Frequencies, Noncovalent interactions |
          |            JCTC 2018 parametrisation            |
           ------------------------------------------------- 
 
      method parameters     
 k(s)        :  1.8500
 k(p)        :  2.2300
 k(d)        :  2.2300
 k(f)        :  2.0000
 kEN (H0ij)  : -2.0000
 D4 a1       :  0.5200
 D4 a2       :  5.0000
 D4 s6       :  1.0000
 D4 s8       :  2.7000
 D4 s9       :  5.0000
 alphaj      :  2.0000

 Solvent             : h2o
 Using internal parameter file: .param_gbsa2_h2o
 Gsolv ref. state (COSMO-RS): gsolv [1 M gas/solution]
 temperature (mdtemp)       :    298.150000000000     
 dielectric constant        :    80.2000000000000     
 rho                        :    1.00000000000000     
 mass                       :    18.0000000000000     
 surface tension            :    15.5689454083859     
 probe radius               :   0.975313790000000     
 vdW radii scaling          :    1.00000000000000     
 Gshift (Eh)                :   1.857443126794793E-003
 c1                         :    1.55243817000000     
 soset                      :   0.130326360000000     
 HB correction              :  T

            Z     q(EN)     CN     RAES       Cart. coordinates
     1  N   5.0   -0.23    3.24    1.97   395.45539   126.16566   231.54245
     2  C   4.0    0.03    4.38    4.35   398.03109   126.28283   230.57491
     3  C   4.0    0.15    3.46    3.10   399.89814   125.37954   232.54590
     4  O   6.0   -0.30    1.23    1.80   399.95672   126.40944   234.66050
     5  C   4.0   -0.05    4.48    4.51   398.67548   129.01159   229.80390
     6  C   4.0   -0.04    4.26    4.13   397.45661   130.21913   227.48521
     7  C   4.0   -0.09    4.22    4.05   398.65848   132.86474   227.23199
     8  C   4.0   -0.09    4.21    4.03   398.17093   128.65632   225.12305
     9  H   1.0    0.10    1.08    1.44   395.06422   127.38265   232.54590
    10  H   1.0    0.04    1.13    1.45   398.14636   125.18679   229.11037
    11  H   1.0    0.05    1.10    1.44   398.28242   130.08307   231.23821
    12  H   1.0    0.04    1.11    1.44   400.48962   129.08718   229.55824
    13  H   1.0    0.04    1.11    1.44   395.63114   130.29849   227.64017
    14  H   1.0    0.04    1.05    1.44   397.94794   133.72268   225.77690
    15  H   1.0    0.04    1.05    1.44   398.31455   133.83984   228.74566
    16  H   1.0    0.04    1.06    1.44   400.47072   132.69467   227.01467
    17  H   1.0    0.04    1.05    1.44   397.40559   129.40843   223.63773
    18  H   1.0    0.04    1.06    1.44   399.99262   128.63931   224.92841
    19  H   1.0    0.04    1.05    1.44   397.56243   126.93856   225.31958
    20  N   5.0   -0.17    3.51    2.08   401.43826   123.52572   231.87126
    21  C   4.0    0.04    4.52    4.56   403.29208   122.49204   233.58525
    22  C   4.0    0.16    3.47    3.10   405.89991   123.50682   232.84447
    23  O   6.0   -0.29    1.30    1.80   407.17169   122.41078   231.25143
    24  C   4.0   -0.03    4.40    4.39   403.29586   119.62154   233.32824
    25  C   4.0    0.25    3.16    3.03   404.99851   118.34787   235.25954
    26  O   6.0   -0.28    1.17    1.80   407.17736   117.66568   234.60948
    27  O   6.0   -0.28    1.17    1.80   404.19159   118.17212   237.48942
    28  H   1.0    0.11    1.16    1.45   401.43070   122.83597   230.39917
    29  H   1.0    0.06    1.13    1.45   402.89713   122.96447   235.31245
    30  H   1.0    0.06    1.09    1.44   401.58377   118.99415   233.52099
    31  H   1.0    0.06    1.10    1.44   403.84577   119.16423   231.64072
    32  N   5.0   -0.17    3.51    2.08   406.70871   125.52316   234.08224
    33  C   4.0    0.03    4.51    4.55   409.10488   126.77416   233.57013
    34  C   4.0    0.15    3.44    3.09   411.41413   125.68378   234.88349
    35  O   6.0   -0.30    1.25    1.80   413.52495   126.33763   234.21074
    36  C   4.0   -0.04    4.42    4.41   408.82331   129.58229   234.18807
    37  C   4.0    0.16    3.30    3.05   407.83687   131.12430   231.98276
    38  O   6.0   -0.32    1.23    1.80   409.05386   132.85529   231.05868
    39  N   5.0   -0.25    3.27    1.97   405.57676   130.51581   231.16451
    40  H   1.0    0.10    1.14    1.45   405.85833   126.22424   235.27655
    41  H   1.0    0.06    1.15    1.45   409.44503   126.48881   231.79190
    42  H   1.0    0.04    1.10    1.44   407.68570   129.77315   235.61292
    43  H   1.0    0.06    1.10    1.44   410.45037   130.24936   234.70774
    44  H   1.0    0.11    1.09    1.44   404.90591   131.34540   229.93807
    45  H   1.0    0.11    1.10    1.44   404.76607   129.28749   231.85426
    46  N   5.0   -0.16    3.53    2.10   411.04752   123.90933   236.62203
    47  C   4.0    0.03    4.46    4.48   413.08464   122.71691   238.02799
    48  C   4.0    0.15    3.44    3.09   415.07453   121.39977   236.38015
    49  O   6.0   -0.30    1.21    1.80   417.36865   121.68323   236.87337
    50  C   4.0    0.02    4.26    4.11   412.03585   120.87632   239.98764
    51  O   6.0   -0.26    2.13    1.84   409.72282   119.84075   239.10702
    52  H   1.0    0.11    1.16    1.45   409.57353   123.35564   237.02266
    53  H   1.0    0.06    1.14    1.45   413.95959   124.09263   238.86514
    54  H   1.0    0.05    1.08    1.44   413.24527   119.53461   240.29944
    55  H   1.0    0.04    1.07    1.44   411.76939   121.73993   241.58257
    56  H   1.0    0.16    1.10    1.44   409.88345   119.39666   237.59146
    57  N   5.0   -0.16    3.49    2.07   414.25249   120.06563   234.41106
    58  C   4.0    0.03    4.49    4.53   415.95136   118.70314   232.69518
    59  C   4.0    0.16    3.44    3.09   417.81841   120.33208   231.15506
    60  O   6.0   -0.30    1.26    1.80   419.60609   119.29084   230.04012
    61  C   4.0    0.05    4.31    4.21   414.43769   117.02128   230.89050
    62  O   6.0   -0.26    2.14    1.84   412.19458   118.33275   230.00988
    63  C   4.0   -0.07    4.15    3.90   413.73282   114.47015   232.10937
    64  H   1.0    0.12    1.14    1.45   412.68024   119.92201   234.02555
    65  H   1.0    0.05    1.14    1.45   417.00205   117.71103   233.82335
    66  H   1.0    0.05    1.12    1.45   415.50916   116.65467   229.45052
    67  H   1.0    0.17    1.09    1.44   412.59143   119.34375   228.85148
    68  H   1.0    0.07    1.05    1.44   412.77851   113.46293   230.91128
    69  H   1.0    0.04    1.05    1.44   415.26161   113.57442   232.57991
    70  H   1.0    0.06    1.05    1.44   412.71426   114.76684   233.60414
    71  N   5.0   -0.15    3.48    2.07   417.44802   122.81140   231.12671
    72  C   4.0    0.04    4.52    4.57   419.13177   124.48192   229.76044
    73  C   4.0    0.17    3.51    3.12   421.93801   124.00382   230.34437
    74  O   6.0   -0.30    1.29    1.80   423.34208   123.30273   228.65117
    75  C   4.0   -0.04    4.45    4.46   418.44958   127.23525   230.21397
    76  C   4.0   -0.01    3.66    3.20   419.84986   129.01537   228.56424
    77  C   4.0   -0.05    3.54    3.13   419.28483   129.17600   226.00177
    78  C   4.0   -0.04    3.54    3.13   421.82841   130.46290   229.52044
    79  C   4.0   -0.05    3.48    3.10   420.68323   130.72746   224.46921
    80  C   4.0   -0.05    3.48    3.11   423.18145   132.01059   227.94063
    81  C   4.0   -0.06    3.48    3.10   422.63532   132.14287   225.44053
    82  H   1.0    0.12    1.14    1.45   416.22537   123.55973   231.89205
    83  H   1.0    0.06    1.14    1.45   418.89744   124.10208   227.98221
    84  H   1.0    0.05    1.10    1.44   416.65056   127.45824   229.94374
    85  H   1.0    0.05    1.10    1.44   418.78406   127.65477   231.96764
    86  H   1.0    0.05    1.10    1.44   417.96203   128.23302   225.33092
    87  H   1.0    0.07    1.10    1.44   422.23281   130.37975   231.22876
    88  H   1.0    0.05    1.10    1.44   420.30907   130.82384   222.75523
    89  H   1.0    0.05    1.10    1.44   424.49103   132.98190   228.59448
    90  H   1.0    0.04    1.10    1.44   423.57640   133.18600   224.38606
    91  N   5.0   -0.17    3.48    2.07   422.72225   124.39310   232.71030
    92  C   4.0    0.03    4.47    4.50   425.39621   124.07563   233.36982
    93  C   4.0    0.16    3.46    3.10   426.53571   121.56985   232.54968
    94  O   6.0   -0.30    1.22    1.80   428.81661   121.38277   232.07535
    95  C   4.0   -0.05    4.38    4.34   425.86108   124.55751   236.20818
    96  C   4.0   -0.05    4.27    4.14   424.81984   122.59975   238.05445
    97  C   4.0   -0.06    4.29    4.17   425.94423   123.06840   240.73030
    98  C   4.0   -0.04    4.31    4.22   428.75614   122.90211   240.69439
    99  N   5.0   -0.17    4.11    3.17   429.95801   123.69579   243.14348
   100  H   1.0    0.10    1.13    1.45   421.75849   124.83341   233.94240
   101  H   1.0    0.06    1.14    1.45   426.27871   125.35497   232.39850
   102  H   1.0    0.05    1.11    1.44   427.66955   124.68790   236.47464
   103  H   1.0    0.06    1.09    1.44   425.13732   126.18645   236.63526
   104  H   1.0    0.05    1.08    1.44   422.99059   122.70369   238.11492
   105  H   1.0    0.05    1.09    1.44   425.24314   120.91034   237.48186
   106  H   1.0    0.05    1.09    1.44   425.43211   124.72191   241.33312
   107  H   1.0    0.04    1.09    1.44   425.26960   121.83630   241.90760
   108  H   1.0    0.04    1.09    1.44   429.24936   121.17868   240.31456
   109  H   1.0    0.05    1.10    1.44   429.40243   123.95468   239.33946
   110  H   1.0    0.06    1.08    1.44   431.63041   123.55973   243.01876
   111  H   1.0    0.09    1.09    1.44   429.54983   125.29261   243.47796
   112  H   1.0    0.06    1.09    1.44   429.40810   122.70558   244.38692
   113  N   5.0   -0.15    3.52    2.09   424.91433   119.65367   232.27000
   114  C   4.0    0.03    4.41    4.40   425.69856   117.08931   231.44985
   115  C   4.0    0.16    3.46    3.10   426.82484   116.98726   228.82503
   116  O   6.0   -0.30    1.24    1.80   428.39331   115.35265   228.25811
   117  C   4.0   -0.08    4.23    4.06   423.44034   115.30919   231.60670
   118  H   1.0    0.11    1.14    1.45   423.31940   119.79162   232.54779
   119  H   1.0    0.05    1.13    1.45   427.03649   116.56963   232.59125
   120  H   1.0    0.05    1.06    1.44   423.94679   113.63111   231.07191
   121  H   1.0    0.04    1.06    1.44   422.83374   115.24116   233.33580
   122  H   1.0    0.07    1.07    1.44   422.10242   115.92146   230.51255
   123  N   5.0   -0.15    3.57    2.13   425.89510   118.56519   227.12049
   124  C   4.0    0.04    4.48    4.50   426.90799   118.63888   224.55424
   125  C   4.0    0.15    3.44    3.09   428.59174   120.93301   224.04024
   126  O   6.0   -0.31    1.23    1.80   429.98068   120.98214   222.17697
   127  C   4.0    0.03    4.25    4.10   424.75748   118.53117   222.64562
   128  O   6.0   -0.26    2.11    1.84   422.43501   119.38533   223.73977
   129  H   1.0    0.13    1.15    1.45   424.68189   119.60831   227.40395
   130  H   1.0    0.06    1.15    1.45   427.98324   117.16490   224.37472
   131  H   1.0    0.05    1.08    1.44   425.17133   119.56863   221.19242
   132  H   1.0    0.04    1.07    1.44   424.55717   116.81341   222.03902
   133  H   1.0    0.13    1.07    1.44   421.27850   119.31163   222.65318
   134  N   5.0   -0.16    3.54    2.10   428.33284   122.88888   225.59926
   135  C   4.0    0.03    4.43    4.43   429.77092   125.20757   225.35738
   136  C   4.0    0.15    3.50    3.11   432.48457   125.02994   226.31736
   137  O   6.0   -0.33    1.29    1.80   433.82817   126.89888   226.41562
   138  C   4.0   -0.08    4.21    4.03   428.36497   127.39210   226.66129
   139  H   1.0    0.12    1.15    1.45   427.29349   122.89455   226.84837
   140  H   1.0    0.05    1.14    1.45   429.91076   125.53072   223.55836
   141  H   1.0    0.04    1.05    1.44   429.34007   128.93600   226.49121
   142  H   1.0    0.05    1.05    1.44   426.72280   127.61697   225.87705
   143  H   1.0    0.05    1.05    1.44   428.14387   127.00281   228.43952
   144  N   5.0   -0.15    3.62    2.17   433.25747   122.75849   227.03546
   145  C   4.0    0.04    4.55    4.60   435.81427   122.38621   227.88583
   146  C   4.0    0.16    3.52    3.12   437.65297   123.06462   225.73343
   147  O   6.0   -0.31    1.27    1.80   439.76568   123.83563   226.18130
   148  C   4.0    0.05    4.32    4.24   436.22245   119.58564   228.68141
   149  O   6.0   -0.27    2.14    1.85   435.32105   117.94536   226.71231
   150  C   4.0   -0.08    4.19    3.97   434.89397   119.04707   231.16262
   151  H   1.0    0.12    1.15    1.45   432.32961   121.42434   227.04112
   152  H   1.0    0.05    1.12    1.45   436.12796   123.46524   229.33336
   153  H   1.0    0.04    1.11    1.44   438.01202   119.27761   228.92896
   154  H   1.0    0.14    1.08    1.44   435.54404   116.43357   227.13939
   155  H   1.0    0.04    1.06    1.44   435.16420   117.29718   231.63505
   156  H   1.0    0.04    1.06    1.44   435.56860   120.14311   232.46842
   157  H   1.0    0.07    1.06    1.44   433.09684   119.35698   230.97553
   158  N   5.0   -0.16    3.53    2.10   436.64764   123.02872   223.40718
   159  C   4.0    0.01    4.36    4.30   438.15186   123.56918   221.17541
   160  C   4.0    0.16    3.36    3.07   439.00224   126.30739   221.06581
   161  O   6.0   -0.31    1.21    1.80   440.20032   127.11431   219.27435
   162  H   1.0    0.11    1.14    1.45   435.08861   122.69235   223.09916
   163  H   1.0    0.05    1.09    1.44   439.62396   122.47692   221.15652
   164  H   1.0    0.04    1.09    1.44   437.17298   123.17801   219.67497
   165  N   5.0   -0.16    3.62    2.18   438.25768   127.71902   223.03302
   166  C   4.0    0.03    4.50    4.53   438.83216   130.37408   223.30892
   167  C   4.0    0.16    3.45    3.09   440.93731   130.72935   225.30258
   168  O   6.0   -0.28    1.26    1.80   442.21666   132.65498   225.28179
   169  C   4.0   -0.05    4.46    4.47   436.46055   131.86130   224.09693
   170  C   4.0   -0.03    4.34    4.27   434.44611   131.91043   222.04280
   171  C   4.0   -0.09    4.23    4.06   432.29371   133.63386   222.70798
   172  C   4.0   -0.09    4.25    4.10   435.64419   132.65876   219.50679
   173  H   1.0    0.12    1.19    1.46   437.38274   127.11997   224.26323
   174  H   1.0    0.06    1.14    1.45   439.41042   131.01659   221.69320
   175  H   1.0    0.05    1.10    1.44   435.75569   131.11486   225.61627
   176  H   1.0    0.05    1.09    1.44   436.93676   133.58095   224.51645
   177  H   1.0    0.05    1.13    1.45   433.74313   130.22479   221.89351
   178  H   1.0    0.04    1.06    1.44   431.05405   133.61307   221.35872
   179  H   1.0    0.04    1.06    1.44   431.51136   133.06316   224.26323
   180  H   1.0    0.04    1.06    1.44   432.92299   135.34028   222.93286
   181  H   1.0    0.04    1.05    1.44   434.35351   132.68711   218.20477
   182  H   1.0    0.04    1.06    1.44   436.40008   134.32172   219.65419
   183  H   1.0    0.05    1.06    1.44   436.93676   131.43989   219.05703
   184  N   5.0   -0.15    3.44    2.04   441.19999   128.99269   227.10726
   185  C   4.0    0.01    4.28    4.16   443.14829   129.24403   229.01022
   186  C   4.0    0.08    3.17    3.03   442.81003   131.44934   230.73554
   187  O   6.0   -0.27    1.18    1.80   441.33038   133.21245   230.19319
   188  H   1.0    0.11    1.14    1.45   440.27024   127.66800   227.25088
   189  H   1.0    0.04    1.09    1.44   443.19554   127.71146   230.01366
   190  H   1.0    0.05    1.10    1.44   444.77346   129.38954   228.17685
   191  N   5.0   -0.22    3.21    1.96   436.19788   132.99891   240.23708
   192  C   4.0    0.04    4.39    4.37   433.49935   132.41499   239.95929
   193  C   4.0    0.18    3.44    3.09   432.22757   133.82472   237.74831
   194  O   6.0   -0.29    1.22    1.80   432.46000   136.10373   237.44407
   195  C   4.0   -0.04    4.36    4.31   432.04615   132.88553   242.40271
   196  C   4.0    0.23    3.15    3.03   429.62730   131.35674   242.55388
   197  O   6.0   -0.29    1.19    1.80   428.05316   131.54571   240.75676
   198  O   6.0   -0.31    1.17    1.80   429.40243   129.88653   244.37936
   199  H   1.0    0.11    1.08    1.44   436.57961   134.55794   239.98575
   200  H   1.0    0.05    1.14    1.45   433.43321   130.62542   239.56434
   201  H   1.0    0.04    1.10    1.44   433.11574   132.46979   243.83323
   202  H   1.0    0.05    1.09    1.44   431.64364   134.66943   242.53499
   203  N   5.0   -0.14    3.59    2.14   430.87452   132.38475   236.20063
   204  C   4.0    0.04    4.47    4.49   429.46290   133.31828   234.04445
   205  C   4.0    0.15    3.42    3.09   426.61130   133.24836   234.59436
   206  O   6.0   -0.30    1.22    1.80   425.44534   131.19989   234.67751
   207  C   4.0   -0.05    4.35    4.29   430.09218   131.74035   231.68985
   208  C   4.0   -0.04    4.36    4.30   432.21812   129.78260   232.04134
   209  C   4.0    0.17    3.31    3.06   434.83539   130.93533   232.36070
   210  O   6.0   -0.28    1.28    1.80   435.54782   131.71201   234.39594
   211  N   5.0   -0.24    3.27    1.97   436.24324   130.98446   230.33114
   212  H   1.0    0.10    1.15    1.45   430.75358   130.77470   236.39149
   213  H   1.0    0.06    1.13    1.45   429.94100   135.05871   233.72886
   214  H   1.0    0.05    1.10    1.44   428.57473   130.86541   231.15128
   215  H   1.0    0.04    1.09    1.44   430.56461   132.87797   230.33303
   216  H   1.0    0.05    1.10    1.44   431.84017   128.75459   233.50966
   217  H   1.0    0.05    1.10    1.44   432.23702   128.66010   230.59192
   218  H   1.0    0.11    1.11    1.44   435.66120   130.41377   228.92518
   219  H   1.0    0.14    1.11    1.45   437.75124   131.58729   230.40295
   220  N   5.0   -0.16    3.46    2.05   425.51715   135.46500   235.03089
   221  C   4.0    0.03    4.50    4.53   422.79972   135.67665   235.58269
   222  C   4.0    0.15    3.42    3.09   421.42023   137.79693   234.20885
   223  O   6.0   -0.31    1.23    1.80   422.41422   139.83594   233.80823
   224  C   4.0   -0.04    4.42    4.41   422.44446   135.81082   238.43617
   225  C   4.0   -0.05    4.37    4.32   423.72380   137.98590   239.71174
   226  C   4.0   -0.06    4.32    4.23   423.38176   137.71189   242.55577
   227  C   4.0   -0.05    4.28    4.15   425.00692   139.65075   243.93338
   228  N   5.0   -0.17    4.14    3.28   427.71112   139.46178   243.15482
   229  H   1.0    0.10    1.13    1.45   426.31084   136.88419   235.01955
   230  H   1.0    0.05    1.15    1.45   422.00226   134.17054   234.90994
   231  H   1.0    0.05    1.10    1.44   420.64922   135.89586   238.79711
   232  H   1.0    0.06    1.10    1.44   423.06618   134.25369   239.17505
   233  H   1.0    0.05    1.10    1.44   425.50581   138.01424   239.28466
   234  H   1.0    0.05    1.09    1.44   423.00948   139.57138   239.13537
   235  H   1.0    0.04    1.09    1.44   421.61865   137.94621   242.99986
   236  H   1.0    0.05    1.09    1.44   423.84663   136.01869   243.08112
   237  H   1.0    0.04    1.08    1.44   424.38143   141.33827   243.58190
   238  H   1.0    0.03    1.08    1.44   424.86897   139.39374   245.74374
   239  H   1.0    0.06    1.09    1.44   428.69945   139.68854   244.49652
   240  H   1.0    0.07    1.10    1.44   428.00025   137.94055   242.49719
   241  H   1.0    0.07    1.09    1.44   428.04749   140.64285   242.00586
   242  N   5.0   -0.16    3.50    2.08   419.07319   137.23379   233.48131
   243  C   4.0    0.03    4.45    4.46   417.50093   139.09895   232.10748
   244  C   4.0    0.08    3.26    3.04   416.48237   140.95088   234.07090
   245  O   6.0   -0.29    1.13    1.80   415.69436   140.20444   236.12882
   246  C   4.0   -0.03    4.43    4.43   415.27673   137.75724   230.78278
   247  C   4.0   -0.06    4.30    4.20   416.20647   135.73524   228.92896
   248  C   4.0   -0.09    4.25    4.09   413.64022   139.65264   229.36171
   249  C   4.0   -0.09    4.10    3.81   414.15990   134.08928   227.64017
   250  H   1.0    0.09    1.13    1.45   418.34942   135.80516   233.75343
   251  H   1.0    0.04    1.12    1.45   418.48926   139.96255   230.82813
   252  H   1.0    0.06    1.13    1.45   414.28273   136.94655   232.09236
   253  H   1.0    0.04    1.09    1.44   417.18157   136.56671   227.61749
   254  H   1.0    0.05    1.09    1.44   417.35353   134.62219   229.82469
   255  H   1.0    0.04    1.06    1.44   412.25505   138.77391   228.54346
   256  H   1.0    0.04    1.06    1.44   412.96937   140.88663   230.54090
   257  H   1.0    0.04    1.06    1.44   414.65312   140.50679   228.09559
   258  H   1.0    0.04    1.05    1.44   414.96303   132.88364   226.51578
   259  H   1.0    0.06    1.05    1.44   413.20370   133.18788   228.91951
   260  H   1.0    0.04    1.05    1.44   413.02795   135.16265   226.67641
   261  N   5.0   -0.23    3.26    1.97   404.58655   141.49890   226.68586
   262  C   4.0    0.02    4.29    4.17   405.25551   141.01324   224.03268
   263  C   4.0    0.06    3.23    3.04   403.54153   142.46266   222.27335
   264  O   6.0   -0.30    1.11    1.80   401.18693   142.61006   222.65507
   265  C   4.0   -0.06    4.47    4.50   405.07032   138.19566   223.50923
   266  C   4.0   -0.04    4.28    4.17   407.08287   136.36451   224.46921
   267  C   4.0   -0.08    4.25    4.11   407.60444   136.75758   227.27356
   268  C   4.0   -0.09    4.21    4.03   406.15124   133.63386   224.06292
   269  H   1.0    0.10    1.08    1.44   403.60011   140.37451   227.32269
   270  H   1.0    0.03    1.12    1.45   406.97327   141.57827   223.73788
   271  H   1.0    0.05    1.11    1.45   403.46405   137.62874   224.18575
   272  H   1.0    0.04    1.11    1.44   404.98528   137.99346   221.68942
   273  H   1.0    0.03    1.12    1.45   408.63245   136.67254   223.53946
   274  H   1.0    0.06    1.07    1.44   408.88756   135.57083   227.82914
   275  H   1.0    0.04    1.06    1.44   408.19592   138.46967   227.55135
   276  H   1.0    0.05    1.06    1.44   406.06431   136.48168   228.22787
   277  H   1.0    0.04    1.05    1.44   407.42114   132.45845   224.66763
   278  H   1.0    0.04    1.06    1.44   404.59033   133.37686   224.98699
   279  H   1.0    0.04    1.05    1.44   405.85644   133.34662   222.27713
   280  N   5.0   -0.24    3.21    1.96   422.52194   144.05570   225.98288
   281  C   4.0    0.03    4.32    4.23   424.15844   142.41920   227.48332
   282  C   4.0    0.08    3.18    3.03   426.46390   143.81192   228.69085
   283  O   6.0   -0.30    1.11    1.80   428.03616   144.90985   227.42285
   284  C   4.0   -0.03    4.33    4.26   425.08062   140.04759   225.96020
   285  C   4.0   -0.09    4.26    4.11   426.43178   138.27692   227.67607
   286  C   4.0   -0.10    4.20    4.00   422.78272   138.65108   224.72810
   287  H   1.0    0.10    1.08    1.44   423.21546   144.63207   224.62983
   288  H   1.0    0.05    1.13    1.45   423.09641   141.85417   228.86471
   289  H   1.0    0.05    1.12    1.45   426.21635   140.61262   224.63739
   290  H   1.0    0.04    1.06    1.44   426.99681   136.81616   226.72554
   291  H   1.0    0.05    1.06    1.44   427.88120   139.12351   228.41118
   292  H   1.0    0.05    1.06    1.44   425.29983   137.73457   229.01211
   293  H   1.0    0.04    1.05    1.44   423.38176   137.19221   223.79457
   294  H   1.0    0.04    1.05    1.44   421.62432   138.10306   226.03957
   295  H   1.0    0.04    1.05    1.44   421.91533   139.79248   223.58482
   296  N   5.0   -0.24    3.27    1.97   414.58887   132.78915   214.68043
   297  C   4.0    0.03    4.46    4.48   414.05785   130.54605   216.19410
   298  C   4.0    0.15    3.45    3.10   412.00561   128.80939   215.20388
   299  O   6.0   -0.31    1.24    1.80   409.95904   129.64654   214.45744
   300  C   4.0   -0.02    4.35    4.29   413.50227   131.35296   218.94932
   301  C   4.0   -0.10    4.24    4.08   415.56963   133.18600   219.85072
   302  C   4.0   -0.09    4.21    4.01   410.84721   132.62097   219.16097
   303  H   1.0    0.10    1.08    1.44   413.29062   133.72268   214.39130
   304  H   1.0    0.05    1.14    1.45   415.57341   129.51993   216.09205
   305  H   1.0    0.05    1.12    1.45   413.50038   129.86197   220.01512
   306  H   1.0    0.04    1.05    1.44   415.22570   133.69433   221.57793
   307  H   1.0    0.04    1.05    1.44   417.20047   132.35452   219.77324
   308  H   1.0    0.04    1.06    1.44   415.58853   134.66754   218.76979
   309  H   1.0    0.03    1.05    1.44   410.53918   133.11041   220.90140
   310  H   1.0    0.04    1.05    1.44   410.79241   134.10818   218.08949
   311  H   1.0    0.06    1.06    1.44   409.55842   131.43422   218.62428
   312  N   5.0   -0.15    3.57    2.13   412.55552   126.36786   215.12073
   313  C   4.0    0.04    4.48    4.51   410.71304   124.48759   214.25335
   314  C   4.0    0.16    3.48    3.11   408.90268   123.82807   216.35661
   315  O   6.0   -0.30    1.32    1.80   409.58487   123.87532   218.59405
   316  C   4.0    0.02    4.27    4.13   412.00939   122.07441   213.32171
   317  O   6.0   -0.26    2.15    1.85   414.63800   122.17645   213.72989
   318  H   1.0    0.14    1.20    1.47   413.99171   125.74614   215.55915
   319  H   1.0    0.05    1.13    1.45   409.79463   125.23214   212.85306
   320  H   1.0    0.05    1.08    1.44   411.30641   120.62121   214.19099
   321  H   1.0    0.04    1.07    1.44   411.67113   121.84386   211.53403
   322  H   1.0    0.14    1.08    1.44   415.30696   120.83475   213.20833
   323  N   5.0   -0.16    3.49    2.07   406.53674   123.35564   215.67442
   324  C   4.0    0.04    4.56    4.61   404.65836   122.70935   217.58683
   325  C   4.0    0.15    3.47    3.10   403.73995   120.04106   217.00857
   326  O   6.0   -0.30    1.25    1.80   403.12390   119.44958   214.84483
   327  C   4.0   -0.03    4.36    4.30   402.42470   124.66900   217.69832
   328  C   4.0   -0.09    4.23    4.06   400.31199   123.69957   219.42742
   329  C   4.0   -0.09    4.25    4.10   403.38846   127.14643   218.64507
   330  H   1.0    0.10    1.13    1.45   405.98494   123.39721   214.14563
   331  H   1.0    0.07    1.14    1.45   405.41614   122.77361   219.25545
   332  H   1.0    0.05    1.12    1.45   401.74062   124.88632   216.01268
   333  H   1.0    0.04    1.05    1.44   398.95138   124.92600   219.47655
   334  H   1.0    0.05    1.06    1.44   399.67515   122.10653   218.78113
   335  H   1.0    0.05    1.06    1.44   400.97150   123.45202   221.11872
   336  H   1.0    0.04    1.06    1.44   402.01085   128.35397   218.71310
   337  H   1.0    0.05    1.06    1.44   404.09144   126.92911   220.32315
   338  H   1.0    0.05    1.06    1.44   404.69048   127.77004   217.51502
   339  N   5.0   -0.16    3.54    2.11   403.79853   118.35921   218.87184
   340  C   4.0    0.04    4.41    4.39   402.93115   115.78351   218.55814
   341  C   4.0    0.09    3.27    3.05   400.06632   115.94603   218.77168
   342  O   6.0   -0.31    1.22    1.80   398.97406   115.61910   220.78046
   343  C   4.0   -0.02    4.39    4.37   404.07821   114.16779   220.66708
   344  C   4.0    0.26    3.14    3.03   403.51318   111.35966   220.38551
   345  O   6.0   -0.28    1.18    1.80   405.18937   110.00095   219.43876
   346  O   6.0   -0.27    1.19    1.80   401.43259   110.52440   221.02613
   347  H   1.0    0.13    1.18    1.46   404.35033   118.69369   220.36472
   348  H   1.0    0.06    1.12    1.45   403.42059   115.02006   216.96511
   349  H   1.0    0.06    1.09    1.44   405.89424   114.41346   220.68976
   350  H   1.0    0.07    1.09    1.44   403.43759   114.74983   222.28279
   351  N   5.0   -0.24    3.27    1.97   395.60090   112.72593   223.77379
   352  C   4.0    0.03    4.39    4.37   395.58011   113.30041   226.46098
   353  C   4.0    0.16    3.43    3.09   396.49852   115.92335   227.33214
   354  O   6.0   -0.30    1.23    1.80   395.99585   116.68491   229.45808
   355  C   4.0   -0.04    4.41    4.40   396.99363   111.19147   227.84237
   356  C   4.0    0.17    3.33    3.06   399.79231   111.13289   227.25655
   357  O   6.0   -0.30    1.32    1.80   401.09622   113.01506   227.59103
   358  N   5.0   -0.23    3.25    1.97   400.72773   108.99183   226.42885
   359  H   1.0    0.14    1.11    1.44   396.84434   113.39679   222.97065
   360  H   1.0    0.04    1.14    1.45   393.80188   113.38356   226.90128
   361  H   1.0    0.05    1.09    1.44   396.76308   111.39934   229.64895
   362  H   1.0    0.03    1.10    1.44   396.25285   109.57765   227.39072
   363  H   1.0    0.14    1.09    1.44   402.31510   108.87278   226.09815
   364  H   1.0    0.10    1.10    1.44   399.75452   107.70871   226.21720
   365  N   5.0   -0.16    3.44    2.04   397.79109   117.28962   225.68241
   366  C   4.0    0.01    4.37    4.32   398.78887   119.78595   226.28901
   367  C   4.0    0.15    3.41    3.08   401.59322   120.02027   226.56302
   368  O   6.0   -0.31    1.31    1.80   402.55698   122.13866   226.58003
   369  H   1.0    0.12    1.16    1.46   398.11801   116.79640   224.16874
   370  H   1.0    0.04    1.10    1.44   398.24652   120.94813   224.97943
   371  H   1.0    0.06    1.11    1.44   398.01597   120.34342   227.85560
   372  N   5.0   -0.15    3.51    2.08   402.92359   117.92646   226.84837
   373  C   4.0    0.04    4.51    4.55   405.69204   118.08520   227.09026
   374  C   4.0    0.18    3.52    3.12   406.83154   119.99193   225.22510
   375  O   6.0   -0.30    1.32    1.80   406.21360   119.94846   223.01034
   376  C   4.0   -0.04    4.38    4.34   406.94114   115.56052   226.73877
   377  C   4.0   -0.03    4.26    4.13   406.35344   113.57631   228.78723
   378  C   4.0    0.25    3.12    3.03   407.63278   111.01762   228.27134
   379  O   6.0   -0.27    1.18    1.80   406.87500   109.64379   226.54413
   380  O   6.0   -0.29    1.18    1.80   409.48850   110.39212   229.58281
   381  H   1.0    0.12    1.16    1.45   402.30187   116.42602   226.90884
   382  H   1.0    0.06    1.14    1.45   406.01518   118.66345   228.79857
   383  H   1.0    0.06    1.10    1.44   406.43848   114.88400   225.11171
   384  H   1.0    0.06    1.10    1.44   408.75528   115.81185   226.67641
   385  H   1.0    0.06    1.09    1.44   406.90335   114.20937   230.41617
   386  H   1.0    0.08    1.12    1.45   404.53930   113.33442   228.89117
   387  N   5.0   -0.15    3.56    2.12   408.39245   121.71347   226.20020
   388  C   4.0    0.04    4.60    4.66   409.63211   123.50115   224.54669
   389  C   4.0    0.15    3.46    3.10   412.36466   122.66211   224.23110
   390  O   6.0   -0.31    1.29    1.80   413.47204   121.69835   226.02256
   391  C   4.0   -0.02    4.36    4.31   409.35621   126.21858   225.61060
   392  C   4.0   -0.09    4.22    4.04   410.44470   128.13476   223.73788
   393  C   4.0   -0.08    4.23    4.06   406.55186   126.75526   226.12650
   394  H   1.0    0.13    1.15    1.45   408.74394   121.86465   227.78001
   395  H   1.0    0.07    1.15    1.45   408.85355   123.53705   222.88751
   396  H   1.0    0.05    1.12    1.45   410.29163   126.36786   227.18096
   397  H   1.0    0.04    1.06    1.44   410.26328   129.82606   224.41818
   398  H   1.0    0.05    1.06    1.44   412.22104   127.77571   223.45820
   399  H   1.0    0.05    1.06    1.44   409.54141   128.01759   222.14673
   400  H   1.0    0.04    1.06    1.44   406.36667   128.45223   226.79357
   401  H   1.0    0.05    1.06    1.44   405.60322   126.60597   224.56558
   402  H   1.0    0.07    1.06    1.44   405.91313   125.54772   227.34726
   403  N   5.0   -0.15    3.51    2.09   413.32653   122.79250   221.90863
   404  C   4.0    0.04    4.53    4.58   415.87766   121.94024   221.35683
   405  C   4.0    0.15    3.42    3.08   417.33275   123.67311   219.49545
   406  O   6.0   -0.31    1.36    1.80   416.20647   124.93167   217.88918
   407  C   4.0    0.06    4.32    4.23   415.83608   119.16612   220.48755
   408  O   6.0   -0.26    2.16    1.85   413.85376   118.81085   218.67531
   409  C   4.0   -0.06    4.20    4.00   415.34098   117.45025   222.74767
   410  H   1.0    0.13    1.16    1.46   412.51962   123.37454   220.62361
   411  H   1.0    0.05    1.15    1.45   416.83008   122.05173   222.91963
   412  H   1.0    0.04    1.10    1.44   417.45369   118.75227   219.73355
   413  H   1.0    0.16    1.08    1.44   414.13911   119.70658   217.39596
   414  H   1.0    0.05    1.05    1.44   415.31641   115.70225   222.19587
   415  H   1.0    0.05    1.06    1.44   416.66756   117.67701   223.99111
   416  H   1.0    0.07    1.06    1.44   413.72337   117.87733   223.49789
   417  N   5.0   -0.16    3.47    2.06   419.81207   123.70146   219.72411
   418  C   4.0    0.03    4.38    4.34   421.41645   125.22647   218.09894
   419  C   4.0    0.09    3.24    3.04   420.96480   124.58585   215.30593
   420  O   6.0   -0.29    1.12    1.80   421.71124   122.53928   214.43287
   421  C   4.0   -0.05    4.48    4.50   424.21513   124.79750   218.79814
   422  C   4.0   -0.03    4.30    4.19   426.26926   126.46235   217.67375
   423  C   4.0   -0.10    4.23    4.06   425.79116   129.19111   218.49767
   424  C   4.0   -0.08    4.23    4.05   428.84685   125.55339   218.57515
   425  H   1.0    0.09    1.14    1.45   420.62465   122.83219   220.83148
   426  H   1.0    0.04    1.12    1.45   420.99693   126.99336   218.35027
   427  H   1.0    0.05    1.10    1.44   424.34552   124.93545   220.62173
   428  H   1.0    0.06    1.10    1.44   424.62331   123.06462   218.36161
   429  H   1.0    0.04    1.12    1.45   426.24092   126.37164   215.84261
   430  H   1.0    0.04    1.05    1.44   427.08751   130.27960   217.79470
   431  H   1.0    0.04    1.06    1.44   424.14710   129.73347   217.89485
   432  H   1.0    0.04    1.06    1.44   425.83462   129.29505   220.32693
   433  H   1.0    0.04    1.06    1.44   430.15643   126.61731   217.85706
   434  H   1.0    0.05    1.06    1.44   428.92244   125.64410   220.40441
   435  H   1.0    0.06    1.06    1.44   429.10574   123.82051   218.03847
   436  H   1.0    0.09    1.08    1.44   394.35823   126.21840   230.24399
   437  H   1.0    0.05    1.05    1.44   443.77484   131.53632   232.35808
   438  H   1.0    0.09    1.08    1.44   436.70221   132.61533   241.81540
   439  H   1.0    0.05    1.04    1.43   416.44795   142.80249   233.69485
   440  H   1.0    0.09    1.08    1.44   405.99997   141.52934   227.63130
   441  H   1.0    0.04    1.04    1.43   404.26148   143.33720   220.76076
   442  H   1.0    0.09    1.08    1.44   421.13849   143.19006   225.50401
   443  H   1.0    0.05    1.04    1.43   426.68525   143.82093   230.56755
   444  H   1.0    0.09    1.10    1.44   415.73019   133.75993   215.48511
   445  H   1.0    0.06    1.05    1.44   399.02505   116.32939   217.24203
   446  H   1.0    0.10    1.09    1.44   395.70680   111.04279   223.55387
   447  H   1.0    0.05    1.04    1.43   420.06858   125.81712   214.18708

  Z AO/shell   Hii/eV     exponent
  1     Wed Apr 25 08:07:45 CEST 2018   EN: 2.200 GM2: 0.406  GM3: 0.0800  RAES: 1.40
     1s    -10.707211    1.230000
  6     Wed Apr 25 08:07:45 CEST 2018   EN: 2.550 GM2: 0.538  GM3: 0.1500  RAES: 3.00
     2s    -13.970922    2.096432
     2p    -10.063292    1.800000
  7     Wed Apr 25 08:07:45 CEST 2018   EN: 3.040 GM2: 0.461  GM3:-0.0640  RAES: 1.90
     2s    -16.686243    2.339881
     2p    -12.523956    2.014332
  8     Wed Apr 25 08:07:45 CEST 2018   EN: 3.440 GM2: 0.452  GM3:-0.0517  RAES: 1.80
     2s    -20.229985    2.439742
     2p    -15.503117    2.137023
 no old-style atom pair restraining (fixing) potential

molecular fragmentation (1/2 indicates fragments):
111111111111111111111111111111111111111111111111111111111111111111111111
111111111111111111111111111111111111111111111111111111111111111111111111
111111111111111111111111111111111111111111111122222222222222222222222222
222222222222222222222222222222222222222222222222222222222222222222222222
222222222222222222222222222222222222222222222222222222222222222222222222
222222222222222222222222222222222222222222222222222222222222222222222222
222112222222222
# atoms in fragment 1/2:   192   255
 fragment masses (1/2) :     1365.50     1719.00
CMA distance (Bohr)    :   8.750
constraining FC (au)   :  0.0500
           ------------------------------------------------- 
          |        Self-Consistent Charge Iterations        |
           ------------------------------------------------- 

 Ncao       : 1095
 Nao        : 1095
 Nshell     : 663
 Nel        : 1226
 T(el)      :   500.0
 intcut     :    35.0
 scfconv/Eh :  0.100E-06
   qconv/e  :  0.100E-04
 intneglect :  0.100E-08
 broydamp   :      0.400
 iter      E             dE          RMSdq      gap      omega  full diag
   1   -708.6135960 -0.708614E+03  0.475E+00    3.44       0.0  T
   2   -710.5225815 -0.190899E+01  0.220E+00    1.70       1.0  T
   3   -710.6321997 -0.109618E+00  0.129E+00    1.78       1.0  T
   4   -710.7373636 -0.105164E+00  0.269E-01    1.08       1.0  T
   5   -710.7466603 -0.929674E-02  0.132E-01    1.17       1.0  T
   6   -710.7477947 -0.113443E-02  0.608E-02    1.12       1.0  T
   7   -710.7481494 -0.354645E-03  0.226E-02    1.09       1.0  T
   8   -710.7481803 -0.309326E-04  0.113E-02    1.08       1.0  T
   9   -710.7481927 -0.123610E-04  0.486E-03    1.06       1.0  T
  10   -710.7481951 -0.239589E-05  0.223E-03    1.06       2.1  T
  11   -710.7481956 -0.549088E-06  0.920E-04    1.06       5.1  T
  12   -710.7481957 -0.690288E-07  0.447E-04    1.06      10.6  T
  13   -710.7481957 -0.198767E-07  0.197E-04    1.06      23.9  T
  14   -710.7481957 -0.364992E-08  0.816E-05    1.06      58.0  T
  15   -710.7481957 -0.469754E-09  0.320E-05    1.06     147.8  T
speedup  1.00
cpu  time for SCC    7.68 s
wall time for SCC    7.68 s

   *** convergence criteria satisfied after 15 iterations ***

          eigenvalues
 #    :         601        602        603        604        605        606        607        608
 occ. :        2.000      2.000      2.000      2.000      2.000      2.000      2.000      2.000
 eps  :       -10.346    -10.266    -10.166    -10.091    -10.082    -10.076    -10.035     -9.921
 #    :         609        610        611        612        613        614        615        616
 occ. :        2.000      2.000      2.000      2.000      2.000      0.000      0.000      0.000
 eps  :        -9.862     -9.791     -9.749     -9.747     -9.566     -8.509     -8.286     -7.853
 #    :         617        618        619        620        621        622        623        624
 occ. :        0.000      0.000      0.000      0.000      0.000      0.000      0.000      0.000
 eps  :        -7.834     -7.832     -7.474     -7.021     -6.905     -6.804     -6.790     -6.647


   #   Z            q   n(s)   n(p)   n(d)      C6AA      α(0)
   1   7 N     -0.427  1.295  4.132  0.000    31.141     8.288
   2   6 C      0.025  1.031  2.944  0.000    20.157     6.394
   3   6 C      0.264  1.049  2.686  0.000    22.539     7.775
   4   8 O     -0.501  1.748  4.753  0.000    23.810     6.542
   5   6 C     -0.099  1.014  3.085  0.000    22.361     6.728
   6   6 C     -0.029  1.040  2.989  0.000    21.051     6.526
   7   6 C     -0.154  0.982  3.172  0.000    23.501     6.907
   8   6 C     -0.155  0.980  3.175  0.000    23.532     6.913
   9   1 H      0.195  0.805  0.000  0.000     1.130     1.665
  10   1 H      0.043  0.957  0.000  0.000     2.414     2.429
  11   1 H      0.068  0.932  0.000  0.000     2.105     2.269
  12   1 H      0.048  0.952  0.000  0.000     2.349     2.396
  13   1 H      0.054  0.946  0.000  0.000     2.275     2.358
  14   1 H      0.068  0.932  0.000  0.000     2.111     2.272
  15   1 H      0.060  0.940  0.000  0.000     2.197     2.318
  16   1 H      0.054  0.946  0.000  0.000     2.274     2.358
  17   1 H      0.064  0.936  0.000  0.000     2.157     2.297
  18   1 H      0.055  0.945  0.000  0.000     2.256     2.349
  19   1 H      0.035  0.965  0.000  0.000     2.513     2.479
  20   7 N     -0.197  1.215  3.981  0.000    25.275     7.467
  21   6 C      0.036  1.030  2.934  0.000    19.963     6.360
  22   6 C      0.270  1.042  2.687  0.000    22.431     7.756
  23   8 O     -0.487  1.752  4.735  0.000    23.507     6.500
  24   6 C     -0.102  1.009  3.093  0.000    22.424     6.739
  25   6 C      0.361  1.025  2.615  0.000    20.877     7.478
  26   8 O     -0.647  1.776  4.872  0.000    27.305     7.006
  27   8 O     -0.641  1.772  4.869  0.000    27.142     6.985
  28   1 H      0.201  0.799  0.000  0.000     1.100     1.643
  29   1 H      0.076  0.924  0.000  0.000     2.019     2.222
  30   1 H      0.037  0.963  0.000  0.000     2.486     2.466
  31   1 H      0.036  0.964  0.000  0.000     2.498     2.471
  32   7 N     -0.206  1.213  3.993  0.000    25.472     7.496
  33   6 C      0.015  1.036  2.949  0.000    20.319     6.418
  34   6 C      0.265  1.040  2.695  0.000    22.522     7.771
  35   8 O     -0.463  1.729  4.734  0.000    22.987     6.428
  36   6 C     -0.135  1.018  3.117  0.000    23.073     6.835
  37   6 C      0.281  1.028  2.691  0.000    22.238     7.721
  38   8 O     -0.443  1.729  4.714  0.000    22.560     6.368
  39   7 N     -0.275  1.180  4.095  0.000    27.111     7.733
  40   1 H      0.224  0.776  0.000  0.000     0.989     1.558
  41   1 H      0.102  0.898  0.000  0.000     1.766     2.078
  42   1 H      0.101  0.899  0.000  0.000     1.775     2.083
  43   1 H      0.124  0.876  0.000  0.000     1.577     1.964
  44   1 H      0.233  0.767  0.000  0.000     0.951     1.527
  45   1 H      0.202  0.798  0.000  0.000     1.097     1.641
  46   7 N     -0.190  1.204  3.986  0.000    25.110     7.442
  47   6 C     -0.003  1.043  2.961  0.000    20.644     6.469
  48   6 C      0.257  1.048  2.695  0.000    22.667     7.796
  49   8 O     -0.468  1.740  4.728  0.000    23.086     6.442
  50   6 C      0.050  0.998  2.951  0.000    19.912     6.386
  51   8 O     -0.477  1.679  4.798  0.000    22.405     6.390
  52   1 H      0.207  0.793  0.000  0.000     1.072     1.622
  53   1 H      0.130  0.870  0.000  0.000     1.536     1.938
  54   1 H      0.077  0.923  0.000  0.000     2.007     2.215
  55   1 H      0.110  0.890  0.000  0.000     1.693     2.034
  56   1 H      0.300  0.700  0.000  0.000     0.721     1.333
  57   7 N     -0.181  1.206  3.975  0.000    24.916     7.413
  58   6 C      0.001  1.048  2.951  0.000    20.576     6.459
  59   6 C      0.262  1.046  2.693  0.000    22.586     7.782
  60   8 O     -0.487  1.746  4.741  0.000    23.504     6.500
  61   6 C      0.115  1.025  2.861  0.000    18.796     6.189
  62   8 O     -0.509  1.699  4.810  0.000    23.081     6.485
  63   6 C     -0.156  0.983  3.173  0.000    23.557     6.918
  64   1 H      0.200  0.800  0.000  0.000     1.108     1.649
  65   1 H      0.108  0.892  0.000  0.000     1.710     2.045
  66   1 H      0.058  0.942  0.000  0.000     2.218     2.329
  67   1 H      0.319  0.681  0.000  0.000     0.664     1.280
  68   1 H      0.062  0.938  0.000  0.000     2.173     2.305
  69   1 H      0.085  0.915  0.000  0.000     1.931     2.173
  70   1 H      0.062  0.938  0.000  0.000     2.171     2.304
  71   7 N     -0.172  1.206  3.967  0.000    24.732     7.386
  72   6 C      0.015  1.037  2.948  0.000    20.321     6.417
  73   6 C      0.272  1.042  2.686  0.000    22.402     7.750
  74   8 O     -0.475  1.734  4.741  0.000    23.245     6.464
  75   6 C     -0.104  1.005  3.099  0.000    22.470     6.745
  76   6 C     -0.003  1.080  2.923  0.000    28.093     8.694
  77   6 C     -0.060  1.052  3.008  0.000    29.492     8.906
  78   6 C     -0.065  1.057  3.008  0.000    29.613     8.925
  79   6 C     -0.053  1.052  3.001  0.000    29.327     8.882
  80   6 C     -0.053  1.049  3.004  0.000    29.316     8.880
  81   6 C     -0.056  1.052  3.004  0.000    29.398     8.892
  82   1 H      0.214  0.786  0.000  0.000     1.037     1.595
  83   1 H      0.086  0.914  0.000  0.000     1.919     2.166
  84   1 H      0.076  0.924  0.000  0.000     2.017     2.221
  85   1 H      0.080  0.920  0.000  0.000     1.979     2.200
  86   1 H      0.042  0.958  0.000  0.000     2.417     2.431
  87   1 H      0.068  0.932  0.000  0.000     2.105     2.268
  88   1 H      0.067  0.933  0.000  0.000     2.118     2.276
  89   1 H      0.073  0.927  0.000  0.000     2.056     2.242
  90   1 H      0.083  0.917  0.000  0.000     1.950     2.184
  91   7 N     -0.188  1.209  3.979  0.000    25.083     7.438
  92   6 C      0.003  1.044  2.954  0.000    20.537     6.452
  93   6 C      0.267  1.043  2.690  0.000    22.497     7.767
  94   8 O     -0.486  1.744  4.742  0.000    23.481     6.497
  95   6 C     -0.112  1.014  3.097  0.000    22.619     6.769
  96   6 C     -0.103  1.009  3.094  0.000    22.463     6.746
  97   6 C     -0.116  1.007  3.109  0.000    22.707     6.782
  98   6 C     -0.068  1.014  3.054  0.000    21.882     6.673
  99   7 N     -0.140  1.146  3.994  0.000    24.026     7.280
 100   1 H      0.222  0.778  0.000  0.000     1.001     1.567
 101   1 H      0.107  0.893  0.000  0.000     1.722     2.052
 102   1 H      0.093  0.907  0.000  0.000     1.851     2.127
 103   1 H      0.099  0.901  0.000  0.000     1.794     2.094
 104   1 H      0.075  0.925  0.000  0.000     2.035     2.231
 105   1 H      0.067  0.933  0.000  0.000     2.113     2.273
 106   1 H      0.093  0.907  0.000  0.000     1.848     2.126
 107   1 H      0.097  0.903  0.000  0.000     1.812     2.105
 108   1 H      0.134  0.866  0.000  0.000     1.502     1.916
 109   1 H      0.116  0.884  0.000  0.000     1.642     2.004
 110   1 H      0.296  0.704  0.000  0.000     0.724     1.333
 111   1 H      0.277  0.723  0.000  0.000     0.784     1.387
 112   1 H      0.296  0.704  0.000  0.000     0.724     1.332
 113   7 N     -0.190  1.213  3.976  0.000    25.114     7.443
 114   6 C      0.011  1.042  2.947  0.000    20.392     6.430
 115   6 C      0.273  1.040  2.687  0.000    22.384     7.748
 116   8 O     -0.499  1.750  4.749  0.000    23.768     6.536
 117   6 C     -0.164  0.982  3.182  0.000    23.722     6.940
 118   1 H      0.206  0.794  0.000  0.000     1.077     1.626
 119   1 H      0.109  0.891  0.000  0.000     1.707     2.043
 120   1 H      0.080  0.920  0.000  0.000     1.979     2.200
 121   1 H      0.082  0.918  0.000  0.000     1.955     2.186
 122   1 H      0.078  0.922  0.000  0.000     2.003     2.213
 123   7 N     -0.175  1.204  3.972  0.000    24.797     7.396
 124   6 C     -0.000  1.039  2.961  0.000    20.584     6.459
 125   6 C      0.258  1.044  2.698  0.000    22.652     7.794
 126   8 O     -0.478  1.743  4.735  0.000    23.301     6.472
 127   6 C      0.055  0.995  2.949  0.000    19.828     6.373
 128   8 O     -0.479  1.674  4.805  0.000    22.441     6.395
 129   1 H      0.229  0.771  0.000  0.000     0.967     1.540
 130   1 H      0.112  0.888  0.000  0.000     1.679     2.026
 131   1 H      0.073  0.927  0.000  0.000     2.051     2.239
 132   1 H      0.067  0.933  0.000  0.000     2.114     2.274
 133   1 H      0.307  0.693  0.000  0.000     0.699     1.313
 134   7 N     -0.184  1.206  3.979  0.000    24.994     7.425
 135   6 C      0.002  1.039  2.960  0.000    20.555     6.455
 136   6 C      0.260  1.043  2.698  0.000    22.627     7.790
 137   8 O     -0.477  1.728  4.749  0.000    23.290     6.470
 138   6 C     -0.160  0.983  3.177  0.000    23.634     6.928
 139   1 H      0.222  0.778  0.000  0.000     1.000     1.566
 140   1 H      0.109  0.891  0.000  0.000     1.705     2.042
 141   1 H      0.103  0.897  0.000  0.000     1.758     2.073
 142   1 H      0.086  0.914  0.000  0.000     1.918     2.165
 143   1 H      0.071  0.929  0.000  0.000     2.079     2.255
 144   7 N     -0.173  1.197  3.976  0.000    24.744     7.388
 145   6 C     -0.003  1.047  2.956  0.000    20.636     6.467
 146   6 C      0.270  1.042  2.688  0.000    22.444     7.758
 147   8 O     -0.469  1.733  4.736  0.000    23.107     6.445
 148   6 C      0.101  1.029  2.870  0.000    19.008     6.224
 149   8 O     -0.512  1.690  4.822  0.000    23.151     6.495
 150   6 C     -0.177  0.983  3.194  0.000    23.996     6.981
 151   1 H      0.211  0.789  0.000  0.000     1.051     1.606
 152   1 H      0.109  0.891  0.000  0.000     1.707     2.043
 153   1 H      0.067  0.933  0.000  0.000     2.117     2.275
 154   1 H      0.342  0.658  0.000  0.000     0.607     1.223
 155   1 H      0.079  0.921  0.000  0.000     1.994     2.208
 156   1 H      0.085  0.915  0.000  0.000     1.924     2.169
 157   1 H      0.077  0.923  0.000  0.000     2.006     2.215
 158   7 N     -0.184  1.201  3.984  0.000    24.995     7.425
 159   6 C     -0.053  1.011  3.042  0.000    21.582     6.623
 160   6 C      0.279  1.033  2.688  0.000    22.277     7.729
 161   8 O     -0.493  1.748  4.744  0.000    23.623     6.516
 162   1 H      0.213  0.787  0.000  0.000     1.041     1.598
 163   1 H      0.112  0.888  0.000  0.000     1.680     2.027
 164   1 H      0.112  0.888  0.000  0.000     1.679     2.026
 165   7 N     -0.188  1.203  3.985  0.000    25.068     7.436
 166   6 C      0.001  1.046  2.953  0.000    20.577     6.459
 167   6 C      0.269  1.045  2.687  0.000    22.462     7.761
 168   8 O     -0.483  1.751  4.733  0.000    23.421     6.489
 169   6 C     -0.104  1.015  3.090  0.000    22.473     6.746
 170   6 C     -0.030  1.030  2.999  0.000    21.066     6.527
 171   6 C     -0.159  0.977  3.182  0.000    23.605     6.923
 172   6 C     -0.158  0.980  3.179  0.000    23.603     6.923
 173   1 H      0.214  0.786  0.000  0.000     1.036     1.594
 174   1 H      0.105  0.895  0.000  0.000     1.744     2.065
 175   1 H      0.069  0.931  0.000  0.000     2.094     2.263
 176   1 H      0.077  0.923  0.000  0.000     2.005     2.214
 177   1 H      0.054  0.946  0.000  0.000     2.268     2.355
 178   1 H      0.069  0.931  0.000  0.000     2.095     2.263
 179   1 H      0.058  0.942  0.000  0.000     2.225     2.333
 180   1 H      0.060  0.940  0.000  0.000     2.201     2.320
 181   1 H      0.060  0.940  0.000  0.000     2.198     2.318
 182   1 H      0.056  0.944  0.000  0.000     2.244     2.343
 183   1 H      0.047  0.953  0.000  0.000     2.358     2.401
 184   7 N     -0.171  1.191  3.979  0.000    24.696     7.381
 185   6 C     -0.045  1.004  3.040  0.000    21.421     6.598
 186   6 C      0.193  1.082  2.726  0.000    23.881     8.003
 187   8 O     -0.378  1.772  4.606  0.000    21.243     6.179
 188   1 H      0.218  0.782  0.000  0.000     1.019     1.582
 189   1 H      0.130  0.870  0.000  0.000     1.533     1.936
 190   1 H      0.139  0.861  0.000  0.000     1.471     1.897
 191   7 N     -0.423  1.301  4.122  0.000    31.016     8.271
 192   6 C      0.033  1.035  2.932  0.000    20.030     6.374
 193   6 C      0.285  1.047  2.669  0.000    22.178     7.711
 194   8 O     -0.509  1.737  4.772  0.000    23.993     6.567
 195   6 C     -0.121  1.018  3.103  0.000    22.802     6.796
 196   6 C      0.351  1.027  2.622  0.000    21.039     7.507
 197   8 O     -0.651  1.784  4.867  0.000    27.412     7.020
 198   8 O     -0.640  1.764  4.875  0.000    27.110     6.981
 199   1 H      0.179  0.821  0.000  0.000     1.218     1.729
 200   1 H      0.046  0.954  0.000  0.000     2.371     2.408
 201   1 H      0.051  0.949  0.000  0.000     2.306     2.374
 202   1 H      0.041  0.959  0.000  0.000     2.435     2.440
 203   7 N     -0.160  1.200  3.960  0.000    24.466     7.346
 204   6 C      0.010  1.036  2.954  0.000    20.409     6.433
 205   6 C      0.260  1.050  2.690  0.000    22.616     7.787
 206   8 O     -0.483  1.754  4.729  0.000    23.408     6.487
 207   6 C     -0.096  1.011  3.085  0.000    22.317     6.724
 208   6 C     -0.131  1.015  3.117  0.000    23.007     6.827
 209   6 C      0.287  1.027  2.685  0.000    22.128     7.702
 210   8 O     -0.497  1.750  4.747  0.000    23.712     6.529
 211   7 N     -0.290  1.190  4.100  0.000    27.475     7.785
 212   1 H      0.206  0.794  0.000  0.000     1.077     1.625
 213   1 H      0.083  0.917  0.000  0.000     1.951     2.184
 214   1 H      0.087  0.913  0.000  0.000     1.907     2.159
 215   1 H      0.076  0.924  0.000  0.000     2.018     2.221
 216   1 H      0.082  0.918  0.000  0.000     1.962     2.190
 217   1 H      0.082  0.918  0.000  0.000     1.955     2.186
 218   1 H      0.225  0.775  0.000  0.000     0.988     1.557
 219   1 H      0.220  0.780  0.000  0.000     1.008     1.572
 220   7 N     -0.169  1.204  3.966  0.000    24.659     7.375
 221   6 C      0.001  1.038  2.961  0.000    20.563     6.456
 222   6 C      0.266  1.040  2.695  0.000    22.515     7.770
 223   8 O     -0.471  1.738  4.732  0.000    23.145     6.450
 224   6 C     -0.095  1.004  3.090  0.000    22.281     6.717
 225   6 C     -0.104  1.002  3.103  0.000    22.473     6.747
 226   6 C     -0.114  1.011  3.103  0.000    22.663     6.775
 227   6 C     -0.074  1.018  3.056  0.000    21.989     6.689
 228   7 N     -0.131  1.139  3.992  0.000    23.835     7.251
 229   1 H      0.217  0.783  0.000  0.000     1.023     1.584
 230   1 H      0.087  0.913  0.000  0.000     1.905     2.158
 231   1 H      0.073  0.927  0.000  0.000     2.048     2.238
 232   1 H      0.082  0.918  0.000  0.000     1.953     2.185
 233   1 H      0.064  0.936  0.000  0.000     2.152     2.294
 234   1 H      0.079  0.921  0.000  0.000     1.989     2.205
 235   1 H      0.102  0.898  0.000  0.000     1.767     2.079
 236   1 H      0.084  0.916  0.000  0.000     1.940     2.178
 237   1 H      0.138  0.862  0.000  0.000     1.475     1.899
 238   1 H      0.135  0.865  0.000  0.000     1.500     1.915
 239   1 H      0.295  0.705  0.000  0.000     0.728     1.337
 240   1 H      0.263  0.737  0.000  0.000     0.835     1.431
 241   1 H      0.292  0.708  0.000  0.000     0.736     1.344
 242   7 N     -0.180  1.209  3.971  0.000    24.902     7.411
 243   6 C      0.010  1.047  2.943  0.000    20.407     6.432
 244   6 C      0.202  1.086  2.712  0.000    23.702     7.973
 245   8 O     -0.367  1.760  4.607  0.000    21.029     6.148
 246   6 C     -0.036  1.044  2.993  0.000    21.185     6.546
 247   6 C     -0.095  1.009  3.086  0.000    22.291     6.720
 248   6 C     -0.162  0.979  3.183  0.000    23.667     6.932
 249   6 C     -0.154  0.980  3.174  0.000    23.522     6.913
 250   1 H      0.213  0.787  0.000  0.000     1.044     1.600
 251   1 H      0.102  0.898  0.000  0.000     1.768     2.079
 252   1 H      0.069  0.931  0.000  0.000     2.095     2.263
 253   1 H      0.066  0.934  0.000  0.000     2.125     2.280
 254   1 H      0.051  0.949  0.000  0.000     2.309     2.376
 255   1 H      0.079  0.921  0.000  0.000     1.984     2.202
 256   1 H      0.052  0.948  0.000  0.000     2.290     2.366
 257   1 H      0.072  0.928  0.000  0.000     2.058     2.243
 258   1 H      0.053  0.947  0.000  0.000     2.287     2.364
 259   1 H      0.055  0.945  0.000  0.000     2.252     2.346
 260   1 H      0.064  0.936  0.000  0.000     2.149     2.292
 261   7 N     -0.414  1.289  4.126  0.000    30.774     8.239
 262   6 C      0.031  1.030  2.939  0.000    20.060     6.379
 263   6 C      0.189  1.097  2.714  0.000    23.955     8.016
 264   8 O     -0.395  1.782  4.613  0.000    21.572     6.227
 265   6 C     -0.092  1.010  3.082  0.000    22.238     6.710
 266   6 C     -0.029  1.037  2.992  0.000    21.058     6.527
 267   6 C     -0.159  0.980  3.179  0.000    23.610     6.924
 268   6 C     -0.154  0.981  3.173  0.000    23.519     6.911
 269   1 H      0.185  0.815  0.000  0.000     1.185     1.705
 270   1 H      0.075  0.925  0.000  0.000     2.028     2.227
 271   1 H      0.062  0.938  0.000  0.000     2.173     2.305
 272   1 H      0.052  0.948  0.000  0.000     2.298     2.370
 273   1 H      0.055  0.945  0.000  0.000     2.254     2.348
 274   1 H      0.075  0.925  0.000  0.000     2.027     2.226
 275   1 H      0.056  0.944  0.000  0.000     2.244     2.342
 276   1 H      0.048  0.952  0.000  0.000     2.338     2.391
 277   1 H      0.056  0.944  0.000  0.000     2.241     2.341
 278   1 H      0.046  0.954  0.000  0.000     2.371     2.408
 279   1 H      0.052  0.948  0.000  0.000     2.291     2.367
 280   7 N     -0.413  1.290  4.123  0.000    30.744     8.235
 281   6 C      0.014  1.046  2.940  0.000    20.357     6.427
 282   6 C      0.201  1.094  2.705  0.000    23.725     7.976
 283   8 O     -0.375  1.757  4.618  0.000    21.191     6.172
 284   6 C     -0.034  1.044  2.990  0.000    21.146     6.541
 285   6 C     -0.152  0.973  3.179  0.000    23.466     6.902
 286   6 C     -0.156  0.983  3.173  0.000    23.568     6.919
 287   1 H      0.179  0.821  0.000  0.000     1.222     1.731
 288   1 H      0.074  0.926  0.000  0.000     2.046     2.237
 289   1 H      0.055  0.945  0.000  0.000     2.260     2.351
 290   1 H      0.068  0.932  0.000  0.000     2.106     2.269
 291   1 H      0.044  0.956  0.000  0.000     2.397     2.421
 292   1 H      0.057  0.943  0.000  0.000     2.238     2.339
 293   1 H      0.068  0.932  0.000  0.000     2.107     2.270
 294   1 H      0.057  0.943  0.000  0.000     2.234     2.337
 295   1 H      0.056  0.944  0.000  0.000     2.248     2.344
 296   7 N     -0.424  1.290  4.133  0.000    31.045     8.275
 297   6 C      0.016  1.035  2.949  0.000    20.313     6.418
 298   6 C      0.269  1.047  2.684  0.000    22.454     7.760
 299   8 O     -0.520  1.751  4.768  0.000    24.225     6.599
 300   6 C     -0.038  1.046  2.992  0.000    21.208     6.550
 301   6 C     -0.156  0.981  3.176  0.000    23.566     6.918
 302   6 C     -0.149  0.980  3.170  0.000    23.427     6.899
 303   1 H      0.177  0.823  0.000  0.000     1.228     1.736
 304   1 H      0.061  0.939  0.000  0.000     2.188     2.313
 305   1 H      0.038  0.962  0.000  0.000     2.469     2.457
 306   1 H      0.074  0.926  0.000  0.000     2.045     2.236
 307   1 H      0.057  0.943  0.000  0.000     2.236     2.338
 308   1 H      0.067  0.933  0.000  0.000     2.118     2.276
 309   1 H      0.065  0.935  0.000  0.000     2.136     2.285
 310   1 H      0.060  0.940  0.000  0.000     2.203     2.321
 311   1 H      0.038  0.962  0.000  0.000     2.476     2.461
 312   7 N     -0.185  1.212  3.973  0.000    25.007     7.427
 313   6 C      0.011  1.033  2.956  0.000    20.396     6.430
 314   6 C      0.268  1.043  2.689  0.000    22.473     7.763
 315   8 O     -0.491  1.744  4.747  0.000    23.588     6.512
 316   6 C      0.061  0.991  2.948  0.000    19.724     6.355
 317   8 O     -0.481  1.667  4.814  0.000    22.476     6.400
 318   1 H      0.250  0.750  0.000  0.000     0.883     1.472
 319   1 H      0.090  0.910  0.000  0.000     1.875     2.141
 320   1 H      0.040  0.960  0.000  0.000     2.444     2.445
 321   1 H      0.071  0.929  0.000  0.000     2.077     2.253
 322   1 H      0.341  0.659  0.000  0.000     0.608     1.225
 323   7 N     -0.178  1.210  3.967  0.000    24.847     7.403
 324   6 C      0.003  1.045  2.952  0.000    20.527     6.450
 325   6 C      0.268  1.045  2.687  0.000    22.482     7.765
 326   8 O     -0.493  1.741  4.752  0.000    23.630     6.517
 327   6 C     -0.029  1.041  2.989  0.000    21.063     6.527
 328   6 C     -0.151  0.977  3.174  0.000    23.447     6.900
 329   6 C     -0.153  0.975  3.178  0.000    23.478     6.904
 330   1 H      0.224  0.776  0.000  0.000     0.991     1.559
 331   1 H      0.093  0.907  0.000  0.000     1.847     2.125
 332   1 H      0.073  0.927  0.000  0.000     2.056     2.242
 333   1 H      0.088  0.912  0.000  0.000     1.900     2.156
 334   1 H      0.033  0.967  0.000  0.000     2.538     2.491
 335   1 H      0.048  0.952  0.000  0.000     2.348     2.396
 336   1 H      0.086  0.914  0.000  0.000     1.915     2.164
 337   1 H      0.057  0.943  0.000  0.000     2.235     2.338
 338   1 H      0.064  0.936  0.000  0.000     2.148     2.292
 339   7 N     -0.190  1.222  3.968  0.000    25.117     7.443
 340   6 C      0.040  1.029  2.932  0.000    19.908     6.353
 341   6 C      0.203  1.089  2.708  0.000    23.690     7.972
 342   8 O     -0.364  1.746  4.618  0.000    20.970     6.140
 343   6 C     -0.099  1.010  3.088  0.000    22.364     6.730
 344   6 C      0.372  1.018  2.610  0.000    20.688     7.444
 345   8 O     -0.658  1.772  4.886  0.000    27.598     7.043
 346   8 O     -0.632  1.755  4.877  0.000    26.931     6.958
 347   1 H      0.229  0.771  0.000  0.000     0.969     1.541
 348   1 H      0.082  0.918  0.000  0.000     1.955     2.186
 349   1 H      0.035  0.965  0.000  0.000     2.512     2.478
 350   1 H      0.039  0.961  0.000  0.000     2.466     2.456
 351   7 N     -0.415  1.279  4.136  0.000    30.783     8.240
 352   6 C      0.022  1.035  2.943  0.000    20.223     6.404
 353   6 C      0.276  1.044  2.680  0.000    22.323     7.737
 354   8 O     -0.502  1.746  4.757  0.000    23.836     6.546
 355   6 C     -0.122  1.017  3.106  0.000    22.819     6.798
 356   6 C      0.298  1.030  2.672  0.000    21.938     7.669
 357   8 O     -0.540  1.752  4.788  0.000    24.688     6.662
 358   7 N     -0.280  1.195  4.085  0.000    27.243     7.752
 359   1 H      0.175  0.825  0.000  0.000     1.244     1.747
 360   1 H      0.105  0.895  0.000  0.000     1.743     2.065
 361   1 H      0.095  0.905  0.000  0.000     1.832     2.117
 362   1 H      0.088  0.912  0.000  0.000     1.895     2.152
 363   1 H      0.208  0.792  0.000  0.000     1.066     1.617
 364   1 H      0.249  0.751  0.000  0.000     0.885     1.474
 365   7 N     -0.193  1.207  3.986  0.000    25.195     7.455
 366   6 C     -0.042  1.003  3.039  0.000    21.367     6.590
 367   6 C      0.271  1.034  2.695  0.000    22.426     7.755
 368   8 O     -0.498  1.733  4.765  0.000    23.733     6.532
 369   1 H      0.219  0.781  0.000  0.000     1.013     1.576
 370   1 H      0.110  0.890  0.000  0.000     1.692     2.034
 371   1 H      0.111  0.889  0.000  0.000     1.687     2.031
 372   7 N     -0.201  1.223  3.977  0.000    25.359     7.479
 373   6 C      0.037  1.032  2.931  0.000    19.946     6.358
 374   6 C      0.288  1.039  2.672  0.000    22.114     7.701
 375   8 O     -0.502  1.727  4.775  0.000    23.826     6.544
 376   6 C     -0.052  0.995  3.058  0.000    21.495     6.598
 377   6 C     -0.115  1.015  3.100  0.000    22.690     6.781
 378   6 C      0.371  1.025  2.603  0.000    20.704     7.446
 379   8 O     -0.659  1.769  4.890  0.000    27.616     7.046
 380   8 O     -0.653  1.763  4.890  0.000    27.458     7.026
 381   1 H      0.218  0.782  0.000  0.000     1.018     1.580
 382   1 H      0.071  0.929  0.000  0.000     2.074     2.252
 383   1 H      0.036  0.964  0.000  0.000     2.506     2.475
 384   1 H      0.038  0.962  0.000  0.000     2.473     2.459
 385   1 H      0.028  0.972  0.000  0.000     2.621     2.531
 386   1 H      0.053  0.947  0.000  0.000     2.285     2.364
 387   7 N     -0.174  1.207  3.967  0.000    24.773     7.392
 388   6 C      0.009  1.038  2.953  0.000    20.417     6.432
 389   6 C      0.271  1.045  2.684  0.000    22.424     7.755
 390   8 O     -0.513  1.743  4.770  0.000    24.079     6.579
 391   6 C     -0.028  1.040  2.989  0.000    21.042     6.524
 392   6 C     -0.156  0.981  3.176  0.000    23.562     6.917
 393   6 C     -0.154  0.979  3.175  0.000    23.515     6.911
 394   1 H      0.223  0.777  0.000  0.000     0.997     1.564
 395   1 H      0.100  0.900  0.000  0.000     1.780     2.086
 396   1 H      0.050  0.950  0.000  0.000     2.316     2.380
 397   1 H      0.091  0.909  0.000  0.000     1.866     2.136
 398   1 H      0.055  0.945  0.000  0.000     2.252     2.346
 399   1 H      0.068  0.932  0.000  0.000     2.111     2.272
 400   1 H      0.079  0.921  0.000  0.000     1.990     2.206
 401   1 H      0.060  0.940  0.000  0.000     2.194     2.316
 402   1 H      0.044  0.956  0.000  0.000     2.390     2.417
 403   7 N     -0.173  1.208  3.966  0.000    24.748     7.388
 404   6 C     -0.003  1.040  2.963  0.000    20.641     6.468
 405   6 C      0.253  1.044  2.703  0.000    22.752     7.811
 406   8 O     -0.465  1.740  4.725  0.000    23.021     6.433
 407   6 C      0.111  1.025  2.863  0.000    18.843     6.196
 408   8 O     -0.499  1.693  4.806  0.000    22.878     6.457
 409   6 C     -0.148  0.978  3.170  0.000    23.393     6.893
 410   1 H      0.240  0.760  0.000  0.000     0.921     1.503
 411   1 H      0.089  0.911  0.000  0.000     1.893     2.151
 412   1 H      0.056  0.944  0.000  0.000     2.241     2.341
 413   1 H      0.327  0.673  0.000  0.000     0.643     1.259
 414   1 H      0.068  0.932  0.000  0.000     2.108     2.270
 415   1 H      0.076  0.924  0.000  0.000     2.025     2.225
 416   1 H      0.049  0.951  0.000  0.000     2.329     2.386
 417   7 N     -0.164  1.201  3.963  0.000    24.559     7.360
 418   6 C      0.014  1.037  2.949  0.000    20.341     6.422
 419   6 C      0.200  1.091  2.709  0.000    23.733     7.978
 420   8 O     -0.360  1.766  4.594  0.000    20.900     6.129
 421   6 C     -0.102  1.013  3.089  0.000    22.428     6.739
 422   6 C     -0.029  1.032  2.997  0.000    21.058     6.526
 423   6 C     -0.167  0.982  3.186  0.000    23.783     6.949
 424   6 C     -0.156  0.980  3.176  0.000    23.555     6.916
 425   1 H      0.218  0.782  0.000  0.000     1.017     1.580
 426   1 H      0.105  0.895  0.000  0.000     1.735     2.060
 427   1 H      0.080  0.920  0.000  0.000     1.979     2.200
 428   1 H      0.068  0.932  0.000  0.000     2.104     2.268
 429   1 H      0.053  0.947  0.000  0.000     2.276     2.359
 430   1 H      0.070  0.930  0.000  0.000     2.080     2.255
 431   1 H      0.057  0.943  0.000  0.000     2.232     2.336
 432   1 H      0.069  0.931  0.000  0.000     2.091     2.261
 433   1 H      0.070  0.930  0.000  0.000     2.090     2.260
 434   1 H      0.059  0.941  0.000  0.000     2.211     2.325
 435   1 H      0.055  0.945  0.000  0.000     2.255     2.348
 436   1 H      0.190  0.810  0.000  0.000     1.156     1.684
 437   1 H      0.096  0.904  0.000  0.000     1.825     2.112
 438   1 H      0.186  0.814  0.000  0.000     1.178     1.700
 439   1 H      0.083  0.917  0.000  0.000     1.950     2.184
 440   1 H      0.186  0.814  0.000  0.000     1.180     1.702
 441   1 H      0.073  0.927  0.000  0.000     2.052     2.240
 442   1 H      0.190  0.810  0.000  0.000     1.159     1.686
 443   1 H      0.070  0.930  0.000  0.000     2.089     2.260
 444   1 H      0.200  0.800  0.000  0.000     1.104     1.646
 445   1 H      0.092  0.908  0.000  0.000     1.861     2.133
 446   1 H      0.188  0.812  0.000  0.000     1.171     1.695
 447   1 H      0.091  0.909  0.000  0.000     1.869     2.138

 Mol. C6AA /au·bohr⁶  :    1805123.297826
 Mol. C8AA /au·bohr⁸  :   39946923.457326
 Mol. α(0) /au        :       1997.709526

 
molecular dipole:
                 x           y           z       tot (Debye)
 q only:     -796.310    -212.299    -439.040
   full:     -798.913    -216.016    -439.034    2381.269
molecular quadrupole (traceless):
                xx          xy          yy          xz          yz          zz
 q only:  -257665.275 -126312.372  184305.362 -261443.659  -69362.174   73359.914
  q+dip:  -259404.352 -129110.818  184463.609 -262302.831  -70613.455   74940.742
   full:  -259402.487 -129111.186  184464.040 -262303.038  -70612.518   74938.447
speedup  1.00
cpu  time for grad    9.96 s
wall time for grad    9.96 s

SCC energy    :    -710.7588088
rep           :      14.5942015
ES            :       2.7355538
AES           :      -0.1020486
AXC           :       0.0634049
disp          :      -0.5932274
XB            :       0.0000000
fix           :       0.0000000
Gborn         :       0.0000000
Gsasa         :       0.0000000
Ghb           :       0.0000000
Gshift        :       0.0000000
Gsolv         :      -0.7684545     -482.21
Etot ala COSMO:    -710.7588088
grad norm     :       2.6922628
total E       :    -696.1020031
atomizationE  :     122.1756999    76666.41
(atE without considering molecular charge,
 total energy contains solvation terms)
H-L gap (eV)  :          1.0568

------------------------------------------------------------------------
 * finished run on 2019/03/07 at 11:37:56.505     
------------------------------------------------------------------------
 total:
 * wall-time:     0 d,  0 h,  0 min, 10.827 sec
 *  cpu-time:     0 d,  0 h,  0 min, 10.616 sec
 * ratio c/w:     0.981 speedup
 SCF:
 * wall-time:     0 d,  0 h,  0 min, 10.455 sec
 *  cpu-time:     0 d,  0 h,  0 min, 10.454 sec
 * ratio c/w:     1.000 speedup

