      -----------------------------------------------------------      
     |                   =====================                   |     
     |                           x T B                           |     
     |                   =====================                   |     
     |                         S. Grimme                         |     
     |          Mulliken Center for Theoretical Chemistry        |     
     |                    University of Bonn                     |     
     |                Version 6.1 RC1 (SAW190329)                |     
      -----------------------------------------------------------      

   This program is distributed in the hope that it will be useful,
   but WITHOUT ANY WARRANTY; without even the implied warranty of
   MERCHANTABILITY or FITNESS FOR A PARTICULAR PURPOSE.
   
   FOR NON-COMMERCIAL, ACADEMIA USE ONLY.
   
   Cite this work as:
   S. Grimme, C. Bannwarth, P. Shushkov, J. Comput. Theory Chem., 2017,
   13, 1989-2009. DOI: 10.1021/acs.jctc.7b00118
   C. Bannwarth, S. Ehlert and S. Grimme., J. Comput. Theory Chem., 2019,
   just accepted. DOI: 10.1021/acs.jctc.8b01176
   
   for sTDA-xTB:
   S. Grimme and C. Bannwarth, J. Chem. Phys., 2016, 145, 054103.
   DOI: 10.1063/1.4959605
   
   in the mass-spec context:
   V. Asgeirsson, C. Bauer and S. Grimme, Chem. Sci., 2017, 8, 4879.
   DOI: 10.1039/c7sc00601b
   
   for metadynamics refer to:
   S. Grimme, ChemRxiv, Preprint. DOI: 10.26434/chemrxiv.7660532.v1
   
   with help from (in alphabetical order)
   C. Bannwarth, F. Bohle, G. Brandenburg, E. Caldeweyher, M. Checinski,
   S. Dohm, S. Ehlert, S. Ehrlich, F. März, H. Neugebauer, J. Pisarek,
   P. Pracht, P. Shushkov, and S. Spicher.
   
 * started run on 2019/05/31 at 07:36:09.454     

           -------------------------------------------------
          |                Calculation Setup                |
           -------------------------------------------------

          program call               : /home/lum/install/xtb/xtb-190329/bin/xtb xtb_tmp.xyz --chrg 4 --grad --gfn 2 --etemp 500 --acc 0.1 --gbsa h2o --parallel 1
          hostname                   : cu05
          coordinate file            : xtb_tmp.xyz
          omp threads                :                     1
          number of atoms            :                   542
          number of electrons        :                  1452
          charge                     :                     4
          spin                       :                   0.0
          first test random number   :      0.46312187582504


molecular fragmentation (1/2 indicates fragments):
111111111111111111111111111111111111111111112222222222222222222222222222
222222222222222222222222222222222222222222222222222222222222222222222222
222222222222222222222222222222222222222222222222222222222222222222222222
222222222222222222222222222222222222222222222222222222222222222222222222
222222222222222222222222222222222222222222222222222222222222222222222222
222222222222222222222222222222222222222222222222222222222222222222222222
222222222222222222222222222222222222222222222222222222222222222222222222
22222222222222222211222222222222222222
# atoms in fragment 1/2:    46   496
 fragment masses (1/2) :      306.39     3405.14
CMA distance (Bohr)    :  15.259
constraining FC (au)   :  0.0500

########################################################################
# WARNING! Please study the warnings concerning your input carefully
#  - XTBPATH is not set, using XTBHOME instead
########################################################################

           ------------------------------------------------- 
          |                 G F N 2 - x T B                 |
          | Geometry, Frequencies, Noncovalent interactions |
          |            JCTC 2018 parametrisation            |
           ------------------------------------------------- 
 
             k(s)              :                1.8500
             k(p)              :                2.2300
             k(d)              :                2.2300
             k(f)              :                2.0000
             kEN (H0ij)        :               -2.0000
             D4 a1             :                0.5200
             D4 a2             :                5.0000
             D4 s6             :                1.0000
             D4 s8             :                2.7000
             D4 s9             :                5.0000
             alphaj            :                2.0000

  Z AO/shell   Hii/eV     exponent
  1     Wed Apr 25 08:07:45 CEST 2018   EN: 2.200 GM2: 0.406  GM3: 0.0800  RAES: 1.40
     1s    -10.707211    1.230000
  6     Wed Apr 25 08:07:45 CEST 2018   EN: 2.550 GM2: 0.538  GM3: 0.1500  RAES: 3.00
     2s    -13.970922    2.096432
     2p    -10.063292    1.800000
  7     Wed Apr 25 08:07:45 CEST 2018   EN: 3.040 GM2: 0.461  GM3:-0.0640  RAES: 1.90
     2s    -16.686243    2.339881
     2p    -12.523956    2.014332
  8     Wed Apr 25 08:07:45 CEST 2018   EN: 3.440 GM2: 0.452  GM3:-0.0517  RAES: 1.80
     2s    -20.229985    2.439742
     2p    -15.503117    2.137023
 16     Tue Apr 24 11:44:34 CEST 2018   EN: 2.580 GM2: 0.340  GM3:-0.0502  RAES: 3.10
     3s    -20.029654    1.981333
     3p    -11.377694    2.025643
     3d     -0.420282    1.702555

 Solvent             : h2o
 Using internal parameter file: .param_gbsa2_h2o
 Gsolv ref. state (COSMO-RS): gsolv [1 M gas/solution]
 temperature (mdtemp)       :    298.150000000000     
 dielectric constant        :    80.2000000000000     
 rho                        :    1.00000000000000     
 mass                       :    18.0000000000000     
 surface tension            :    15.5689454083859     
 probe radius               :   0.975313790000000     
 vdW radii scaling          :    1.00000000000000     
 Gshift (Eh)                :   1.857443126794793E-003
 c1                         :    1.55243817000000     
 soset                      :   0.130326360000000     
 HB correction              :  T
 Number of grid points      :          230

            Z     q(EN)     CN     RAES       Cart. coordinates
     1  N   5.0   -0.70    3.00    1.93    37.49369    58.96822    54.80929
     2  C   4.0    0.07    3.98    3.59    39.13494    56.77073    54.92145
     3  C   4.0    0.28    3.01    3.02    37.88289    54.57335    53.50369
     4  O   6.0   -0.46    1.00    1.80    39.00940    53.39382    51.85785
     5  C   4.0   -0.14    3.99    3.60    39.64650    56.11353    57.68649
     6  C   4.0   -0.15    3.98    3.59    40.80053    53.49403    58.05412
     7  C   4.0   -0.04    3.99    3.60    41.85588    53.22362    60.72466
     8  N   5.0   -0.48    3.02    1.93    44.28687    54.47804    60.89715
     9  C   4.0    0.37    3.00    3.02    45.32116    55.52759    62.93180
    10  N   5.0   -0.64    3.01    1.93    44.03599    55.93980    65.03691
    11  N   5.0   -0.64    3.02    1.93    47.79284    56.08236    62.82913
    12  H   1.0    0.27    1.00    1.43    37.12495    59.89873    56.44740
    13  H   1.0    0.11    0.99    1.43    40.91321    57.16658    53.92591
    14  H   1.0    0.13    0.99    1.43    40.90775    57.54565    58.46462
    15  H   1.0    0.11    0.99    1.43    37.86356    56.19037    58.71588
    16  H   1.0    0.12    0.99    1.43    39.36617    52.04369    57.76288
    17  H   1.0    0.12    0.99    1.43    42.29390    53.16607    56.67080
    18  H   1.0    0.11    0.99    1.43    40.53884    54.04172    62.08169
    19  H   1.0    0.11    0.99    1.43    42.08529    51.21801    61.17251
    20  H   1.0    0.24    1.00    1.43    45.41044    54.20732    59.37237
    21  H   1.0    0.25    1.00    1.43    42.08565    55.96349    65.10631
    22  H   1.0    0.26    1.00    1.43    44.89084    56.85668    66.47041
    23  H   1.0    0.28    1.00    1.43    48.75434    55.88650    61.19900
    24  H   1.0    0.27    1.00    1.43    48.68291    56.92847    64.28243
    25  N   5.0   -0.48    3.01    1.93    35.50767    54.07819    54.18042
    26  C   4.0    0.06    3.99    3.61    34.07538    52.06290    52.99791
    27  C   4.0    0.10    3.00    3.02    33.89962    52.47990    50.14369
    28  O   6.0   -0.40    1.00    1.80    34.34593    50.78251    48.62828
    29  C   4.0   -0.14    3.99    3.60    31.40130    51.95229    54.10611
    30  C   4.0   -0.02    3.03    3.02    29.70133    50.29609    52.53365
    31  C   4.0   -0.09    3.03    3.02    29.98214    47.68516    52.51110
    32  C   4.0   -0.07    3.03    3.02    27.82324    51.38216    51.05461
    33  C   4.0   -0.09    3.03    3.02    28.38259    46.18523    51.08482
    34  C   4.0   -0.07    3.03    3.02    26.21845    49.88933    49.62971
    35  C   4.0   -0.08    3.03    3.02    26.48329    47.28618    49.65932
    36  H   1.0    0.24    1.00    1.43    34.69865    55.03043    55.63230
    37  H   1.0    0.12    0.99    1.43    35.06734    50.26206    53.28245
    38  H   1.0    0.10    0.99    1.43    31.51376    51.25463    56.04502
    39  H   1.0    0.12    0.99    1.43    30.65152    53.87299    54.15002
    40  H   1.0    0.11    0.99    1.43    31.44493    46.78919    53.61881
    41  H   1.0    0.13    0.99    1.43    27.61631    53.41331    51.05079
    42  H   1.0    0.12    0.99    1.43    28.64135    44.16023    51.12779
    43  H   1.0    0.14    1.00    1.43    24.74958    50.76329    48.51732
    44  H   1.0    0.13    1.00    1.43    25.19046    46.12094    48.60016
    45  N   5.0   -0.68    3.00    1.93    37.48821    55.61563    46.57796
    46  C   4.0    0.08    3.98    3.59    39.92879    55.26083    45.40494
    47  C   4.0    0.30    3.01    3.02    40.44865    52.44006    45.08321
    48  O   6.0   -0.46    1.00    1.80    41.18706    51.61189    43.04592
    49  C   4.0   -0.12    3.99    3.60    42.01358    56.60151    46.88181
    50  C   4.0   -0.03    3.02    3.02    44.49680    56.74502    45.48900
    51  C   4.0   -0.09    3.03    3.02    44.63428    57.06966    42.88613
    52  C   4.0   -0.10    3.04    3.02    46.75278    56.65825    46.82872
    53  C   4.0   -0.07    3.03    3.02    46.92685    57.26375    41.66342
    54  C   4.0   -0.10    3.03    3.02    49.06732    56.87930    45.62854
    55  C   4.0    0.10    3.03    3.02    49.17414    57.17372    43.02164
    56  O   6.0   -0.44    1.99    1.83    51.37899    57.32629    41.71694
    57  H   1.0    0.28    1.00    1.43    37.40736    56.56098    48.24307
    58  H   1.0    0.12    0.99    1.43    39.81461    56.03587    43.48395
    59  H   1.0    0.12    0.99    1.43    41.35262    58.52472    47.25771
    60  H   1.0    0.13    0.99    1.43    42.26674    55.65426    48.69760
    61  H   1.0    0.13    1.00    1.43    42.94464    57.18530    41.75789
    62  H   1.0    0.12    1.00    1.43    46.68892    56.42435    48.85440
    63  H   1.0    0.14    1.00    1.43    47.01601    57.48016    39.63895
    64  H   1.0    0.12    0.99    1.43    50.80449    56.81184    46.69906
    65  H   1.0    0.27    0.99    1.43    52.79983    57.80640    42.80656
    66  N   5.0   -0.47    3.01    1.93    39.97537    50.96904    47.07127
    67  C   4.0    0.07    3.99    3.61    40.14011    48.23921    46.84941
    68  C   4.0    0.12    3.00    3.02    38.76368    47.36391    44.45608
    69  O   6.0   -0.45    1.00    1.80    39.78921    45.99807    42.87866
    70  C   4.0   -0.13    3.99    3.60    38.95769    46.91795    49.15397
    71  C   4.0   -0.03    3.03    3.02    38.03793    44.31801    48.43605
    72  C   4.0   -0.09    3.03    3.02    39.72490    42.36129    47.97868
    73  C   4.0   -0.09    3.03    3.02    35.47716    43.85513    48.09180
    74  C   4.0   -0.08    3.03    3.02    38.89992    40.04188    47.10851
    75  C   4.0   -0.06    3.03    3.02    34.63074    41.54141    47.24160
    76  C   4.0    0.12    3.03    3.02    36.33669    39.61239    46.69229
    77  O   6.0   -0.44    1.99    1.82    35.43399    37.42449    45.72102
    78  H   1.0    0.31    1.00    1.43    39.42891    51.72281    48.75185
    79  H   1.0    0.12    0.99    1.43    42.12350    47.66863    46.62704
    80  H   1.0    0.11    0.99    1.43    40.35229    46.82150    50.66973
    81  H   1.0    0.14    0.99    1.43    37.35557    48.04907    49.78361
    82  H   1.0    0.11    0.99    1.43    41.72064    42.65599    48.29768
    83  H   1.0    0.13    1.00    1.43    34.12994    45.32562    48.51562
    84  H   1.0    0.13    0.99    1.43    40.22890    38.52321    46.76890
    85  H   1.0    0.14    1.00    1.43    32.64397    41.14424    47.05380
    86  H   1.0    0.32    0.99    1.43    36.65108    36.03471    46.06687
    87  N   5.0   -0.69    3.00    1.93    42.02165    49.19809    38.50966
    88  C   4.0    0.08    3.98    3.59    44.33559    47.78623    38.24267
    89  C   4.0    0.29    3.01    3.02    43.80138    45.06141    37.45137
    90  O   6.0   -0.38    1.00    1.80    45.36577    43.90881    36.16660
    91  C   4.0   -0.13    3.99    3.60    45.91223    47.80772    40.66020
    92  C   4.0   -0.09    3.98    3.58    47.19406    50.34526    41.22649
    93  C   4.0   -0.22    3.99    3.60    48.47442    50.18286    43.80538
    94  C   4.0   -0.21    3.98    3.59    49.16261    51.06098    39.24302
    95  H   1.0    0.34    1.00    1.43    41.51861    49.77018    40.27130
    96  H   1.0    0.13    0.99    1.43    45.43555    48.58885    36.67722
    97  H   1.0    0.13    0.99    1.43    44.66117    47.30048    42.22283
    98  H   1.0    0.12    0.99    1.43    47.35789    46.34185    40.48628
    99  H   1.0    0.14    0.99    1.43    45.73487    51.80861    41.29777
   100  H   1.0    0.12    0.99    1.43    49.39019    51.96481    44.24607
   101  H   1.0    0.11    0.99    1.43    47.08842    49.78147    45.26618
   102  H   1.0    0.11    0.99    1.43    49.89008    48.69185    43.78707
   103  H   1.0    0.13    0.99    1.43    50.07444    52.82062    39.78179
   104  H   1.0    0.12    0.99    1.43    50.59575    49.59258    39.10340
   105  H   1.0    0.12    0.99    1.43    48.32282    51.32735    37.38734
   106  N   5.0   -0.47    3.01    1.93    41.60113    44.07832    38.17947
   107  C   4.0    0.07    3.99    3.61    40.82282    41.57453    37.38432
   108  C   4.0    0.10    3.00    3.02    40.10809    41.62600    34.56916
   109  O   6.0   -0.36    1.00    1.80    40.98847    40.09927    33.05403
   110  C   4.0   -0.14    3.98    3.59    38.59645    40.63498    38.95863
   111  C   4.0   -0.15    3.98    3.59    37.95258    37.89505    38.30418
   112  C   4.0   -0.14    3.98    3.59    39.81158    36.06169    39.54210
   113  C   4.0   -0.04    3.98    3.58    39.54067    33.35802    38.60858
   114  N   5.0   -0.70    3.98    2.81    40.50425    33.02693    35.99882
   115  H   1.0    0.30    1.00    1.43    40.61572    44.90445    39.60956
   116  H   1.0    0.14    0.99    1.43    42.44079    40.28606    37.54477
   117  H   1.0    0.13    0.99    1.43    39.08789    40.77538    40.95864
   118  H   1.0    0.13    0.99    1.43    36.99319    41.87369    38.58908
   119  H   1.0    0.13    0.99    1.43    36.05783    37.45771    38.97653
   120  H   1.0    0.14    0.99    1.43    37.97241    37.66689    36.25371
   121  H   1.0    0.11    0.99    1.43    41.75353    36.67059    39.21262
   122  H   1.0    0.12    0.99    1.43    39.48236    36.06238    41.57962
   123  H   1.0    0.12    0.99    1.43    40.63713    32.12037    39.83889
   124  H   1.0    0.13    0.99    1.43    37.55765    32.80261    38.67413
   125  H   1.0    0.26    1.00    1.43    40.35379    31.16926    35.48254
   126  H   1.0    0.26    0.99    1.43    39.50419    34.06793    34.63468
   127  H   1.0    0.25    0.99    1.43    42.40900    33.55787    35.84123
   128  N   5.0   -0.70    3.00    1.93    60.29704    35.06135    40.36097
   129  C   4.0    0.08    3.98    3.59    59.12936    33.55581    42.33671
   130  C   4.0    0.27    3.01    3.02    56.85188    35.02830    43.41207
   131  O   6.0   -0.45    1.00    1.80    56.23862    37.08652    42.58382
   132  C   4.0   -0.00    3.98    3.58    61.03187    32.91766    44.46670
   133  O   6.0   -0.45    1.98    1.82    61.20405    34.84422    46.28028
   134  H   1.0    0.29    1.00    1.43    59.95568    34.52268    38.56284
   135  H   1.0    0.12    0.99    1.43    58.45861    31.81101    41.46003
   136  H   1.0    0.11    0.99    1.43    60.44955    31.20743    45.45921
   137  H   1.0    0.14    0.99    1.43    62.87447    32.56788    43.58157
   138  H   1.0    0.27    0.99    1.43    61.50072    36.40915    45.31183
   139  N   5.0   -0.49    3.01    1.93    55.72854    33.88580    45.37500
   140  C   4.0    0.07    3.99    3.61    53.78310    35.07513    46.87689
   141  C   4.0    0.27    3.01    3.02    54.85411    36.12679    49.35759
   142  O   6.0   -0.47    1.00    1.80    54.13344    38.16002    50.19487
   143  C   4.0   -0.09    3.98    3.58    51.52288    33.26863    47.27226
   144  C   4.0   -0.16    3.98    3.59    49.17975    34.77726    48.05803
   145  C   4.0   -0.21    3.98    3.59    52.10650    31.15137    49.14446
   146  C   4.0   -0.23    3.98    3.58    46.76275    33.21875    47.89706
   147  H   1.0    0.22    1.00    1.43    56.23401    32.09837    45.79776
   148  H   1.0    0.13    0.99    1.43    53.13155    36.71615    45.79265
   149  H   1.0    0.12    0.99    1.43    51.13685    32.43346    45.41729
   150  H   1.0    0.12    0.99    1.43    49.42427    35.49824    49.97668
   151  H   1.0    0.10    0.99    1.43    48.98948    36.40770    46.80672
   152  H   1.0    0.11    0.99    1.43    50.53933    29.82659    49.18403
   153  H   1.0    0.11    0.99    1.43    53.78479    30.10491    48.59129
   154  H   1.0    0.12    0.99    1.43    52.35004    31.90956    51.03763
   155  H   1.0    0.10    0.99    1.43    45.11700    34.41875    48.17971
   156  H   1.0    0.11    0.99    1.43    46.59062    32.33596    46.04949
   157  H   1.0    0.11    0.99    1.43    46.72192    31.74924    49.33067
   158  N   5.0   -0.48    3.01    1.93    56.58747    34.70300    50.52817
   159  C   4.0    0.06    3.99    3.60    57.59762    35.37224    52.99069
   160  C   4.0    0.10    3.00    3.02    59.15022    37.80069    52.81923
   161  O   6.0   -0.40    1.00    1.80    59.03180    39.45768    54.42621
   162  C   4.0   -0.15    3.99    3.60    59.32128    33.29018    54.02492
   163  C   4.0   -0.16    3.98    3.59    57.89531    30.89749    54.80758
   164  C   4.0   -0.03    3.99    3.60    59.71828    29.06270    56.09241
   165  N   5.0   -0.47    3.02    1.93    58.40479    26.75954    56.80979
   166  C   4.0    0.39    3.01    3.02    59.53815    24.71516    57.73007
   167  N   5.0   -0.62    3.02    1.93    62.03458    24.65834    58.02953
   168  N   5.0   -0.62    3.02    1.93    58.18338    22.64702    58.20369
   169  H   1.0    0.24    1.00    1.43    57.09632    33.01261    49.80975
   170  H   1.0    0.13    0.99    1.43    56.03125    35.73821    54.29838
   171  H   1.0    0.12    0.99    1.43    60.75230    32.84035    52.60962
   172  H   1.0    0.12    0.99    1.43    60.27726    34.05973    55.68114
   173  H   1.0    0.12    0.99    1.43    56.37299    31.39061    56.10897
   174  H   1.0    0.11    0.99    1.43    57.05044    29.98812    53.16407
   175  H   1.0    0.13    0.99    1.43    61.23450    28.57723    54.77397
   176  H   1.0    0.12    0.99    1.43    60.52416    29.97246    57.76847
   177  H   1.0    0.25    1.00    1.43    56.49685    26.80420    56.76499
   178  H   1.0    0.27    1.00    1.43    63.07748    26.24756    57.92972
   179  H   1.0    0.29    1.00    1.43    62.87294    23.11627    58.76383
   180  H   1.0    0.28    1.00    1.43    56.28530    22.65612    58.05783
   181  H   1.0    0.29    1.00    1.43    58.98826    21.11308    58.98935
   182  N   5.0   -0.68    3.00    1.93    59.09349    42.06193    48.18898
   183  C   4.0    0.08    3.98    3.59    57.37492    44.14626    47.70622
   184  C   4.0    0.29    3.01    3.02    56.35561    45.13486    50.23626
   185  O   6.0   -0.45    1.00    1.80    56.49367    47.36187    50.82748
   186  C   4.0   -0.14    4.01    3.64    55.11268    43.42616    46.06177
   187  C   4.0   -0.13    3.98    3.58    55.75500    43.31684    43.25755
   188  S   6.0   -0.13    2.01    3.10    52.99146    43.92793    41.26308
   189  C   4.0   -0.19    3.98    3.58    51.30817    40.98305    41.68561
   190  H   1.0    0.28    1.00    1.43    58.73996    40.38042    47.36481
   191  H   1.0    0.12    0.99    1.43    58.40571    45.71379    46.82441
   192  H   1.0    0.13    0.99    1.43    54.32558    41.63006    46.70018
   193  H   1.0    0.11    0.99    1.43    53.66936    44.87815    46.33790
   194  H   1.0    0.12    0.99    1.43    57.06726    44.81867    42.75511
   195  H   1.0    0.15    0.99    1.43    56.53261    41.49789    42.69965
   196  H   1.0    0.13    0.99    1.43    49.84050    40.89210    40.25228
   197  H   1.0    0.14    0.99    1.43    52.62128    39.42597    41.43778
   198  H   1.0    0.10    0.99    1.43    50.44632    40.93349    43.54834
   199  N   5.0   -0.46    3.01    1.93    55.30732    43.37088    51.69971
   200  C   4.0    0.07    3.99    3.60    54.09805    44.02483    54.07414
   201  C   4.0    0.10    3.00    3.02    55.91573    45.62322    55.65708
   202  O   6.0   -0.42    1.00    1.80    55.24795    47.59204    56.68109
   203  C   4.0   -0.20    3.99    3.59    53.36032    41.60364    55.43727
   204  H   1.0    0.30    1.00    1.43    55.03856    41.57342    51.08352
   205  H   1.0    0.13    0.99    1.43    52.40401    45.17364    53.71537
   206  H   1.0    0.12    0.99    1.43    52.15304    42.03708    57.03723
   207  H   1.0    0.13    0.99    1.43    52.31135    40.40350    54.14213
   208  H   1.0    0.14    0.99    1.43    55.03109    40.59239    56.07613
   209  N   5.0   -0.68    3.00    1.93    57.48541    52.05221    53.13066
   210  C   4.0    0.09    3.98    3.58    55.09861    53.39519    53.07903
   211  C   4.0    0.12    3.00    3.02    54.55078    54.49895    55.70275
   212  O   6.0   -0.37    1.00    1.80    54.10017    56.74459    56.04555
   213  C   4.0   -0.01    3.98    3.59    52.91168    51.62424    52.31798
   214  O   6.0   -0.50    1.99    1.82    50.54381    52.68055    52.85337
   215  H   1.0    0.33    1.00    1.43    57.45187    50.13382    53.02421
   216  H   1.0    0.13    0.99    1.43    55.24440    54.98697    51.75833
   217  H   1.0    0.12    0.99    1.43    53.09792    51.10789    50.32206
   218  H   1.0    0.16    0.99    1.43    53.02793    49.90257    53.44582
   219  H   1.0    0.26    0.99    1.43    50.23803    54.12064    51.77854
   220  N   5.0   -0.71    3.00    1.93    51.54946    49.41108    69.55210
   221  C   4.0    0.07    3.98    3.59    48.91787    49.22579    68.82933
   222  C   4.0    0.28    3.02    3.02    48.65293    48.41152    66.07740
   223  O   6.0   -0.49    1.00    1.80    46.90746    47.02742    65.44447
   224  C   4.0   -0.13    3.99    3.60    47.52367    51.73761    69.20174
   225  C   4.0   -0.03    3.12    3.03    46.75264    52.22773    71.88133
   226  C   4.0    0.01    3.22    3.04    46.05211    50.50175    73.67070
   227  C   4.0    0.02    3.18    3.03    46.49048    54.65707    73.03300
   228  N   5.0   -0.46    3.11    1.94    45.38789    51.69798    75.85729
   229  C   4.0    0.14    3.22    3.04    45.64243    54.23769    75.54225
   230  C   4.0   -0.10    3.02    3.02    46.88695    57.13669    72.22930
   231  C   4.0   -0.07    3.02    3.02    45.26499    56.21238    77.23360
   232  C   4.0   -0.08    3.03    3.02    46.53880    59.07954    73.92258
   233  C   4.0   -0.07    3.03    3.02    45.75065    58.63354    76.40494
   234  H   1.0    0.27    1.00    1.43    52.15663    51.05640    70.34204
   235  H   1.0    0.10    0.99    1.43    48.01696    47.72713    69.93691
   236  H   1.0    0.12    0.99    1.43    48.76824    53.23893    68.53732
   237  H   1.0    0.12    0.99    1.43    45.83080    51.68576    68.01606
   238  H   1.0    0.10    1.00    1.43    46.01428    48.47773    73.58373
   239  H   1.0    0.25    1.00    1.43    44.77209    50.81097    77.42179
   240  H   1.0    0.12    1.00    1.43    47.47851    57.54061    70.31999
   241  H   1.0    0.15    1.00    1.43    44.61762    55.85100    79.13477
   242  H   1.0    0.14    1.00    1.43    46.86006    61.00478    73.33841
   243  H   1.0    0.15    0.99    1.43    45.52276    60.21865    77.67278
   244  N   5.0   -0.48    3.00    1.93    50.27270    49.41436    64.42469
   245  C   4.0    0.02    4.00    3.62    50.15682    48.66703    61.79551
   246  C   4.0    0.30    3.01    3.02    50.58184    45.82762    61.49508
   247  O   6.0   -0.44    1.00    1.80    49.13094    44.49068    60.28401
   248  H   1.0    0.25    1.00    1.43    51.63041    50.64428    64.98981
   249  H   1.0    0.13    0.99    1.43    48.29077    49.09275    61.01458
   250  H   1.0    0.12    0.99    1.43    51.60533    49.65707    60.72558
   251  N   5.0   -0.48    3.01    1.93    52.64477    44.94451    62.64409
   252  C   4.0    0.07    4.00    3.63    53.23406    42.26750    62.58500
   253  C   4.0    0.30    3.01    3.02    50.81666    40.78067    63.19643
   254  O   6.0   -0.43    1.00    1.80    49.97203    39.12366    61.81765
   255  C   4.0   -0.10    3.98    3.58    55.37363    41.60258    64.42811
   256  C   4.0   -0.21    3.98    3.59    55.77406    38.74266    64.44707
   257  C   4.0   -0.21    3.98    3.59    57.81657    42.93851    63.65535
   258  H   1.0    0.24    1.00    1.43    53.81440    46.12649    63.58912
   259  H   1.0    0.12    0.99    1.43    53.80023    41.73430    60.66480
   260  H   1.0    0.11    0.99    1.43    54.81105    42.23931    66.31155
   261  H   1.0    0.12    0.99    1.43    57.31814    38.23747    65.70037
   262  H   1.0    0.13    0.99    1.43    54.09113    37.74140    65.07123
   263  H   1.0    0.12    0.99    1.43    56.23083    38.08275    62.55616
   264  H   1.0    0.12    0.99    1.43    59.33985    42.37253    64.90952
   265  H   1.0    0.12    0.99    1.43    58.32632    42.40711    61.73752
   266  H   1.0    0.12    0.99    1.43    57.63058    44.98314    63.75178
   267  N   5.0   -0.48    3.01    1.93    49.77691    41.45332    65.40097
   268  C   4.0    0.08    4.00    3.62    47.66492    40.07427    66.45230
   269  C   4.0    0.30    3.01    3.02    45.39175    40.25884    64.67172
   270  O   6.0   -0.46    1.00    1.80    44.05984    38.42581    64.17760
   271  C   4.0   -0.10    3.98    3.59    46.97678    41.08494    69.08578
   272  C   4.0   -0.23    3.98    3.59    44.68655    39.67318    70.12130
   273  C   4.0   -0.22    3.98    3.59    49.19475    40.81559    70.91443
   274  H   1.0    0.24    1.00    1.43    50.58300    42.84071    66.44766
   275  H   1.0    0.12    0.99    1.43    48.15945    38.05668    66.55961
   276  H   1.0    0.12    0.99    1.43    46.51220    43.08962    68.86976
   277  H   1.0    0.10    0.99    1.43    44.14125    40.47093    71.92952
   278  H   1.0    0.12    0.99    1.43    43.09860    39.78208    68.82605
   279  H   1.0    0.11    0.99    1.43    45.14754    37.68690    70.38630
   280  H   1.0    0.11    0.99    1.43    48.61127    41.40081    72.79499
   281  H   1.0    0.11    0.99    1.43    49.81171    38.85565    71.00053
   282  H   1.0    0.10    0.99    1.43    50.78653    41.97430    70.33867
   283  N   5.0   -0.48    3.01    1.93    44.89310    42.58213    63.85198
   284  C   4.0    0.08    4.00    3.62    42.64323    43.16131    62.40792
   285  C   4.0    0.31    3.02    3.02    42.37084    41.31079    60.22444
   286  O   6.0   -0.45    1.00    1.80    40.45464    40.05375    59.88793
   287  C   4.0   -0.13    3.99    3.60    42.78024    45.87150    61.38072
   288  C   4.0   -0.04    3.03    3.02    40.34972    46.49959    60.04758
   289  C   4.0   -0.08    3.03    3.02    39.99078    45.86518    57.52386
   290  C   4.0   -0.11    3.03    3.02    38.38210    47.61646    61.37950
   291  C   4.0   -0.10    3.03    3.02    37.66591    46.24029    56.38395
   292  C   4.0   -0.11    3.03    3.02    36.08389    48.06756    60.22001
   293  C   4.0   -0.11    3.03    3.02    35.70843    47.32677    57.74028
   294  H   1.0    0.31    1.00    1.43    45.95598    44.09396    64.39301
   295  H   1.0    0.12    0.99    1.43    40.96291    42.93708    63.60993
   296  H   1.0    0.12    0.99    1.43    43.08618    47.11859    62.99180
   297  H   1.0    0.13    0.99    1.43    44.38453    46.01541    60.09575
   298  H   1.0    0.12    0.99    1.43    41.52190    45.04968    56.44537
   299  H   1.0    0.10    1.00    1.43    38.63973    48.11652    63.34029
   300  H   1.0    0.11    0.99    1.43    37.37672    45.65321    54.44975
   301  H   1.0    0.10    1.00    1.43    34.57972    48.96024    61.26290
   302  H   1.0    0.10    1.00    1.43    33.88135    47.56686    56.87315
   303  N   5.0   -0.48    3.01    1.93    44.35392    41.27516    58.66087
   304  C   4.0    0.07    4.00    3.62    44.29649    39.76168    56.38939
   305  C   4.0    0.29    3.02    3.02    43.76823    37.01004    57.07376
   306  O   6.0   -0.45    1.00    1.80    42.09785    35.78184    56.03147
   307  C   4.0   -0.14    3.99    3.60    46.79061    39.97904    54.92859
   308  C   4.0   -0.04    3.03    3.02    46.88090    42.36516    53.37649
   309  C   4.0   -0.09    3.03    3.02    47.34355    44.69228    54.50609
   310  C   4.0   -0.10    3.03    3.02    46.45342    42.27565    50.78719
   311  C   4.0   -0.10    3.03    3.02    47.34754    46.88566    53.08078
   312  C   4.0   -0.11    3.03    3.02    46.47987    44.46538    49.35199
   313  C   4.0   -0.10    3.03    3.02    46.90957    46.77445    50.50373
   314  H   1.0    0.28    1.00    1.43    45.96622    42.19971    59.12336
   315  H   1.0    0.13    0.99    1.43    42.70756    40.37651    55.19731
   316  H   1.0    0.12    0.99    1.43    48.33128    39.91790    56.29756
   317  H   1.0    0.10    0.99    1.43    46.95261    38.34238    53.68336
   318  H   1.0    0.14    1.00    1.43    47.75657    44.78396    56.49861
   319  H   1.0    0.10    0.99    1.43    46.10871    40.47480    49.88344
   320  H   1.0    0.13    1.00    1.43    47.72949    48.68614    53.95730
   321  H   1.0    0.10    0.99    1.43    46.17021    44.36837    47.33281
   322  H   1.0    0.11    1.00    1.43    46.92148    48.48412    49.39312
   323  N   5.0   -0.48    3.01    1.93    45.28171    36.02096    58.83560
   324  C   4.0    0.08    4.01    3.63    45.05479    33.35078    59.42688
   325  C   4.0    0.31    3.01    3.02    42.34147    32.76326    60.22759
   326  O   6.0   -0.43    1.00    1.80    41.08868    31.08583    59.23399
   327  C   4.0   -0.10    3.98    3.58    46.90683    32.50894    61.45694
   328  C   4.0    0.31    2.99    3.02    47.12863    29.56401    61.27345
   329  O   6.0   -0.39    1.00    1.80    48.31947    28.71069    59.44736
   330  O   6.0   -0.45    1.00    1.80    46.07321    28.30385    62.96411
   331  H   1.0    0.28    1.00    1.43    46.64047    37.05133    59.70202
   332  H   1.0    0.14    0.99    1.43    45.41746    32.26804    57.68687
   333  H   1.0    0.13    0.99    1.43    48.75719    33.33675    61.08089
   334  H   1.0    0.13    0.99    1.43    46.25458    33.06680    63.32756
   335  N   5.0   -0.48    3.01    1.93    41.50935    34.14474    62.16521
   336  C   4.0    0.07    3.99    3.61    39.03576    33.77096    63.27949
   337  C   4.0    0.30    3.01    3.02    36.94563    33.88934    61.28449
   338  O   6.0   -0.44    1.00    1.80    35.21670    32.34496    61.25240
   339  C   4.0   -0.21    3.99    3.60    38.56479    35.77789    65.28963
   340  H   1.0    0.30    1.00    1.43    42.53982    35.63301    62.80112
   341  H   1.0    0.11    0.99    1.43    38.96147    31.86795    64.10434
   342  H   1.0    0.11    0.99    1.43    36.66171    35.60381    66.03741
   343  H   1.0    0.11    0.99    1.43    39.92282    35.57585    66.81419
   344  H   1.0    0.14    0.99    1.43    38.78037    37.64205    64.45537
   345  N   5.0   -0.48    3.01    1.93    37.11839    35.85004    59.71615
   346  C   4.0    0.09    4.02    3.66    35.34363    36.26498    57.67724
   347  C   4.0    0.31    3.02    3.02    34.95907    33.80441    56.21056
   348  O   6.0   -0.42    1.00    1.80    32.84495    32.94018    55.82177
   349  C   4.0   -0.11    3.98    3.59    36.32795    38.37624    55.98244
   350  S   6.0   -0.17    2.02    3.10    33.98222    39.43967    53.70727
   351  H   1.0    0.31    1.00    1.43    38.58444    37.07912    59.83611
   352  H   1.0    0.13    0.99    1.43    33.48881    36.80274    58.44618
   353  H   1.0    0.14    0.99    1.43    36.81781    40.00973    57.13777
   354  H   1.0    0.15    0.99    1.43    37.98333    37.75338    54.93154
   355  H   1.0    0.19    1.00    1.43    34.49201    37.72905    51.95486
   356  N   5.0   -0.46    3.01    1.93    37.07887    32.62713    55.51342
   357  C   4.0    0.10    4.00    3.62    36.93815    30.50287    53.80158
   358  C   4.0    0.28    3.01    3.02    36.07027    28.10597    55.16842
   359  O   6.0   -0.38    1.00    1.80    34.90901    26.43739    54.05947
   360  C   4.0   -0.13    3.98    3.59    39.44265    30.04349    52.44787
   361  C   4.0   -0.11    3.98    3.58    40.44677    32.36834    51.04566
   362  C   4.0    0.31    2.99    3.02    38.44804    33.85652    49.50439
   363  O   6.0   -0.41    1.00    1.80    36.74623    34.97498    50.68106
   364  O   6.0   -0.47    1.00    1.80    38.73871    33.90560    47.15171
   365  H   1.0    0.29    1.00    1.43    38.76677    33.49059    55.73482
   366  H   1.0    0.17    0.99    1.43    35.46639    30.90914    52.38960
   367  H   1.0    0.13    0.99    1.43    40.85063    29.44751    53.83966
   368  H   1.0    0.13    0.99    1.43    39.13918    28.50201    51.10954
   369  H   1.0    0.14    0.99    1.43    41.24805    33.70344    52.40072
   370  H   1.0    0.11    0.99    1.43    41.93277    31.77782    49.74749
   371  N   5.0   -0.48    3.01    1.93    36.66299    27.98855    57.62071
   372  C   4.0    0.08    3.99    3.61    35.64900    26.05504    59.25841
   373  C   4.0    0.29    3.01    3.02    32.75288    26.22179    59.50693
   374  O   6.0   -0.39    1.00    1.80    31.56251    24.46631    60.42062
   375  C   4.0   -0.15    3.99    3.60    36.66534    26.33095    61.95577
   376  C   4.0   -0.14    3.98    3.59    39.53667    26.21891    62.21407
   377  C   4.0   -0.03    3.98    3.59    40.65894    23.56928    62.03280
   378  N   5.0   -0.46    3.02    1.93    43.29580    23.76545    62.74806
   379  C   4.0    0.39    3.00    3.02    44.70666    21.99320    63.79969
   380  N   5.0   -0.63    3.01    1.93    43.86388    19.63939    64.13620
   381  N   5.0   -0.63    3.02    1.93    46.97696    22.65789    64.66938
   382  H   1.0    0.30    1.00    1.43    37.67472    29.41497    58.39870
   383  H   1.0    0.14    0.99    1.43    36.08131    24.19435    58.45899
   384  H   1.0    0.13    0.99    1.43    36.02064    28.17555    62.61870
   385  H   1.0    0.12    0.99    1.43    35.77899    24.84244    63.07456
   386  H   1.0    0.16    0.99    1.43    40.40761    27.41821    60.78763
   387  H   1.0    0.12    0.99    1.43    40.06621    26.99495    64.05110
   388  H   1.0    0.13    0.99    1.43    39.67223    22.31065    63.34024
   389  H   1.0    0.13    0.99    1.43    40.46631    22.83794    60.10618
   390  H   1.0    0.30    1.00    1.43    44.12761    25.50817    62.54655
   391  H   1.0    0.28    1.00    1.43    42.25760    19.06515    63.29615
   392  H   1.0    0.29    1.00    1.43    44.99826    18.31371    64.89446
   393  H   1.0    0.31    1.00    1.43    47.56131    24.44426    64.33137
   394  H   1.0    0.29    1.00    1.43    48.24864    21.36522    65.23911
   395  N   5.0   -0.47    3.01    1.93    31.74963    28.45802    58.90206
   396  C   4.0    0.08    3.99    3.60    29.08801    29.06009    59.13523
   397  C   4.0    0.29    3.01    3.02    28.28664    29.04873    61.91022
   398  O   6.0   -0.45    1.00    1.80    26.09229    28.76410    62.57905
   399  C   4.0   -0.12    3.98    3.59    27.47337    27.27171    57.51421
   400  C   4.0   -0.14    3.98    3.58    24.76032    28.18608    57.17559
   401  C   4.0   -0.03    3.99    3.60    23.33049    26.44341    55.35529
   402  N   5.0   -0.47    3.02    1.93    20.64790    27.00680    55.25754
   403  C   4.0    0.39    3.00    3.02    19.57763    28.87597    53.95757
   404  N   5.0   -0.62    3.02    1.93    20.93963    30.41460    52.51908
   405  N   5.0   -0.63    3.02    1.93    17.07838    29.15639    54.05178
   406  H   1.0    0.31    1.00    1.43    32.83371    29.79262    58.07794
   407  H   1.0    0.13    0.99    1.43    28.87157    30.99689    58.43298
   408  H   1.0    0.14    0.99    1.43    28.41456    27.11811    55.68292
   409  H   1.0    0.16    0.99    1.43    27.49745    25.40422    58.38490
   410  H   1.0    0.15    0.99    1.43    23.83144    28.16864    59.01170
   411  H   1.0    0.12    0.99    1.43    24.78187    30.12550    56.47368
   412  H   1.0    0.13    0.99    1.43    24.14209    26.54876    53.46093
   413  H   1.0    0.13    0.99    1.43    23.52339    24.49450    55.99448
   414  H   1.0    0.25    1.00    1.43    19.53088    25.97683    56.41004
   415  H   1.0    0.27    1.00    1.43    22.84025    30.34867    52.53292
   416  H   1.0    0.29    1.00    1.43    20.10901    31.84276    51.57760
   417  H   1.0    0.29    1.00    1.43    15.97740    27.96447    55.04571
   418  H   1.0    0.29    1.00    1.43    16.22222    30.55547    53.09039
   419  N   5.0   -0.47    3.01    1.93    30.14562    29.42006    63.59697
   420  C   4.0    0.07    4.00    3.61    29.62125    29.19414    66.28795
   421  C   4.0    0.28    3.01    3.02    29.01008    31.85765    67.26258
   422  O   6.0   -0.47    1.00    1.80    30.46743    33.24222    68.40536
   423  C   4.0   -0.13    3.98    3.58    31.69160    27.66867    67.63406
   424  C   4.0   -0.14    3.98    3.58    33.93925    29.19253    68.63178
   425  C   4.0   -0.05    3.98    3.59    36.38427    27.66407    68.82751
   426  N   5.0   -0.47    3.01    1.93    36.07569    25.37961    70.32001
   427  C   4.0    0.38    3.00    3.02    37.85309    24.22569    71.67351
   428  N   5.0   -0.63    3.01    1.93    40.14546    25.21118    71.96721
   429  N   5.0   -0.63    3.02    1.93    37.34702    21.98182    72.70305
   430  H   1.0    0.28    1.00    1.43    31.88587    29.95745    63.01675
   431  H   1.0    0.15    0.99    1.43    27.86007    28.10174    66.38142
   432  H   1.0    0.12    0.99    1.43    30.77922    26.69830    69.20278
   433  H   1.0    0.13    0.99    1.43    32.31965    26.26766    66.25283
   434  H   1.0    0.12    0.99    1.43    34.31776    30.76957    67.36489
   435  H   1.0    0.12    0.99    1.43    33.46070    29.97078    70.47449
   436  H   1.0    0.10    0.99    1.43    36.99930    27.13839    66.92863
   437  H   1.0    0.10    0.99    1.43    37.79648    28.89011    69.69103
   438  H   1.0    0.24    1.00    1.43    34.44425    24.43646    70.00788
   439  H   1.0    0.26    1.00    1.43    40.54218    26.98975    71.41576
   440  H   1.0    0.28    1.00    1.43    41.38897    24.38913    73.15248
   441  H   1.0    0.28    1.00    1.43    35.67188    21.11530    72.45138
   442  H   1.0    0.29    1.00    1.43    38.63194    21.10334    73.79849
   443  N   5.0   -0.48    3.01    1.93    26.64206    32.56820    66.68084
   444  C   4.0    0.07    3.99    3.60    25.78651    35.14779    67.03409
   445  C   4.0    0.09    3.00    3.02    26.42341    36.14267    69.66326
   446  O   6.0   -0.41    1.00    1.80    27.01347    38.36635    69.97240
   447  C   4.0   -0.12    3.99    3.60    22.90975    35.33271    66.61499
   448  C   4.0   -0.03    3.03    3.02    22.25576    35.35769    63.84544
   449  C   4.0   -0.08    3.03    3.02    21.61280    33.15776    62.56440
   450  C   4.0   -0.09    3.03    3.02    22.29467    37.62105    62.51351
   451  C   4.0   -0.06    3.03    3.02    21.00940    33.21895    60.02642
   452  C   4.0   -0.09    3.02    3.02    21.69621    37.70414    59.97246
   453  C   4.0    0.11    3.03    3.02    21.04299    35.49430    58.70912
   454  O   6.0   -0.44    1.99    1.83    20.42780    35.45716    56.21588
   455  H   1.0    0.27    1.00    1.43    25.61686    31.47954    65.47156
   456  H   1.0    0.13    0.99    1.43    26.73432    36.42399    65.69164
   457  H   1.0    0.13    0.99    1.43    21.98414    33.75726    67.56617
   458  H   1.0    0.13    0.99    1.43    22.25329    37.08604    67.48147
   459  H   1.0    0.14    1.00    1.43    21.55426    31.37381    63.54950
   460  H   1.0    0.12    0.99    1.43    22.77941    39.35609    63.47551
   461  H   1.0    0.15    1.00    1.43    20.48038    31.52147    59.03928
   462  H   1.0    0.12    0.99    1.43    21.71830    39.49426    58.98672
   463  H   1.0    0.26    0.99    1.43    20.43479    37.15277    55.53846
   464  N   5.0   -0.68    3.00    1.93    31.19095    35.59963    73.16578
   465  C   4.0    0.08    3.98    3.59    33.74492    36.58633    73.32821
   466  C   4.0    0.29    3.01    3.02    33.94815    39.16278    72.03143
   467  O   6.0   -0.45    1.00    1.80    35.19374    40.89070    72.93692
   468  C   4.0   -0.22    3.98    3.59    35.60731    34.71410    72.18556
   469  H   1.0    0.31    1.00    1.43    30.84456    34.31517    71.77834
   470  H   1.0    0.13    0.99    1.43    34.18322    36.90566    75.32647
   471  H   1.0    0.10    0.99    1.43    37.49304    35.52497    72.22321
   472  H   1.0    0.11    0.99    1.43    35.58912    32.98523    73.29398
   473  H   1.0    0.12    0.99    1.43    35.07927    34.33135    70.24120
   474  N   5.0   -0.47    3.01    1.93    32.69798    39.37324    69.83986
   475  C   4.0    0.07    3.99    3.60    32.36137    41.83047    68.65857
   476  C   4.0    0.10    3.00    3.02    31.40430    43.67910    70.67378
   477  O   6.0   -0.41    1.00    1.80    32.45847    45.69634    71.10946
   478  C   4.0   -0.14    3.99    3.60    30.50698    41.62707    66.45162
   479  C   4.0   -0.10    3.98    3.58    29.53098    44.19172    65.52509
   480  C   4.0   -0.22    3.98    3.59    31.65009    45.76534    64.36878
   481  C   4.0   -0.22    3.98    3.59    27.40985    43.78885    63.61056
   482  H   1.0    0.28    1.00    1.43    31.59206    37.93778    69.23343
   483  H   1.0    0.12    0.99    1.43    34.20424    42.53733    68.02870
   484  H   1.0    0.11    0.99    1.43    31.43478    40.65522    64.88770
   485  H   1.0    0.15    0.99    1.43    28.88970    40.51431    67.08143
   486  H   1.0    0.14    0.99    1.43    28.76164    45.23792    67.13867
   487  H   1.0    0.11    0.99    1.43    30.90391    47.53424    63.63414
   488  H   1.0    0.11    0.99    1.43    33.07625    46.24339    65.77011
   489  H   1.0    0.11    0.99    1.43    32.56070    44.75633    62.82745
   490  H   1.0    0.11    0.99    1.43    26.70481    45.60111    62.95043
   491  H   1.0    0.11    0.99    1.43    28.10211    42.73486    61.99003
   492  H   1.0    0.11    0.99    1.43    25.85306    42.76592    64.47639
   493  N   5.0   -0.67    3.00    1.93    36.21092    45.70404    75.43457
   494  C   4.0    0.09    3.98    3.59    37.88898    47.59259    74.37850
   495  C   4.0    0.10    3.00    3.02    36.65593    50.20729    74.38810
   496  O   6.0   -0.37    1.00    1.80    37.71936    52.03297    75.36270
   497  C   4.0   -0.08    3.98    3.59    38.70248    46.82623    71.70322
   498  C   4.0   -0.22    3.98    3.59    40.12322    48.97723    70.40744
   499  C   4.0   -0.22    3.98    3.59    40.35252    44.46399    71.82797
   500  H   1.0    0.33    1.00    1.43    35.67106    44.24968    74.30446
   501  H   1.0    0.13    0.99    1.43    39.56816    47.74965    75.59630
   502  H   1.0    0.14    0.99    1.43    36.98420    46.42084    70.62483
   503  H   1.0    0.10    0.99    1.43    40.88511    48.34641    68.60537
   504  H   1.0    0.12    0.99    1.43    38.91000    50.59773    70.03042
   505  H   1.0    0.12    0.99    1.43    41.68820    49.62955    71.57193
   506  H   1.0    0.10    0.99    1.43    40.96573    43.95815    69.93631
   507  H   1.0    0.10    0.99    1.43    42.01471    44.83164    72.97906
   508  H   1.0    0.13    0.99    1.43    39.30729    42.89059    72.62870
   509  N   5.0   -0.70    3.00    1.93    55.46453    28.97173    71.63600
   510  C   4.0    0.08    3.98    3.58    54.00562    28.38765    69.39822
   511  C   4.0    0.10    3.00    3.02    55.67652    27.55458    67.19318
   512  O   6.0   -0.38    1.00    1.80    54.97293    25.92324    65.71165
   513  C   4.0    0.05    3.98    3.58    52.34955    30.62218    68.49425
   514  O   6.0   -0.47    1.99    1.82    53.77845    32.63920    67.53767
   515  C   4.0   -0.21    3.98    3.58    50.51582    31.47706    70.56333
   516  H   1.0    0.27    1.00    1.43    54.98581    30.49627    72.68876
   517  H   1.0    0.12    0.99    1.43    52.73494    26.78818    69.78965
   518  H   1.0    0.14    0.99    1.43    51.24020    29.91231    66.88295
   519  H   1.0    0.26    0.99    1.43    55.11490    33.08766    68.75069
   520  H   1.0    0.11    0.99    1.43    49.28051    32.92183    69.78508
   521  H   1.0    0.11    0.99    1.43    49.35824    29.89529    71.16470
   522  H   1.0    0.11    0.99    1.43    51.51614    32.24654    72.18425
   523  H   1.0    0.31    1.00    1.43    38.17902    60.13676    53.78099
   524  H   1.0    0.15    1.00    1.43    33.40930    54.17390    49.46471
   525  H   1.0    0.31    1.00    1.43    36.47644    56.49273    45.52934
   526  H   1.0    0.16    1.00    1.43    36.98004    47.90297    44.14129
   527  H   1.0    0.31    1.00    1.43    42.11838    50.62573    37.59040
   528  H   1.0    0.16    1.00    1.43    38.89658    42.92562    33.92551
   529  H   1.0    0.34    1.00    1.43    59.75145    36.66823    40.47429
   530  H   1.0    0.16    1.00    1.43    60.31343    38.07712    51.35581
   531  H   1.0    0.31    1.00    1.43    60.65597    42.48118    47.66414
   532  H   1.0    0.16    1.00    1.43    57.70906    45.07124    55.88151
   533  H   1.0    0.32    1.00    1.43    58.44363    52.54670    51.81542
   534  H   1.0    0.16    1.00    1.43    54.55209    53.37315    57.22052
   535  H   1.0    0.30    1.00    1.43    51.90798    48.21122    70.70290
   536  H   1.0    0.16    1.00    1.43    26.36257    34.98179    71.15313
   537  H   1.0    0.31    1.00    1.43    30.78940    34.82091    74.62350
   538  H   1.0    0.17    1.00    1.43    29.86728    43.25743    71.68908
   539  H   1.0    0.31    1.00    1.43    36.95515    44.96976    76.77603
   540  H   1.0    0.16    1.00    1.43    34.95899    50.45462    73.59419
   541  H   1.0    0.32    1.00    1.43    55.38584    27.66524    72.72203
   542  H   1.0    0.16    1.00    1.43    57.37456    28.34527    66.94309

           ------------------------------------------------- 
          |        Self-Consistent Charge Iterations        |
           ------------------------------------------------- 

          ...................................................
          :                      SETUP                      :
          :.................................................:
          :  # basis functions                1337          :
          :  # atomic orbitals                1335          :
          :  # shells                          805          :
          :  # electrons                      1452          :
          :  max. iterations                   250          :
          :  Hamiltonian                  GFN2-xTB          :
          :  restarted?                      false          :
          :  GBSA solvation                   true          :
          :  PC potential                    false          :
          :  electronic temp.          500.0000000     K    :
          :  accuracy                    0.1000000          :
          :  -> integral cutoff          0.3500000E+02      :
          :  -> integral neglect         0.1000000E-08      :
          :  -> SCF convergence          0.1000000E-06 Eh   :
          :  -> wf. convergence          0.1000000E-04 e    :
          :  Broyden damping             0.4000000          :
          ...................................................

 iter      E             dE          RMSdq      gap      omega  full diag
   1   -826.0754839 -0.826075E+03  0.419E+00    1.79       0.0  T
   2   -827.7510144 -0.167553E+01  0.226E+00    1.45       1.0  T
   3   -827.8184886 -0.674742E-01  0.116E+00    1.89       1.0  T
   4   -827.8711460 -0.526575E-01  0.292E-01    1.40       1.0  T
   5   -827.8940192 -0.228731E-01  0.125E-01    1.51       1.0  T
   6   -827.8954308 -0.141164E-02  0.618E-02    1.53       1.0  T
   7   -827.8958627 -0.431891E-03  0.319E-02    1.53       1.0  T
   8   -827.8959856 -0.122906E-03  0.127E-02    1.54       1.0  T
   9   -827.8960046 -0.190292E-04  0.691E-03    1.54       1.0  T
  10   -827.8960115 -0.689172E-05  0.354E-03    1.53       1.2  T
  11   -827.8960131 -0.159791E-05  0.171E-03    1.53       2.5  T
  12   -827.8960136 -0.449902E-06  0.780E-04    1.53       5.5  T
  13   -827.8960136 -0.593333E-07  0.405E-04    1.53      10.6  T
  14   -827.8960137 -0.170020E-07  0.188E-04    1.53      22.9  T
  15   -827.8960137 -0.430180E-08  0.820E-05    1.53      52.4  T
  16   -827.8960137 -0.510568E-09  0.393E-05    1.53     109.4  T

   *** convergence criteria satisfied after 16 iterations ***

         #    Occupation            Energy/Eh            Energy/eV
      -------------------------------------------------------------
         1        2.0000           -0.7339014             -19.9705
       ...           ...                  ...                  ...
       720        2.0000           -0.3655258              -9.9465
       721        2.0000           -0.3638583              -9.9011
       722        2.0000           -0.3611116              -9.8263
       723        2.0000           -0.3593322              -9.7779
       724        2.0000           -0.3552606              -9.6671
       725        2.0000           -0.3490801              -9.4990
       726        2.0000           -0.3483820              -9.4800 (HOMO)
       727                         -0.2921174              -7.9489 (LUMO)
       728                         -0.2908328              -7.9140
       729                         -0.2880802              -7.8391
       730                         -0.2865958              -7.7987
       731                         -0.2854858              -7.7685
       ...                                ...                  ...
      1335                          0.7198667              19.5886
      -------------------------------------------------------------
                  HL-Gap            0.0562646 Eh            1.5310 eV
             Fermi-level           -0.3202114 Eh           -8.7134 eV

 SCC (total)                   0 d,  0 h,  0 min, 34.474 sec
 SCC setup                      ...        0 min,  0.285 sec (  0.826%)
 Dispersion                     ...        0 min,  0.393 sec (  1.139%)
 integral evaluation            ...        0 min,  1.052 sec (  3.051%)
 zeroth order Hamiltonian       ...        0 min,  0.012 sec (  0.034%)
 iterations                     ...        0 min, 26.005 sec ( 75.433%)
 molecular gradient             ...        0 min,  6.504 sec ( 18.866%)
 printout                       ...        0 min,  0.225 sec (  0.651%)

         :::::::::::::::::::::::::::::::::::::::::::::::::::::
         ::                     SUMMARY                     ::
         :::::::::::::::::::::::::::::::::::::::::::::::::::::
         :: total energy             -817.203200419806 Eh   ::
         :: total w/o Gsasa/hb       -817.084697626030 Eh   ::
         :: gradient norm               0.704874308747 Eh/α ::
         :: HOMO-LUMO gap               1.531037117203 eV   ::
         ::.................................................::
         :: SCC energy               -827.931534696343 Eh   ::
         :: -> isotropic ES             2.472390459760 Eh   ::
         :: -> anisotropic ES          -0.146873125762 Eh   ::
         :: -> anisotropic XC           0.322228150637 Eh   ::
         :: -> dispersion              -0.708205751494 Eh   ::
         :: -> Gsolv                   -0.897079681281 Eh   ::
         ::    -> Gborn                -0.778576887505 Eh   ::
         ::    -> Gsasa                -0.037378483726 Eh   ::
         ::    -> Ghb                  -0.082981753177 Eh   ::
         ::    -> Gshift                0.001857443127 Eh   ::
         :: repulsion energy           10.660782475103 Eh   ::
         :: add. restraining            0.000000000000 Eh   ::
         :::::::::::::::::::::::::::::::::::::::::::::::::::::

           -------------------------------------------------
          |                Property Printout                |
           -------------------------------------------------

    * Orbital Energies and Occupations

         #    Occupation            Energy/Eh            Energy/eV
      -------------------------------------------------------------
         1        2.0000           -0.7339014             -19.9705
       ...           ...                  ...                  ...
       714        2.0000           -0.3746477             -10.1947
       715        2.0000           -0.3746087             -10.1936
       716        2.0000           -0.3716531             -10.1132
       717        2.0000           -0.3689684             -10.0401
       718        2.0000           -0.3687760             -10.0349
       719        2.0000           -0.3674300              -9.9983
       720        2.0000           -0.3655258              -9.9465
       721        2.0000           -0.3638583              -9.9011
       722        2.0000           -0.3611116              -9.8263
       723        2.0000           -0.3593322              -9.7779
       724        2.0000           -0.3552606              -9.6671
       725        2.0000           -0.3490801              -9.4990
       726        2.0000           -0.3483820              -9.4800 (HOMO)
       727                         -0.2921174              -7.9489 (LUMO)
       728                         -0.2908328              -7.9140
       729                         -0.2880802              -7.8391
       730                         -0.2865958              -7.7987
       731                         -0.2854858              -7.7685
       732                         -0.2838436              -7.7238
       733                         -0.2830583              -7.7024
       734                         -0.2827728              -7.6946
       735                         -0.2764552              -7.5227
       736                         -0.2740313              -7.4568
       737                         -0.2445298              -6.6540
       ...                                ...                  ...
      1335                          0.7198667              19.5886
      -------------------------------------------------------------
                  HL-Gap            0.0562646 Eh            1.5310 eV
             Fermi-level           -0.3202114 Eh           -8.7134 eV

   #   Z        covCN         q      C6AA      α(0)
   1   7 N      2.637    -0.398    30.323     8.178
   2   6 C      3.786     0.025    20.161     6.395
   3   6 C      2.757     0.265    22.533     7.773
   4   8 O      0.858    -0.489    23.546     6.506
   5   6 C      3.808    -0.090    22.217     6.710
   6   6 C      3.804    -0.086    22.130     6.697
   7   6 C      3.739    -0.032    21.228     6.574
   8   7 N      2.703    -0.137    23.975     7.272
   9   6 C      2.735     0.226    23.246     7.894
  10   7 N      2.647    -0.231    26.069     7.583
  11   7 N      2.655    -0.253    26.570     7.656
  12   1 H      0.860     0.174     1.251     1.752
  13   1 H      0.923     0.041     2.442     2.444
  14   1 H      0.924     0.074     2.041     2.234
  15   1 H      0.925     0.067     2.121     2.277
  16   1 H      0.924     0.061     2.184     2.311
  17   1 H      0.924     0.065     2.137     2.286
  18   1 H      0.924     0.095     1.834     2.118
  19   1 H      0.924     0.086     1.915     2.164
  20   1 H      0.860     0.230     0.965     1.539
  21   1 H      0.859     0.251     0.880     1.470
  22   1 H      0.860     0.238     0.933     1.513
  23   1 H      0.860     0.241     0.920     1.503
  24   1 H      0.860     0.245     0.904     1.489
  25   7 N      2.690    -0.163    24.528     7.356
  26   6 C      3.795     0.026    20.135     6.390
  27   6 C      2.767     0.206    23.617     7.959
  28   8 O      0.856    -0.362    20.937     6.135
  29   6 C      3.813    -0.084    22.100     6.691
  30   6 C      2.970     0.008    27.827     8.653
  31   6 C      2.924    -0.038    28.957     8.825
  32   6 C      2.925    -0.045    29.108     8.848
  33   6 C      2.918    -0.031    28.766     8.795
  34   6 C      2.918    -0.033    28.826     8.804
  35   6 C      2.921    -0.034    28.846     8.807
  36   1 H      0.860     0.228     0.973     1.545
  37   1 H      0.923     0.086     1.917     2.165
  38   1 H      0.924     0.088     1.899     2.155
  39   1 H      0.924     0.073     2.053     2.241
  40   1 H      0.926     0.047     2.359     2.402
  41   1 H      0.926     0.037     2.494     2.470
  42   1 H      0.926     0.038     2.473     2.459
  43   1 H      0.926     0.030     2.589     2.516
  44   1 H      0.926     0.031     2.566     2.505
  45   7 N      2.636    -0.388    30.043     8.140
  46   6 C      3.787     0.039    19.928     6.358
  47   6 C      2.760     0.271    22.418     7.754
  48   8 O      0.859    -0.507    23.932     6.559
  49   6 C      3.810    -0.076    21.950     6.669
  50   6 C      2.965     0.001    28.003     8.680
  51   6 C      2.926    -0.036    28.900     8.816
  52   6 C      2.928    -0.045    29.130     8.851
  53   6 C      2.920    -0.056    29.389     8.890
  54   6 C      2.917    -0.075    29.884     8.964
  55   6 C      2.846     0.144    24.858     8.171
  56   8 O      1.658    -0.447    21.783     6.300
  57   1 H      0.860     0.159     1.340     1.814
  58   1 H      0.924     0.032     2.557     2.501
  59   1 H      0.924     0.059     2.211     2.325
  60   1 H      0.924     0.067     2.119     2.276
  61   1 H      0.926     0.030     2.585     2.514
  62   1 H      0.926     0.053     2.278     2.360
  63   1 H      0.926     0.034     2.527     2.486
  64   1 H      0.926     0.040     2.445     2.445
  65   1 H      0.803     0.348     0.594     1.211
  66   7 N      2.689    -0.170    24.678     7.378
  67   6 C      3.796     0.042    19.871     6.347
  68   6 C      2.767     0.215    23.456     7.932
  69   8 O      0.856    -0.372    21.130     6.163
  70   6 C      3.811    -0.078    21.984     6.674
  71   6 C      2.970    -0.005    28.138     8.701
  72   6 C      2.925    -0.045    29.120     8.849
  73   6 C      2.925    -0.043    29.065     8.841
  74   6 C      2.918    -0.067    29.660     8.931
  75   6 C      2.920    -0.061    29.523     8.910
  76   6 C      2.844     0.156    24.625     8.133
  77   8 O      1.655    -0.454    21.936     6.322
  78   1 H      0.860     0.246     0.898     1.485
  79   1 H      0.923     0.063     2.160     2.298
  80   1 H      0.924     0.068     2.111     2.272
  81   1 H      0.925     0.088     1.903     2.157
  82   1 H      0.926     0.030     2.579     2.511
  83   1 H      0.926     0.051     2.302     2.372
  84   1 H      0.925     0.017     2.783     2.609
  85   1 H      0.926     0.040     2.446     2.446
  86   1 H      0.801     0.333     0.630     1.247
  87   7 N      2.635    -0.416    30.831     8.247
  88   6 C      3.786     0.042    19.882     6.351
  89   6 C      2.759     0.267    22.492     7.766
  90   8 O      0.858    -0.530    24.466     6.632
  91   6 C      3.810    -0.058    21.609     6.617
  92   6 C      3.849    -0.002    20.578     6.452
  93   6 C      3.759    -0.104    22.529     6.767
  94   6 C      3.756    -0.106    22.578     6.775
  95   1 H      0.860     0.190     1.161     1.688
  96   1 H      0.923     0.022     2.696     2.568
  97   1 H      0.924     0.040     2.449     2.447
  98   1 H      0.924     0.027     2.626     2.534
  99   1 H      0.924     0.029     2.603     2.523
 100   1 H      0.925     0.036     2.506     2.476
 101   1 H      0.925     0.032     2.559     2.501
 102   1 H      0.925     0.038     2.474     2.459
 103   1 H      0.925     0.042     2.424     2.435
 104   1 H      0.925     0.035     2.511     2.478
 105   1 H      0.925     0.020     2.727     2.582
 106   7 N      2.689    -0.180    24.896     7.411
 107   6 C      3.795     0.027    20.125     6.388
 108   6 C      2.765     0.204    23.656     7.965
 109   8 O      0.856    -0.361    20.922     6.133
 110   6 C      3.807    -0.075    21.921     6.665
 111   6 C      3.803    -0.079    22.002     6.678
 112   6 C      3.803    -0.087    22.153     6.701
 113   6 C      3.731    -0.047    21.516     6.621
 114   7 N      3.480    -0.141    24.037     7.282
 115   1 H      0.860     0.237     0.934     1.514
 116   1 H      0.924     0.085     1.925     2.170
 117   1 H      0.924     0.066     2.125     2.280
 118   1 H      0.925     0.062     2.177     2.307
 119   1 H      0.925     0.070     2.086     2.259
 120   1 H      0.924     0.057     2.240     2.340
 121   1 H      0.924     0.069     2.096     2.264
 122   1 H      0.924     0.076     2.023     2.224
 123   1 H      0.924     0.119     1.621     1.991
 124   1 H      0.924     0.120     1.612     1.986
 125   1 H      0.859     0.304     0.701     1.312
 126   1 H      0.857     0.288     0.751     1.358
 127   1 H      0.857     0.295     0.728     1.337
 128   7 N      2.635    -0.388    30.051     8.142
 129   6 C      3.783     0.009    20.441     6.440
 130   6 C      2.753     0.271    22.426     7.755
 131   8 O      0.858    -0.491    23.592     6.512
 132   6 C      3.675     0.057    19.840     6.382
 133   8 O      1.653    -0.454    21.936     6.322
 134   1 H      0.860     0.161     1.331     1.807
 135   1 H      0.924     0.053     2.280     2.361
 136   1 H      0.924     0.066     2.129     2.282
 137   1 H      0.924     0.058     2.224     2.332
 138   1 H      0.802     0.313     0.685     1.300
 139   7 N      2.689    -0.184    24.980     7.423
 140   6 C      3.795     0.013    20.364     6.426
 141   6 C      2.753     0.267    22.487     7.765
 142   8 O      0.859    -0.484    23.423     6.489
 143   6 C      3.852    -0.029    21.062     6.527
 144   6 C      3.803    -0.052    21.504     6.602
 145   6 C      3.754    -0.130    23.052     6.846
 146   6 C      3.752    -0.104    22.548     6.772
 147   1 H      0.860     0.210     1.057     1.611
 148   1 H      0.924     0.073     2.051     2.239
 149   1 H      0.924     0.058     2.223     2.332
 150   1 H      0.924     0.033     2.542     2.493
 151   1 H      0.924     0.029     2.595     2.519
 152   1 H      0.925     0.064     2.149     2.292
 153   1 H      0.925     0.056     2.243     2.342
 154   1 H      0.925     0.053     2.280     2.361
 155   1 H      0.925     0.023     2.684     2.562
 156   1 H      0.925     0.048     2.344     2.394
 157   1 H      0.925     0.039     2.463     2.454
 158   7 N      2.688    -0.159    24.446     7.343
 159   6 C      3.791     0.020    20.242     6.407
 160   6 C      2.769     0.202    23.710     7.975
 161   8 O      0.856    -0.354    20.792     6.114
 162   6 C      3.810    -0.086    22.133     6.697
 163   6 C      3.803    -0.086    22.136     6.698
 164   6 C      3.741    -0.031    21.202     6.569
 165   7 N      2.701    -0.139    24.018     7.279
 166   6 C      2.738     0.233    23.115     7.872
 167   7 N      2.651    -0.248    26.469     7.641
 168   7 N      2.653    -0.258    26.698     7.674
 169   1 H      0.860     0.221     1.007     1.572
 170   1 H      0.924     0.094     1.840     2.121
 171   1 H      0.924     0.084     1.937     2.177
 172   1 H      0.924     0.083     1.951     2.184
 173   1 H      0.924     0.073     2.055     2.242
 174   1 H      0.925     0.074     2.046     2.237
 175   1 H      0.924     0.095     1.836     2.119
 176   1 H      0.924     0.086     1.920     2.167
 177   1 H      0.860     0.231     0.962     1.537
 178   1 H      0.860     0.247     0.895     1.482
 179   1 H      0.860     0.250     0.884     1.473
 180   1 H      0.860     0.249     0.887     1.475
 181   1 H      0.860     0.254     0.870     1.461
 182   7 N      2.635    -0.382    29.872     8.117
 183   6 C      3.787     0.032    20.055     6.378
 184   6 C      2.760     0.269    22.458     7.761
 185   8 O      0.859    -0.495    23.672     6.523
 186   6 C      3.832    -0.060    21.628     6.617
 187   6 C      3.795    -0.008    20.725     6.483
 188  16 S      1.965    -0.243   151.454    20.713
 189   6 C      3.745    -0.050    21.549     6.622
 190   1 H      0.860     0.151     1.396     1.851
 191   1 H      0.924     0.032     2.554     2.499
 192   1 H      0.924     0.055     2.262     2.352
 193   1 H      0.924     0.041     2.438     2.442
 194   1 H      0.925     0.047     2.358     2.401
 195   1 H      0.925     0.062     2.176     2.307
 196   1 H      0.925     0.053     2.277     2.360
 197   1 H      0.925     0.070     2.090     2.261
 198   1 H      0.925     0.047     2.356     2.401
 199   7 N      2.693    -0.173    24.745     7.388
 200   6 C      3.792     0.034    20.003     6.369
 201   6 C      2.766     0.205    23.652     7.965
 202   8 O      0.856    -0.356    20.824     6.118
 203   6 C      3.758    -0.128    23.018     6.840
 204   1 H      0.860     0.232     0.957     1.532
 205   1 H      0.923     0.069     2.099     2.266
 206   1 H      0.925     0.071     2.079     2.255
 207   1 H      0.925     0.073     2.054     2.241
 208   1 H      0.925     0.080     1.976     2.198
 209   7 N      2.635    -0.391    30.125     8.152
 210   6 C      3.779     0.030    20.091     6.386
 211   6 C      2.766     0.207    23.611     7.958
 212   8 O      0.856    -0.372    21.121     6.162
 213   6 C      3.678     0.074    19.559     6.335
 214   8 O      1.656    -0.455    21.947     6.324
 215   1 H      0.860     0.177     1.229     1.736
 216   1 H      0.924     0.040     2.446     2.446
 217   1 H      0.924     0.025     2.662     2.552
 218   1 H      0.924     0.070     2.083     2.257
 219   1 H      0.805     0.314     0.681     1.296
 220   7 N      2.634    -0.391    30.136     8.153
 221   6 C      3.787     0.022    20.216     6.404
 222   6 C      2.764     0.256    22.700     7.803
 223   8 O      0.859    -0.483    23.404     6.486
 224   6 C      3.809    -0.081    22.040     6.683
 225   6 C      3.052    -0.032    28.746     8.793
 226   6 C      3.038    -0.009    28.194     8.709
 227   6 C      3.119    -0.022    28.378     8.725
 228   7 N      2.779    -0.110    23.396     7.184
 229   6 C      3.087     0.046    26.862     8.496
 230   6 C      2.912    -0.048    29.191     8.860
 231   6 C      2.909    -0.053    29.322     8.879
 232   6 C      2.920    -0.048    29.183     8.859
 233   6 C      2.922    -0.040    28.991     8.830
 234   1 H      0.860     0.167     1.289     1.778
 235   1 H      0.924     0.049     2.336     2.390
 236   1 H      0.925     0.070     2.084     2.258
 237   1 H      0.924     0.071     2.075     2.253
 238   1 H      0.926     0.044     2.401     2.423
 239   1 H      0.860     0.177     1.230     1.737
 240   1 H      0.926     0.043     2.414     2.430
 241   1 H      0.926     0.013     2.848     2.639
 242   1 H      0.926     0.023     2.692     2.566
 243   1 H      0.926     0.009     2.902     2.664
 244   7 N      2.686    -0.158    24.428     7.341
 245   6 C      3.752    -0.047    21.477     6.609
 246   6 C      2.756     0.274    22.361     7.744
 247   8 O      0.858    -0.484    23.436     6.491
 248   1 H      0.860     0.233     0.954     1.530
 249   1 H      0.924     0.105     1.743     2.064
 250   1 H      0.925     0.104     1.751     2.069
 251   7 N      2.692    -0.181    24.923     7.415
 252   6 C      3.806     0.008    20.444     6.437
 253   6 C      2.758     0.286    22.155     7.708
 254   8 O      0.858    -0.493    23.628     6.517
 255   6 C      3.852    -0.025    20.981     6.515
 256   6 C      3.757    -0.123    22.904     6.823
 257   6 C      3.756    -0.128    23.008     6.839
 258   1 H      0.860     0.220     1.011     1.575
 259   1 H      0.924     0.073     2.058     2.244
 260   1 H      0.924     0.051     2.309     2.376
 261   1 H      0.925     0.064     2.151     2.294
 262   1 H      0.925     0.042     2.419     2.432
 263   1 H      0.925     0.052     2.300     2.372
 264   1 H      0.925     0.063     2.160     2.298
 265   1 H      0.925     0.051     2.302     2.372
 266   1 H      0.925     0.050     2.318     2.381
 267   7 N      2.692    -0.181    24.913     7.413
 268   6 C      3.802     0.020    20.239     6.405
 269   6 C      2.757     0.278    22.298     7.733
 270   8 O      0.859    -0.505    23.902     6.555
 271   6 C      3.853    -0.024    20.968     6.513
 272   6 C      3.757    -0.121    22.874     6.819
 273   6 C      3.756    -0.125    22.945     6.830
 274   1 H      0.860     0.204     1.088     1.634
 275   1 H      0.923     0.066     2.129     2.282
 276   1 H      0.924     0.054     2.276     2.359
 277   1 H      0.925     0.062     2.172     2.305
 278   1 H      0.925     0.038     2.470     2.458
 279   1 H      0.925     0.053     2.283     2.363
 280   1 H      0.925     0.063     2.165     2.301
 281   1 H      0.925     0.055     2.261     2.351
 282   1 H      0.925     0.044     2.390     2.417
 283   7 N      2.692    -0.192    25.173     7.452
 284   6 C      3.803     0.028    20.096     6.382
 285   6 C      2.762     0.289    22.099     7.699
 286   8 O      0.858    -0.505    23.891     6.553
 287   6 C      3.813    -0.093    22.270     6.717
 288   6 C      2.973     0.004    27.933     8.669
 289   6 C      2.924    -0.038    28.951     8.824
 290   6 C      2.925    -0.047    29.177     8.858
 291   6 C      2.918    -0.031    28.786     8.798
 292   6 C      2.919    -0.037    28.918     8.818
 293   6 C      2.922    -0.038    28.937     8.822
 294   1 H      0.860     0.251     0.879     1.468
 295   1 H      0.923     0.066     2.128     2.281
 296   1 H      0.924     0.094     1.840     2.121
 297   1 H      0.924     0.072     2.068     2.249
 298   1 H      0.926     0.017     2.784     2.609
 299   1 H      0.926     0.061     2.189     2.314
 300   1 H      0.926     0.025     2.663     2.552
 301   1 H      0.926     0.060     2.204     2.322
 302   1 H      0.926     0.043     2.404     2.425
 303   7 N      2.693    -0.186    25.024     7.430
 304   6 C      3.802     0.039    19.919     6.354
 305   6 C      2.764     0.283    22.201     7.716
 306   8 O      0.859    -0.516    24.135     6.587
 307   6 C      3.811    -0.075    21.927     6.665
 308   6 C      2.969     0.010    27.798     8.648
 309   6 C      2.924    -0.050    29.235     8.867
 310   6 C      2.924    -0.036    28.905     8.817
 311   6 C      2.918    -0.035    28.883     8.813
 312   6 C      2.918    -0.030    28.739     8.791
 313   6 C      2.921    -0.033    28.819     8.803
 314   1 H      0.860     0.233     0.953     1.529
 315   1 H      0.923     0.054     2.275     2.359
 316   1 H      0.924     0.073     2.055     2.242
 317   1 H      0.924     0.044     2.401     2.423
 318   1 H      0.926     0.071     2.079     2.255
 319   1 H      0.925     0.019     2.754     2.595
 320   1 H      0.926     0.067     2.122     2.278
 321   1 H      0.925     0.020     2.730     2.584
 322   1 H      0.926     0.033     2.550     2.497
 323   7 N      2.690    -0.188    25.080     7.438
 324   6 C      3.808     0.049    19.751     6.326
 325   6 C      2.757     0.284    22.198     7.715
 326   8 O      0.858    -0.505    23.884     6.552
 327   6 C      3.801    -0.107    22.543     6.760
 328   6 C      2.686     0.368    20.763     7.457
 329   8 O      0.856    -0.614    26.471     6.898
 330   8 O      0.856    -0.596    26.026     6.840
 331   1 H      0.860     0.218     1.017     1.580
 332   1 H      0.923     0.044     2.396     2.421
 333   1 H      0.924     0.047     2.361     2.403
 334   1 H      0.925     0.042     2.423     2.434
 335   7 N      2.692    -0.191    25.150     7.448
 336   6 C      3.796     0.024    20.180     6.397
 337   6 C      2.757     0.277    22.322     7.737
 338   8 O      0.858    -0.496    23.707     6.528
 339   6 C      3.758    -0.134    23.123     6.856
 340   1 H      0.860     0.237     0.938     1.517
 341   1 H      0.923     0.084     1.943     2.180
 342   1 H      0.925     0.074     2.042     2.235
 343   1 H      0.925     0.088     1.898     2.154
 344   1 H      0.925     0.062     2.174     2.306
 345   7 N      2.693    -0.192    25.169     7.451
 346   6 C      3.823     0.036    19.944     6.355
 347   6 C      2.762     0.293    22.024     7.685
 348   8 O      0.859    -0.497    23.712     6.529
 349   6 C      3.800    -0.004    20.644     6.469
 350  16 S      1.920    -0.280   153.128    20.827
 351   1 H      0.860     0.227     0.978     1.549
 352   1 H      0.923     0.072     2.065     2.247
 353   1 H      0.925     0.080     1.983     2.202
 354   1 H      0.925     0.045     2.388     2.417
 355   1 H      0.923     0.174     1.239     1.740
 356   7 N      2.690    -0.175    24.779     7.393
 357   6 C      3.802     0.047    19.782     6.332
 358   6 C      2.757     0.269    22.454     7.760
 359   8 O      0.858    -0.504    23.884     6.552
 360   6 C      3.804    -0.053    21.522     6.605
 361   6 C      3.798    -0.093    22.275     6.720
 362   6 C      2.684     0.371    20.714     7.448
 363   8 O      0.856    -0.623    26.694     6.927
 364   8 O      0.856    -0.611    26.402     6.889
 365   1 H      0.860     0.209     1.060     1.613
 366   1 H      0.923     0.050     2.316     2.380
 367   1 H      0.924     0.043     2.410     2.427
 368   1 H      0.924     0.044     2.397     2.421
 369   1 H      0.924     0.033     2.547     2.496
 370   1 H      0.925     0.036     2.503     2.474
 371   7 N      2.689    -0.182    24.941     7.417
 372   6 C      3.796     0.017    20.292     6.415
 373   6 C      2.757     0.274    22.359     7.743
 374   8 O      0.858    -0.475    23.231     6.462
 375   6 C      3.811    -0.084    22.098     6.691
 376   6 C      3.807    -0.086    22.138     6.698
 377   6 C      3.737    -0.024    21.080     6.552
 378   7 N      2.708    -0.151    24.260     7.315
 379   6 C      2.736     0.233    23.122     7.873
 380   7 N      2.648    -0.256    26.655     7.668
 381   7 N      2.656    -0.259    26.724     7.678
 382   1 H      0.860     0.218     1.018     1.581
 383   1 H      0.924     0.079     1.989     2.206
 384   1 H      0.924     0.068     2.109     2.271
 385   1 H      0.924     0.090     1.880     2.144
 386   1 H      0.925     0.062     2.179     2.308
 387   1 H      0.924     0.077     2.008     2.216
 388   1 H      0.924     0.097     1.815     2.107
 389   1 H      0.924     0.065     2.144     2.290
 390   1 H      0.859     0.235     0.944     1.522
 391   1 H      0.860     0.244     0.907     1.491
 392   1 H      0.860     0.255     0.865     1.457
 393   1 H      0.860     0.231     0.962     1.536
 394   1 H      0.860     0.255     0.865     1.457
 395   7 N      2.689    -0.182    24.934     7.416
 396   6 C      3.793     0.022    20.210     6.402
 397   6 C      2.757     0.270    22.432     7.756
 398   8 O      0.859    -0.462    22.954     6.423
 399   6 C      3.805    -0.066    21.760     6.641
 400   6 C      3.802    -0.086    22.146     6.700
 401   6 C      3.739    -0.027    21.128     6.559
 402   7 N      2.700    -0.141    24.064     7.286
 403   6 C      2.736     0.235    23.082     7.866
 404   7 N      2.651    -0.235    26.145     7.594
 405   7 N      2.654    -0.256    26.643     7.666
 406   1 H      0.860     0.196     1.125     1.661
 407   1 H      0.924     0.075     2.026     2.226
 408   1 H      0.924     0.043     2.413     2.429
 409   1 H      0.924     0.070     2.091     2.261
 410   1 H      0.925     0.091     1.865     2.136
 411   1 H      0.924     0.057     2.239     2.340
 412   1 H      0.924     0.076     2.019     2.222
 413   1 H      0.925     0.089     1.889     2.149
 414   1 H      0.860     0.236     0.938     1.517
 415   1 H      0.860     0.239     0.928     1.509
 416   1 H      0.860     0.248     0.889     1.477
 417   1 H      0.860     0.249     0.889     1.477
 418   1 H      0.860     0.252     0.876     1.466
 419   7 N      2.692    -0.176    24.811     7.398
 420   6 C      3.799     0.006    20.479     6.443
 421   6 C      2.755     0.266    22.506     7.769
 422   8 O      0.858    -0.462    22.969     6.426
 423   6 C      3.801    -0.089    22.190     6.707
 424   6 C      3.801    -0.086    22.141     6.699
 425   6 C      3.737    -0.035    21.291     6.585
 426   7 N      2.699    -0.137    23.972     7.272
 427   6 C      2.735     0.230    23.174     7.881
 428   7 N      2.651    -0.247    26.443     7.637
 429   7 N      2.655    -0.257    26.681     7.672
 430   1 H      0.860     0.202     1.095     1.639
 431   1 H      0.924     0.094     1.843     2.123
 432   1 H      0.925     0.079     1.990     2.206
 433   1 H      0.924     0.077     2.014     2.220
 434   1 H      0.925     0.066     2.130     2.282
 435   1 H      0.925     0.082     1.963     2.191
 436   1 H      0.924     0.081     1.966     2.193
 437   1 H      0.925     0.091     1.874     2.141
 438   1 H      0.860     0.230     0.966     1.540
 439   1 H      0.860     0.244     0.905     1.491
 440   1 H      0.860     0.255     0.863     1.455
 441   1 H      0.860     0.248     0.892     1.480
 442   1 H      0.860     0.254     0.867     1.458
 443   7 N      2.692    -0.181    24.928     7.415
 444   6 C      3.792     0.031    20.062     6.379
 445   6 C      2.766     0.203    23.686     7.970
 446   8 O      0.856    -0.366    21.018     6.147
 447   6 C      3.811    -0.077    21.954     6.669
 448   6 C      2.969    -0.004    28.132     8.700
 449   6 C      2.924    -0.044    29.088     8.845
 450   6 C      2.926    -0.041    29.018     8.834
 451   6 C      2.919    -0.064    29.600     8.922
 452   6 C      2.917    -0.075    29.880     8.964
 453   6 C      2.846     0.140    24.941     8.185
 454   8 O      1.660    -0.422    21.276     6.227
 455   1 H      0.860     0.225     0.987     1.556
 456   1 H      0.923     0.076     2.025     2.225
 457   1 H      0.925     0.074     2.045     2.236
 458   1 H      0.924     0.064     2.151     2.294
 459   1 H      0.926     0.058     2.225     2.333
 460   1 H      0.926     0.038     2.478     2.462
 461   1 H      0.926     0.066     2.125     2.280
 462   1 H      0.925     0.041     2.438     2.442
 463   1 H      0.805     0.345     0.600     1.216
 464   7 N      2.635    -0.412    30.708     8.230
 465   6 C      3.786     0.033    20.042     6.377
[...]
   212  O   2.032        C  211 1.903
   213  C   3.955        O  214 1.006    H  217 0.968    H  218 0.962    C  210 0.951
   214  O   1.955        C  213 1.006    H  219 0.887
   215  H   0.969        N  209 0.930
   216  H   0.998        C  210 0.966
   217  H   0.999        C  213 0.968
   218  H   0.995        C  213 0.962
   219  H   0.901        O  214 0.887
   220  N   2.994        C  221 1.017    H  535 0.958    H  234 0.952
   221  C   3.984        N  220 1.017    C  224 0.968    H  235 0.955    C  222 0.943
   222  C   3.944        O  223 1.597    N  244 1.309    C  221 0.943
   223  O   1.977        C  222 1.597    N  244 0.190
   224  C   3.991        C  225 1.014    C  221 0.968    H  236 0.966    H  237 0.955
   225  C   3.972        C  226 1.570    C  227 1.206    C  224 1.014
   226  C   3.945        C  225 1.570    N  228 1.198    H  238 0.965
   227  C   3.979        C  230 1.328    C  229 1.240    C  225 1.206
   228  N   3.554        C  226 1.198    C  229 1.192    H  239 0.941
   229  C   3.962        C  231 1.336    C  227 1.240    N  228 1.192
   230  C   3.990        C  232 1.506    C  227 1.328    H  240 0.965    C  231 0.113
   231  C   3.991        C  233 1.497    C  229 1.336    H  241 0.969    C  230 0.113
   232  C   3.990        C  230 1.506    C  233 1.368    H  242 0.972
   233  C   3.991        C  231 1.497    C  232 1.368    H  243 0.973
   234  H   0.972        N  220 0.952
   235  H   0.997        C  221 0.955
   236  H   0.995        C  224 0.966
   237  H   0.995        C  224 0.955
   238  H   0.997        C  226 0.965
   239  H   0.968        N  228 0.941
   240  H   0.998        C  230 0.965
   241  H   0.999        C  231 0.969
   242  H   0.999        C  232 0.972
   243  H   1.000        C  233 0.973
   244  N   3.477        C  222 1.309    C  245 0.995    H  248 0.917    O  223 0.190
   245  C   3.963        N  244 0.995    H  249 0.956    H  250 0.953    C  246 0.949
   246  C   3.946        O  247 1.617    N  251 1.307    C  245 0.949
   247  O   1.974        C  246 1.617    N  251 0.194
   248  H   0.946        N  244 0.917
   249  H   0.989        C  245 0.956
   250  H   0.989        C  245 0.953
   251  N   3.469        C  246 1.307    C  252 0.975    H  258 0.914    O  247 0.194
   252  C   3.961        N  251 0.975    C  255 0.968    H  259 0.945    C  253 0.932
   253  C   3.946        O  254 1.637    N  267 1.290    C  252 0.932
   254  O   1.959        C  253 1.637    N  267 0.192
   255  C   3.989        C  256 1.008    C  257 1.007    C  252 0.968    H  260 0.963
   256  C   3.991        C  255 1.008    H  263 0.985    H  262 0.983    H  261 0.983
   257  C   3.991        C  255 1.007    H  265 0.985    H  264 0.981    H  266 0.980
   258  H   0.951        N  251 0.914
   259  H   0.994        C  252 0.945
   260  H   0.997        C  255 0.963
   261  H   0.995        C  256 0.983
   262  H   0.998        C  256 0.983
   263  H   0.997        C  256 0.985
   264  H   0.995        C  257 0.981
   265  H   0.997        C  257 0.985
   266  H   0.997        C  257 0.980
   267  N   3.459        C  253 1.290    C  268 0.978    H  274 0.917    O  254 0.192
   268  C   3.961        N  267 0.978    C  271 0.965    H  275 0.952    C  269 0.935
   269  C   3.946        O  270 1.589    N  283 1.334    C  268 0.935
   270  O   1.957        C  269 1.589    N  283 0.197
   271  C   3.987        C  272 1.009    C  273 1.007    C  268 0.965    H  276 0.962
   272  C   3.992        C  271 1.009    H  279 0.984    H  278 0.983    H  277 0.982
   273  C   3.992        C  271 1.007    H  281 0.985    H  280 0.982    H  282 0.981
   274  H   0.958        N  267 0.917
   275  H   0.995        C  268 0.952
   276  H   0.997        C  271 0.962
   277  H   0.996        C  272 0.982
   278  H   0.999        C  272 0.983
   279  H   0.997        C  272 0.984
   280  H   0.995        C  273 0.982
   281  H   0.997        C  273 0.985
   282  H   0.998        C  273 0.981
   283  N   3.473        C  269 1.334    C  284 0.978    H  294 0.852    O  270 0.197
   284  C   3.968        N  283 0.978    C  287 0.963    H  295 0.952    C  285 0.942
   285  C   3.939        O  286 1.605    N  303 1.303    C  284 0.942
   286  O   1.959        C  285 1.605    N  303 0.188
   287  C   3.981        C  288 1.007    H  297 0.964    C  284 0.963    H  296 0.958
   288  C   3.986        C  290 1.414    C  289 1.412    C  287 1.007    C  293 0.109
   289  C   3.991        C  291 1.445    C  288 1.412    H  298 0.968    C  292 0.112
   290  C   3.988        C  292 1.441    C  288 1.414    H  299 0.966    C  291 0.111
   291  C   3.992        C  289 1.445    C  293 1.437    H  300 0.970    C  290 0.111
   292  C   3.990        C  290 1.441    C  293 1.439    H  301 0.966    C  289 0.112
   293  C   3.990        C  292 1.439    C  291 1.437    H  302 0.961    C  288 0.109
   294  H   0.937        N  283 0.852
   295  H   0.995        C  284 0.952
   296  H   0.991        C  287 0.958
   297  H   0.995        C  287 0.964
   298  H   1.000        C  289 0.968
   299  H   0.996        C  290 0.966
   300  H   0.999        C  291 0.970
   301  H   0.996        C  292 0.966
   302  H   0.998        C  293 0.961
   303  N   3.463        C  285 1.303    C  304 0.985    H  314 0.895    O  286 0.188
   304  C   3.971        N  303 0.985    C  307 0.966    H  315 0.954    C  305 0.937
   305  C   3.942        O  306 1.600    N  323 1.316    C  304 0.937
   306  O   1.943        C  305 1.600    N  323 0.193
   307  C   3.987        C  308 1.006    H  317 0.971    C  304 0.966    H  316 0.959
   308  C   3.986        C  310 1.417    C  309 1.409    C  307 1.006    C  313 0.110
   309  C   3.986        C  311 1.445    C  308 1.409    H  318 0.952    C  312 0.111
   310  C   3.991        C  312 1.440    C  308 1.417    H  319 0.969    C  311 0.111
   311  C   3.989        C  309 1.445    C  313 1.435    H  320 0.966    C  310 0.111
   312  C   3.993        C  313 1.441    C  310 1.440    H  321 0.970    C  309 0.111
   313  C   3.990        C  312 1.441    C  311 1.435    H  322 0.967    C  308 0.110
   314  H   0.946        N  303 0.895
   315  H   0.997        C  304 0.954
   316  H   0.994        C  307 0.959
   317  H   0.997        C  307 0.971
   318  H   0.995        C  309 0.952
   319  H   1.000        C  310 0.969
   320  H   0.995        C  311 0.966
   321  H   0.999        C  312 0.970
   322  H   0.998        C  313 0.967
   323  N   3.471        C  305 1.316    C  324 0.964    H  331 0.912    O  306 0.193
   324  C   3.959        C  327 0.981    N  323 0.964    H  332 0.955    C  325 0.936
   325  C   3.949        O  326 1.602    N  335 1.324    C  324 0.936
   326  O   1.946        C  325 1.602    N  335 0.193
   327  C   3.973        C  324 0.981    H  334 0.977    H  333 0.968    C  328 0.900
   328  C   3.941        O  329 1.538    O  330 1.476    C  327 0.900
   329  O   1.833        C  328 1.538    O  330 0.218
   330  O   1.842        C  328 1.476    O  329 0.218
   331  H   0.952        N  323 0.912
   332  H   0.998        C  324 0.955
   333  H   0.998        C  327 0.968
   334  H   0.998        C  327 0.977
   335  N   3.470        C  325 1.324    C  336 0.976    H  340 0.879    O  326 0.193
   336  C   3.962        C  339 0.994    N  335 0.976    H  341 0.949    C  337 0.935
   337  C   3.943        O  338 1.604    N  345 1.319    C  336 0.935
   338  O   1.939        C  337 1.604    N  345 0.194
   339  C   3.981        C  336 0.994    H  344 0.981    H  342 0.978    H  343 0.977
   340  H   0.944        N  335 0.879
   341  H   0.992        C  336 0.949
   342  H   0.994        C  339 0.978
   343  H   0.992        C  339 0.977
   344  H   0.996        C  339 0.981
   345  N   3.475        C  337 1.319    C  346 0.978    H  351 0.884    O  338 0.194
   346  C   3.971        C  349 0.988    N  345 0.978    H  352 0.952    C  347 0.937
   347  C   3.946        O  348 1.613    N  356 1.311    C  346 0.937
   348  O   1.942        C  347 1.613    N  356 0.189
   349  C   3.979        S  350 1.004    C  346 0.988    H  354 0.973    H  353 0.964
   350  S   2.016        C  349 1.004    H  355 0.940
   351  H   0.948        N  345 0.884
   352  H   0.994        C  346 0.952
   353  H   0.993        C  349 0.964
   354  H   0.998        C  349 0.973
   355  H   0.970        S  350 0.940
   356  N   3.478        C  347 1.311    C  357 0.981    H  365 0.908    O  348 0.189
   357  C   3.966        C  360 0.982    N  356 0.981    H  366 0.948    C  358 0.934
   358  C   3.954        O  359 1.624    N  371 1.310    C  357 0.934
   359  O   1.934        C  358 1.624    N  371 0.198
   360  C   3.993        C  361 0.996    C  357 0.982    H  368 0.976    H  367 0.975
   361  C   3.990        C  360 0.996    H  370 0.975    H  369 0.962    C  362 0.930
   362  C   3.933        O  363 1.508    O  364 1.466    C  361 0.930
   363  O   1.832        C  362 1.508    O  364 0.212
   364  O   1.862        C  362 1.466    O  363 0.212
   365  H   0.956        N  356 0.908
   366  H   0.997        C  357 0.948
   367  H   0.998        C  360 0.975
   368  H   0.997        C  360 0.976
   369  H   0.999        C  361 0.962
   370  H   0.998        C  361 0.975
   371  N   3.475        C  358 1.310    C  372 0.978    H  382 0.896    O  359 0.198
   372  C   3.954        N  371 0.978    C  375 0.975    H  383 0.948    C  373 0.928
   373  C   3.951        O  374 1.638    N  395 1.303    C  372 0.928
   374  O   1.955        C  373 1.638    N  395 0.196
   375  C   3.981        C  376 1.004    C  372 0.975    H  385 0.965    H  384 0.963
   376  C   3.988        C  377 1.004    C  375 1.004    H  387 0.964    H  386 0.961
   377  C   3.960        C  376 1.004    N  378 0.988    H  389 0.963    H  388 0.960
   378  N   3.483        C  379 1.341    C  377 0.988    H  390 0.863    N  381 0.105    N  380 0.104
   379  C   3.976        N  378 1.341    N  381 1.302    N  380 1.301
   380  N   3.375        C  379 1.301    H  391 0.918    H  392 0.916    N  378 0.104
   381  N   3.379        C  379 1.302    H  393 0.918    H  394 0.915    N  378 0.105
   382  H   0.952        N  371 0.896
   383  H   0.993        C  372 0.948
   384  H   0.995        C  375 0.963
   385  H   0.991        C  375 0.965
   386  H   0.996        C  376 0.961
   387  H   0.994        C  376 0.964
   388  H   0.990        C  377 0.960
   389  H   0.996        C  377 0.963
   390  H   0.945        N  378 0.863
   391  H   0.940        N  380 0.918
   392  H   0.935        N  380 0.916
   393  H   0.947        N  381 0.918
   394  H   0.935        N  381 0.915
   395  N   3.475        C  373 1.303    C  396 0.977    H  406 0.907    O  374 0.196
   396  C   3.960        N  395 0.977    C  399 0.976    C  397 0.946    H  407 0.942
   397  C   3.953        O  398 1.631    N  419 1.295    C  396 0.946
   398  O   1.975        C  397 1.631    N  419 0.191
   399  C   3.986        C  400 1.005    C  396 0.976    H  408 0.974    H  409 0.971
   400  C   3.986        C  399 1.005    C  401 0.993    H  411 0.972    H  410 0.965
   401  C   3.955        C  400 0.993    N  402 0.989    H  413 0.968    H  412 0.963
   402  N   3.465        C  403 1.308    C  401 0.989    H  414 0.916    N  404 0.100
   403  C   3.977        N  404 1.327    N  405 1.313    N  402 1.308
   404  N   3.410        C  403 1.327    H  416 0.919    H  415 0.918    N  405 0.102    N  402 0.100
   405  N   3.389        C  403 1.313    H  417 0.919    H  418 0.917    N  404 0.102
   406  H   0.961        N  395 0.907
   407  H   0.994        C  396 0.942
   408  H   0.997        C  399 0.974
   409  H   0.995        C  399 0.971
   410  H   0.992        C  400 0.965
   411  H   0.997        C  400 0.972
   412  H   0.994        C  401 0.963
   413  H   0.992        C  401 0.968
   414  H   0.944        N  402 0.916
   415  H   0.943        N  404 0.918
   416  H   0.938        N  404 0.919
   417  H   0.938        N  405 0.919
   418  H   0.936        N  405 0.917
   419  N   3.467        C  397 1.295    C  420 0.966    H  430 0.918    O  398 0.191
   420  C   3.949        C  423 0.985    N  419 0.966    H  431 0.946    C  421 0.930
   421  C   3.946        O  422 1.624    N  443 1.301    C  420 0.930
   422  O   1.998        C  421 1.624    N  443 0.195
   423  C   3.984        C  424 1.006    C  420 0.985    H  432 0.971    H  433 0.966
   424  C   3.988        C  423 1.006    C  425 1.003    H  435 0.970    H  434 0.967
   425  C   3.958        C  424 1.003    N  426 0.986    H  437 0.959    H  436 0.953
   426  N   3.470        C  427 1.314    C  425 0.986    H  438 0.911    N  429 0.102    N  428 0.100
   427  C   3.978        N  428 1.319    N  426 1.314    N  429 1.313
   428  N   3.393        C  427 1.319    H  440 0.915    H  439 0.912    N  429 0.101    N  426 0.100
   429  N   3.391        C  427 1.313    H  441 0.919    H  442 0.916    N  426 0.102    N  428 0.101
   430  H   0.959        N  419 0.918
   431  H   0.991        C  420 0.946
   432  H   0.993        C  423 0.971
   433  H   0.993        C  423 0.966
   434  H   0.995        C  424 0.967
   435  H   0.993        C  424 0.970
   436  H   0.993        C  425 0.953
   437  H   0.992        C  425 0.959
   438  H   0.947        N  426 0.911
   439  H   0.940        N  428 0.912
   440  H   0.935        N  428 0.915
   441  H   0.939        N  429 0.919
   442  H   0.935        N  429 0.916
   443  N   3.464        C  421 1.301    C  444 0.982    H  455 0.898    O  422 0.195
   444  C   3.969        C  445 0.983    N  443 0.982    C  447 0.944    H  456 0.942
   445  C   3.902        O  446 1.873    C  444 0.983    H  536 0.951
   446  O   2.043        C  445 1.873
   447  C   3.983        C  448 1.006    H  457 0.969    H  458 0.967    C  444 0.944
   448  C   3.987        C  450 1.407    C  449 1.405    C  447 1.006
   449  C   3.988        C  451 1.457    C  448 1.405    H  459 0.964    C  452 0.104
   450  C   3.991        C  452 1.455    C  448 1.407    H  460 0.967    C  451 0.107
   451  C   3.986        C  449 1.457    C  453 1.365    H  461 0.964    C  450 0.107
   452  C   3.987        C  450 1.455    C  453 1.369    H  462 0.966    C  449 0.104
   453  C   3.942        C  452 1.369    C  451 1.365    O  454 1.079
   454  O   2.100        C  453 1.079    H  463 0.861
   455  H   0.949        N  443 0.898
   456  H   0.994        C  444 0.942
   457  H   0.994        C  447 0.969
   458  H   0.995        C  447 0.967
   459  H   0.997        C  449 0.964
   460  H   0.999        C  450 0.967
   461  H   0.995        C  451 0.964
   462  H   0.998        C  452 0.966
   463  H   0.881        O  454 0.861
   464  N   2.989        C  465 1.015    H  537 0.958    H  469 0.923
   465  C   3.985        N  464 1.015    C  468 0.986    H  470 0.964    C  466 0.940
   466  C   3.937        O  467 1.613    N  474 1.300    C  465 0.940
   467  O   1.957        C  466 1.613    N  474 0.191
   468  C   3.990        C  465 0.986    H  471 0.984    H  472 0.980    H  473 0.978
   469  H   0.967        N  464 0.923
   470  H   0.998        C  465 0.964
   471  H   0.998        C  468 0.984
   472  H   0.995        C  468 0.980
   473  H   0.996        C  468 0.978
   474  N   3.467        C  466 1.300    C  475 0.974    H  482 0.915    O  467 0.191
   475  C   3.966        N  474 0.974    C  478 0.973    C  476 0.966    H  483 0.951
   476  C   3.899        O  477 1.894    C  475 0.966    H  538 0.956
   477  O   2.045        C  476 1.894
   478  C   3.984        C  479 0.993    C  475 0.973    H  484 0.971    H  485 0.957
   479  C   3.994        C  480 1.009    C  481 1.008    C  478 0.993    H  486 0.963
   480  C   3.994        C  479 1.009    H  488 0.984    H  489 0.984    H  487 0.984
   481  C   3.995        C  479 1.008    H  491 0.985    H  490 0.985    H  492 0.985
   482  H   0.954        N  474 0.915
   483  H   0.993        C  475 0.951
   484  H   0.996        C  478 0.971
   485  H   0.994        C  478 0.957
   486  H   0.999        C  479 0.963
   487  H   0.998        C  480 0.984
   488  H   0.998        C  480 0.984
   489  H   0.998        C  480 0.984
   490  H   0.998        C  481 0.985
   491  H   0.997        C  481 0.985
   492  H   0.999        C  481 0.985
   493  N   2.997        C  494 1.010    H  539 0.958    H  500 0.925
   494  C   3.983        N  493 1.010    C  495 0.976    H  501 0.962    C  497 0.949
   495  C   3.886        O  496 1.880    C  494 0.976    H  540 0.956
   496  O   2.016        C  495 1.880
   497  C   3.990        C  498 1.008    C  499 1.007    H  502 0.962    C  494 0.949
   498  C   3.994        C  497 1.008    H  504 0.984    H  503 0.983    H  505 0.980
   499  C   3.995        C  497 1.007    H  507 0.985    H  506 0.981    H  508 0.980
   500  H   0.967        N  493 0.925
   501  H   0.999        C  494 0.962
   502  H   0.997        C  497 0.962
   503  H   0.997        C  498 0.983
   504  H   0.999        C  498 0.984
   505  H   0.998        C  498 0.980
   506  H   0.996        C  499 0.981
   507  H   0.998        C  499 0.985
   508  H   0.997        C  499 0.980
   509  N   2.994        C  510 1.021    H  541 0.954    H  516 0.945
   510  C   3.986        N  509 1.021    C  511 0.979    H  517 0.952    C  513 0.933
   511  C   3.895        O  512 1.891    C  510 0.979    H  542 0.953
   512  O   2.033        C  511 1.891
   513  C   3.956        O  514 1.001    C  515 0.993    H  518 0.963    C  510 0.933
   514  O   1.948        C  513 1.001    H  519 0.869
   515  C   3.992        C  513 0.993    H  521 0.983    H  520 0.982    H  522 0.978
   516  H   0.972        N  509 0.945
   517  H   0.997        C  510 0.952
   518  H   0.999        C  513 0.963
   519  H   0.888        O  514 0.869
   520  H   0.997        C  515 0.982
   521  H   0.996        C  515 0.983
   522  H   0.997        C  515 0.978
   523  H   0.970        N    1 0.960
   524  H   0.994        C   27 0.953
   525  H   0.968        N   45 0.958
   526  H   0.995        C   68 0.955
   527  H   0.972        N   87 0.961
   528  H   0.995        C  108 0.955
   529  H   0.968        N  128 0.949
   530  H   0.993        C  160 0.952
   531  H   0.966        N  182 0.956
   532  H   0.994        C  201 0.954
   533  H   0.968        N  209 0.956
   534  H   0.992        C  211 0.951
   535  H   0.970        N  220 0.958
   536  H   0.993        C  445 0.951
   537  H   0.969        N  464 0.958
   538  H   0.996        C  476 0.956
   539  H   0.970        N  493 0.958
   540  H   0.996        C  495 0.956
   541  H   0.966        N  509 0.954
   542  H   0.993        C  511 0.953
 
molecular dipole:
                 x           y           z       tot (Debye)
 q only:      170.437     127.132     249.346
   full:      173.048     128.656     248.507     836.301
molecular quadrupole (traceless):
                xx          xy          yy          xz          yz          zz
 q only:    -2110.940    8078.226   -7256.847   16114.102   12030.984    9367.787
  q+dip:    -1954.661    8312.244   -7203.212   16269.790   12101.065    9157.873
   full:    -1947.810    8311.230   -7206.402   16269.409   12095.490    9154.212


           -------------------------------------------------
          | TOTAL ENERGY             -817.203200419806 Eh   |
          | GRADIENT NORM               0.704874308747 Eh/α |
          | HOMO-LUMO GAP               1.531037117203 eV   |
           -------------------------------------------------

------------------------------------------------------------------------
 * finished run on 2019/05/31 at 07:36:45.447     
------------------------------------------------------------------------
 total:
 * wall-time:     0 d,  0 h,  0 min, 35.992 sec
 *  cpu-time:     0 d,  0 h,  0 min, 17.054 sec
 * ratio c/w:     0.474 speedup
 SCF:
 * wall-time:     0 d,  0 h,  0 min, 34.475 sec
 *  cpu-time:     0 d,  0 h,  0 min, 16.400 sec
 * ratio c/w:     0.476 speedup

