      -----------------------------------------------------------      
     |                   =====================                   |     
     |                           x T B                           |     
     |                   =====================                   |     
     |                         S. Grimme                         |     
     |          Mulliken Center for Theoretical Chemistry        |     
     |                    University of Bonn                     |     
     |                 Version 6.0.1 (SAW181210)                 |     
      -----------------------------------------------------------      

   This program is distributed in the hope that it will be useful,
   but WITHOUT ANY WARRANTY; without even the implied warranty of
   MERCHANTABILITY or FITNESS FOR A PARTICULAR PURPOSE.
   
   FOR NON-COMMERCIAL, ACADEMIA USE ONLY.
   
   Cite this work as:
   S. Grimme, C. Bannwarth, P. Shushkov, J. Comput. Theory Chem., 2017,
   13, 1989-2009.
   C. Bannwarth, S. Ehlert and S. Grimme., ChemRxiv, 2018, preprint.
   http://doi.org/10.26434/chemrxiv.7246238.v1
   
   for sTDA-xTB:
   S. Grimme and C. Bannwarth, J. Chem. Phys., 2016, 145, 054103.
   
   in the mass-spec context:
   V. Asgeirsson, C. Bauer and S. Grimme, Chem. Sci., 2017, 8, 4879.
   
   if GBSA is used:
   P. Shushkov, F. März and S. Grimme, unpublished.
   
   for ANC optimizer:
   S. Grimme, unpublished.
   Rational Function algorithm used in ANCopt:
   F. Eckert, P. Pulay, H.-J. Werner, J. Comput. Chem., 1997, 18, 1473.
   
   with help from (in alphabetical order)
   C. Bannwarth, F. Bohle, G. Brandenburg, E. Caldeweyher, M. Checinski,
   S. Dohm, S. Ehlert, S. Ehrlich, F. März, H. Neugebauer, J. Pisarek,
   P. Pracht, P. Shushkov, and S. Spicher.
   
 * started run on 2019/03/14 at 15:08:29.465     
========================================================================
 # omp threads = 1
========================================================================
number of atoms            : 400
number of electrons        : 1038
charge                     : 0
spin                       : .0
first test random number   : .8333
           ------------------------------------------------- 
          |                 G F N 2 - x T B                 |
          | Geometry, Frequencies, Noncovalent interactions |
          |            JCTC 2018 parametrisation            |
           ------------------------------------------------- 
 
      method parameters     
 k(s)        :  1.8500
 k(p)        :  2.2300
 k(d)        :  2.2300
 k(f)        :  2.0000
 kEN (H0ij)  : -2.0000
 D4 a1       :  0.5200
 D4 a2       :  5.0000
 D4 s6       :  1.0000
 D4 s8       :  2.7000
 D4 s9       :  5.0000
 alphaj      :  2.0000

 Solvent             : h2o
 Using internal parameter file: .param_gbsa2_h2o
 Gsolv ref. state (COSMO-RS): gsolv [1 M gas/solution]
 temperature (mdtemp)       :    298.150000000000     
 dielectric constant        :    80.2000000000000     
 rho                        :    1.00000000000000     
 mass                       :    18.0000000000000     
 surface tension            :    15.5689454083859     
 probe radius               :   0.975313790000000     
 vdW radii scaling          :    1.00000000000000     
 Gshift (Eh)                :   1.857443126794793E-003
 c1                         :    1.55243817000000     
 soset                      :   0.130326360000000     
 HB correction              :  T

            Z     q(EN)     CN     RAES       Cart. coordinates
     1  N   5.0   -0.21    3.19    1.95   114.84344    58.04063    52.98541
     2  C   4.0    0.03    4.22    4.03   113.43868    57.11361    50.82396
     3  C   4.0    0.09    3.25    3.04   112.12696    59.36720    49.53103
     4  O   6.0   -0.33    1.25    1.80   112.36706    59.60671    47.23573
     5  C   4.0   -0.04    4.28    4.16   111.62219    54.94152    51.52878
     6  C   4.0   -0.01    3.60    3.17   109.04548    55.28956    50.37295
     7  C   4.0   -0.04    3.48    3.10   107.05297    56.25002    51.78185
     8  C   4.0   -0.04    3.49    3.11   108.61937    54.65727    47.86495
     9  C   4.0   -0.04    3.39    3.08   104.76037    56.79333    50.66291
    10  C   4.0   -0.05    3.42    3.08   106.32296    55.21338    46.73256
    11  C   4.0   -0.05    3.39    3.08   104.43060    56.38158    48.10344
    12  H   1.0    0.08    1.02    1.43   114.32449    57.45613    54.73584
    13  H   1.0    0.04    1.05    1.44   114.79868    56.44480    49.40196
    14  H   1.0    0.04    1.03    1.43   112.42080    53.14932    50.89591
    15  H   1.0    0.04    1.04    1.43   111.47713    54.89695    53.57808
    16  H   1.0    0.05    1.03    1.43   107.30724    56.62958    53.75774
    17  H   1.0    0.04    1.03    1.43   110.09012    53.72731    46.80016
    18  H   1.0    0.05    1.03    1.43   103.22488    57.51089    51.79371
    19  H   1.0    0.04    1.03    1.43   105.99031    54.71681    44.77792
    20  H   1.0    0.04    1.04    1.43   102.69614    56.93421    47.20154
    21  N   5.0   -0.21    3.22    1.96   115.07068    60.59046    43.09493
    22  C   4.0    0.03    4.27    4.15   113.14535    60.48821    41.17266
    23  C   4.0    0.08    3.26    3.05   112.59336    63.06586    40.07767
    24  O   6.0   -0.30    1.14    1.80   111.78602    63.12900    37.90320
    25  C   4.0   -0.04    4.37    4.33   110.61297    59.46747    42.07884
    26  C   4.0   -0.02    4.18    3.96   110.30883    56.58426    42.00632
    27  C   4.0   -0.07    4.11    3.82   108.78490    55.71226    39.72868
    28  C   4.0   -0.08    4.11    3.83   112.73134    55.03526    42.20499
    29  H   1.0    0.12    1.09    1.44   114.50370    60.23735    44.89702
    30  H   1.0    0.04    1.06    1.44   113.78658    59.30676    39.59034
    31  H   1.0    0.07    1.05    1.44   110.33484    60.16542    43.98802
    32  H   1.0    0.05    1.05    1.44   109.15364    60.30190    40.88044
    33  H   1.0    0.04    1.11    1.45   109.22183    56.12240    43.67482
    34  H   1.0    0.05    1.01    1.43   108.24386    53.75553    40.00937
    35  H   1.0    0.05    1.00    1.43   107.07731    56.83182    39.50793
    36  H   1.0    0.05    1.01    1.43   109.87339    55.83685    37.99843
    37  H   1.0    0.04    1.00    1.43   112.19258    53.06644    42.45213
    38  H   1.0    0.04    1.00    1.43   113.88929    55.16320    40.51204
    39  H   1.0    0.05    1.00    1.43   113.83586    55.61815    43.83336
    40  N   5.0   -0.20    3.20    1.96   117.73820    63.01379    35.40432
    41  C   4.0    0.03    4.19    3.98   117.28389    61.06905    33.52009
    42  C   4.0    0.09    3.21    3.04   114.91585    61.79434    31.95265
    43  O   6.0   -0.27    1.11    1.80   114.97765    61.65943    29.62347
    44  C   4.0   -0.04    4.29    4.18   117.13012    58.47850    34.86874
    45  C   4.0   -0.01    3.56    3.14   115.22148    56.68204    33.77722
    46  C   4.0   -0.04    3.46    3.10   115.98028    54.65094    32.29335
    47  C   4.0   -0.04    3.48    3.11   112.66211    56.99581    34.27556
    48  C   4.0   -0.03    3.43    3.09   114.23546    52.95380    31.34509
    49  C   4.0   -0.03    3.44    3.09   110.89681    55.33341    33.31151
    50  C   4.0    0.08    3.46    3.10   111.67144    53.28310    31.86199
    51  O   6.0   -0.23    2.12    1.84   109.98892    51.58051    30.95351
    52  H   1.0    0.09    1.03    1.43   117.03922    62.63694    37.15003
    53  H   1.0    0.05    1.05    1.44   118.84475    61.02723    32.15619
    54  H   1.0    0.04    1.03    1.43   118.99398    57.59958    34.83060
    55  H   1.0    0.04    1.04    1.43   116.68583    58.85856    36.84533
    56  H   1.0    0.05    1.03    1.43   117.96287    54.37363    31.88312
    57  H   1.0    0.06    1.03    1.43   112.03108    58.54790    35.43883
    58  H   1.0    0.06    1.03    1.43   114.80233    51.39004    30.15758
    59  H   1.0    0.06    1.03    1.43   108.90565    55.56982    33.69036
    60  H   1.0    0.14    1.06    1.44   108.39220    51.82818    31.83046
    61  N   5.0   -0.22    3.25    1.97    77.06238    51.79399    42.17154
    62  C   4.0    0.03    4.41    4.39    79.33565    52.66803    40.88038
    63  C   4.0    0.15    3.41    3.08    80.07259    50.83259    38.74936
    64  O   6.0   -0.31    1.25    1.80    81.17345    51.58407    36.84535
    65  C   4.0   -0.02    4.25    4.11    81.50483    53.16380    42.74995
    66  C   4.0   -0.08    4.16    3.92    83.30626    50.93071    42.96025
    67  C   4.0   -0.08    4.12    3.84    82.92117    55.53435    41.95069
    68  H   1.0    0.08    1.03    1.43    76.89599    52.31461    44.00419
    69  H   1.0    0.05    1.06    1.44    78.85037    54.43946    39.91160
    70  H   1.0    0.04    1.06    1.44    80.63865    53.51962    44.58356
    71  H   1.0    0.03    1.00    1.43    84.76787    51.33063    44.34550
    72  H   1.0    0.05    1.01    1.43    82.31024    49.22617    43.50389
    73  H   1.0    0.05    1.01    1.43    84.19337    50.56924    41.14369
    74  H   1.0    0.03    1.00    1.43    84.56314    55.84860    43.13786
    75  H   1.0    0.05    1.00    1.43    83.54047    55.35367    40.00740
    76  H   1.0    0.04    1.00    1.43    81.68767    57.16645    42.06745
    77  N   5.0   -0.14    3.52    2.09    79.43193    48.45080    39.20138
    78  C   4.0    0.03    4.31    4.21    79.72339    46.22700    37.65074
    79  C   4.0    0.08    3.21    3.04    77.68054    45.89435    35.62648
    80  O   6.0   -0.28    1.11    1.80    78.20743    45.03141    33.53767
    81  C   4.0   -0.04    4.38    4.35    79.54056    43.93178    39.41050
    82  C   4.0   -0.02    3.58    3.16    81.49072    43.89030    41.45264
    83  C   4.0   -0.05    3.52    3.12    80.87024    42.75925    43.73719
    84  C   4.0   -0.05    3.51    3.12    83.77133    45.13687    41.23742
    85  C   4.0   -0.05    3.41    3.08    82.45258    42.92274    45.80629
    86  C   4.0   -0.05    3.44    3.09    85.32965    45.34358    43.32004
    87  C   4.0   -0.05    3.38    3.07    84.70610    44.23044    45.59616
    88  H   1.0    0.08    1.11    1.45    78.78876    48.12901    40.97854
    89  H   1.0    0.06    1.05    1.44    81.52638    46.30318    36.62755
    90  H   1.0    0.04    1.04    1.44    77.70972    44.02152    40.34781
    91  H   1.0    0.05    1.03    1.43    79.60839    42.20206    38.31327
    92  H   1.0    0.05    1.03    1.43    79.08046    41.79305    43.88875
    93  H   1.0    0.05    1.03    1.43    84.29817    46.03184    39.48214
    94  H   1.0    0.04    1.03    1.43    81.87426    42.13025    47.59242
    95  H   1.0    0.04    1.07    1.44    86.97871    46.48547    43.14797
    96  H   1.0    0.04    1.03    1.43    85.95492    44.38837    47.19876
    97  N   5.0   -0.21    3.21    1.96    86.50870    63.60355    47.20145
    98  C   4.0    0.03    4.23    4.06    88.54212    62.49001    48.65966
    99  C   4.0    0.08    3.22    3.04    89.25052    64.18055    50.87780
   100  O   6.0   -0.29    1.11    1.80    89.53157    63.30169    53.01586
   101  C   4.0   -0.05    4.37    4.32    90.90783    62.07589    47.05008
   102  C   4.0   -0.03    4.19    3.99    90.44054    60.37459    44.75606
   103  C   4.0   -0.08    4.12    3.84    92.75978    60.42602    43.04683
   104  C   4.0   -0.08    4.11    3.83    89.79642    57.70452    45.61795
   105  H   1.0    0.08    1.03    1.43    86.65263    63.63008    45.28798
   106  H   1.0    0.05    1.05    1.44    87.88307    60.69755    49.47194
   107  H   1.0    0.04    1.03    1.43    91.57891    63.91578    46.41598
   108  H   1.0    0.04    1.03    1.43    92.35857    61.23141    48.25102
   109  H   1.0    0.04    1.06    1.44    88.82914    61.10899    43.69117
   110  H   1.0    0.04    1.00    1.43    92.44657    59.29725    41.36390
   111  H   1.0    0.04    1.00    1.43    93.19837    62.33747    42.47616
   112  H   1.0    0.04    1.01    1.43    94.39689    59.71682    44.04754
   113  H   1.0    0.03    1.00    1.43    89.60272    56.45198    44.00709
   114  H   1.0    0.04    1.00    1.43    91.26554    56.97375    46.85466
   115  H   1.0    0.04    1.00    1.43    88.01942    57.71052    46.64415
   116  N   5.0   -0.22    3.27    1.97    97.95137    44.88478    55.41865
   117  C   4.0    0.02    4.43    4.44    99.66898    43.94794    53.50867
   118  C   4.0    0.15    3.55    3.14    98.20282    43.35419    51.11903
   119  O   6.0   -0.33    1.34    1.80    99.27145    43.41352    49.06159
   120  C   4.0   -0.02    4.34    4.26   101.15888    41.54116    54.19008
   121  C   4.0   -0.05    4.25    4.10    99.28226    39.35248    54.43271
   122  C   4.0   -0.08    4.10    3.81   102.79330    42.01246    56.50667
   123  C   4.0   -0.08    4.01    3.63   100.30945    36.85955    55.41810
   124  H   1.0    0.07    1.02    1.43    97.68005    43.91092    57.05750
   125  H   1.0    0.04    1.05    1.44   101.00074    45.46729    53.03369
   126  H   1.0    0.04    1.06    1.44   102.39387    41.16624    52.56932
   127  H   1.0    0.04    1.04    1.43    97.74207    39.95780    55.64149
   128  H   1.0    0.04    1.05    1.44    98.48651    39.00453    52.56282
   129  H   1.0    0.04    1.00    1.43   103.85345    40.32925    57.00418
   130  H   1.0    0.04    1.00    1.43   104.13847    43.51035    56.09719
   131  H   1.0    0.04    1.00    1.43   101.60703    42.57385    58.08108
   132  H   1.0    0.04    1.00    1.43    98.74521    35.53312    55.57251
   133  H   1.0    0.04    1.00    1.43   101.69207    36.10191    54.10626
   134  H   1.0    0.04    1.00    1.43   101.15865    37.06427    57.27377
   135  N   5.0   -0.15    3.58    2.14    95.81741    42.66110    51.45858
   136  C   4.0    0.03    4.54    4.59    94.15811    42.29366    49.33664
   137  C   4.0    0.15    3.61    3.17    93.94462    44.90877    48.17563
   138  O   6.0   -0.32    1.51    1.80    94.57554    45.17223    45.96630
   139  C   4.0   -0.03    4.32    4.23    91.65626    40.98289    49.93589
   140  C   4.0   -0.05    4.19    3.98    92.11530    38.33653    51.02835
   141  C   4.0   -0.08    4.15    3.91    90.13434    40.80477    47.49697
   142  C   4.0   -0.08    4.02    3.65    89.70304    37.19618    52.11594
   143  H   1.0    0.07    1.08    1.44    95.06609    42.53249    53.21427
   144  H   1.0    0.05    1.07    1.44    95.15866    41.16724    47.90420
   145  H   1.0    0.04    1.05    1.44    90.61383    42.11928    51.31077
   146  H   1.0    0.04    1.03    1.43    92.89084    37.12340    49.55162
   147  H   1.0    0.04    1.03    1.43    93.50552    38.46853    52.53433
   148  H   1.0    0.03    1.00    1.43    88.32786    39.90776    47.85806
   149  H   1.0    0.04    1.01    1.43    89.77726    42.65486    46.69456
   150  H   1.0    0.04    1.00    1.43    91.18227    39.72079    46.09766
   151  H   1.0    0.04    1.00    1.43    90.10437    35.49735    53.19749
   152  H   1.0    0.04    1.00    1.43    88.82115    38.54324    53.39248
   153  H   1.0    0.04    1.00    1.43    88.37317    36.71528    50.63010
   154  N   5.0   -0.15    3.47    2.06    93.37228    46.89822    49.60522
   155  C   4.0    0.03    4.51    4.55    93.51324    49.31920    48.32714
   156  C   4.0    0.17    3.60    3.17    96.08664    49.48299    47.01738
   157  O   6.0   -0.33    1.49    1.80    96.20887    49.93645    44.73870
   158  C   4.0    0.05    4.19    3.98    92.86072    51.68630    49.88908
   159  O   6.0   -0.26    2.09    1.84    94.70472    52.41073    51.65018
   160  C   4.0   -0.08    4.06    3.73    90.25405    51.44582    51.13601
   161  H   1.0    0.07    1.05    1.44    92.75086    46.76328    51.41851
   162  H   1.0    0.04    1.09    1.44    92.15909    49.29296    46.76774
   163  H   1.0    0.04    1.04    1.44    92.79744    53.23935    48.50597
   164  H   1.0    0.11    1.02    1.43    95.53719    50.92520    52.36693
   165  H   1.0    0.05    1.00    1.43    89.92154    53.09020    52.32288
   166  H   1.0    0.03    1.00    1.43    88.78952    51.33234    49.70502
   167  H   1.0    0.04    1.00    1.43    90.19041    49.77838    52.32223
   168  N   5.0   -0.13    3.52    2.09    98.19656    49.16933    48.31578
   169  C   4.0    0.04    4.56    4.62   100.56978    49.65094    47.04732
   170  C   4.0    0.16    3.55    3.14   100.73197    48.20886    44.55762
   171  O   6.0   -0.33    1.28    1.80   101.59405    49.20729    42.63788
   172  C   4.0   -0.03    4.28    4.16   102.73601    48.97188    48.85039
   173  C   4.0   -0.07    4.13    3.87   105.27213    48.98942    47.48985
   174  C   4.0   -0.08    4.13    3.86   102.74341    50.82603    51.05749
   175  H   1.0    0.08    1.06    1.44    98.23810    48.79460    50.19195
   176  H   1.0    0.05    1.05    1.44   100.62045    51.65565    46.48866
   177  H   1.0    0.05    1.06    1.44   102.36873    47.05409    49.53573
   178  H   1.0    0.04    1.00    1.43   106.80261    48.75078    48.83725
   179  H   1.0    0.04    1.00    1.43   105.36309    47.48442    46.09555
   180  H   1.0    0.05    1.02    1.43   105.53040    50.78306    46.53493
   181  H   1.0    0.04    1.00    1.43   104.39659    50.54481    52.24057
   182  H   1.0    0.04    1.03    1.43   102.80833    52.73408    50.31713
   183  H   1.0    0.04    1.00    1.43   101.05811    50.63455    52.21055
   184  N   5.0   -0.14    3.55    2.12    99.96540    45.81560    44.61042
   185  C   4.0    0.04    4.54    4.59   100.23177    44.26440    42.38897
   186  C   4.0    0.15    3.44    3.09    98.19968    44.79190    40.40344
   187  O   6.0   -0.34    1.37    1.80    98.75923    44.50953    38.15656
   188  C   4.0   -0.02    4.28    4.15   100.22838    41.44434    43.09339
   189  C   4.0   -0.07    4.14    3.89   100.08494    39.76023    40.75816
   190  C   4.0   -0.07    4.13    3.86   102.62934    40.84496    44.56710
   191  H   1.0    0.12    1.14    1.45    99.55903    44.92941    46.26799
   192  H   1.0    0.05    1.06    1.44   102.06509    44.75661    41.53378
   193  H   1.0    0.05    1.05    1.44    98.56845    41.11790    44.28001
   194  H   1.0    0.04    1.00    1.43   100.45057    37.81148    41.28738
   195  H   1.0    0.05    1.00    1.43    98.23802    39.85685    39.86728
   196  H   1.0    0.05    1.00    1.43   101.50547    40.33216    39.38913
   197  H   1.0    0.04    1.00    1.43   102.66551    38.86210    45.09346
   198  H   1.0    0.04    1.00    1.43   104.26564    41.22747    43.38451
   199  H   1.0    0.05    1.00    1.43   102.72921    41.98163    46.27063
   200  N   5.0   -0.14    3.51    2.09    95.91779    45.42521    41.22921
   201  C   4.0    0.03    4.55    4.61    93.79833    46.08484    39.62327
   202  C   4.0    0.15    3.51    3.12    94.06227    48.70180    38.46077
   203  O   6.0   -0.32    1.37    1.80    93.06609    49.09865    36.39832
   204  C   4.0   -0.02    4.29    4.17    91.15436    45.97320    40.83757
   205  C   4.0   -0.08    4.12    3.85    90.77986    43.29138    41.81504
   206  C   4.0   -0.07    4.19    3.99    90.92598    48.11782    42.75284
   207  H   1.0    0.13    1.17    1.46    95.68244    45.61020    43.12535
   208  H   1.0    0.04    1.08    1.44    93.70284    44.73922    38.06707
   209  H   1.0    0.04    1.06    1.44    89.83177    46.33738    39.28353
   210  H   1.0    0.04    1.01    1.43    88.94894    42.94935    42.66901
   211  H   1.0    0.04    1.01    1.43    90.92976    42.00778    40.22057
   212  H   1.0    0.06    1.02    1.43    92.26030    42.89508    43.17116
   213  H   1.0    0.04    1.01    1.43    89.76537    47.60352    44.36166
   214  H   1.0    0.07    1.05    1.44    92.80149    48.57300    43.40496
   215  H   1.0    0.04    1.00    1.43    90.16487    49.80086    41.85058
   216  N   5.0   -0.14    3.58    2.14    95.33367    50.42274    39.77421
   217  C   4.0    0.03    4.52    4.57    95.97192    52.83591    38.65549
   218  C   4.0    0.15    3.58    3.16    98.06472    52.30033    36.77648
   219  O   6.0   -0.31    1.45    1.80    97.97210    53.13521    34.61555
   220  C   4.0   -0.02    4.32    4.24    96.72499    54.95443    40.50809
   221  C   4.0   -0.04    4.25    4.10    99.48739    54.69771    41.30531
   222  C   4.0   -0.08    4.17    3.94    94.88302    54.95473    42.70348
   223  C   4.0   -0.08    4.02    3.65   100.49942    56.84932    42.91417
   224  H   1.0    0.12    1.14    1.45    96.01883    50.00034    41.50712
   225  H   1.0    0.06    1.07    1.44    94.30582    53.47619    37.59828
   226  H   1.0    0.04    1.06    1.44    96.52030    56.72844    39.45958
   227  H   1.0    0.06    1.04    1.43    99.73727    52.90792    42.28817
   228  H   1.0    0.05    1.06    1.44   100.62786    54.69020    39.59114
   229  H   1.0    0.04    1.01    1.43    95.44269    56.32951    44.10860
   230  H   1.0    0.04    1.01    1.43    93.01123    55.37720    41.99401
   231  H   1.0    0.07    1.04    1.44    94.84454    53.12248    43.58522
   232  H   1.0    0.04    1.00    1.43   102.47212    56.47272    43.33839
   233  H   1.0    0.05    1.00    1.43   100.41487    58.60125    41.85163
   234  H   1.0    0.04    1.00    1.43    99.45803    57.05829    44.67106
   235  N   5.0   -0.14    3.57    2.13    99.90867    50.70757    37.48787
   236  C   4.0    0.05    4.51    4.56   101.86736    50.19132    35.64603
   237  C   4.0    0.17    3.50    3.12   100.56921    49.06462    33.33188
   238  O   6.0   -0.32    1.32    1.80   101.04306    49.75706    31.17063
   239  C   4.0   -0.03    4.30    4.21   103.90051    48.45028    36.72098
   240  C   4.0    0.15    3.23    3.04   106.39298    49.87976    36.91572
   241  O   6.0   -0.32    1.26    1.80   106.92352    51.57700    35.44883
   242  N   5.0   -0.19    3.18    1.95   107.94310    49.10087    38.75196
   243  H   1.0    0.10    1.09    1.44   100.30988    50.33082    39.32906
   244  H   1.0    0.07    1.07    1.44   102.75818    51.96328    35.01500
   245  H   1.0    0.06    1.03    1.43   103.31145    47.70524    38.54776
   246  H   1.0    0.05    1.04    1.43   104.20648    46.88229    35.41817
   247  H   1.0    0.09    1.03    1.43   109.66506    49.90831    38.91274
   248  H   1.0    0.08    1.03    1.43   107.44108    47.70531    39.93445
   249  N   5.0   -0.14    3.56    2.12    98.91057    47.27390    33.90885
   250  C   4.0    0.04    4.43    4.43    97.21080    46.02845    32.18009
   251  C   4.0    0.15    3.46    3.10    95.46875    47.80808    30.73446
   252  O   6.0   -0.33    1.34    1.80    94.84947    47.14451    28.60767
   253  C   4.0    0.06    4.31    4.22    95.60033    44.16377    33.75310
   254  O   6.0   -0.26    2.11    1.84    96.76816    41.79672    34.00310
   255  C   4.0   -0.06    4.13    3.87    92.89431    43.83687    32.87646
   256  H   1.0    0.12    1.16    1.46    98.91403    46.57689    35.71210
   257  H   1.0    0.06    1.05    1.44    98.25314    44.95449    30.74018
   258  H   1.0    0.06    1.11    1.45    95.50875    45.07480    35.58364
   259  H   1.0    0.14    1.04    1.44    98.04344    41.95096    35.30961
   260  H   1.0    0.04    1.01    1.43    92.03997    42.40095    34.06708
   261  H   1.0    0.05    1.00    1.43    91.86713    45.60121    33.11880
   262  H   1.0    0.05    1.00    1.43    92.80167    43.25890    30.91351
   263  N   5.0   -0.13    3.54    2.11    94.71250    49.96056    31.84226
   264  C   4.0    0.03    4.43    4.42    93.10715    51.84078    30.64866
   265  C   4.0    0.15    3.45    3.09    94.62589    53.33875    28.67522
   266  O   6.0   -0.27    1.19    1.80    93.70792    54.20255    26.76429
   267  C   4.0   -0.03    4.35    4.28    92.26455    53.88347    32.54190
   268  C   4.0    0.06    3.76    3.29    89.89769    53.31098    33.94612
   269  N   5.0   -0.17    2.54    1.90    89.77911    53.39167    36.51667
   270  C   4.0   -0.01    3.60    3.17    87.54128    52.82226    32.98603
   271  C   4.0    0.07    3.65    3.20    87.42099    52.93164    37.08776
   272  N   5.0   -0.11    3.46    2.05    85.97566    52.59331    35.01791
   273  H   1.0    0.12    1.15    1.45    94.61703    49.96185    33.77474
   274  H   1.0    0.05    1.04    1.43    91.43077    51.02603    29.73728
   275  H   1.0    0.06    1.05    1.44    93.78555    54.16405    33.89404
   276  H   1.0    0.05    1.04    1.43    91.97386    55.62609    31.45725
   277  H   1.0    0.05    1.01    1.43    86.92768    52.62031    31.06719
   278  H   1.0    0.04    1.02    1.43    86.68728    52.80120    38.96681
   279  H   1.0    0.11    1.08    1.44    84.07964    52.31975    35.02733
   280  N   5.0   -0.14    3.62    2.18    96.95098    53.81843    29.58303
   281  C   4.0    0.04    4.40    4.39    98.88348    55.31179    28.36529
   282  C   4.0    0.17    3.39    3.07    99.76460    53.94776    25.93122
   283  O   6.0   -0.26    1.18    1.80   100.09905    55.04481    23.93595
   284  C   4.0   -0.03    4.29    4.17   101.14226    55.64057    30.15498
   285  C   4.0    0.03    3.73    3.26   100.57515    56.83276    32.65450
   286  N   5.0   -0.11    3.54    2.10    98.39071    58.11485    33.27430
   287  C   4.0    0.04    3.65    3.20   102.12925    57.11843    34.70747
   288  C   4.0    0.07    3.63    3.18    98.71442    59.00151    35.68199
   289  N   5.0   -0.18    2.45    1.90   100.94793    58.46716    36.55102
   290  H   1.0    0.12    1.15    1.45    97.42102    52.89433    31.20678
   291  H   1.0    0.07    1.05    1.44    98.08133    57.12818    27.76350
   292  H   1.0    0.07    1.04    1.43   101.98412    53.78607    30.49126
   293  H   1.0    0.05    1.03    1.43   102.58977    56.73326    29.16380
   294  H   1.0    0.08    1.05    1.44    96.72817    57.91969    32.36201
   295  H   1.0    0.05    1.02    1.43   104.02126    56.44538    34.94411
   296  H   1.0    0.04    1.02    1.43    97.32054    60.09506    36.65965
   297  N   5.0   -0.14    3.56    2.12   100.10494    51.48074    26.38349
   298  C   4.0    0.04    4.33    4.25   100.62233    49.47803    24.59214
   299  C   4.0    0.16    3.46    3.10    98.27568    49.01582    22.94123
   300  O   6.0   -0.28    1.29    1.80    98.52276    48.62747    20.65492
   301  C   4.0   -0.04    4.22    4.04   101.61230    47.13638    26.06957
   302  C   4.0   -0.04    4.16    3.91   100.57088    44.52782    25.36203
   303  C   4.0   -0.01    4.17    3.93   101.28846    43.59975    22.69227
   304  N   5.0   -0.14    3.43    2.04    99.05695    43.47365    21.10382
   305  C   4.0    0.09    3.33    3.06    98.32068    41.70139    19.49594
   306  N   5.0   -0.19    3.24    1.96    99.53688    39.52720    19.22177
   307  N   5.0   -0.18    3.25    1.97    96.17241    42.09210    18.20904
   308  H   1.0    0.11    1.15    1.45    99.89276    50.92351    28.20755
   309  H   1.0    0.07    1.05    1.44   102.07385    50.11091    23.25435
   310  H   1.0    0.05    1.02    1.43   103.66757    47.12366    25.92612
   311  H   1.0    0.07    1.06    1.44   101.18989    47.46333    28.05874
   312  H   1.0    0.04    1.03    1.43   101.29048    43.17876    26.74903
   313  H   1.0    0.06    1.03    1.43    98.51886    44.57227    25.54822
   314  H   1.0    0.05    1.03    1.43   102.60949    44.93093    21.82608
   315  H   1.0    0.04    1.02    1.43   102.19720    41.75643    22.79988
   316  H   1.0    0.11    1.14    1.45    98.26105    45.20734    20.86998
   317  H   1.0    0.08    1.03    1.43   101.11858    39.18272    20.22333
   318  H   1.0    0.08    1.03    1.43    98.87686    38.17097    18.05952
   319  H   1.0    0.10    1.03    1.43    95.34991    43.80992    18.27548
   320  H   1.0    0.08    1.03    1.43    95.71638    40.99530    16.72029
   321  N   5.0   -0.13    3.48    2.07    96.07594    48.81625    24.13420
   322  C   4.0    0.05    4.33    4.26    93.69446    48.50459    22.84309
   323  C   4.0    0.27    3.20    3.04    93.29037    50.55799    20.72136
   324  O   6.0   -0.27    1.17    1.80    91.83962    49.87152    18.99864
   325  C   4.0    0.05    4.16    3.91    91.40673    48.63437    24.62912
   326  O   6.0   -0.24    2.03    1.83    89.87008    46.48094    24.47998
   327  O   6.0   -0.23    1.18    1.80    94.36121    52.61842    21.00060
   328  H   1.0    0.11    1.12    1.45    95.95091    49.22735    25.99217
   329  H   1.0    0.06    1.05    1.44    93.65929    46.66695    21.88430
   330  H   1.0    0.07    1.04    1.43    92.05935    48.95760    26.55716
   331  H   1.0    0.07    1.02    1.43    90.20193    50.24211    24.13825
   332  H   1.0    0.12    1.02    1.43    90.71170    45.05697    25.26133
   333  N   5.0   -0.21    3.20    1.96    86.48979    35.19751    20.27742
   334  C   4.0    0.03    4.31    4.21    88.13709    35.70492    22.42216
   335  C   4.0    0.08    3.26    3.05    86.57944    36.57023    24.66484
   336  O   6.0   -0.33    1.20    1.80    87.15282    35.95196    26.81390
   337  C   4.0   -0.02    4.26    4.12    90.15074    37.72130    21.80624
   338  C   4.0   -0.07    4.15    3.90    91.65882    38.36440    24.18355
   339  C   4.0   -0.08    4.12    3.83    91.97029    36.76513    19.78437
   340  H   1.0    0.08    1.03    1.43    87.22439    35.51612    18.54226
   341  H   1.0    0.05    1.05    1.44    89.06990    33.95531    23.03817
   342  H   1.0    0.05    1.05    1.44    89.19205    39.43455    21.16226
   343  H   1.0    0.04    1.00    1.43    93.10653    39.74747    23.73940
   344  H   1.0    0.05    1.01    1.43    90.44669    39.13420    25.64806
   345  H   1.0    0.04    1.00    1.43    92.57385    36.68644    24.93799
   346  H   1.0    0.04    1.01    1.43    93.39028    38.20596    19.45314
   347  H   1.0    0.04    1.00    1.43    92.91285    35.06871    20.45507
   348  H   1.0    0.04    1.00    1.43    91.02876    36.35601    18.00893
   349  N   5.0   -0.21    3.24    1.97    86.97867    33.51918    31.44364
   350  C   4.0    0.03    4.32    4.24    87.71885    34.68605    33.79516
   351  C   4.0    0.08    3.27    3.05    85.46155    34.67132    35.58020
   352  O   6.0   -0.33    1.26    1.80    85.83043    34.55608    37.86925
   353  C   4.0   -0.02    4.28    4.17    88.88331    37.36092    33.52263
   354  C   4.0   -0.04    4.22    4.04    86.69418    39.19559    33.04631
   355  C   4.0   -0.07    4.10    3.80    90.97851    37.30785    31.54353
   356  C   4.0   -0.07    4.00    3.62    87.21877    42.00800    32.77458
   357  H   1.0    0.12    1.07    1.44    86.63111    34.58641    29.88339
   358  H   1.0    0.05    1.06    1.44    89.12381    33.43925    34.68437
   359  H   1.0    0.04    1.05    1.44    89.73296    37.83731    35.35139
   360  H   1.0    0.05    1.03    1.43    85.62738    38.52109    31.42184
   361  H   1.0    0.05    1.06    1.44    85.49414    39.03669    34.71165
   362  H   1.0    0.04    1.00    1.43    91.79745    39.16739    31.29276
   363  H   1.0    0.04    1.00    1.43    92.48362    36.04995    32.15874
   364  H   1.0    0.06    1.01    1.43    90.24134    36.63601    29.75663
   365  H   1.0    0.05    1.00    1.43    85.43249    42.96671    32.43419
   366  H   1.0    0.04    1.00    1.43    87.97494    42.73003    34.53796
   367  H   1.0    0.04    1.00    1.43    88.49014    42.44455    31.23275
   368  N   5.0   -0.21    3.22    1.96    85.27228    31.42485    41.73099
   369  C   4.0    0.03    4.31    4.22    84.72092    32.99931    43.90605
   370  C   4.0    0.08    3.29    3.05    82.55737    31.85516    45.42464
   371  O   6.0   -0.29    1.12    1.80    82.80470    31.39620    47.67880
   372  C   4.0   -0.02    4.28    4.16    84.02700    35.71541    43.15723
   373  C   4.0   -0.07    4.20    4.00    82.56744    36.97330    45.28843
   374  C   4.0   -0.07    4.13    3.85    86.36303    37.30567    42.60302
   375  H   1.0    0.12    1.11    1.45    85.27988    32.32422    40.03235
   376  H   1.0    0.05    1.05    1.44    86.37716    33.00425    45.16158
   377  H   1.0    0.05    1.06    1.44    82.82245    35.62375    41.48256
   378  H   1.0    0.04    1.06    1.44    82.07115    38.86910    44.71997
   379  H   1.0    0.05    1.01    1.43    80.84236    35.96744    45.75266
   380  H   1.0    0.04    1.00    1.43    83.74854    37.08613    46.96021
   381  H   1.0    0.04    1.00    1.43    85.79248    39.20799    42.07553
   382  H   1.0    0.03    1.00    1.43    87.51700    37.42337    44.29240
   383  H   1.0    0.06    1.01    1.43    87.46508    36.49602    41.08147
   384  H   1.0    0.09    1.07    1.44   116.47457    57.58084    52.84205
   385  H   1.0    0.05    1.04    1.43   111.11323    60.58692    50.55851
   386  H   1.0    0.09    1.07    1.44   116.27525    59.43929    42.75377
   387  H   1.0    0.06    1.04    1.43   112.88869    64.61667    41.11635
   388  H   1.0    0.09    1.07    1.44   119.41306    63.24194    35.59229
   389  H   1.0    0.07    1.04    1.43   113.34314    62.36981    32.82814
   390  H   1.0    0.10    1.07    1.44    75.68804    52.40445    41.37713
   391  H   1.0    0.06    1.04    1.44    75.89321    46.38214    35.99872
   392  H   1.0    0.09    1.07    1.44    85.06202    62.76501    47.51215
   393  H   1.0    0.06    1.05    1.44    89.49515    66.03539    50.61175
   394  H   1.0    0.09    1.07    1.44    98.46842    46.41727    55.94465
   395  H   1.0    0.09    1.07    1.44    86.02729    33.56091    20.29150
   396  H   1.0    0.06    1.05    1.44    85.06042    37.66161    24.39551
   397  H   1.0    0.10    1.07    1.44    88.19841    32.45022    30.93166
   398  H   1.0    0.05    1.04    1.44    83.70644    34.75484    34.88475
   399  H   1.0    0.10    1.07    1.44    86.81446    30.73024    41.90925
   400  H   1.0    0.05    1.05    1.44    80.91088    31.47014    44.58091

  Z AO/shell   Hii/eV     exponent
  1     Wed Apr 25 08:07:45 CEST 2018   EN: 2.200 GM2: 0.406  GM3: 0.0800  RAES: 1.40
     1s    -10.707211    1.230000
  6     Wed Apr 25 08:07:45 CEST 2018   EN: 2.550 GM2: 0.538  GM3: 0.1500  RAES: 3.00
     2s    -13.970922    2.096432
     2p    -10.063292    1.800000
  7     Wed Apr 25 08:07:45 CEST 2018   EN: 3.040 GM2: 0.461  GM3:-0.0640  RAES: 1.90
     2s    -16.686243    2.339881
     2p    -12.523956    2.014332
  8     Wed Apr 25 08:07:45 CEST 2018   EN: 3.440 GM2: 0.452  GM3:-0.0517  RAES: 1.80
     2s    -20.229985    2.439742
     2p    -15.503117    2.137023
 no old-style atom pair restraining (fixing) potential

molecular fragmentation (1/2 indicates fragments):
111111111111111111112222222222222222222222222222222222222222222222222222
222222222222222222222222222222222222222222222222222222222222222222222222
222222222222222222222222222222222222222222222222222222222222222222222222
222222222222222222222222222222222222222222222222222222222222222222222222
222222222222222222222222222222222222222222222222222222222222222222222222
2222222222222222222222211222222222222222
# atoms in fragment 1/2:    22   378
 fragment masses (1/2) :      149.19     2450.08
CMA distance (Bohr)    :  20.404
constraining FC (au)   :  0.0500
           ------------------------------------------------- 
          |        Self-Consistent Charge Iterations        |
           ------------------------------------------------- 

 Ncao       : 952
 Nao        : 952
 Nshell     : 584
 Nel        : 1038
 T(el)      :   500.0
 intcut     :    35.0
 scfconv/Eh :  0.100E-06
   qconv/e  :  0.100E-04
 intneglect :  0.100E-08
 broydamp   :      0.400
 iter      E             dE          RMSdq      gap      omega  full diag
   1   -587.8398811 -0.587840E+03  0.435E+00    3.13       0.0  T
   2   -589.0381985 -0.119832E+01  0.208E+00    1.82       1.0  T
   3   -589.1058303 -0.676317E-01  0.118E+00    1.92       1.0  T
   4   -589.2012178 -0.953875E-01  0.220E-01    1.41       1.0  T
   5   -589.2059957 -0.477790E-02  0.105E-01    1.50       1.0  T
   6   -589.2069078 -0.912138E-03  0.454E-02    1.52       1.0  T
   7   -589.2071326 -0.224751E-03  0.194E-02    1.51       1.0  T
   8   -589.2071675 -0.349003E-04  0.905E-03    1.50       1.0  T
   9   -589.2071757 -0.826067E-05  0.441E-03    1.50       1.1  T
  10   -589.2071776 -0.190220E-05  0.203E-03    1.50       2.5  T
  11   -589.2071780 -0.369141E-06  0.982E-04    1.50       5.1  T
  12   -589.2071781 -0.100930E-06  0.455E-04    1.49      11.0  T
  13   -589.2071781 -0.217776E-07  0.199E-04    1.49      25.1  T
  14   -589.2071781 -0.294551E-08  0.103E-04    1.49      48.4  T
  15   -589.2071781 -0.983846E-09  0.416E-05    1.49     120.1  T
  16   -589.2071781 -0.166551E-09  0.177E-05    1.49     282.0  T
speedup  1.00
cpu  time for SCC    5.81 s
wall time for SCC    5.81 s

   *** convergence criteria satisfied after 16 iterations ***

          eigenvalues
 #    :         507        508        509        510        511        512        513        514
 occ. :        2.000      2.000      2.000      2.000      2.000      2.000      2.000      2.000
 eps  :       -10.444    -10.345    -10.270    -10.266    -10.232    -10.090     -9.993     -9.975
 #    :         515        516        517        518        519        520        521        522
 occ. :        2.000      2.000      2.000      2.000      2.000      0.000      0.000      0.000
 eps  :        -9.912     -9.633     -9.626     -9.619     -9.576     -8.082     -7.842     -7.692
 #    :         523        524        525        526        527        528        529        530
 occ. :        0.000      0.000      0.000      0.000      0.000      0.000      0.000      0.000
 eps  :        -7.669     -7.666     -7.572     -7.383     -7.379     -6.894     -6.688     -6.572


   #   Z            q   n(s)   n(p)   n(d)      C6AA      α(0)
   1   7 N     -0.393  1.318  4.075  0.000    30.184     8.160
   2   6 C      0.043  1.060  2.898  0.000    19.881     6.352
   3   6 C      0.199  1.094  2.707  0.000    23.768     7.984
   4   8 O     -0.365  1.750  4.614  0.000    20.989     6.142
   5   6 C     -0.078  1.060  3.019  0.000    21.990     6.675
   6   6 C      0.006  1.082  2.911  0.000    27.883     8.661
   7   6 C     -0.043  1.079  2.964  0.000    29.078     8.843
   8   6 C     -0.041  1.082  2.959  0.000    29.016     8.834
   9   6 C     -0.034  1.080  2.954  0.000    28.849     8.808
  10   6 C     -0.032  1.080  2.953  0.000    28.806     8.801
  11   6 C     -0.042  1.080  2.962  0.000    29.036     8.837
  12   1 H      0.171  0.829  0.000  0.000     1.267     1.764
  13   1 H      0.051  0.949  0.000  0.000     2.307     2.375
  14   1 H      0.063  0.937  0.000  0.000     2.166     2.301
  15   1 H      0.062  0.938  0.000  0.000     2.178     2.308
  16   1 H      0.043  0.957  0.000  0.000     2.415     2.430
  17   1 H      0.045  0.955  0.000  0.000     2.380     2.413
  18   1 H      0.041  0.959  0.000  0.000     2.430     2.438
  19   1 H      0.036  0.964  0.000  0.000     2.501     2.473
  20   1 H      0.044  0.956  0.000  0.000     2.398     2.422
  21   7 N     -0.413  1.325  4.088  0.000    30.743     8.235
  22   6 C      0.049  1.049  2.902  0.000    19.767     6.333
  23   6 C      0.195  1.091  2.714  0.000    23.830     7.995
  24   8 O     -0.399  1.761  4.638  0.000    21.663     6.240
  25   6 C     -0.071  1.058  3.013  0.000    21.848     6.653
  26   6 C     -0.021  1.055  2.966  0.000    20.906     6.503
  27   6 C     -0.113  1.038  3.075  0.000    22.710     6.794
  28   6 C     -0.108  1.038  3.070  0.000    22.613     6.780
  29   1 H      0.197  0.803  0.000  0.000     1.120     1.657
  30   1 H      0.047  0.953  0.000  0.000     2.361     2.403
  31   1 H      0.066  0.934  0.000  0.000     2.129     2.282
  32   1 H      0.031  0.969  0.000  0.000     2.569     2.506
  33   1 H      0.057  0.943  0.000  0.000     2.239     2.340
  34   1 H      0.036  0.964  0.000  0.000     2.496     2.471
  35   1 H      0.026  0.974  0.000  0.000     2.645     2.543
  36   1 H      0.039  0.961  0.000  0.000     2.461     2.453
  37   1 H      0.039  0.961  0.000  0.000     2.457     2.451
  38   1 H      0.028  0.972  0.000  0.000     2.610     2.526
  39   1 H      0.045  0.955  0.000  0.000     2.380     2.412
  40   7 N     -0.388  1.324  4.064  0.000    30.044     8.141
  41   6 C      0.039  1.062  2.898  0.000    19.940     6.362
  42   6 C      0.206  1.096  2.698  0.000    23.625     7.960
  43   8 O     -0.387  1.767  4.621  0.000    21.425     6.206
  44   6 C     -0.072  1.061  3.011  0.000    21.863     6.656
  45   6 C     -0.008  1.078  2.929  0.000    28.208     8.712
  46   6 C     -0.045  1.084  2.960  0.000    29.106     8.847
  47   6 C     -0.044  1.082  2.962  0.000    29.102     8.847
  48   6 C     -0.064  1.076  2.988  0.000    29.584     8.919
  49   6 C     -0.068  1.079  2.989  0.000    29.698     8.936
  50   6 C      0.145  1.046  2.809  0.000    24.838     8.168
  51   8 O     -0.430  1.713  4.717  0.000    21.442     6.251
  52   1 H      0.157  0.843  0.000  0.000     1.358     1.825
  53   1 H      0.059  0.941  0.000  0.000     2.206     2.323
  54   1 H      0.058  0.942  0.000  0.000     2.221     2.331
  55   1 H      0.053  0.947  0.000  0.000     2.289     2.366
  56   1 H      0.044  0.956  0.000  0.000     2.394     2.420
  57   1 H      0.044  0.956  0.000  0.000     2.398     2.421
  58   1 H      0.047  0.953  0.000  0.000     2.358     2.401
  59   1 H      0.040  0.960  0.000  0.000     2.444     2.445
  60   1 H      0.335  0.665  0.000  0.000     0.624     1.241
  61   7 N     -0.400  1.317  4.083  0.000    30.385     8.187
  62   6 C      0.023  1.065  2.911  0.000    20.190     6.399
  63   6 C      0.272  1.047  2.680  0.000    22.395     7.749
  64   8 O     -0.518  1.749  4.768  0.000    24.183     6.593
  65   6 C     -0.019  1.063  2.956  0.000    20.876     6.498
  66   6 C     -0.122  1.041  3.081  0.000    22.886     6.821
  67   6 C     -0.117  1.039  3.078  0.000    22.788     6.806
  68   1 H      0.173  0.827  0.000  0.000     1.255     1.755
  69   1 H      0.028  0.972  0.000  0.000     2.617     2.530
  70   1 H      0.054  0.946  0.000  0.000     2.275     2.359
  71   1 H      0.059  0.941  0.000  0.000     2.206     2.323
  72   1 H      0.053  0.947  0.000  0.000     2.279     2.361
  73   1 H      0.032  0.968  0.000  0.000     2.561     2.503
  74   1 H      0.055  0.945  0.000  0.000     2.262     2.352
  75   1 H      0.035  0.965  0.000  0.000     2.516     2.481
  76   1 H      0.038  0.962  0.000  0.000     2.469     2.457
  77   7 N     -0.163  1.236  3.926  0.000    24.516     7.354
  78   6 C      0.031  1.056  2.913  0.000    20.071     6.381
  79   6 C      0.199  1.087  2.714  0.000    23.758     7.983
  80   8 O     -0.372  1.765  4.607  0.000    21.136     6.164
  81   6 C     -0.078  1.053  3.025  0.000    21.973     6.671
  82   6 C      0.009  1.075  2.916  0.000    27.824     8.652
  83   6 C     -0.044  1.079  2.964  0.000    29.085     8.845
  84   6 C     -0.040  1.076  2.964  0.000    28.986     8.829
  85   6 C     -0.031  1.081  2.949  0.000    28.770     8.796
  86   6 C     -0.049  1.083  2.966  0.000    29.215     8.864
  87   6 C     -0.040  1.079  2.961  0.000    28.985     8.829
  88   1 H      0.228  0.772  0.000  0.000     0.972     1.545
  89   1 H      0.082  0.918  0.000  0.000     1.956     2.187
  90   1 H      0.074  0.926  0.000  0.000     2.046     2.237
  91   1 H      0.076  0.924  0.000  0.000     2.024     2.225
  92   1 H      0.040  0.960  0.000  0.000     2.444     2.445
  93   1 H      0.026  0.974  0.000  0.000     2.645     2.543
  94   1 H      0.052  0.948  0.000  0.000     2.299     2.371
  95   1 H      0.069  0.931  0.000  0.000     2.094     2.263
  96   1 H      0.055  0.945  0.000  0.000     2.253     2.347
  97   7 N     -0.393  1.312  4.081  0.000    30.184     8.160
  98   6 C      0.042  1.054  2.903  0.000    19.883     6.352
  99   6 C      0.199  1.093  2.708  0.000    23.758     7.983
 100   8 O     -0.389  1.762  4.627  0.000    21.465     6.212
 101   6 C     -0.070  1.059  3.011  0.000    21.835     6.651
 102   6 C     -0.009  1.055  2.953  0.000    20.695     6.470
 103   6 C     -0.122  1.042  3.081  0.000    22.897     6.822
 104   6 C     -0.119  1.041  3.078  0.000    22.824     6.812
 105   1 H      0.166  0.834  0.000  0.000     1.295     1.782
 106   1 H      0.050  0.950  0.000  0.000     2.322     2.383
 107   1 H      0.047  0.953  0.000  0.000     2.353     2.399
 108   1 H      0.049  0.951  0.000  0.000     2.331     2.388
 109   1 H      0.033  0.967  0.000  0.000     2.550     2.497
 110   1 H      0.045  0.955  0.000  0.000     2.385     2.415
 111   1 H      0.034  0.966  0.000  0.000     2.530     2.487
 112   1 H      0.052  0.948  0.000  0.000     2.289     2.366
 113   1 H      0.045  0.955  0.000  0.000     2.380     2.413
 114   1 H      0.047  0.953  0.000  0.000     2.361     2.403
 115   1 H      0.043  0.957  0.000  0.000     2.414     2.429
 116   7 N     -0.392  1.305  4.088  0.000    30.159     8.156
 117   6 C      0.022  1.061  2.917  0.000    20.217     6.403
 118   6 C      0.261  1.047  2.691  0.000    22.601     7.786
 119   8 O     -0.493  1.736  4.757  0.000    23.629     6.517
 120   6 C     -0.021  1.064  2.957  0.000    20.909     6.503
 121   6 C     -0.066  1.048  3.018  0.000    21.761     6.641
 122   6 C     -0.114  1.037  3.078  0.000    22.745     6.800
 123   6 C     -0.111  1.035  3.076  0.000    22.682     6.792
 124   1 H      0.165  0.835  0.000  0.000     1.305     1.789
 125   1 H      0.044  0.956  0.000  0.000     2.393     2.419
 126   1 H      0.038  0.962  0.000  0.000     2.480     2.463
 127   1 H      0.041  0.959  0.000  0.000     2.437     2.441
 128   1 H      0.034  0.966  0.000  0.000     2.532     2.488
 129   1 H      0.049  0.951  0.000  0.000     2.338     2.391
 130   1 H      0.043  0.957  0.000  0.000     2.413     2.429
 131   1 H      0.046  0.954  0.000  0.000     2.368     2.406
 132   1 H      0.041  0.959  0.000  0.000     2.430     2.438
 133   1 H      0.037  0.963  0.000  0.000     2.485     2.465
 134   1 H      0.043  0.957  0.000  0.000     2.412     2.429
 135   7 N     -0.171  1.240  3.931  0.000    24.695     7.381
 136   6 C      0.012  1.064  2.925  0.000    20.372     6.425
 137   6 C      0.271  1.045  2.685  0.000    22.433     7.759
 138   8 O     -0.464  1.730  4.734  0.000    23.001     6.430
 139   6 C     -0.031  1.066  2.964  0.000    21.083     6.531
 140   6 C     -0.066  1.050  3.015  0.000    21.755     6.640
 141   6 C     -0.125  1.042  3.084  0.000    22.952     6.830
 142   6 C     -0.112  1.036  3.075  0.000    22.697     6.794
 143   1 H      0.224  0.776  0.000  0.000     0.991     1.559
 144   1 H      0.086  0.914  0.000  0.000     1.916     2.164
 145   1 H      0.058  0.942  0.000  0.000     2.228     2.334
 146   1 H      0.046  0.954  0.000  0.000     2.375     2.410
 147   1 H      0.044  0.956  0.000  0.000     2.392     2.418
 148   1 H      0.062  0.938  0.000  0.000     2.178     2.308
 149   1 H      0.053  0.947  0.000  0.000     2.287     2.365
 150   1 H      0.049  0.951  0.000  0.000     2.337     2.390
 151   1 H      0.039  0.961  0.000  0.000     2.467     2.456
 152   1 H      0.045  0.955  0.000  0.000     2.380     2.413
 153   1 H      0.040  0.960  0.000  0.000     2.448     2.447
 154   7 N     -0.175  1.239  3.936  0.000    24.782     7.394
 155   6 C     -0.012  1.067  2.944  0.000    20.772     6.487
 156   6 C      0.280  1.040  2.680  0.000    22.263     7.728
 157   8 O     -0.485  1.736  4.750  0.000    23.463     6.494
 158   6 C      0.109  1.045  2.846  0.000    18.891     6.207
 159   8 O     -0.466  1.726  4.740  0.000    22.173     6.357
 160   6 C     -0.144  1.047  3.098  0.000    23.347     6.891
 161   1 H      0.223  0.777  0.000  0.000     0.995     1.563
 162   1 H      0.102  0.898  0.000  0.000     1.771     2.081
 163   1 H      0.057  0.943  0.000  0.000     2.237     2.339
 164   1 H      0.320  0.680  0.000  0.000     0.664     1.280
 165   1 H      0.074  0.926  0.000  0.000     2.040     2.233
 166   1 H      0.064  0.936  0.000  0.000     2.150     2.293
 167   1 H      0.065  0.935  0.000  0.000     2.142     2.289
 168   7 N     -0.161  1.239  3.922  0.000    24.475     7.348
 169   6 C      0.018  1.067  2.915  0.000    20.256     6.406
 170   6 C      0.282  1.039  2.678  0.000    22.223     7.720
 171   8 O     -0.511  1.744  4.767  0.000    24.040     6.574
 172   6 C     -0.023  1.062  2.961  0.000    20.946     6.509
 173   6 C     -0.121  1.038  3.083  0.000    22.880     6.820
 174   6 C     -0.128  1.041  3.087  0.000    23.016     6.840
 175   1 H      0.202  0.798  0.000  0.000     1.094     1.639
 176   1 H      0.077  0.923  0.000  0.000     2.014     2.219
 177   1 H      0.051  0.949  0.000  0.000     2.310     2.377
 178   1 H      0.058  0.942  0.000  0.000     2.227     2.334
 179   1 H      0.036  0.964  0.000  0.000     2.498     2.472
 180   1 H      0.055  0.945  0.000  0.000     2.262     2.352
 181   1 H      0.058  0.942  0.000  0.000     2.226     2.333
 182   1 H      0.057  0.943  0.000  0.000     2.237     2.339
 183   1 H      0.042  0.958  0.000  0.000     2.423     2.434
 184   7 N     -0.195  1.256  3.939  0.000    25.243     7.462
 185   6 C      0.023  1.063  2.914  0.000    20.184     6.395
 186   6 C      0.266  1.047  2.686  0.000    22.504     7.768
 187   8 O     -0.518  1.738  4.780  0.000    24.192     6.595
 188   6 C     -0.017  1.062  2.955  0.000    20.837     6.492
 189   6 C     -0.121  1.040  3.081  0.000    22.878     6.820
 190   6 C     -0.124  1.042  3.082  0.000    22.935     6.827
 191   1 H      0.247  0.753  0.000  0.000     0.896     1.483
 192   1 H      0.063  0.937  0.000  0.000     2.164     2.301
 193   1 H      0.052  0.948  0.000  0.000     2.296     2.370
 194   1 H      0.060  0.940  0.000  0.000     2.204     2.321
 195   1 H      0.040  0.960  0.000  0.000     2.449     2.447
 196   1 H      0.049  0.951  0.000  0.000     2.332     2.388
 197   1 H      0.056  0.944  0.000  0.000     2.242     2.342
 198   1 H      0.046  0.954  0.000  0.000     2.370     2.407
 199   1 H      0.057  0.943  0.000  0.000     2.232     2.337
 200   7 N     -0.188  1.253  3.935  0.000    25.073     7.437
 201   6 C      0.012  1.062  2.927  0.000    20.378     6.427
 202   6 C      0.267  1.042  2.691  0.000    22.495     7.767
 203   8 O     -0.505  1.751  4.754  0.000    23.902     6.555
 204   6 C     -0.013  1.061  2.952  0.000    20.764     6.481
 205   6 C     -0.136  1.042  3.094  0.000    23.166     6.862
 206   6 C     -0.141  1.042  3.098  0.000    23.270     6.878
 207   1 H      0.265  0.735  0.000  0.000     0.827     1.425
 208   1 H      0.075  0.925  0.000  0.000     2.029     2.228
 209   1 H      0.039  0.961  0.000  0.000     2.461     2.453
 210   1 H      0.070  0.930  0.000  0.000     2.080     2.256
 211   1 H      0.038  0.962  0.000  0.000     2.469     2.457
 212   1 H      0.074  0.926  0.000  0.000     2.046     2.237
 213   1 H      0.066  0.934  0.000  0.000     2.132     2.284
 214   1 H      0.079  0.921  0.000  0.000     1.993     2.207
 215   1 H      0.040  0.960  0.000  0.000     2.451     2.448
 216   7 N     -0.185  1.249  3.936  0.000    25.019     7.429
 217   6 C      0.013  1.064  2.924  0.000    20.360     6.424
 218   6 C      0.277  1.046  2.677  0.000    22.322     7.738
 219   8 O     -0.503  1.749  4.754  0.000    23.856     6.548
 220   6 C     -0.021  1.063  2.958  0.000    20.909     6.504
 221   6 C     -0.072  1.049  3.023  0.000    21.874     6.658
 222   6 C     -0.140  1.042  3.099  0.000    23.253     6.875
 223   6 C     -0.109  1.036  3.073  0.000    22.652     6.787
 224   1 H      0.251  0.749  0.000  0.000     0.881     1.470
 225   1 H      0.084  0.916  0.000  0.000     1.943     2.180
 226   1 H      0.038  0.962  0.000  0.000     2.479     2.462
 227   1 H      0.056  0.944  0.000  0.000     2.241     2.341
 228   1 H      0.025  0.975  0.000  0.000     2.657     2.549
 229   1 H      0.063  0.937  0.000  0.000     2.165     2.301
 230   1 H      0.053  0.947  0.000  0.000     2.285     2.364
 231   1 H      0.075  0.925  0.000  0.000     2.027     2.226
 232   1 H      0.049  0.951  0.000  0.000     2.334     2.389
 233   1 H      0.043  0.957  0.000  0.000     2.407     2.426
 234   1 H      0.042  0.958  0.000  0.000     2.418     2.432
 235   7 N     -0.204  1.266  3.939  0.000    25.446     7.492
 236   6 C      0.033  1.054  2.913  0.000    20.008     6.366
 237   6 C      0.281  1.040  2.679  0.000    22.251     7.724
 238   8 O     -0.504  1.741  4.763  0.000    23.879     6.552
 239   6 C     -0.114  1.063  3.051  0.000    22.670     6.778
 240   6 C      0.290  1.034  2.676  0.000    22.074     7.693
 241   8 O     -0.486  1.747  4.739  0.000    23.468     6.495
 242   7 N     -0.271  1.257  4.014  0.000    27.026     7.721
 243   1 H      0.236  0.764  0.000  0.000     0.938     1.517
 244   1 H      0.078  0.922  0.000  0.000     1.997     2.210
 245   1 H      0.094  0.906  0.000  0.000     1.842     2.123
 246   1 H      0.088  0.912  0.000  0.000     1.897     2.154
 247   1 H      0.233  0.767  0.000  0.000     0.953     1.529
 248   1 H      0.232  0.768  0.000  0.000     0.959     1.534
 249   7 N     -0.209  1.260  3.948  0.000    25.539     7.506
 250   6 C      0.009  1.067  2.924  0.000    20.439     6.439
 251   6 C      0.273  1.044  2.683  0.000    22.386     7.747
 252   8 O     -0.493  1.744  4.749  0.000    23.633     6.518
 253   6 C      0.106  1.042  2.851  0.000    18.917     6.208
 254   8 O     -0.459  1.711  4.748  0.000    22.036     6.337
 255   6 C     -0.121  1.040  3.081  0.000    22.881     6.821
 256   1 H      0.243  0.757  0.000  0.000     0.909     1.494
 257   1 H      0.082  0.918  0.000  0.000     1.960     2.189
 258   1 H      0.051  0.949  0.000  0.000     2.306     2.375
 259   1 H      0.337  0.663  0.000  0.000     0.620     1.237
 260   1 H      0.082  0.918  0.000  0.000     1.963     2.191
 261   1 H      0.040  0.960  0.000  0.000     2.455     2.450
 262   1 H      0.051  0.949  0.000  0.000     2.304     2.374
 263   7 N     -0.217  1.273  3.944  0.000    25.732     7.534
 264   6 C      0.036  1.059  2.904  0.000    19.966     6.362
 265   6 C      0.276  1.038  2.686  0.000    22.337     7.740
 266   8 O     -0.510  1.766  4.744  0.000    24.012     6.570
 267   6 C     -0.071  1.052  3.019  0.000    21.835     6.650
 268   6 C      0.055  1.059  2.886  0.000    26.189     8.336
 269   7 N     -0.289  1.476  3.813  0.000    28.335     7.892
 270   6 C     -0.027  1.060  2.967  0.000    28.617     8.774
 271   6 C      0.084  1.059  2.857  0.000    25.770     8.293
 272   7 N     -0.101  1.249  3.851  0.000    23.209     7.155
 273   1 H      0.249  0.751  0.000  0.000     0.888     1.477
 274   1 H      0.040  0.960  0.000  0.000     2.443     2.445
 275   1 H      0.081  0.919  0.000  0.000     1.965     2.192
 276   1 H      0.032  0.968  0.000  0.000     2.560     2.502
 277   1 H      0.015  0.985  0.000  0.000     2.803     2.618
 278   1 H      0.058  0.942  0.000  0.000     2.221     2.331
 279   1 H      0.223  0.777  0.000  0.000     0.996     1.564
 280   7 N     -0.213  1.255  3.958  0.000    25.647     7.521
 281   6 C      0.031  1.060  2.909  0.000    20.060     6.378
 282   6 C      0.277  1.041  2.682  0.000    22.309     7.734
 283   8 O     -0.505  1.758  4.746  0.000    23.887     6.553
 284   6 C     -0.080  1.051  3.029  0.000    22.025     6.681
 285   6 C      0.045  1.066  2.889  0.000    26.944     8.513
 286   7 N     -0.108  1.248  3.860  0.000    23.359     7.178
 287   6 C      0.003  1.058  2.939  0.000    27.666     8.602
 288   6 C      0.085  1.060  2.854  0.000    25.905     8.333
 289   7 N     -0.271  1.469  3.802  0.000    27.880     7.828
 290   1 H      0.246  0.754  0.000  0.000     0.898     1.484
 291   1 H      0.050  0.950  0.000  0.000     2.324     2.384
 292   1 H      0.082  0.918  0.000  0.000     1.955     2.187
 293   1 H      0.064  0.936  0.000  0.000     2.152     2.294
 294   1 H      0.174  0.826  0.000  0.000     1.247     1.749
 295   1 H      0.028  0.972  0.000  0.000     2.617     2.530
 296   1 H      0.051  0.949  0.000  0.000     2.313     2.378
 297   7 N     -0.213  1.258  3.955  0.000    25.640     7.520
 298   6 C      0.022  1.066  2.913  0.000    20.227     6.406
 299   6 C      0.283  1.042  2.675  0.000    22.211     7.717
 300   8 O     -0.517  1.746  4.770  0.000    24.158     6.590
 301   6 C     -0.093  1.063  3.030  0.000    22.280     6.721
 302   6 C     -0.086  1.056  3.030  0.000    22.144     6.700
 303   6 C     -0.023  1.055  2.968  0.000    21.080     6.553
 304   7 N     -0.154  1.221  3.933  0.000    24.326     7.325
 305   6 C      0.235  1.017  2.747  0.000    23.075     7.865
 306   7 N     -0.242  1.224  4.018  0.000    26.315     7.619
 307   7 N     -0.258  1.239  4.020  0.000    26.702     7.675
 308   1 H      0.234  0.766  0.000  0.000     0.948     1.525
 309   1 H      0.065  0.935  0.000  0.000     2.136     2.286
 310   1 H      0.078  0.922  0.000  0.000     1.999     2.211
 311   1 H      0.079  0.921  0.000  0.000     1.992     2.207
 312   1 H      0.090  0.910  0.000  0.000     1.879     2.144
 313   1 H      0.061  0.939  0.000  0.000     2.191     2.315
 314   1 H      0.079  0.921  0.000  0.000     1.993     2.208
 315   1 H      0.102  0.898  0.000  0.000     1.767     2.079
 316   1 H      0.210  0.790  0.000  0.000     1.057     1.610
 317   1 H      0.256  0.744  0.000  0.000     0.859     1.452
 318   1 H      0.267  0.733  0.000  0.000     0.821     1.420
 319   1 H      0.208  0.792  0.000  0.000     1.064     1.616
 320   1 H      0.257  0.743  0.000  0.000     0.856     1.449
 321   7 N     -0.177  1.252  3.925  0.000    24.825     7.400
 322   6 C      0.009  1.078  2.913  0.000    20.437     6.439
 323   6 C      0.377  1.020  2.603  0.000    20.615     7.430
 324   8 O     -0.632  1.762  4.870  0.000    26.922     6.957
 325   6 C      0.089  1.033  2.878  0.000    19.313     6.295
 326   8 O     -0.460  1.713  4.747  0.000    22.050     6.339
 327   8 O     -0.633  1.782  4.852  0.000    26.953     6.961
 328   1 H      0.200  0.800  0.000  0.000     1.106     1.647
 329   1 H      0.045  0.955  0.000  0.000     2.383     2.414
 330   1 H      0.041  0.959  0.000  0.000     2.432     2.439
 331   1 H      0.009  0.991  0.000  0.000     2.914     2.670
 332   1 H      0.332  0.668  0.000  0.000     0.632     1.249
 333   7 N     -0.398  1.321  4.077  0.000    30.314     8.177
 334   6 C      0.038  1.058  2.904  0.000    19.955     6.363
 335   6 C      0.201  1.091  2.708  0.000    23.720     7.976
 336   8 O     -0.373  1.740  4.633  0.000    21.142     6.165
 337   6 C     -0.017  1.063  2.954  0.000    20.834     6.492
 338   6 C     -0.119  1.040  3.079  0.000    22.829     6.812
 339   6 C     -0.127  1.042  3.085  0.000    22.996     6.837
 340   1 H      0.169  0.831  0.000  0.000     1.281     1.773
 341   1 H      0.049  0.951  0.000  0.000     2.338     2.391
 342   1 H      0.042  0.958  0.000  0.000     2.416     2.431
 343   1 H      0.048  0.952  0.000  0.000     2.350     2.397
 344   1 H      0.028  0.972  0.000  0.000     2.621     2.532
 345   1 H      0.059  0.941  0.000  0.000     2.212     2.326
 346   1 H      0.060  0.940  0.000  0.000     2.198     2.318
 347   1 H      0.062  0.938  0.000  0.000     2.181     2.310
 348   1 H      0.047  0.953  0.000  0.000     2.359     2.402
 349   7 N     -0.408  1.314  4.094  0.000    30.606     8.216
 350   6 C      0.036  1.061  2.902  0.000    19.979     6.366
 351   6 C      0.191  1.094  2.714  0.000    23.910     8.008
 352   8 O     -0.375  1.742  4.632  0.000    21.181     6.170
 353   6 C     -0.016  1.068  2.948  0.000    20.835     6.492
 354   6 C     -0.061  1.049  3.012  0.000    21.669     6.627
 355   6 C     -0.121  1.037  3.084  0.000    22.876     6.820
 356   6 C     -0.109  1.036  3.073  0.000    22.646     6.787
 357   1 H      0.186  0.814  0.000  0.000     1.178     1.700
 358   1 H      0.056  0.944  0.000  0.000     2.251     2.346
 359   1 H      0.032  0.968  0.000  0.000     2.553     2.499
 360   1 H      0.042  0.958  0.000  0.000     2.423     2.434
 361   1 H      0.032  0.968  0.000  0.000     2.554     2.499
 362   1 H      0.048  0.952  0.000  0.000     2.349     2.397
 363   1 H      0.044  0.956  0.000  0.000     2.402     2.423
 364   1 H      0.058  0.942  0.000  0.000     2.219     2.330
 365   1 H      0.035  0.965  0.000  0.000     2.516     2.480
 366   1 H      0.038  0.962  0.000  0.000     2.478     2.462
 367   1 H      0.036  0.964  0.000  0.000     2.501     2.473
 368   7 N     -0.414  1.328  4.085  0.000    30.761     8.237
 369   6 C      0.040  1.059  2.901  0.000    19.924     6.358
 370   6 C      0.208  1.090  2.702  0.000    23.592     7.955
 371   8 O     -0.393  1.756  4.637  0.000    21.548     6.224
 372   6 C     -0.017  1.062  2.954  0.000    20.833     6.492
 373   6 C     -0.125  1.040  3.085  0.000    22.945     6.828
 374   6 C     -0.120  1.041  3.079  0.000    22.855     6.816
 375   1 H      0.198  0.802  0.000  0.000     1.116     1.655
 376   1 H      0.039  0.961  0.000  0.000     2.459     2.453
 377   1 H      0.044  0.956  0.000  0.000     2.400     2.423
 378   1 H      0.067  0.933  0.000  0.000     2.117     2.275
 379   1 H      0.024  0.976  0.000  0.000     2.671     2.556
 380   1 H      0.040  0.960  0.000  0.000     2.449     2.447
 381   1 H      0.043  0.957  0.000  0.000     2.407     2.426
 382   1 H      0.050  0.950  0.000  0.000     2.325     2.384
 383   1 H      0.057  0.943  0.000  0.000     2.233     2.337
 384   1 H      0.186  0.814  0.000  0.000     1.180     1.701
 385   1 H      0.074  0.926  0.000  0.000     2.046     2.237
 386   1 H      0.175  0.825  0.000  0.000     1.243     1.746
 387   1 H      0.067  0.933  0.000  0.000     2.118     2.276
 388   1 H      0.195  0.805  0.000  0.000     1.131     1.666
 389   1 H      0.077  0.923  0.000  0.000     2.015     2.220
 390   1 H      0.176  0.824  0.000  0.000     1.234     1.740
 391   1 H      0.082  0.918  0.000  0.000     1.962     2.190
 392   1 H      0.181  0.819  0.000  0.000     1.207     1.721
 393   1 H      0.070  0.930  0.000  0.000     2.081     2.256
 394   1 H      0.182  0.818  0.000  0.000     1.204     1.719
 395   1 H      0.182  0.818  0.000  0.000     1.202     1.717
 396   1 H      0.063  0.937  0.000  0.000     2.159     2.298
 397   1 H      0.178  0.822  0.000  0.000     1.223     1.733
 398   1 H      0.067  0.933  0.000  0.000     2.118     2.276
 399   1 H      0.177  0.823  0.000  0.000     1.229     1.736
 400   1 H      0.060  0.940  0.000  0.000     2.197     2.318

 Mol. C6AA /au·bohr⁶  :    1429165.056396
 Mol. C8AA /au·bohr⁸  :   31660677.838337
 Mol. α(0) /au        :       1799.548870

 
molecular dipole:
                 x           y           z       tot (Debye)
 q only:        3.298     -17.581      25.877
   full:        2.443     -17.467      26.823      81.597
molecular quadrupole (traceless):
                xx          xy          yy          xz          yz          zz
 q only:      594.015   -2415.956   -3081.288    3911.556    1281.232    2487.273
  q+dip:      412.000   -2514.437   -3065.384    4034.171    1342.014    2653.385
   full:      410.698   -2512.297   -3057.451    4033.464    1341.716    2646.753
speedup  1.00
cpu  time for grad    7.55 s
wall time for grad    7.55 s

SCC energy    :    -589.2292677
rep           :       7.6976554
ES            :       1.4364693
AES           :      -0.0235472
AXC           :       0.2373977
disp          :      -0.5392461
XB            :       0.0000000
fix           :       0.0000000
Gborn         :       0.0000000
Gsasa         :       0.0000000
Ghb           :       0.0000000
Gshift        :       0.0000000
Gsolv         :      -0.3399985     -213.35
Etot ala COSMO:    -589.2292677
grad norm     :       0.6610377
total E       :    -581.4809070
atomizationE  :     110.6433264    69429.74
(atE without considering molecular charge,
 total energy contains solvation terms)
H-L gap (eV)  :          1.4943

------------------------------------------------------------------------
 * finished run on 2019/03/14 at 15:08:37.638     
------------------------------------------------------------------------
 total:
 * wall-time:     0 d,  0 h,  0 min,  8.172 sec
 *  cpu-time:     0 d,  0 h,  0 min,  8.067 sec
 * ratio c/w:     0.987 speedup
 SCF:
 * wall-time:     0 d,  0 h,  0 min,  7.939 sec
 *  cpu-time:     0 d,  0 h,  0 min,  7.939 sec
 * ratio c/w:     1.000 speedup

