      -----------------------------------------------------------      
     |                   =====================                   |     
     |                           x T B                           |     
     |                   =====================                   |     
     |                         S. Grimme                         |     
     |          Mulliken Center for Theoretical Chemistry        |     
     |                    University of Bonn                     |     
     |                Version 6.1 RC1 (SAW190329)                |     
      -----------------------------------------------------------      

   This program is distributed in the hope that it will be useful,
   but WITHOUT ANY WARRANTY; without even the implied warranty of
   MERCHANTABILITY or FITNESS FOR A PARTICULAR PURPOSE.
   
   FOR NON-COMMERCIAL, ACADEMIA USE ONLY.
   
   Cite this work as:
   S. Grimme, C. Bannwarth, P. Shushkov, J. Comput. Theory Chem., 2017,
   13, 1989-2009. DOI: 10.1021/acs.jctc.7b00118
   C. Bannwarth, S. Ehlert and S. Grimme., J. Comput. Theory Chem., 2019,
   just accepted. DOI: 10.1021/acs.jctc.8b01176
   
   for sTDA-xTB:
   S. Grimme and C. Bannwarth, J. Chem. Phys., 2016, 145, 054103.
   DOI: 10.1063/1.4959605
   
   in the mass-spec context:
   V. Asgeirsson, C. Bauer and S. Grimme, Chem. Sci., 2017, 8, 4879.
   DOI: 10.1039/c7sc00601b
   
   for metadynamics refer to:
   S. Grimme, ChemRxiv, Preprint. DOI: 10.26434/chemrxiv.7660532.v1
   
   with help from (in alphabetical order)
   C. Bannwarth, F. Bohle, G. Brandenburg, E. Caldeweyher, M. Checinski,
   S. Dohm, S. Ehlert, S. Ehrlich, F. März, H. Neugebauer, J. Pisarek,
   P. Pracht, P. Shushkov, and S. Spicher.
   
 * started run on 2019/05/31 at 06:33:56.297     

           -------------------------------------------------
          |                Calculation Setup                |
           -------------------------------------------------

          program call               : /home/lum/qr/xtb-190329/bin/xtb xtb_tmp.xyz --chrg -1 --grad --gfn 2 --etemp 500 --acc 0.1 --gbsa h2o --parallel 2
          hostname                   : cu39
          coordinate file            : xtb_tmp.xyz
          omp threads                :                     2
          number of atoms            :                    95
          number of electrons        :                   262
          charge                     :                    -1
          spin                       :                   0.0
          first test random number   :      0.68755136637104


molecular fragmentation (1/2 indicates fragments):
111111111111111111111111111111111111111111122222222222222222222222222222
22222222222222222221122
# atoms in fragment 1/2:    45    50
 fragment masses (1/2) :      300.36      357.39
CMA distance (Bohr)    :  10.017
constraining FC (au)   :  0.0500

########################################################################
# WARNING! Please study the warnings concerning your input carefully
#  - XTBPATH is not set, using XTBHOME instead
#  - Process number higher than OMP_NUM_THREADS, I hope you know what you are doing.
########################################################################

           ------------------------------------------------- 
          |                 G F N 2 - x T B                 |
          | Geometry, Frequencies, Noncovalent interactions |
          |            JCTC 2018 parametrisation            |
           ------------------------------------------------- 
 
             k(s)              :                1.8500
             k(p)              :                2.2300
             k(d)              :                2.2300
             k(f)              :                2.0000
             kEN (H0ij)        :               -2.0000
             D4 a1             :                0.5200
             D4 a2             :                5.0000
             D4 s6             :                1.0000
             D4 s8             :                2.7000
             D4 s9             :                5.0000
             alphaj            :                2.0000

  Z AO/shell   Hii/eV     exponent
  1     Wed Apr 25 08:07:45 CEST 2018   EN: 2.200 GM2: 0.406  GM3: 0.0800  RAES: 1.40
     1s    -10.707211    1.230000
  6     Wed Apr 25 08:07:45 CEST 2018   EN: 2.550 GM2: 0.538  GM3: 0.1500  RAES: 3.00
     2s    -13.970922    2.096432
     2p    -10.063292    1.800000
  7     Wed Apr 25 08:07:45 CEST 2018   EN: 3.040 GM2: 0.461  GM3:-0.0640  RAES: 1.90
     2s    -16.686243    2.339881
     2p    -12.523956    2.014332
  8     Wed Apr 25 08:07:45 CEST 2018   EN: 3.440 GM2: 0.452  GM3:-0.0517  RAES: 1.80
     2s    -20.229985    2.439742
     2p    -15.503117    2.137023

 Solvent             : h2o
 Using internal parameter file: .param_gbsa2_h2o
 Gsolv ref. state (COSMO-RS): gsolv [1 M gas/solution]
 temperature (mdtemp)       :    298.150000000000     
 dielectric constant        :    80.2000000000000     
 rho                        :    1.00000000000000     
 mass                       :    18.0000000000000     
 surface tension            :    15.5689454083859     
 probe radius               :   0.975313790000000     
 vdW radii scaling          :    1.00000000000000     
 Gshift (Eh)                :   1.857443126794793E-003
 c1                         :    1.55243817000000     
 soset                      :   0.130326360000000     
 HB correction              :  T
 Number of grid points      :          230

            Z     q(EN)     CN     RAES       Cart. coordinates
     1  N   5.0   -0.71    3.00    1.93    86.46393    72.33609   158.85552
     2  C   4.0    0.08    3.99    3.60    88.11639    74.39072   158.16086
     3  C   4.0    0.27    3.01    3.02    89.90875    73.49859   156.08721
     4  O   6.0   -0.43    1.00    1.80    90.71741    71.31781   155.97924
     5  C   4.0   -0.08    3.98    3.58    89.61889    75.42736   160.42983
     6  C   4.0   -0.23    3.98    3.59    87.85727    76.77865   162.26221
     7  C   4.0   -0.22    3.98    3.59    91.09231    73.33865   161.76941
     8  H   1.0    0.27    1.00    1.43    87.32766    70.75434   159.48390
     9  H   1.0    0.14    0.99    1.43    86.91891    75.89658   157.41006
    10  H   1.0    0.12    0.99    1.43    90.94120    76.82335   159.65776
    11  H   1.0    0.10    0.99    1.43    88.94210    77.55706   163.82264
    12  H   1.0    0.11    0.99    1.43    86.89055    78.33307   161.33101
    13  H   1.0    0.09    0.99    1.43    86.45988    75.47082   163.00988
    14  H   1.0    0.09    0.99    1.43    92.57475    74.15729   162.93127
    15  H   1.0    0.09    0.99    1.43    89.85630    72.23976   162.98988
    16  H   1.0    0.13    0.99    1.43    91.94418    72.06341   160.40098
    17  N   5.0   -0.49    3.01    1.93    90.49371    75.27771   154.40860
    18  C   4.0    0.07    3.99    3.61    92.07827    74.81340   152.23011
    19  C   4.0    0.26    3.01    3.02    94.04656    76.91153   151.98659
    20  O   6.0   -0.45    1.00    1.80    93.75059    78.95687   153.04084
    21  C   4.0   -0.21    3.98    3.59    90.48968    74.75396   149.79507
    22  H   1.0    0.28    1.00    1.43    89.74633    77.03272   154.61755
    23  H   1.0    0.13    0.99    1.43    93.00294    72.98875   152.53032
    24  H   1.0    0.10    0.99    1.43    91.45809    73.65976   148.34879
    25  H   1.0    0.11    0.99    1.43    88.67231    73.87597   150.20160
    26  H   1.0    0.11    0.99    1.43    90.14425    76.66621   149.11306
    27  N   5.0   -0.48    3.01    1.93    96.01169    76.36988   150.49901
    28  C   4.0    0.06    3.99    3.61    97.64928    78.32519   149.52098
    29  C   4.0    0.05    3.00    3.02    97.40248    78.37512   146.64417
    30  O   6.0   -0.43    1.00    1.80    97.34300    76.43108   145.38864
    31  C   4.0   -0.12    3.98    3.59   100.43499    77.84690   150.17835
    32  C   4.0   -0.11    3.99    3.60   101.04805    78.80926   152.82618
    33  C   4.0    0.27    3.00    3.02   103.65422    78.06073   153.71335
    34  O   6.0   -0.42    1.00    1.80   104.99553    76.56659   152.54304
    35  N   5.0   -0.66    3.01    1.93   104.39767    79.11614   155.86818
    36  H   1.0    0.24    1.00    1.43    96.06766    74.67469   149.59368
    37  H   1.0    0.15    0.99    1.43    97.03061    80.12094   150.34303
    38  H   1.0    0.14    0.99    1.43   100.78129    75.81960   150.07997
    39  H   1.0    0.11    0.99    1.43   101.61315    78.81077   148.78181
    40  H   1.0    0.13    0.99    1.43   100.87675    80.86479   152.88384
    41  H   1.0    0.12    0.99    1.43    99.67630    78.05528   154.17370
    42  H   1.0    0.26    1.00    1.43   103.32209    80.41594   156.74463
    43  H   1.0    0.27    1.00    1.43   106.15444    78.81665   156.54716
    44  N   5.0   -0.71    3.00    1.93   101.45390    86.91014   151.95530
    45  C   4.0    0.08    3.98    3.59   100.21324    87.30026   154.37035
    46  C   4.0    0.28    3.02    3.02    98.19691    85.24014   154.64963
    47  O   6.0   -0.43    1.00    1.80    97.20376    84.35219   152.74936
    48  C   4.0   -0.15    3.98    3.59    98.95151    89.91195   154.47538
    49  C   4.0   -0.12    3.98    3.59    98.01457    90.60402   157.12867
    50  C   4.0    0.27    3.00    3.02   100.14538    90.57689   159.05243
    51  O   6.0   -0.41    1.00    1.80   101.26854    88.64816   159.65660
    52  N   5.0   -0.66    3.00    1.93   100.78580    92.84560   159.99458
    53  H   1.0    0.27    1.00    1.43   100.26128    86.61884   150.48628
    54  H   1.0    0.15    0.99    1.43   101.64561    87.14699   155.85150
    55  H   1.0    0.09    0.99    1.43   100.33449    91.30774   153.84540
    56  H   1.0    0.10    0.99    1.43    97.34695    89.92201   153.17593
    57  H   1.0    0.09    0.99    1.43    97.13320    92.46313   157.07458
    58  H   1.0    0.15    0.99    1.43    96.59650    89.23436   157.74456
    59  H   1.0    0.24    1.00    1.43    99.82551    94.42555   159.55884
    60  H   1.0    0.27    1.00    1.43   102.12279    92.91949   161.34911
    61  N   5.0   -0.49    3.00    1.93    97.70297    84.41764   156.99175
    62  C   4.0    0.08    4.01    3.63    95.54053    82.78650   157.34804
    63  C   4.0    0.29    3.01    3.02    93.10000    84.30475   157.03635
    64  O   6.0   -0.41    1.00    1.80    92.89756    86.49818   157.75316
    65  C   4.0   -0.10    3.98    3.59    95.49887    81.57921   159.96192
    66  C   4.0    0.33    2.99    3.02    95.10163    83.64292   162.04617
    67  O   6.0   -0.40    1.00    1.80    93.15741    83.43536   163.36107
    68  O   6.0   -0.38    1.00    1.80    96.77406    85.28727   162.23515
    69  H   1.0    0.29    1.00    1.43    98.29756    85.36073   158.55682
    70  H   1.0    0.15    0.99    1.43    95.61434    81.33879   155.87243
    71  H   1.0    0.11    0.99    1.43    93.94504    80.22459   160.07435
    72  H   1.0    0.11    0.99    1.43    97.28405    80.61449   160.32404
    73  N   5.0   -0.48    3.01    1.93    91.23470    82.99700   155.94526
    74  C   4.0    0.06    3.99    3.60    88.73411    83.98487   155.48630
    75  C   4.0    0.05    3.00    3.02    86.78318    82.02980   156.32806
    76  O   6.0   -0.46    1.00    1.80    87.15487    79.76241   156.04703
    77  C   4.0   -0.14    3.99    3.60    88.31039    84.50964   152.65818
    78  C   4.0   -0.09    3.98    3.58    90.22711    86.35642   151.51606
    79  C   4.0   -0.24    3.99    3.59    89.71634    86.61069   148.68612
    80  C   4.0   -0.23    3.98    3.59    90.08759    88.94369   152.78373
    81  H   1.0    0.28    1.00    1.43    91.62169    81.27872   155.20118
    82  H   1.0    0.12    0.99    1.43    88.55393    85.71400   156.59642
    83  H   1.0    0.12    0.99    1.43    88.43871    82.70316   151.66877
    84  H   1.0    0.08    0.99    1.43    86.39670    85.23763   152.39215
    85  H   1.0    0.15    0.99    1.43    92.12847    85.57509   151.78815
    86  H   1.0    0.09    0.99    1.43    91.09828    87.85529   147.81819
    87  H   1.0    0.10    0.99    1.43    89.81099    84.78146   147.75521
    88  H   1.0    0.09    0.99    1.43    87.84057    87.38666   148.37405
    89  H   1.0    0.09    0.99    1.43    91.33083    90.24402   151.79838
    90  H   1.0    0.09    0.99    1.43    88.16165    89.66061   152.71623
    91  H   1.0    0.13    0.99    1.43    90.71287    88.82436   154.73743
    92  H   1.0    0.28    1.00    1.43    85.42614    72.83984   160.10523
    93  H   1.0    0.11    1.00    1.43    97.28429    80.02727   145.73451
    94  H   1.0    0.28    1.00    1.43   102.38736    88.27835   151.56901
    95  H   1.0    0.11    1.00    1.43    85.16522    82.59244   157.12599

           ------------------------------------------------- 
          |        Self-Consistent Charge Iterations        |
           ------------------------------------------------- 

          ...................................................
          :                      SETUP                      :
          :.................................................:
          :  # basis functions                 233          :
          :  # atomic orbitals                 233          :
          :  # shells                          141          :
          :  # electrons                       262          :
          :  max. iterations                   250          :
          :  Hamiltonian                  GFN2-xTB          :
          :  restarted?                      false          :
          :  GBSA solvation                   true          :
          :  PC potential                    false          :
          :  electronic temp.          500.0000000     K    :
          :  accuracy                    0.1000000          :
          :  -> integral cutoff          0.3500000E+02      :
          :  -> integral neglect         0.1000000E-08      :
          :  -> SCF convergence          0.1000000E-06 Eh   :
          :  -> wf. convergence          0.1000000E-04 e    :
          :  Broyden damping             0.4000000          :
          ...................................................

 iter      E             dE          RMSdq      gap      omega  full diag
   1   -150.6963554 -0.150696E+03  0.442E+00    2.61       0.0  T
   2   -151.1467147 -0.450359E+00  0.218E+00    1.69       1.0  T
   3   -151.1624097 -0.156950E-01  0.124E+00    2.04       1.0  T
   4   -151.1692367 -0.682700E-02  0.293E-01    1.31       1.0  T
   5   -151.1734145 -0.417781E-02  0.110E-01    1.46       1.0  T
   6   -151.1735127 -0.981865E-04  0.422E-02    1.54       1.0  T
   7   -151.1735309 -0.182301E-04  0.166E-02    1.57       1.0  T
   8   -151.1735353 -0.432936E-05  0.624E-03    1.57       1.6  T
   9   -151.1735357 -0.467691E-06  0.254E-03    1.57       4.0  T
  10   -151.1735358 -0.547032E-07  0.964E-04    1.57      10.6  T
  11   -151.1735358 -0.210136E-07  0.359E-04    1.57      28.6  T
  12   -151.1735358 -0.158440E-08  0.134E-04    1.57      76.9  T
  13   -151.1735358 -0.354788E-09  0.572E-05    1.57     179.3  T
  14   -151.1735358 -0.425473E-10  0.250E-05    1.57     411.2  T

   *** convergence criteria satisfied after 14 iterations ***

         #    Occupation            Energy/Eh            Energy/eV
      -------------------------------------------------------------
         1        2.0000           -0.7446411             -20.2627
       ...           ...                  ...                  ...
       125        2.0000           -0.3958739             -10.7723
       126        2.0000           -0.3953379             -10.7577
       127        2.0000           -0.3901618             -10.6168
       128        2.0000           -0.3810118             -10.3679
       129        2.0000           -0.3684102             -10.0250
       130        2.0000           -0.3618699              -9.8470
       131        2.0000           -0.3601682              -9.8007 (HOMO)
       132                         -0.3024956              -8.2313 (LUMO)
       133                         -0.2953064              -8.0357
       134                         -0.2316509              -6.3035
       135                         -0.2208119              -6.0086
       136                         -0.2160812              -5.8799
       ...                                ...                  ...
       233                          0.6392736              17.3955
      -------------------------------------------------------------
                  HL-Gap            0.0576726 Eh            1.5694 eV
             Fermi-level           -0.3311045 Eh           -9.0098 eV

 SCC (total)                   0 d,  0 h,  0 min,  0.542 sec
 SCC setup                      ...        0 min,  0.010 sec (  1.874%)
 Dispersion                     ...        0 min,  0.004 sec (  0.659%)
 integral evaluation            ...        0 min,  0.030 sec (  5.519%)
 zeroth order Hamiltonian       ...        0 min,  0.001 sec (  0.261%)
 iterations                     ...        0 min,  0.305 sec ( 56.279%)
 molecular gradient             ...        0 min,  0.189 sec ( 34.836%)
 printout                       ...        0 min,  0.003 sec (  0.545%)

         :::::::::::::::::::::::::::::::::::::::::::::::::::::
         ::                     SUMMARY                     ::
         :::::::::::::::::::::::::::::::::::::::::::::::::::::
         :: total energy             -149.405423192119 Eh   ::
         :: total w/o Gsasa/hb       -149.384236979991 Eh   ::
         :: gradient norm               0.318573562890 Eh/α ::
         :: HOMO-LUMO gap               1.569351833421 eV   ::
         ::.................................................::
         :: SCC energy               -151.177658525815 Eh   ::
         :: -> isotropic ES             0.596782416789 Eh   ::
         :: -> anisotropic ES          -0.012405886797 Eh   ::
         :: -> anisotropic XC           0.045166222537 Eh   ::
         :: -> dispersion              -0.105423055340 Eh   ::
         :: -> Gsolv                   -0.169283996358 Eh   ::
         ::    -> Gborn                -0.148097784230 Eh   ::
         ::    -> Gsasa                -0.005980153644 Eh   ::
         ::    -> Ghb                  -0.017063501612 Eh   ::
         ::    -> Gshift                0.001857443127 Eh   ::
         :: repulsion energy            1.766777444200 Eh   ::
         :: add. restraining            0.000000000000 Eh   ::
         :::::::::::::::::::::::::::::::::::::::::::::::::::::

           -------------------------------------------------
          |                Property Printout                |
           -------------------------------------------------

    * Orbital Energies and Occupations

         #    Occupation            Energy/Eh            Energy/eV
      -------------------------------------------------------------
         1        2.0000           -0.7446411             -20.2627
       ...           ...                  ...                  ...
       119        2.0000           -0.4121978             -11.2165
       120        2.0000           -0.4077604             -11.0957
       121        2.0000           -0.4035136             -10.9802
       122        2.0000           -0.4027182             -10.9585
       123        2.0000           -0.3994162             -10.8687
       124        2.0000           -0.3987715             -10.8511
       125        2.0000           -0.3958739             -10.7723
       126        2.0000           -0.3953379             -10.7577
       127        2.0000           -0.3901618             -10.6168
       128        2.0000           -0.3810118             -10.3679
       129        2.0000           -0.3684102             -10.0250
       130        2.0000           -0.3618699              -9.8470
       131        2.0000           -0.3601682              -9.8007 (HOMO)
       132                         -0.3024956              -8.2313 (LUMO)
       133                         -0.2953064              -8.0357
       134                         -0.2316509              -6.3035
       135                         -0.2208119              -6.0086
       136                         -0.2160812              -5.8799
       137                         -0.2137384              -5.8161
       138                         -0.2130119              -5.7963
       139                         -0.2102548              -5.7213
       140                         -0.1711258              -4.6566
       141                         -0.0259389              -0.7058
       142                         -0.0119231              -0.3244
       ...                                ...                  ...
       233                          0.6392736              17.3955
      -------------------------------------------------------------
                  HL-Gap            0.0576726 Eh            1.5694 eV
             Fermi-level           -0.3311045 Eh           -9.0098 eV

   #   Z        covCN         q      C6AA      α(0)
   1   7 N      2.636    -0.385    29.952     8.128
   2   6 C      3.793     0.021    20.237     6.406
   3   6 C      2.757     0.272    22.404     7.751
   4   8 O      0.858    -0.500    23.780     6.538
   5   6 C      3.852    -0.010    20.714     6.473
   6   6 C      3.756    -0.105    22.557     6.772
   7   6 C      3.755    -0.107    22.595     6.778
   8   1 H      0.860     0.161     1.330     1.807
   9   1 H      0.924     0.058     2.221     2.330
  10   1 H      0.924    -0.002     3.087     2.748
  11   1 H      0.925     0.034     2.531     2.488
  12   1 H      0.925     0.030     2.591     2.517
  13   1 H      0.925     0.049     2.335     2.390
  14   1 H      0.925     0.029     2.605     2.524
  15   1 H      0.925     0.048     2.344     2.394
  16   1 H      0.925     0.043     2.405     2.425
  17   7 N      2.693    -0.175    24.796     7.396
  18   6 C      3.795     0.018    20.270     6.411
  19   6 C      2.760     0.268    22.468     7.762
  20   8 O      0.858    -0.488    23.530     6.504
  21   6 C      3.755    -0.128    23.014     6.840
  22   1 H      0.860     0.205     1.079     1.627
  23   1 H      0.924     0.081     1.966     2.193
  24   1 H      0.925     0.073     2.056     2.242
  25   1 H      0.925     0.077     2.013     2.219
  26   1 H      0.925     0.057     2.235     2.338
  27   7 N      2.691    -0.161    24.492     7.350
  28   6 C      3.795     0.020    20.250     6.408
  29   6 C      2.770     0.198    23.789     7.988
  30   8 O      0.856    -0.351    20.725     6.104
  31   6 C      3.807    -0.059    21.625     6.620
  32   6 C      3.809    -0.093    22.270     6.718
  33   6 C      2.744     0.292    22.039     7.687
  34   8 O      0.859    -0.502    23.822     6.544
  35   7 N      2.640    -0.283    27.296     7.759
  36   1 H      0.860     0.218     1.018     1.581
  37   1 H      0.924     0.101     1.780     2.086
  38   1 H      0.925     0.083     1.947     2.182
  39   1 H      0.924     0.069     2.094     2.263
  40   1 H      0.924     0.068     2.105     2.269
  41   1 H      0.924     0.063     2.169     2.303
  42   1 H      0.860     0.208     1.068     1.619
  43   1 H      0.860     0.239     0.928     1.509
  44   7 N      2.638    -0.395    30.246     8.168
  45   6 C      3.785     0.028    20.116     6.388
  46   6 C      2.769     0.274    22.361     7.744
  47   8 O      0.858    -0.490    23.560     6.508
  48   6 C      3.805    -0.060    21.653     6.624
  49   6 C      3.805    -0.096    22.332     6.728
  50   6 C      2.744     0.292    22.053     7.689
  51   8 O      0.859    -0.509    23.981     6.566
  52   7 N      2.638    -0.293    27.567     7.798
  53   1 H      0.860     0.167     1.288     1.778
  54   1 H      0.924     0.053     2.281     2.362
  55   1 H      0.924     0.056     2.251     2.346
  56   1 H      0.924     0.044     2.401     2.423
  57   1 H      0.925     0.060     2.194     2.317
  58   1 H      0.924     0.054     2.274     2.358
  59   1 H      0.860     0.234     0.950     1.527
  60   1 H      0.860     0.233     0.953     1.529
  61   7 N      2.688    -0.190    25.121     7.444
  62   6 C      3.810     0.039    19.905     6.351
  63   6 C      2.758     0.284    22.190     7.714
  64   8 O      0.858    -0.511    24.032     6.573
  65   6 C      3.804    -0.095    22.317     6.725
  66   6 C      2.683     0.377    20.618     7.431
  67   8 O      0.856    -0.648    27.319     7.008
  68   8 O      0.856    -0.629    26.832     6.945
  69   1 H      0.860     0.209     1.061     1.613
  70   1 H      0.924     0.070     2.082     2.257
  71   1 H      0.924     0.020     2.728     2.583
  72   1 H      0.924     0.034     2.533     2.489
  73   7 N      2.693    -0.177    24.842     7.403
  74   6 C      3.790     0.032    20.046     6.376
  75   6 C      2.770     0.196    23.813     7.992
  76   8 O      0.856    -0.358    20.862     6.124
  77   6 C      3.811    -0.069    21.811     6.648
  78   6 C      3.849    -0.004    20.615     6.458
  79   6 C      3.758    -0.118    22.821     6.811
  80   6 C      3.756    -0.115    22.759     6.802
  81   1 H      0.860     0.220     1.009     1.574
  82   1 H      0.924     0.081     1.973     2.197
  83   1 H      0.924     0.057     2.234     2.338
  84   1 H      0.924     0.068     2.104     2.268
  85   1 H      0.924     0.027     2.631     2.537
  86   1 H      0.925     0.049     2.329     2.386
  87   1 H      0.925     0.043     2.409     2.427
  88   1 H      0.925     0.053     2.281     2.362
  89   1 H      0.925     0.041     2.432     2.438
  90   1 H      0.925     0.048     2.343     2.394
  91   1 H      0.925     0.034     2.529     2.487
  92   1 H      0.862     0.183     1.198     1.714
  93   1 H      0.930     0.087     1.905     2.158
  94   1 H      0.862     0.188     1.169     1.693
  95   1 H      0.930     0.088     1.898     2.154

 Mol. C6AA /au·bohr⁶  :      83118.362954
 Mol. C8AA /au·bohr⁸  :    1822780.065915
 Mol. α(0) /au        :        428.717458


Wiberg/Mayer (AO) data.
largest (>0.10) Wiberg bond orders for each atom
          total WBO             WBO to atom ...
     1  N   2.998        C    2 1.025    H    8 0.955    H   92 0.950
     2  C   3.986        N    1 1.025    C    5 0.950    C    3 0.950    H    9 0.948
     3  C   3.944        O    4 1.625    N   17 1.302    C    2 0.950
     4  O   1.937        C    3 1.625    N   17 0.194
     5  C   3.994        C    7 1.009    C    6 1.008    H   10 0.966    C    2 0.950
     6  C   3.996        C    5 1.008    H   12 0.986    H   11 0.985    H   13 0.982
     7  C   3.996        C    5 1.009    H   14 0.987    H   15 0.985    H   16 0.983
     8  H   0.974        N    1 0.955
     9  H   0.997        C    2 0.948
    10  H   1.000        C    5 0.966
    11  H   0.998        C    6 0.985
    12  H   0.999        C    6 0.986
    13  H   0.998        C    6 0.982
    14  H   0.999        C    7 0.987
    15  H   0.998        C    7 0.985
    16  H   0.998        C    7 0.983
    17  N   3.472        C    3 1.302    C   18 0.988    H   22 0.910    O    4 0.194
    18  C   3.967        N   17 0.988    C   21 0.973    H   23 0.950    C   19 0.945
    19  C   3.948        O   20 1.617    N   27 1.304    C   18 0.945
    20  O   1.973        C   19 1.617    N   27 0.191
    21  C   3.984        H   26 0.986    H   24 0.982    H   25 0.979    C   18 0.973
    22  H   0.958        N   17 0.910
    23  H   0.993        C   18 0.950
    24  H   0.994        C   21 0.982
    25  H   0.994        C   21 0.979
    26  H   0.997        C   21 0.986
    27  N   3.473        C   19 1.304    C   28 0.981    H   36 0.918    O   20 0.191
    28  C   3.962        N   27 0.981    C   29 0.974    C   31 0.953    H   37 0.947
    29  C   3.902        O   30 1.906    C   28 0.974    H   93 0.952
    30  O   2.049        C   29 1.906
    31  C   3.985        C   32 1.007    H   39 0.970    H   38 0.968    C   28 0.953
    32  C   3.995        C   31 1.007    C   33 0.974    H   40 0.958    H   41 0.953
    33  C   3.946        O   34 1.635    N   35 1.309    C   32 0.974
    34  O   1.932        C   33 1.635    N   35 0.195
    35  N   3.395        C   33 1.309    H   42 0.938    H   43 0.921    O   34 0.195
    36  H   0.952        N   27 0.918
    37  H   0.990        C   28 0.947
    38  H   0.993        C   31 0.968
    39  H   0.995        C   31 0.970
    40  H   0.995        C   32 0.958
    41  H   0.996        C   32 0.953
    42  H   0.957        N   35 0.938
    43  H   0.942        N   35 0.921
    44  N   2.989        C   45 1.021    H   53 0.952    H   94 0.951
    45  C   3.987        N   44 1.021    C   48 0.968    H   54 0.951    C   46 0.948
    46  C   3.940        O   47 1.626    N   61 1.293    C   45 0.948
    47  O   1.942        C   46 1.626    N   61 0.188
    48  C   3.995        C   49 0.990    H   56 0.975    H   55 0.972    C   45 0.968
    49  C   3.994        C   48 0.990    C   50 0.973    H   57 0.973    H   58 0.955
    50  C   3.941        O   51 1.638    N   52 1.303    C   49 0.973
    51  O   1.950        C   50 1.638    N   52 0.195
    52  N   3.384        C   50 1.303    H   59 0.926    H   60 0.924    O   51 0.195
    53  H   0.972        N   44 0.952
    54  H   0.997        C   45 0.951
    55  H   0.996        C   48 0.972
    56  H   0.998        C   48 0.975
    57  H   0.996        C   49 0.973
    58  H   0.997        C   49 0.955
    59  H   0.945        N   52 0.926
    60  H   0.946        N   52 0.924
    61  N   3.456        C   46 1.293    C   62 0.987    H   69 0.902    O   47 0.188
    62  C   3.971        N   61 0.987    C   65 0.977    H   70 0.943    C   63 0.932
    63  C   3.945        O   64 1.622    N   73 1.306    C   62 0.932
    64  O   1.943        C   63 1.622    N   73 0.193
    65  C   3.985        H   71 0.977    C   62 0.977    H   72 0.969    C   66 0.908
    66  C   3.935        O   68 1.504    O   67 1.503    C   65 0.908
    67  O   1.794        C   66 1.503    O   68 0.217
    68  O   1.821        C   66 1.504    O   67 0.217
    69  H   0.956        N   61 0.902
    70  H   0.995        C   62 0.943
    71  H   0.999        C   65 0.977
    72  H   0.998        C   65 0.969
    73  N   3.469        C   63 1.306    C   74 0.981    H   81 0.899    O   64 0.193
    74  C   3.963        C   75 0.984    N   73 0.981    H   82 0.949    C   77 0.941
    75  C   3.897        O   76 1.881    C   74 0.984    H   95 0.952
    76  O   2.058        C   75 1.881
    77  C   3.981        C   78 0.989    H   83 0.973    H   84 0.970    C   74 0.941
    78  C   3.993        C   80 1.010    C   79 1.004    C   77 0.989    H   85 0.968
    79  C   3.992        C   78 1.004    H   87 0.986    H   88 0.985    H   86 0.984
    80  C   3.995        C   78 1.010    H   90 0.986    H   89 0.985    H   91 0.980
    81  H   0.952        N   73 0.899
    82  H   0.993        C   74 0.949
    83  H   0.997        C   77 0.973
    84  H   0.995        C   77 0.970
    85  H   0.999        C   78 0.968
    86  H   0.996        C   79 0.984
    87  H   0.998        C   79 0.986
    88  H   0.997        C   79 0.985
    89  H   0.998        C   80 0.985
    90  H   0.998        C   80 0.986
    91  H   0.999        C   80 0.980
    92  H   0.966        N    1 0.950
    93  H   0.992        C   29 0.952
    94  H   0.964        N   44 0.951
    95  H   0.992        C   75 0.952
 
molecular dipole:
                 x           y           z       tot (Debye)
 q only:      -95.912     -80.058    -162.136
   full:      -96.120     -79.212    -161.266     517.929
molecular quadrupole (traceless):
                xx          xy          yy          xz          yz          zz
 q only:     7155.166  -11505.353   11333.333  -23292.237  -19520.362  -18488.498
  q+dip:     6905.274  -11410.561   11358.746  -23214.890  -19222.561  -18264.020
   full:     6905.788  -11410.285   11356.487  -23214.843  -19223.721  -18262.275


           -------------------------------------------------
          | TOTAL ENERGY             -149.405423192119 Eh   |
          | GRADIENT NORM               0.318573562890 Eh/α |
          | HOMO-LUMO GAP               1.569351833421 eV   |
           -------------------------------------------------

------------------------------------------------------------------------
 * finished run on 2019/05/31 at 06:33:57.052     
------------------------------------------------------------------------
 total:
 * wall-time:     0 d,  0 h,  0 min,  0.753 sec
 *  cpu-time:     0 d,  0 h,  0 min,  1.373 sec
 * ratio c/w:     1.824 speedup
 SCF:
 * wall-time:     0 d,  0 h,  0 min,  0.542 sec
 *  cpu-time:     0 d,  0 h,  0 min,  1.084 sec
 * ratio c/w:     1.999 speedup

