      -----------------------------------------------------------      
     |                   =====================                   |     
     |                           x T B                           |     
     |                   =====================                   |     
     |                         S. Grimme                         |     
     |          Mulliken Center for Theoretical Chemistry        |     
     |                    University of Bonn                     |     
     |                Version 6.1 RC1 (SAW190329)                |     
      -----------------------------------------------------------      

   This program is distributed in the hope that it will be useful,
   but WITHOUT ANY WARRANTY; without even the implied warranty of
   MERCHANTABILITY or FITNESS FOR A PARTICULAR PURPOSE.
   
   FOR NON-COMMERCIAL, ACADEMIA USE ONLY.
   
   Cite this work as:
   S. Grimme, C. Bannwarth, P. Shushkov, J. Comput. Theory Chem., 2017,
   13, 1989-2009. DOI: 10.1021/acs.jctc.7b00118
   C. Bannwarth, S. Ehlert and S. Grimme., J. Comput. Theory Chem., 2019,
   just accepted. DOI: 10.1021/acs.jctc.8b01176
   
   for sTDA-xTB:
   S. Grimme and C. Bannwarth, J. Chem. Phys., 2016, 145, 054103.
   DOI: 10.1063/1.4959605
   
   in the mass-spec context:
   V. Asgeirsson, C. Bauer and S. Grimme, Chem. Sci., 2017, 8, 4879.
   DOI: 10.1039/c7sc00601b
   
   for metadynamics refer to:
   S. Grimme, ChemRxiv, Preprint. DOI: 10.26434/chemrxiv.7660532.v1
   
   with help from (in alphabetical order)
   C. Bannwarth, F. Bohle, G. Brandenburg, E. Caldeweyher, M. Checinski,
   S. Dohm, S. Ehlert, S. Ehrlich, F. März, H. Neugebauer, J. Pisarek,
   P. Pracht, P. Shushkov, and S. Spicher.
   
 * started run on 2019/05/31 at 05:35:15.988     

           -------------------------------------------------
          |                Calculation Setup                |
           -------------------------------------------------

          program call               : /home/lum/install/xtb/xtb-190329/bin/xtb xtb_tmp.xyz --chrg -1 --grad --gfn 2 --etemp 500 --acc 0.1 --gbsa h2o --parallel 2
          hostname                   : cpu02
          coordinate file            : xtb_tmp.xyz
          omp threads                :                     2
          number of atoms            :                   328
          number of electrons        :                   906
          charge                     :                    -1
          spin                       :                   0.0
          first test random number   :      0.58787314033565


molecular fragmentation (1/2 indicates fragments):
111111111111111111111111111111122222222222222222222222222222222222222222
222222222222222222222222222222222222222222222222222222222222222222222222
222222222222222222222222222222222222222222222222222222222222222222222222
222222222222222222222222222222222222222222222222222222222222222222222222
2222222222222222222222222222112222222222
# atoms in fragment 1/2:    33   295
 fragment masses (1/2) :      229.26     2050.29
CMA distance (Bohr)    :  18.162
constraining FC (au)   :  0.0500

########################################################################
# WARNING! Please study the warnings concerning your input carefully
#  - XTBPATH is not set, using XTBHOME instead
#  - Process number higher than OMP_NUM_THREADS, I hope you know what you are doing.
########################################################################

           ------------------------------------------------- 
          |                 G F N 2 - x T B                 |
          | Geometry, Frequencies, Noncovalent interactions |
          |            JCTC 2018 parametrisation            |
           ------------------------------------------------- 
 
             k(s)              :                1.8500
             k(p)              :                2.2300
             k(d)              :                2.2300
             k(f)              :                2.0000
             kEN (H0ij)        :               -2.0000
             D4 a1             :                0.5200
             D4 a2             :                5.0000
             D4 s6             :                1.0000
             D4 s8             :                2.7000
             D4 s9             :                5.0000
             alphaj            :                2.0000

  Z AO/shell   Hii/eV     exponent
  1     Wed Apr 25 08:07:45 CEST 2018   EN: 2.200 GM2: 0.406  GM3: 0.0800  RAES: 1.40
     1s    -10.707211    1.230000
  6     Wed Apr 25 08:07:45 CEST 2018   EN: 2.550 GM2: 0.538  GM3: 0.1500  RAES: 3.00
     2s    -13.970922    2.096432
     2p    -10.063292    1.800000
  7     Wed Apr 25 08:07:45 CEST 2018   EN: 3.040 GM2: 0.461  GM3:-0.0640  RAES: 1.90
     2s    -16.686243    2.339881
     2p    -12.523956    2.014332
  8     Wed Apr 25 08:07:45 CEST 2018   EN: 3.440 GM2: 0.452  GM3:-0.0517  RAES: 1.80
     2s    -20.229985    2.439742
     2p    -15.503117    2.137023

 Solvent             : h2o
 Using internal parameter file: .param_gbsa2_h2o
 Gsolv ref. state (COSMO-RS): gsolv [1 M gas/solution]
 temperature (mdtemp)       :    298.150000000000     
 dielectric constant        :    80.2000000000000     
 rho                        :    1.00000000000000     
 mass                       :    18.0000000000000     
 surface tension            :    15.5689454083859     
 probe radius               :   0.975313790000000     
 vdW radii scaling          :    1.00000000000000     
 Gshift (Eh)                :   1.857443126794793E-003
 c1                         :    1.55243817000000     
 soset                      :   0.130326360000000     
 HB correction              :  T
 Number of grid points      :          230

            Z     q(EN)     CN     RAES       Cart. coordinates
     1  N   5.0   -0.71    3.00    1.93   309.63382   140.47067   175.18667
     2  C   4.0    0.07    3.98    3.59   308.61376   138.20479   176.32113
     3  C   4.0    0.28    3.01    3.02   309.56672   137.92820   179.03486
     4  O   6.0   -0.47    1.00    1.80   308.13383   137.24959   180.73015
     5  C   4.0   -0.13    3.99    3.60   309.29563   135.86273   174.78772
     6  C   4.0   -0.10    3.98    3.58   308.11722   135.77494   172.13757
     7  C   4.0   -0.21    3.99    3.60   309.03329   133.38365   170.80576
     8  C   4.0   -0.23    3.98    3.59   305.23533   135.76282   172.28089
     9  H   1.0    0.25    1.00    1.43   310.75277   140.30860   173.64583
    10  H   1.0    0.11    0.99    1.43   306.55431   138.40906   176.46626
    11  H   1.0    0.12    0.99    1.43   311.35537   135.79082   174.64949
    12  H   1.0    0.13    0.99    1.43   308.64877   134.20386   175.83270
    13  H   1.0    0.11    0.99    1.43   308.74595   137.42716   171.05633
    14  H   1.0    0.11    0.99    1.43   308.27308   133.30070   168.90133
    15  H   1.0    0.12    0.99    1.43   311.08566   133.36258   170.68264
    16  H   1.0    0.13    0.99    1.43   308.40514   131.74277   171.87113
    17  H   1.0    0.10    0.99    1.43   304.42404   135.39856   170.43003
    18  H   1.0    0.12    0.99    1.43   304.63037   134.28205   173.57069
    19  H   1.0    0.09    0.99    1.43   304.52088   137.57488   172.93842
    20  N   5.0   -0.47    3.01    1.93   311.99422   138.47105   179.42250
    21  C   4.0    0.07    3.99    3.61   313.07311   138.30120   181.92996
    22  C   4.0    0.08    3.00    3.02   311.55436   139.93146   183.75055
    23  O   6.0   -0.41    1.00    1.80   311.00812   139.19844   185.88386
    24  C   4.0   -0.10    3.98    3.59   315.81541   139.16777   181.93215
    25  C   4.0    0.32    2.99    3.02   317.58341   137.43186   180.30448
    26  O   6.0   -0.45    1.00    1.80   317.09210   135.12331   180.27352
    27  O   6.0   -0.37    1.00    1.80   319.36278   138.50733   179.22689
    28  H   1.0    0.26    1.00    1.43   313.21046   138.72775   177.96230
    29  H   1.0    0.14    0.99    1.43   312.97669   136.34055   182.61640
    30  H   1.0    0.12    0.99    1.43   315.96273   141.09007   181.20801
    31  H   1.0    0.12    0.99    1.43   316.55458   139.11854   183.85950
    32  N   5.0   -0.70    3.00    1.93   305.26370   137.27518   185.37454
    33  C   4.0    0.08    3.98    3.59   305.77994   135.26203   187.14283
    34  C   4.0    0.09    3.00    3.02   306.24044   136.28681   189.78824
    35  O   6.0   -0.41    1.00    1.80   305.24421   135.26711   191.63759
    36  C   4.0   -0.12    3.99    3.60   308.07828   133.72105   186.30449
    37  C   4.0   -0.11    3.98    3.59   308.56462   131.50430   188.09328
    38  C   4.0    0.28    3.00    3.02   306.44469   129.57430   187.94321
    39  O   6.0   -0.47    1.00    1.80   305.33168   129.15996   185.94685
    40  N   5.0   -0.64    3.00    1.93   305.91588   128.32650   190.06293
    41  H   1.0    0.33    1.00    1.43   306.43029   137.44476   183.86684
    42  H   1.0    0.14    0.99    1.43   304.11886   134.01772   187.25805
    43  H   1.0    0.13    0.99    1.43   307.70999   133.00980   184.40313
    44  H   1.0    0.15    0.99    1.43   309.72620   134.95640   186.22233
    45  H   1.0    0.13    0.99    1.43   310.30752   130.54900   187.53210
    46  H   1.0    0.13    0.99    1.43   308.80669   132.15257   190.03130
    47  H   1.0    0.27    1.00    1.43   306.75720   128.77284   191.71222
    48  H   1.0    0.32    1.00    1.43   304.57719   126.94054   190.05979
    49  N   5.0   -0.72    3.00    1.93   300.85339   116.58637   195.43140
    50  C   4.0    0.09    3.98    3.59   302.73144   116.16587   193.50031
    51  C   4.0    0.28    3.00    3.02   301.98084   117.37322   190.97717
    52  O   6.0   -0.43    1.00    1.80   303.00445   116.78503   188.98896
    53  C   4.0    0.04    3.97    3.58   303.37688   113.30915   193.15632
    54  O   6.0   -0.47    1.99    1.82   301.30584   111.76915   193.80123
    55  C   4.0   -0.23    3.98    3.58   305.73615   112.59227   194.64776
    56  H   1.0    0.27    1.00    1.43   299.28171   115.49755   195.40221
    57  H   1.0    0.10    0.99    1.43   304.44285   117.14889   194.13883
    58  H   1.0    0.14    0.99    1.43   303.70330   112.99689   191.13056
    59  H   1.0    0.24    0.99    1.43   301.27442   111.61130   195.64948
    60  H   1.0    0.11    0.99    1.43   306.17479   110.60913   194.33993
    61  H   1.0    0.09    0.99    1.43   307.35351   113.72212   194.08610
    62  H   1.0    0.10    0.99    1.43   305.38386   112.86391   196.65548
    63  N   5.0   -0.47    3.01    1.93   300.18498   119.13636   191.13464
    64  C   4.0    0.07    3.99    3.60   299.36467   120.64313   188.98504
    65  C   4.0    0.29    3.01    3.02   301.54834   122.36811   188.16288
    66  O   6.0   -0.44    1.00    1.80   302.47085   123.92343   189.61153
    67  C   4.0   -0.14    3.99    3.60   297.07111   122.19239   189.81091
    68  C   4.0   -0.10    3.98    3.58   296.07039   124.02518   187.80720
    69  C   4.0   -0.23    3.98    3.59   295.18498   122.65118   185.43412
    70  C   4.0   -0.23    3.99    3.60   293.88506   125.54182   188.92805
    71  H   1.0    0.26    1.00    1.43   299.49481   119.63990   192.84898
    72  H   1.0    0.14    0.99    1.43   298.91497   119.35262   187.43740
    73  H   1.0    0.10    0.99    1.43   295.58079   120.88465   190.38002
    74  H   1.0    0.12    0.99    1.43   297.62657   123.25854   191.48927
    75  H   1.0    0.13    0.99    1.43   297.60481   125.31904   187.29791
    76  H   1.0    0.09    0.99    1.43   294.37376   124.00460   184.12085
    77  H   1.0    0.11    0.99    1.43   296.75426   121.70595   184.51134
    78  H   1.0    0.10    0.99    1.43   293.74979   121.26705   185.92945
    79  H   1.0    0.10    0.99    1.43   293.24169   126.96575   187.59674
    80  H   1.0    0.10    0.99    1.43   292.31251   124.29202   189.36021
    81  H   1.0    0.10    0.99    1.43   294.46394   126.47035   190.66505
    82  N   5.0   -0.49    3.01    1.93   302.30510   122.08302   185.76420
    83  C   4.0    0.09    4.00    3.62   304.47337   123.42145   184.78825
    84  C   4.0    0.28    3.01    3.02   304.15889   124.01238   181.97611
    85  O   6.0   -0.46    1.00    1.80   303.44661   122.39778   180.47614
    86  C   4.0   -0.08    3.99    3.60   306.89394   121.82429   185.12000
    87  C   4.0    0.27    3.00    3.02   309.14798   123.42350   184.38367
    88  O   6.0   -0.43    1.00    1.80   309.84415   123.59884   182.17905
    89  N   5.0   -0.65    3.00    1.93   310.24428   124.67227   186.27858
    90  H   1.0    0.30    1.00    1.43   301.67020   120.59114   184.72949
    91  H   1.0    0.17    0.99    1.43   304.64975   125.18318   185.85260
    92  H   1.0    0.12    0.99    1.43   307.02440   121.21763   187.08143
    93  H   1.0    0.15    0.99    1.43   306.79996   120.16671   183.89447
    94  H   1.0    0.32    1.00    1.43   311.69510   125.89931   185.96199
    95  H   1.0    0.27    1.00    1.43   309.55866   124.53968   188.04505
    96  N   5.0   -0.49    3.00    1.93   304.79894   126.36724   181.31149
    97  C   4.0    0.08    4.00    3.61   304.48500   127.29151   178.75774
    98  C   4.0    0.26    3.01    3.02   306.91048   128.43873   177.66974
    99  O   6.0   -0.47    1.00    1.80   306.86288   130.13603   176.09983
   100  C   4.0   -0.08    3.98    3.58   302.24878   129.14470   178.51504
   101  C   4.0   -0.22    3.98    3.59   299.76896   127.81734   179.14906
   102  C   4.0   -0.21    3.98    3.59   302.62249   131.48104   180.16821
   103  H   1.0    0.28    1.00    1.43   305.16803   127.65312   182.68423
   104  H   1.0    0.13    0.99    1.43   304.06294   125.62474   177.59286
   105  H   1.0    0.11    0.99    1.43   302.20777   129.73192   176.53180
   106  H   1.0    0.09    0.99    1.43   298.18640   128.98621   178.56573
   107  H   1.0    0.11    0.99    1.43   299.64293   126.02178   178.15854
   108  H   1.0    0.12    0.99    1.43   299.64652   127.46476   181.16951
   109  H   1.0    0.10    0.99    1.43   301.02154   132.74588   179.94581
   110  H   1.0    0.13    0.99    1.43   302.77164   130.96133   182.14940
   111  H   1.0    0.13    0.99    1.43   304.32114   132.49496   179.61332
   112  N   5.0   -0.47    3.01    1.93   309.06479   127.44247   178.53808
   113  C   4.0    0.07    4.00    3.61   311.51255   128.28990   177.68102
   114  C   4.0    0.27    3.01    3.02   312.51129   126.54668   175.58650
   115  O   6.0   -0.41    1.00    1.80   311.53335   124.52130   175.09957
   116  C   4.0   -0.13    3.99    3.60   313.36275   128.33493   179.90502
   117  C   4.0   -0.11    3.99    3.60   312.58358   130.33763   181.83909
   118  C   4.0    0.27    3.00    3.02   314.28594   130.18993   184.13215
   119  O   6.0   -0.45    1.00    1.80   314.04054   128.52678   185.74031
   120  N   5.0   -0.65    3.00    1.93   316.01484   132.00722   184.30539
   121  H   1.0    0.31    1.00    1.43   309.07216   125.94831   179.74552
   122  H   1.0    0.13    0.99    1.43   311.28312   130.19719   176.90012
   123  H   1.0    0.15    0.99    1.43   313.35441   126.47593   180.79871
   124  H   1.0    0.13    0.99    1.43   315.27657   128.72883   179.24306
   125  H   1.0    0.12    0.99    1.43   312.72208   132.21168   180.99830
   126  H   1.0    0.13    0.99    1.43   310.63737   129.98734   182.42822
   127  H   1.0    0.31    1.00    1.43   316.36773   133.21635   182.82995
   128  H   1.0    0.29    1.00    1.43   317.27956   131.95732   185.73027
   129  N   5.0   -0.49    3.01    1.93   314.48527   127.51040   174.32016
   130  C   4.0    0.07    3.99    3.60   316.00352   126.06186   172.56499
   131  C   4.0    0.28    3.01    3.02   318.77302   126.46181   173.32823
   132  O   6.0   -0.38    1.00    1.80   319.47353   128.51503   174.16014
   133  C   4.0   -0.12    3.98    3.59   315.63405   127.00024   169.84274
   134  C   4.0   -0.11    3.98    3.59   312.87690   126.88974   169.00470
   135  C   4.0    0.26    3.00    3.02   312.43735   128.44745   166.63315
   136  O   6.0   -0.40    1.00    1.80   314.02060   129.86986   165.73233
   137  N   5.0   -0.66    3.00    1.93   310.15459   128.12720   165.58236
   138  H   1.0    0.26    1.00    1.43   315.28214   129.14741   174.90041
   139  H   1.0    0.13    0.99    1.43   315.41882   124.08944   172.75369
   140  H   1.0    0.15    0.99    1.43   316.27551   128.95671   169.73255
   141  H   1.0    0.12    0.99    1.43   316.81992   125.90303   168.56505
   142  H   1.0    0.11    0.99    1.43   312.28841   124.94395   168.68005
   143  H   1.0    0.13    0.99    1.43   311.67481   127.67886   170.48841
   144  H   1.0    0.25    1.00    1.43   308.80648   127.10603   166.44987
   145  H   1.0    0.28    1.00    1.43   309.67753   129.19257   164.07788
   146  N   5.0   -0.46    3.01    1.93   320.30853   124.50493   172.97740
   147  C   4.0    0.08    3.99    3.60   322.93067   124.52016   173.78708
   148  C   4.0    0.09    3.00    3.02   324.51690   126.29627   172.15522
   149  O   6.0   -0.38    1.00    1.80   324.33555   126.30756   169.84252
   150  C   4.0   -0.14    3.98    3.59   323.97767   121.82811   173.60162
   151  C   4.0   -0.16    3.99    3.60   322.74923   120.15659   175.61393
   152  C   4.0   -0.16    3.98    3.58   322.82474   117.34127   174.97591
   153  C   4.0   -0.05    3.98    3.59   321.32082   115.94933   176.99714
   154  N   5.0   -0.73    3.98    2.81   321.09892   113.19600   176.50188
   155  H   1.0    0.22    1.00    1.43   319.65402   122.92044   172.14003
   156  H   1.0    0.15    0.99    1.43   322.98025   125.18307   175.74537
   157  H   1.0    0.12    0.99    1.43   323.58229   121.12724   171.70099
   158  H   1.0    0.11    0.99    1.43   326.02512   121.89036   173.82812
   159  H   1.0    0.12    0.99    1.43   323.66622   120.49188   177.43009
   160  H   1.0    0.14    0.99    1.43   320.78708   120.74867   175.84370
   161  H   1.0    0.10    0.99    1.43   321.98305   117.05182   173.11707
   162  H   1.0    0.10    0.99    1.43   324.77987   116.70330   174.92665
   163  H   1.0    0.11    0.99    1.43   322.20699   116.24097   178.83377
   164  H   1.0    0.13    0.99    1.43   319.41851   116.73580   177.08802
   165  H   1.0    0.29    0.99    1.43   319.77350   112.51072   177.78424
   166  H   1.0    0.24    1.00    1.43   320.46488   112.88810   174.68933
   167  H   1.0    0.24    1.00    1.43   322.81169   112.30879   176.73379
   168  N   5.0   -0.71    3.00    1.93   320.27215   120.97588   184.74514
   169  C   4.0    0.07    3.98    3.59   318.66466   121.66031   182.63903
   170  C   4.0    0.27    3.01    3.02   319.75425   123.81934   181.04900
   171  O   6.0   -0.43    1.00    1.80   319.25902   123.97954   178.80170
   172  C   4.0   -0.18    3.98    3.59   316.05537   122.35703   183.64144
   173  H   1.0    0.29    1.00    1.43   319.42175   120.86859   186.44952
   174  H   1.0    0.12    0.99    1.43   318.50608   120.04816   181.33952
   175  H   1.0    0.14    0.99    1.43   314.70697   122.53516   182.10360
   176  H   1.0    0.14    0.99    1.43   315.41350   120.88069   184.91919
   177  H   1.0    0.14    0.99    1.43   316.12214   124.14455   184.65756
   178  N   5.0   -0.48    3.00    1.93   321.26349   125.45618   182.26990
   179  C   4.0    0.08    3.99    3.60   322.60114   127.44538   180.97028
   180  C   4.0    0.08    3.00    3.02   325.39524   126.82267   180.52660
   181  O   6.0   -0.40    1.00    1.80   326.56559   127.88519   178.83025
   182  C   4.0   -0.08    3.98    3.59   322.38483   130.00031   182.31612
   183  C   4.0    0.32    2.99    3.02   323.82691   130.10504   184.85616
   184  O   6.0   -0.36    1.00    1.80   324.27126   132.23737   185.74881
   185  O   6.0   -0.38    1.00    1.80   324.46037   128.05705   185.84721
   186  H   1.0    0.29    1.00    1.43   321.53342   125.35041   184.15748
   187  H   1.0    0.16    0.99    1.43   321.73058   127.63042   179.09539
   188  H   1.0    0.14    0.99    1.43   323.08435   131.49652   181.08025
   189  H   1.0    0.13    0.99    1.43   320.39768   130.41746   182.69498
   190  N   5.0   -0.70    3.00    1.93   313.65574   116.20078   192.31039
   191  C   4.0    0.06    3.98    3.59   312.56445   115.76912   189.82986
   192  C   4.0    0.28    3.01    3.02   314.68558   115.67846   187.85009
   193  O   6.0   -0.42    1.00    1.80   316.30959   117.31763   187.72518
   194  C   4.0   -0.20    3.98    3.59   310.70189   117.85802   189.15946
   195  H   1.0    0.27    1.00    1.43   313.90661   118.01364   192.84242
   196  H   1.0    0.10    0.99    1.43   311.60966   113.93590   189.91830
   197  H   1.0    0.12    0.99    1.43   309.74950   117.40973   187.39613
   198  H   1.0    0.10    0.99    1.43   309.29219   118.04277   190.64101
   199  H   1.0    0.13    0.99    1.43   311.69844   119.64289   188.92949
   200  N   5.0   -0.50    3.01    1.93   314.56226   113.70495   186.26434
   201  C   4.0    0.07    3.99    3.60   316.52122   113.11908   184.44539
   202  C   4.0    0.27    3.01    3.02   315.67849   113.45053   181.69668
   203  O   6.0   -0.49    1.00    1.80   317.20681   113.23829   179.97103
   204  C   4.0   -0.21    3.99    3.60   317.39647   110.38796   184.81845
   205  H   1.0    0.23    1.00    1.43   313.31872   112.30438   186.63736
   206  H   1.0    0.14    0.99    1.43   318.07901   114.44270   184.78458
   207  H   1.0    0.11    0.99    1.43   318.98422   109.97934   183.58776
   208  H   1.0    0.11    0.99    1.43   317.96750   110.10812   186.77139
   209  H   1.0    0.11    0.99    1.43   315.85459   109.09984   184.38322
   210  N   5.0   -0.45    3.01    1.93   313.22901   113.87646   181.34001
   211  C   4.0    0.09    3.99    3.60   311.99408   114.13316   178.92714
   212  C   4.0    0.29    3.01    3.02   309.63568   115.77777   179.29868
   213  O   6.0   -0.39    1.00    1.80   308.70593   116.13257   181.38184
   214  C   4.0    0.05    3.98    3.58   311.11827   111.51243   177.90867
   215  O   6.0   -0.44    1.99    1.82   310.11404   110.19262   180.00140
   216  C   4.0   -0.21    3.98    3.58   313.28869   110.06759   176.66807
   217  H   1.0    0.28    1.00    1.43   312.04597   114.10673   182.82691
   218  H   1.0    0.11    0.99    1.43   313.28581   115.01167   177.57581
   219  H   1.0    0.12    0.99    1.43   309.61826   111.85311   176.50597
   220  H   1.0    0.25    0.99    1.43   309.35877   108.64255   179.41262
   221  H   1.0    0.10    0.99    1.43   312.60800   108.25586   175.97827
   222  H   1.0    0.10    0.99    1.43   314.01222   111.14222   175.08007
   223  H   1.0    0.14    0.99    1.43   314.78373   109.74603   178.03434
   224  N   5.0   -0.48    3.01    1.93   308.69331   116.68273   177.13858
   225  C   4.0    0.09    3.99    3.60   306.31551   118.01873   176.94362
   226  C   4.0    0.28    3.01    3.02   304.14068   116.21316   177.57083
   227  O   6.0   -0.39    1.00    1.80   304.14935   114.01524   176.83672
   228  C   4.0    0.04    3.98    3.59   306.02897   118.89380   174.16136
   229  O   6.0   -0.49    1.99    1.82   308.34782   119.75002   173.19045
   230  C   4.0   -0.21    3.98    3.59   303.91384   120.82852   173.90454
   231  H   1.0    0.25    1.00    1.43   309.62310   116.45773   175.48389
   232  H   1.0    0.15    0.99    1.43   306.30372   119.63844   178.23318
   233  H   1.0    0.14    0.99    1.43   305.58664   117.21591   173.02151
   234  H   1.0    0.30    0.99    1.43   308.88051   121.29448   174.02088
   235  H   1.0    0.11    0.99    1.43   303.79909   121.45970   171.95480
   236  H   1.0    0.13    0.99    1.43   302.11526   120.00494   174.45301
   237  H   1.0    0.12    0.99    1.43   304.29936   122.44743   175.11004
   238  N   5.0   -0.48    3.01    1.93   302.23899   117.22140   178.88852
   239  C   4.0    0.09    3.99    3.61   300.01850   115.74570   179.51707
   240  C   4.0    0.27    3.01    3.02   298.20748   115.62408   177.25606
   241  O   6.0   -0.44    1.00    1.80   297.38655   117.53594   176.26089
   242  C   4.0    0.04    3.98    3.59   298.57896   117.00115   181.72268
   243  O   6.0   -0.52    1.99    1.82   300.22006   117.63401   183.71680
   244  C   4.0   -0.22    3.98    3.59   296.40937   115.32925   182.62949
   245  H   1.0    0.29    1.00    1.43   302.34609   119.03673   179.50131
   246  H   1.0    0.13    0.99    1.43   300.65219   113.84027   180.02838
   247  H   1.0    0.13    0.99    1.43   297.85931   118.81673   181.03369
   248  H   1.0    0.29    0.99    1.43   301.00096   116.14190   184.42792
   249  H   1.0    0.10    0.99    1.43   295.43849   116.27491   184.17270
   250  H   1.0    0.14    0.99    1.43   295.08586   114.99605   181.09682
   251  H   1.0    0.10    0.99    1.43   297.16811   113.54556   183.31129
   252  N   5.0   -0.48    3.01    1.93   297.43650   113.30030   176.59228
   253  C   4.0    0.07    4.00    3.61   295.57613   112.97240   174.60220
   254  C   4.0    0.29    3.01    3.02   292.96258   113.55471   175.68930
   255  O   6.0   -0.45    1.00    1.80   292.44828   113.15304   177.91268
   256  C   4.0   -0.14    3.98    3.59   295.61054   110.25816   173.60001
   257  C   4.0   -0.11    3.97    3.58   297.98414   109.65237   172.09155
   258  C   4.0    0.31    2.99    3.02   298.59255   106.75362   172.16279
   259  O   6.0   -0.39    1.00    1.80   298.12115   105.62697   174.17716
   260  O   6.0   -0.38    1.00    1.80   299.54867   105.83736   170.21625
   261  H   1.0    0.24    1.00    1.43   298.37650   111.74747   177.17555
   262  H   1.0    0.12    0.99    1.43   295.99877   114.30772   173.07558
   263  H   1.0    0.15    0.99    1.43   295.54807   108.93269   175.18345
   264  H   1.0    0.13    0.99    1.43   293.94302   109.92483   172.43145
   265  H   1.0    0.12    0.99    1.43   297.83810   110.22986   170.11982
   266  H   1.0    0.13    0.99    1.43   299.64135   110.57985   172.90987
   267  N   5.0   -0.49    3.01    1.93   291.31925   114.54748   174.05433
   268  C   4.0    0.07    3.99    3.61   288.67417   114.97522   174.65460
   269  C   4.0    0.27    3.02    3.02   288.36682   116.24679   177.24389
   270  O   6.0   -0.44    1.00    1.80   286.88162   115.46506   178.83504
   271  C   4.0   -0.09    3.99    3.60   287.14677   112.50874   174.57381
   272  C   4.0    0.27    3.00    3.02   287.16275   111.49108   171.89204
   273  O   6.0   -0.40    1.00    1.80   288.91220   110.23869   171.04729
   274  N   5.0   -0.66    3.00    1.93   285.14085   112.16000   170.52178
   275  H   1.0    0.23    1.00    1.43   291.81244   114.60779   172.21357
   276  H   1.0    0.10    0.99    1.43   287.91480   116.27924   173.23715
   277  H   1.0    0.14    0.99    1.43   288.01752   111.13904   175.83890
   278  H   1.0    0.11    0.99    1.43   285.23041   112.92309   175.19502
   279  H   1.0    0.28    1.00    1.43   285.01836   111.62463   168.69876
   280  H   1.0    0.25    1.00    1.43   283.80844   113.30661   171.25308
   281  N   5.0   -0.33    3.03    1.93   289.70173   118.35948   177.60646
   282  C   4.0    0.06    4.02    3.66   289.53919   119.61226   180.05177
   283  C   4.0    0.08    3.00    3.02   286.80169   120.18829   180.75513
   284  O   6.0   -0.43    1.00    1.80   285.95795   119.69065   182.84760
   285  C   4.0   -0.15    4.01    3.63   291.14560   122.01165   179.76052
   286  C   4.0   -0.15    4.00    3.63   291.35758   122.39570   176.90665
   287  C   4.0   -0.04    4.01    3.65   291.38657   119.69358   175.89481
   288  H   1.0    0.12    0.99    1.43   290.27369   118.36542   181.53157
   289  H   1.0    0.10    0.99    1.43   290.30399   123.62582   180.71552
   290  H   1.0    0.10    0.99    1.43   293.01435   121.67259   180.54717
   291  H   1.0    0.10    0.99    1.43   289.74495   123.44474   176.16769
   292  H   1.0    0.09    0.99    1.43   293.06300   123.41519   176.38951
   293  H   1.0    0.10    0.99    1.43   290.72757   119.57218   173.94890
   294  H   1.0    0.15    0.99    1.43   293.30133   118.91429   176.00612
   295  N   5.0   -0.70    3.00    1.93   282.59992   115.29885   183.77585
   296  C   4.0    0.07    3.98    3.59   283.43358   114.68335   186.31040
   297  C   4.0    0.08    3.00    3.02   282.65230   116.72457   188.20650
   298  O   6.0   -0.42    1.00    1.80   281.86324   116.16158   190.31531
   299  C   4.0   -0.14    3.98    3.59   286.29117   114.26315   186.25148
   300  C   4.0   -0.17    3.98    3.59   286.90671   111.86406   184.75825
   301  C   4.0   -0.15    3.98    3.59   289.66981   111.76736   183.93059
   302  C   4.0   -0.05    3.98    3.59   290.20658   109.25802   182.62299
   303  N   5.0   -0.73    3.98    2.81   292.76511   109.29670   181.46324
   304  H   1.0    0.31    1.00    1.43   283.93799   115.83816   182.51747
   305  H   1.0    0.12    0.99    1.43   282.46460   112.94983   186.91037
   306  H   1.0    0.14    0.99    1.43   287.15257   115.91133   185.36128
   307  H   1.0    0.11    0.99    1.43   286.99684   114.11031   188.17926
   308  H   1.0    0.10    0.99    1.43   286.45944   110.21799   185.91352
   309  H   1.0    0.12    0.99    1.43   285.72611   111.80121   183.07142
   310  H   1.0    0.14    0.99    1.43   290.01141   113.30238   182.59835
   311  H   1.0    0.10    0.99    1.43   290.89448   112.00850   185.56796
   312  H   1.0    0.10    0.99    1.43   290.08695   107.69887   183.96508
   313  H   1.0    0.12    0.99    1.43   288.82158   108.95927   181.12795
   314  H   1.0    0.25    1.00    1.43   293.15497   107.61720   180.57007
   315  H   1.0    0.30    0.99    1.43   292.84730   110.76308   180.12817
   316  H   1.0    0.24    1.00    1.43   294.11037   109.61623   182.82690
   317  H   1.0    0.29    1.00    1.43   308.35859   141.47797   174.68497
   318  H   1.0    0.14    1.00    1.43   310.97331   141.64974   183.22048
   319  H   1.0    0.30    1.00    1.43   303.70788   137.06988   184.71893
   320  H   1.0    0.16    1.00    1.43   307.35413   137.79302   190.03744
   321  H   1.0    0.29    1.00    1.43   301.54535   116.32478   196.96284
   322  H   1.0    0.15    1.00    1.43   325.73888   127.48704   172.96757
   323  H   1.0    0.30    1.00    1.43   320.95559   119.44419   184.46339
   324  H   1.0    0.15    1.00    1.43   326.26483   125.55004   181.61990
   325  H   1.0    0.28    1.00    1.43   312.65404   115.51091   193.49919
   326  H   1.0    0.13    1.00    1.43   285.65034   120.99224   179.49057
   327  H   1.0    0.29    1.00    1.43   281.84696   113.94157   183.08057
   328  H   1.0    0.15    1.00    1.43   282.78049   118.55024   187.73579

           ------------------------------------------------- 
          |        Self-Consistent Charge Iterations        |
           ------------------------------------------------- 

          ...................................................
          :                      SETUP                      :
          :.................................................:
          :  # basis functions                 805          :
          :  # atomic orbitals                 805          :
          :  # shells                          487          :
          :  # electrons                       906          :
          :  max. iterations                   250          :
          :  Hamiltonian                  GFN2-xTB          :
          :  restarted?                      false          :
          :  GBSA solvation                   true          :
          :  PC potential                    false          :
          :  electronic temp.          500.0000000     K    :
          :  accuracy                    0.1000000          :
          :  -> integral cutoff          0.3500000E+02      :
          :  -> integral neglect         0.1000000E-08      :
          :  -> SCF convergence          0.1000000E-06 Eh   :
          :  -> wf. convergence          0.1000000E-04 e    :
          :  Broyden damping             0.4000000          :
          ...................................................

 iter      E             dE          RMSdq      gap      omega  full diag
   1   -522.9256043 -0.522926E+03  0.438E+00    1.83       0.0  T
   2   -524.4478695 -0.152227E+01  0.220E+00    1.53       1.0  T
   3   -524.4998120 -0.519425E-01  0.121E+00    2.04       1.0  T
   4   -524.5168545 -0.170425E-01  0.293E-01    1.51       1.0  T
   5   -524.5314055 -0.145511E-01  0.119E-01    1.70       1.0  T
   6   -524.5319109 -0.505369E-03  0.542E-02    1.66       1.0  T
   7   -524.5319842 -0.732751E-04  0.192E-02    1.62       1.0  T
   8   -524.5320109 -0.267125E-04  0.808E-03    1.60       1.0  T
   9   -524.5320136 -0.274547E-05  0.328E-03    1.60       1.7  T
  10   -524.5320141 -0.452217E-06  0.127E-03    1.60       4.4  T
  11   -524.5320142 -0.113018E-06  0.532E-04    1.60      10.4  T
  12   -524.5320142 -0.167264E-07  0.233E-04    1.60      23.7  T
  13   -524.5320142 -0.271780E-08  0.975E-05    1.60      56.6  T
  14   -524.5320142 -0.555815E-09  0.376E-05    1.59     147.0  T

   *** convergence criteria satisfied after 14 iterations ***

         #    Occupation            Energy/Eh            Energy/eV
      -------------------------------------------------------------
         1        2.0000           -0.7350958             -20.0030
       ...           ...                  ...                  ...
       447        2.0000           -0.3727562             -10.1432
       448        2.0000           -0.3714005             -10.1063
       449        2.0000           -0.3680815             -10.0160
       450        2.0000           -0.3628702              -9.8742
       451        2.0000           -0.3607573              -9.8167
       452        2.0000           -0.3547448              -9.6531
       453        2.0000           -0.3510339              -9.5521 (HOMO)
       454                         -0.2924201              -7.9572 (LUMO)
       455                         -0.2913174              -7.9272
       456                         -0.2896986              -7.8831
       457                         -0.2859842              -7.7820
       458                         -0.2812917              -7.6543
       ...                                ...                  ...
       805                          0.6435702              17.5124
      -------------------------------------------------------------
                  HL-Gap            0.0586137 Eh            1.5950 eV
             Fermi-level           -0.3220706 Eh           -8.7640 eV

 SCC (total)                   0 d,  0 h,  0 min,  3.732 sec
 SCC setup                      ...        0 min,  0.058 sec (  1.549%)
 Dispersion                     ...        0 min,  0.037 sec (  0.983%)
 integral evaluation            ...        0 min,  0.130 sec (  3.482%)
 zeroth order Hamiltonian       ...        0 min,  0.002 sec (  0.064%)
 iterations                     ...        0 min,  2.832 sec ( 75.873%)
 molecular gradient             ...        0 min,  0.641 sec ( 17.170%)
 printout                       ...        0 min,  0.033 sec (  0.877%)

         :::::::::::::::::::::::::::::::::::::::::::::::::::::
         ::                     SUMMARY                     ::
         :::::::::::::::::::::::::::::::::::::::::::::::::::::
         :: total energy             -518.545821777306 Eh   ::
         :: total w/o Gsasa/hb       -518.477145941398 Eh   ::
         :: gradient norm               0.544518203811 Eh/α ::
         :: HOMO-LUMO gap               1.594960159905 eV   ::
         ::.................................................::
         :: SCC energy               -524.542026044077 Eh   ::
         :: -> isotropic ES             1.947029990818 Eh   ::
         :: -> anisotropic ES          -0.091936208794 Eh   ::
         :: -> anisotropic XC           0.142533445651 Eh   ::
         :: -> dispersion              -0.396859762663 Eh   ::
         :: -> Gsolv                   -0.511826498164 Eh   ::
         ::    -> Gborn                -0.443150662257 Eh   ::
         ::    -> Gsasa                -0.011869252687 Eh   ::
         ::    -> Ghb                  -0.058664026347 Eh   ::
         ::    -> Gshift                0.001857443127 Eh   ::
         :: repulsion energy            5.963904711786 Eh   ::
         :: add. restraining            0.000000000000 Eh   ::
         :::::::::::::::::::::::::::::::::::::::::::::::::::::

           -------------------------------------------------
          |                Property Printout                |
           -------------------------------------------------

    * Orbital Energies and Occupations

         #    Occupation            Energy/Eh            Energy/eV
      -------------------------------------------------------------
         1        2.0000           -0.7350958             -20.0030
       ...           ...                  ...                  ...
       441        2.0000           -0.3941288             -10.7248
       442        2.0000           -0.3903005             -10.6206
       443        2.0000           -0.3828872             -10.4189
       444        2.0000           -0.3792230             -10.3192
       445        2.0000           -0.3760127             -10.2318
       446        2.0000           -0.3744081             -10.1882
       447        2.0000           -0.3727562             -10.1432
       448        2.0000           -0.3714005             -10.1063
       449        2.0000           -0.3680815             -10.0160
       450        2.0000           -0.3628702              -9.8742
       451        2.0000           -0.3607573              -9.8167
       452        2.0000           -0.3547448              -9.6531
       453        2.0000           -0.3510339              -9.5521 (HOMO)
       454                         -0.2924201              -7.9572 (LUMO)
       455                         -0.2913174              -7.9272
       456                         -0.2896986              -7.8831
       457                         -0.2859842              -7.7820
       458                         -0.2812917              -7.6543
       459                         -0.2727592              -7.4222
       460                         -0.2486259              -6.7655
       461                         -0.2393733              -6.5137
       462                         -0.2387228              -6.4960
       463                         -0.2371881              -6.4542
       464                         -0.2311387              -6.2896
       ...                                ...                  ...
       805                          0.6435702              17.5124
      -------------------------------------------------------------
                  HL-Gap            0.0586137 Eh            1.5950 eV
             Fermi-level           -0.3220706 Eh           -8.7640 eV

   #   Z        covCN         q      C6AA      α(0)
   1   7 N      2.636    -0.401    30.403     8.189
   2   6 C      3.786     0.034    20.020     6.373
   3   6 C      2.761     0.269    22.465     7.762
   4   8 O      0.859    -0.493    23.632     6.518
   5   6 C      3.811    -0.062    21.686     6.629
   6   6 C      3.849    -0.004    20.622     6.459
   7   6 C      3.758    -0.112    22.698     6.792
   8   6 C      3.756    -0.118    22.805     6.809
   9   1 H      0.860     0.160     1.335     1.810
  10   1 H      0.924     0.054     2.269     2.355
  11   1 H      0.924     0.014     2.832     2.632
  12   1 H      0.924     0.044     2.397     2.421
  13   1 H      0.924     0.028     2.619     2.531
  14   1 H      0.925     0.050     2.322     2.383
  15   1 H      0.925     0.020     2.736     2.587
  16   1 H      0.925     0.049     2.337     2.391
  17   1 H      0.925     0.054     2.273     2.358
  18   1 H      0.925     0.050     2.320     2.382
  19   1 H      0.925     0.037     2.496     2.471
  20   7 N      2.691    -0.167    24.624     7.370
  21   6 C      3.797     0.047    19.791     6.335
  22   6 C      2.769     0.201    23.724     7.977
  23   8 O      0.856    -0.365    20.995     6.143
  24   6 C      3.803    -0.102    22.437     6.744
  25   6 C      2.682     0.376    20.638     7.434
  26   8 O      0.856    -0.614    26.455     6.896
  27   8 O      0.856    -0.610    26.366     6.884
  28   1 H      0.860     0.199     1.114     1.653
  29   1 H      0.923     0.060     2.202     2.321
  30   1 H      0.925     0.053     2.278     2.360
  31   1 H      0.924     0.044     2.396     2.421
  32   7 N      2.636    -0.398    30.326     8.179
  33   6 C      3.784     0.049    19.765     6.333
  34   6 C      2.768     0.200    23.735     7.979
  35   8 O      0.856    -0.381    21.300     6.188
  36   6 C      3.809    -0.053    21.516     6.603
  37   6 C      3.806    -0.098    22.356     6.731
  38   6 C      2.744     0.288    22.115     7.700
  39   8 O      0.859    -0.509    23.988     6.567
  40   7 N      2.637    -0.281    27.263     7.755
  41   1 H      0.860     0.175     1.240     1.744
  42   1 H      0.923     0.047     2.359     2.402
  43   1 H      0.924     0.053     2.288     2.365
  44   1 H      0.924     0.046     2.374     2.409
  45   1 H      0.924     0.065     2.143     2.289
  46   1 H      0.925     0.051     2.302     2.373
  47   1 H      0.860     0.224     0.993     1.561
  48   1 H      0.860     0.250     0.884     1.473
  49   7 N      2.633    -0.392    30.149     8.155
  50   6 C      3.784     0.011    20.402     6.434
  51   6 C      2.752     0.263    22.570     7.779
  52   8 O      0.859    -0.506    23.921     6.557
  53   6 C      3.723     0.107    18.926     6.213
  54   8 O      1.653    -0.478    22.433     6.394
  55   6 C      3.752    -0.130    23.060     6.848
  56   1 H      0.860     0.177     1.233     1.740
  57   1 H      0.924     0.047     2.363     2.404
  58   1 H      0.923     0.044     2.392     2.419
  59   1 H      0.803     0.330     0.637     1.254
  60   1 H      0.925     0.059     2.209     2.324
  61   1 H      0.925     0.038     2.470     2.458
  62   1 H      0.925     0.049     2.329     2.386
  63   7 N      2.693    -0.168    24.645     7.373
  64   6 C      3.793     0.011    20.402     6.432
  65   6 C      2.757     0.278    22.294     7.732
  66   8 O      0.858    -0.493    23.638     6.519
  67   6 C      3.812    -0.080    22.018     6.679
  68   6 C      3.849    -0.010    20.713     6.473
  69   6 C      3.756    -0.129    23.032     6.843
  70   6 C      3.758    -0.121    22.860     6.816
  71   1 H      0.860     0.222     0.999     1.566
  72   1 H      0.924     0.089     1.892     2.151
  73   1 H      0.924     0.072     2.058     2.244
  74   1 H      0.924     0.055     2.256     2.349
  75   1 H      0.924     0.018     2.764     2.600
  76   1 H      0.925     0.051     2.307     2.375
  77   1 H      0.925     0.039     2.460     2.453
  78   1 H      0.925     0.059     2.206     2.323
  79   1 H      0.925     0.045     2.386     2.416
  80   1 H      0.925     0.055     2.263     2.352
  81   1 H      0.925     0.036     2.500     2.472
  82   7 N      2.689    -0.182    24.945     7.418
  83   6 C      3.801     0.023    20.194     6.398
  84   6 C      2.757     0.275    22.357     7.743
  85   8 O      0.858    -0.473    23.190     6.456
  86   6 C      3.811    -0.098    22.361     6.731
  87   6 C      2.747     0.287    22.141     7.705
  88   8 O      0.859    -0.506    23.912     6.556
  89   7 N      2.638    -0.280    27.226     7.749
  90   1 H      0.860     0.237     0.936     1.516
  91   1 H      0.924     0.079     1.993     2.208
  92   1 H      0.925     0.068     2.110     2.272
  93   1 H      0.924     0.083     1.950     2.184
  94   1 H      0.860     0.230     0.964     1.538
  95   1 H      0.860     0.213     1.041     1.598
  96   7 N      2.688    -0.180    24.894     7.410
  97   6 C      3.798     0.017    20.287     6.413
  98   6 C      2.754     0.269    22.462     7.761
  99   8 O      0.859    -0.485    23.457     6.493
 100   6 C      3.851    -0.015    20.811     6.488
 101   6 C      3.756    -0.124    22.924     6.827
 102   6 C      3.755    -0.112    22.703     6.794
 103   1 H      0.860     0.215     1.032     1.591
 104   1 H      0.923     0.080     1.976     2.198
 105   1 H      0.924     0.058     2.225     2.333
 106   1 H      0.925     0.064     2.149     2.293
 107   1 H      0.925     0.053     2.285     2.364
 108   1 H      0.925     0.045     2.382     2.413
 109   1 H      0.925     0.056     2.248     2.344
 110   1 H      0.925     0.044     2.401     2.423
 111   1 H      0.925     0.026     2.643     2.542
 112   7 N      2.691    -0.181    24.931     7.416
 113   6 C      3.799     0.028    20.098     6.383
 114   6 C      2.753     0.271    22.424     7.754
 115   8 O      0.858    -0.457    22.862     6.411
 116   6 C      3.809    -0.053    21.527     6.604
 117   6 C      3.809    -0.083    22.079     6.689
 118   6 C      2.746     0.291    22.060     7.691
 119   8 O      0.859    -0.502    23.827     6.545
 120   7 N      2.638    -0.290    27.472     7.784
 121   1 H      0.860     0.223     0.994     1.562
 122   1 H      0.924     0.061     2.190     2.314
 123   1 H      0.924     0.068     2.110     2.271
 124   1 H      0.924     0.034     2.526     2.485
 125   1 H      0.925     0.046     2.371     2.408
 126   1 H      0.924     0.067     2.114     2.274
 127   1 H      0.859     0.233     0.954     1.530
 128   1 H      0.860     0.201     1.101     1.643
 129   7 N      2.694    -0.167    24.615     7.369
 130   6 C      3.793     0.013    20.358     6.425
 131   6 C      2.760     0.277    22.317     7.736
 132   8 O      0.858    -0.517    24.168     6.591
 133   6 C      3.807    -0.062    21.678     6.628
 134   6 C      3.807    -0.101    22.429     6.742
 135   6 C      2.744     0.292    22.047     7.688
 136   8 O      0.859    -0.506    23.911     6.556
 137   7 N      2.639    -0.291    27.497     7.788
 138   1 H      0.860     0.188     1.172     1.696
 139   1 H      0.924     0.092     1.859     2.132
 140   1 H      0.924     0.054     2.266     2.354
 141   1 H      0.925     0.071     2.079     2.255
 142   1 H      0.925     0.088     1.897     2.154
 143   1 H      0.924     0.065     2.144     2.290
 144   1 H      0.860     0.231     0.961     1.536
 145   1 H      0.860     0.233     0.953     1.529
 146   7 N      2.690    -0.155    24.352     7.329
 147   6 C      3.794     0.032    20.042     6.375
 148   6 C      2.766     0.206    23.618     7.959
 149   8 O      0.856    -0.358    20.869     6.125
 150   6 C      3.807    -0.078    21.978     6.674
 151   6 C      3.809    -0.078    21.977     6.673
 152   6 C      3.802    -0.096    22.330     6.728
 153   6 C      3.736    -0.045    21.460     6.611
 154   7 N      3.482    -0.152    24.286     7.319
 155   1 H      0.860     0.235     0.942     1.520
 156   1 H      0.924     0.063     2.163     2.300
 157   1 H      0.924     0.089     1.893     2.151
 158   1 H      0.924     0.070     2.082     2.256
 159   1 H      0.924     0.047     2.359     2.402
 160   1 H      0.924     0.061     2.189     2.314
 161   1 H      0.924     0.087     1.910     2.161
 162   1 H      0.925     0.091     1.872     2.140
 163   1 H      0.925     0.105     1.739     2.062
 164   1 H      0.924     0.102     1.770     2.081
 165   1 H      0.858     0.309     0.687     1.299
 166   1 H      0.859     0.296     0.727     1.335
 167   1 H      0.859     0.301     0.710     1.320
 168   7 N      2.636    -0.400    30.364     8.184
 169   6 C      3.784     0.036    19.980     6.367
 170   6 C      2.754     0.266    22.503     7.768
 171   8 O      0.858    -0.492    23.601     6.513
 172   6 C      3.757    -0.108    22.607     6.779
 173   1 H      0.860     0.169     1.278     1.771
 174   1 H      0.923     0.051     2.309     2.376
 175   1 H      0.925     0.040     2.447     2.446
 176   1 H      0.925     0.063     2.162     2.299
 177   1 H      0.925     0.031     2.568     2.506
 178   7 N      2.687    -0.177    24.830     7.401
 179   6 C      3.791     0.045    19.834     6.342
 180   6 C      2.765     0.205    23.647     7.964
 181   8 O      0.856    -0.376    21.211     6.175
 182   6 C      3.803    -0.084    22.110     6.694
 183   6 C      2.685     0.369    20.750     7.455
 184   8 O      0.856    -0.649    27.354     7.012
 185   8 O      0.856    -0.622    26.677     6.925
 186   1 H      0.860     0.214     1.039     1.597
 187   1 H      0.923     0.079     1.989     2.205
 188   1 H      0.924     0.028     2.620     2.531
 189   1 H      0.924     0.031     2.574     2.509
 190   7 N      2.636    -0.389    30.077     8.145
 191   6 C      3.785     0.034    20.023     6.374
 192   6 C      2.755     0.270    22.442     7.757
 193   8 O      0.858    -0.483    23.415     6.488
 194   6 C      3.757    -0.114    22.726     6.797
 195   1 H      0.860     0.159     1.343     1.815
 196   1 H      0.924     0.042     2.428     2.437
 197   1 H      0.925     0.042     2.420     2.433
 198   1 H      0.925     0.047     2.352     2.398
 199   1 H      0.925     0.037     2.495     2.470
 200   7 N      2.689    -0.192    25.158     7.449
 201   6 C      3.793     0.015    20.333     6.421
 202   6 C      2.753     0.263    22.563     7.778
 203   8 O      0.859    -0.463    22.986     6.428
 204   6 C      3.758    -0.134    23.135     6.858
 205   1 H      0.860     0.207     1.070     1.620
 206   1 H      0.924     0.090     1.877     2.143
 207   1 H      0.925     0.091     1.867     2.137
 208   1 H      0.925     0.069     2.091     2.261
 209   1 H      0.925     0.066     2.131     2.283
 210   7 N      2.692    -0.142    24.083     7.288
 211   6 C      3.793     0.007    20.471     6.443
 212   6 C      2.757     0.275    22.353     7.742
 213   8 O      0.858    -0.486    23.469     6.495
 214   6 C      3.725     0.117    18.760     6.185
 215   8 O      1.656    -0.485    22.570     6.413
 216   6 C      3.752    -0.147    23.407     6.899
 217   1 H      0.860     0.204     1.088     1.634
 218   1 H      0.924     0.082     1.958     2.188
 219   1 H      0.923     0.019     2.755     2.596
 220   1 H      0.805     0.340     0.611     1.228
 221   1 H      0.925     0.062     2.174     2.306
 222   1 H      0.925     0.070     2.086     2.259
 223   1 H      0.925     0.082     1.956     2.187
 224   7 N      2.694    -0.175    24.787     7.394
 225   6 C      3.793     0.009    20.439     6.438
 226   6 C      2.759     0.273    22.387     7.748
 227   8 O      0.858    -0.502    23.818     6.543
 228   6 C      3.730     0.110    18.859     6.199
 229   8 O      1.655    -0.455    21.954     6.325
 230   6 C      3.753    -0.137    23.196     6.868
 231   1 H      0.860     0.220     1.009     1.574
 232   1 H      0.924     0.063     2.161     2.299
 233   1 H      0.923     0.053     2.287     2.365
 234   1 H      0.804     0.325     0.651     1.268
 235   1 H      0.925     0.075     2.027     2.227
 236   1 H      0.925     0.057     2.231     2.336
 237   1 H      0.925     0.048     2.340     2.392
 238   7 N      2.689    -0.175    24.796     7.396
 239   6 C      3.797     0.006    20.475     6.443
 240   6 C      2.760     0.269    22.458     7.761
 241   8 O      0.859    -0.467    23.076     6.441
 242   6 C      3.730     0.108    18.899     6.206
 243   8 O      1.655    -0.460    22.054     6.339
 244   6 C      3.752    -0.156    23.575     6.924
 245   1 H      0.860     0.233     0.952     1.529
 246   1 H      0.924     0.066     2.133     2.284
 247   1 H      0.924     0.066     2.129     2.282
 248   1 H      0.805     0.331     0.634     1.251
 249   1 H      0.925     0.087     1.904     2.158
 250   1 H      0.925     0.073     2.052     2.240
 251   1 H      0.925     0.067     2.121     2.278
 252   7 N      2.691    -0.167    24.613     7.368
 253   6 C      3.799     0.019    20.265     6.410
 254   6 C      2.757     0.271    22.421     7.754
 255   8 O      0.859    -0.452    22.740     6.394
 256   6 C      3.807    -0.063    21.697     6.631
 257   6 C      3.797    -0.096    22.336     6.730
 258   6 C      2.683     0.371    20.713     7.448
 259   8 O      0.856    -0.636    27.022     6.969
 260   8 O      0.856    -0.656    27.542     7.036
 261   1 H      0.860     0.211     1.054     1.608
 262   1 H      0.924     0.067     2.121     2.278
 263   1 H      0.924     0.069     2.094     2.263
 264   1 H      0.924     0.056     2.244     2.342
 265   1 H      0.925     0.017     2.780     2.607
 266   1 H      0.924     0.023     2.685     2.562
 267   7 N      2.689    -0.161    24.476     7.348
 268   6 C      3.796     0.024    20.173     6.395
 269   6 C      2.764     0.265    22.527     7.773
 270   8 O      0.859    -0.465    23.029     6.434
 271   6 C      3.811    -0.107    22.527     6.756
 272   6 C      2.746     0.287    22.129     7.703
 273   8 O      0.858    -0.509    23.986     6.566
 274   7 N      2.639    -0.288    27.420     7.777
 275   1 H      0.860     0.207     1.069     1.619
 276   1 H      0.924     0.076     2.018     2.222
 277   1 H      0.925     0.091     1.874     2.141
 278   1 H      0.925     0.094     1.836     2.119
 279   1 H      0.860     0.231     0.959     1.534
 280   1 H      0.860     0.236     0.939     1.518
 281   7 N      2.758    -0.080    22.789     7.090
 282   6 C      3.824     0.021    20.195     6.395
 283   6 C      2.764     0.206    23.631     7.961
 284   8 O      0.856    -0.352    20.737     6.105
 285   6 C      3.829    -0.074    21.894     6.658
 286   6 C      3.827    -0.075    21.920     6.662
 287   6 C      3.767    -0.020    20.967     6.526
 288   1 H      0.924     0.087     1.912     2.162
 289   1 H      0.925     0.069     2.091     2.261
 290   1 H      0.925     0.077     2.006     2.215
 291   1 H      0.924     0.066     2.131     2.283
 292   1 H      0.925     0.072     2.060     2.244
 293   1 H      0.925     0.067     2.123     2.279
 294   1 H      0.924     0.078     2.004     2.214
 295   7 N      2.637    -0.391    30.120     8.151
 296   6 C      3.784     0.039    19.930     6.359
 297   6 C      2.764     0.202    23.695     7.972
 298   8 O      0.856    -0.394    21.570     6.227
 299   6 C      3.807    -0.071    21.860     6.656
 300   6 C      3.806    -0.070    21.834     6.652
 301   6 C      3.803    -0.091    22.229     6.712
 302   6 C      3.733    -0.043    21.440     6.609
 303   7 N      3.482    -0.151    24.266     7.316
 304   1 H      0.860     0.173     1.255     1.755
 305   1 H      0.924     0.052     2.290     2.367
 306   1 H      0.924     0.066     2.128     2.281
 307   1 H      0.925     0.043     2.409     2.427
 308   1 H      0.925     0.053     2.283     2.363
 309   1 H      0.925     0.058     2.217     2.328
 310   1 H      0.924     0.076     2.020     2.223
 311   1 H      0.925     0.075     2.032     2.229
 312   1 H      0.924     0.114     1.662     2.016
 313   1 H      0.925     0.106     1.731     2.058
 314   1 H      0.859     0.280     0.776     1.380
 315   1 H      0.857     0.291     0.741     1.348
 316   1 H      0.859     0.281     0.773     1.378
 317   1 H      0.862     0.191     1.152     1.681
 318   1 H      0.930     0.080     1.982     2.201
 319   1 H      0.862     0.186     1.178     1.700
 320   1 H      0.930     0.074     2.039     2.233
 321   1 H      0.862     0.185     1.184     1.704
 322   1 H      0.930     0.064     2.150     2.293
 323   1 H      0.862     0.192     1.147     1.677
 324   1 H      0.930     0.086     1.914     2.163
 325   1 H      0.862     0.185     1.187     1.706
 326   1 H      0.930     0.073     2.051     2.239
 327   1 H      0.862     0.181     1.209     1.722
 328   1 H      0.930     0.073     2.054     2.241

 Mol. C6AA /au·bohr⁶  :     971717.015686
 Mol. C8AA /au·bohr⁸  :   21326611.736717
 Mol. α(0) /au        :       1463.108908


Wiberg/Mayer (AO) data.
largest (>0.10) Wiberg bond orders for each atom
          total WBO             WBO to atom ...
     1  N   2.993        C    2 1.016    H    9 0.954    H  317 0.953
     2  C   3.984        N    1 1.016    C    5 0.976    H   10 0.957    C    3 0.938
     3  C   3.934        O    4 1.611    N   20 1.298    C    2 0.938
     4  O   1.957        C    3 1.611    N   20 0.188
     5  C   3.991        C    6 0.990    C    2 0.976    H   11 0.974    H   12 0.967
     6  C   3.994        C    8 1.010    C    7 1.007    C    5 0.990    H   13 0.967
     7  C   3.994        C    6 1.007    H   15 0.987    H   14 0.985    H   16 0.984
     8  C   3.995        C    6 1.010    H   18 0.985    H   17 0.984    H   19 0.984
     9  H   0.974        N    1 0.954
    10  H   0.997        C    2 0.957
    11  H   1.000        C    5 0.974
    12  H   0.998        C    5 0.967
    13  H   0.999        C    6 0.967
    14  H   0.997        C    7 0.985
    15  H   1.000        C    7 0.987
    16  H   0.998        C    7 0.984
    17  H   0.997        C    8 0.984
    18  H   0.997        C    8 0.985
    19  H   0.999        C    8 0.984
    20  N   3.468        C    3 1.298    C   21 0.979    H   28 0.925    O    4 0.188
    21  C   3.973        N   20 0.979    C   22 0.978    C   24 0.970    H   29 0.943
    22  C   3.911        O   23 1.875    C   21 0.978    H  318 0.953
    23  O   2.032        C   22 1.875
    24  C   3.980        H   30 0.975    C   21 0.970    H   31 0.962    C   25 0.892
    25  C   3.935        O   27 1.538    O   26 1.469    C   24 0.892
    26  O   1.852        C   25 1.469    O   27 0.212
    27  O   1.840        C   25 1.538    O   26 0.212
    28  H   0.960        N   20 0.925
    29  H   0.996        C   21 0.943
    30  H   0.997        C   24 0.975
    31  H   0.997        C   24 0.962
    32  N   2.995        C   33 1.016    H  319 0.954    H   41 0.929
    33  C   3.988        N   32 1.016    C   34 0.983    C   36 0.959    H   42 0.958
    34  C   3.891        O   35 1.881    C   33 0.983    H  320 0.955
    35  O   2.018        C   34 1.881
    36  C   3.993        C   37 1.002    H   44 0.969    H   43 0.966    C   33 0.959
    37  C   3.996        C   36 1.002    C   38 0.974    H   46 0.969    H   45 0.945
    38  C   3.947        O   39 1.586    N   40 1.347    C   37 0.974
    39  O   1.939        C   38 1.586    N   40 0.195
    40  N   3.416        C   38 1.347    H   47 0.930    H   48 0.888    O   39 0.195
    41  H   0.969        N   32 0.929
    42  H   0.998        C   33 0.958
    43  H   0.997        C   36 0.966
    44  H   0.997        C   36 0.969
    45  H   0.996        C   37 0.945
    46  H   0.997        C   37 0.969
    47  H   0.950        N   40 0.930
    48  H   0.937        N   40 0.888
    49  N   3.014        C   50 1.031    H  321 0.953    H   56 0.948
    50  C   3.984        N   49 1.031    H   57 0.946    C   51 0.943    C   53 0.940
    51  C   3.948        O   52 1.621    N   63 1.312    C   50 0.943
    52  O   1.938        C   51 1.621    N   63 0.195
    53  C   3.955        C   55 1.005    O   54 0.999    H   58 0.959    C   50 0.940
    54  O   1.951        C   53 0.999    H   59 0.870
    55  C   3.994        C   53 1.005    H   61 0.985    H   60 0.984    H   62 0.983
    56  H   0.969        N   49 0.948
    57  H   0.998        C   50 0.946
    58  H   0.998        C   53 0.959
    59  H   0.891        O   54 0.870
    60  H   0.996        C   55 0.984
    61  H   0.999        C   55 0.985
    62  H   0.998        C   55 0.983
    63  N   3.476        C   51 1.312    C   64 0.973    H   71 0.909    O   52 0.195
    64  C   3.959        C   67 0.983    N   63 0.973    H   72 0.945    C   65 0.932
    65  C   3.938        O   66 1.620    N   82 1.304    C   64 0.932
    66  O   1.962        C   65 1.620    N   82 0.193
    67  C   3.985        C   68 0.994    C   64 0.983    H   74 0.970    H   73 0.969
    68  C   3.994        C   69 1.009    C   70 1.008    C   67 0.994    H   75 0.968
    69  C   3.994        C   68 1.009    H   78 0.984    H   76 0.983    H   77 0.982
    70  C   3.994        C   68 1.008    H   81 0.986    H   79 0.986    H   80 0.985
    71  H   0.950        N   63 0.909
    72  H   0.992        C   64 0.945
    73  H   0.994        C   67 0.969
    74  H   0.997        C   67 0.970
    75  H   1.000        C   68 0.968
    76  H   0.997        C   69 0.983
    77  H   0.998        C   69 0.982
    78  H   0.996        C   69 0.984
    79  H   0.998        C   70 0.986
    80  H   0.997        C   70 0.985
    81  H   0.999        C   70 0.986
    82  N   3.468        C   65 1.304    C   83 0.995    H   90 0.873    O   66 0.193
    83  C   3.972        N   82 0.995    C   86 0.944    H   91 0.943    C   84 0.941
    84  C   3.950        O   85 1.613    N   96 1.316    C   83 0.941
    85  O   1.971        C   84 1.613    N   96 0.197
    86  C   3.989        C   87 0.971    H   92 0.966    H   93 0.965    C   83 0.944
    87  C   3.943        O   88 1.595    N   89 1.337    C   86 0.971
    88  O   1.944        C   87 1.595    N   89 0.197
    89  N   3.422        C   87 1.337    H   95 0.934    H   94 0.886    O   88 0.197
    90  H   0.944        N   82 0.873
    91  H   0.994        C   83 0.943
    92  H   0.995        C   86 0.966
    93  H   0.993        C   86 0.965
    94  H   0.947        N   89 0.886
    95  H   0.954        N   89 0.934
    96  N   3.487        C   84 1.316    C   97 0.983    H  103 0.895    O   85 0.197
    97  C   3.958        N   96 0.983    C  100 0.962    C   98 0.939    H  104 0.928
    98  C   3.946        O   99 1.626    N  112 1.301    C   97 0.939
    99  O   1.953        C   98 1.626    N  112 0.195
   100  C   3.987        C  102 1.010    C  101 1.009    H  105 0.963    C   97 0.962
   101  C   3.992        C  100 1.009    H  108 0.986    H  107 0.984    H  106 0.984
   102  C   3.995        C  100 1.010    H  111 0.986    H  109 0.984    H  110 0.981
   103  H   0.953        N   96 0.895
   104  H   0.993        C   97 0.928
   105  H   0.996        C  100 0.963
   106  H   0.995        C  101 0.984
   107  H   0.997        C  101 0.984
   108  H   0.998        C  101 0.986
   109  H   0.997        C  102 0.984
   110  H   0.998        C  102 0.981
   111  H   0.999        C  102 0.986
   112  N   3.473        C   98 1.301    C  113 0.997    H  121 0.881    O   99 0.195
   113  C   3.974        N  112 0.997    C  116 0.976    H  122 0.947    C  114 0.928
   114  C   3.953        O  115 1.649    N  129 1.293    C  113 0.928
   115  O   1.970        C  114 1.649    N  129 0.198
   116  C   3.991        C  117 0.987    C  113 0.976    H  124 0.974    H  123 0.966
   117  C   3.995        C  116 0.987    C  118 0.972    H  125 0.971    H  126 0.961
   118  C   3.941        O  119 1.587    N  120 1.346    C  117 0.972
   119  O   1.941        C  118 1.587    N  120 0.194
   120  N   3.418        C  118 1.346    H  128 0.935    H  127 0.862    O  119 0.194
   121  H   0.950        N  112 0.881
   122  H   0.996        C  113 0.947
   123  H   0.995        C  116 0.966
   124  H   0.998        C  116 0.974
   125  H   0.998        C  117 0.971
   126  H   0.995        C  117 0.961
   127  H   0.945        N  120 0.862
   128  H   0.959        N  120 0.935
   129  N   3.471        C  114 1.293    C  130 0.978    H  138 0.925    O  115 0.198
   130  C   3.957        N  129 0.978    C  133 0.967    H  139 0.952    C  131 0.933
   131  C   3.946        O  132 1.623    N  146 1.319    C  130 0.933
   132  O   1.947        C  131 1.623    N  146 0.196
   133  C   3.987        C  134 1.008    H  140 0.973    H  141 0.972    C  130 0.967
   134  C   3.993        C  133 1.008    C  135 0.969    H  142 0.960    H  143 0.951
   135  C   3.945        O  136 1.647    N  137 1.301    C  134 0.969
   136  O   1.947        C  135 1.647    N  137 0.196
   137  N   3.383        C  135 1.301    H  144 0.928    H  145 0.924    O  136 0.196
   138  H   0.965        N  129 0.925
   139  H   0.991        C  130 0.952
   140  H   0.997        C  133 0.973
   141  H   0.994        C  133 0.972
   142  H   0.992        C  134 0.960
   143  H   0.996        C  134 0.951
   144  H   0.947        N  137 0.928
   145  H   0.945        N  137 0.924
   146  N   3.481        C  131 1.319    C  147 0.974    H  155 0.910    O  132 0.196
   147  C   3.961        C  148 0.975    N  146 0.974    C  150 0.959    H  156 0.949
   148  C   3.901        O  149 1.899    C  147 0.975    H  322 0.956
   149  O   2.038        C  148 1.899
   150  C   3.974        C  151 1.001    H  158 0.972    H  157 0.965    C  147 0.959
   151  C   3.988        C  152 1.002    C  150 1.001    H  159 0.976    H  160 0.967
   152  C   3.982        C  153 1.010    C  151 1.002    H  162 0.970    H  161 0.969
   153  C   3.928        C  152 1.010    N  154 0.966    H  163 0.966    H  164 0.965
   154  N   3.658        C  153 0.966    H  166 0.898    H  167 0.897    H  165 0.855
   155  H   0.945        N  146 0.910
   156  H   0.996        C  147 0.949
   157  H   0.992        C  150 0.965
   158  H   0.994        C  150 0.972
   159  H   0.998        C  151 0.976
   160  H   0.996        C  151 0.967
   161  H   0.992        C  152 0.969
   162  H   0.992        C  152 0.970
   163  H   0.989        C  153 0.966
   164  H   0.990        C  153 0.965
   165  H   0.904        N  154 0.855
   166  H   0.913        N  154 0.898
   167  H   0.909        N  154 0.897
   168  N   2.996        C  169 1.020    H  323 0.953    H  173 0.952
   169  C   3.987        N  168 1.020    C  172 0.991    H  174 0.957    C  170 0.938
   170  C   3.936        O  171 1.630    N  178 1.288    C  169 0.938
   171  O   1.946        C  170 1.630    N  178 0.192
   172  C   3.992        C  169 0.991    H  177 0.985    H  175 0.982    H  176 0.976
   173  H   0.971        N  168 0.952
   174  H   0.997        C  169 0.957
   175  H   0.998        C  172 0.982
   176  H   0.996        C  172 0.976
   177  H   0.999        C  172 0.985
   178  N   3.470        C  170 1.288    C  179 0.999    H  186 0.914    O  171 0.192
   179  C   3.978        N  178 0.999    C  180 0.979    C  182 0.957    H  187 0.935
   180  C   3.895        O  181 1.884    C  179 0.979    H  324 0.951
   181  O   2.031        C  180 1.884
   182  C   3.980        H  188 0.972    C  179 0.957    H  189 0.956    C  183 0.919
   183  C   3.939        O  184 1.503    O  185 1.495    C  182 0.919
   184  O   1.797        C  183 1.503    O  185 0.218
   185  O   1.806        C  183 1.495    O  184 0.218
   186  H   0.954        N  178 0.914
   187  H   0.994        C  179 0.935
   188  H   0.999        C  182 0.972
   189  H   0.999        C  182 0.956
   190  N   2.995        C  191 1.015    H  195 0.959    H  325 0.954
   191  C   3.987        N  190 1.015    C  194 0.988    H  196 0.964    C  192 0.936
   192  C   3.944        O  193 1.654    N  200 1.281    C  191 0.936
   193  O   1.967        C  192 1.654    N  200 0.193
   194  C   3.994        C  191 0.988    H  199 0.985    H  197 0.983    H  198 0.982
   195  H   0.975        N  190 0.959
   196  H   0.998        C  191 0.964
   197  H   0.998        C  194 0.983
   198  H   0.997        C  194 0.982
   199  H   0.999        C  194 0.985
   200  N   3.453        C  192 1.281    C  201 0.978    H  205 0.923    O  193 0.193
   201  C   3.958        C  204 0.984    N  200 0.978    H  206 0.943    C  202 0.941
   202  C   3.951        O  203 1.596    N  210 1.326    C  201 0.941
   203  O   1.960        C  202 1.596    N  210 0.195
   204  C   3.980        C  201 0.984    H  209 0.983    H  208 0.981    H  207 0.977
   205  H   0.957        N  200 0.923
   206  H   0.991        C  201 0.943
   207  H   0.991        C  204 0.977
   208  H   0.995        C  204 0.981
   209  H   0.996        C  204 0.983
   210  N   3.506        C  202 1.326    C  211 0.998    H  217 0.910    O  203 0.195
   211  C   3.971        N  210 0.998    H  218 0.949    C  214 0.939    C  212 0.939
   212  C   3.947        O  213 1.637    N  224 1.302    C  211 0.939
   213  O   1.967        C  212 1.637    N  224 0.196
   214  C   3.952        C  216 0.997    O  215 0.993    H  219 0.960    C  211 0.939
   215  O   1.931        C  214 0.993    H  220 0.869
   216  C   3.986        C  214 0.997    H  222 0.982    H  221 0.981    H  223 0.980
   217  H   0.958        N  210 0.910
   218  H   0.993        C  211 0.949
   219  H   0.999        C  214 0.960
   220  H   0.884        O  215 0.869
   221  H   0.995        C  216 0.981
   222  H   0.995        C  216 0.982
   223  H   0.993        C  216 0.980
   224  N   3.470        C  212 1.302    C  225 0.985    H  231 0.912    O  213 0.196
   225  C   3.965        N  224 0.985    H  232 0.950    C  228 0.945    C  226 0.937
   226  C   3.954        O  227 1.622    N  238 1.317    C  225 0.937
   227  O   1.936        C  226 1.622    N  238 0.200
   228  C   3.957        O  229 1.004    C  230 1.003    H  233 0.960    C  225 0.945
   229  O   1.977        C  228 1.004    H  234 0.872
   230  C   3.990        C  228 1.003    H  236 0.982    H  235 0.981    H  237 0.977
   231  H   0.951        N  224 0.912
   232  H   0.996        C  225 0.950
   233  H   0.997        C  228 0.960
   234  H   0.895        O  229 0.872
   235  H   0.994        C  230 0.981
   236  H   0.997        C  230 0.982
   237  H   0.998        C  230 0.977
   238  N   3.480        C  226 1.317    C  239 0.980    H  245 0.890    O  227 0.200
   239  C   3.961        N  238 0.980    H  246 0.954    C  242 0.950    C  240 0.931
   240  C   3.952        O  241 1.650    N  252 1.290    C  239 0.931
   241  O   1.972        C  240 1.650    N  252 0.197
   242  C   3.943        C  244 0.999    O  243 0.985    H  247 0.956    C  239 0.950
   243  O   2.004        C  242 0.985    H  248 0.868
   244  C   3.983        C  242 0.999    H  251 0.981    H  249 0.979    H  250 0.975
   245  H   0.945        N  238 0.890
   246  H   0.995        C  239 0.954
   247  H   0.996        C  242 0.956
   248  H   0.890        O  243 0.868
   249  H   0.992        C  244 0.979
   250  H   0.994        C  244 0.975
   251  H   0.995        C  244 0.981
   252  N   3.464        C  240 1.290    C  253 0.981    H  261 0.920    O  241 0.197
   253  C   3.967        N  252 0.981    C  256 0.973    H  262 0.949    C  254 0.941
   254  C   3.951        O  255 1.597    N  267 1.317    C  253 0.941
   255  O   1.992        C  254 1.597    N  267 0.185
   256  C   3.987        C  257 1.009    C  253 0.973    H  264 0.972    H  263 0.964
   257  C   3.988        C  256 1.009    H  265 0.981    H  266 0.964    C  258 0.904
   258  C   3.931        O  260 1.504    O  259 1.501    C  257 0.904
   259  O   1.799        C  258 1.501    O  260 0.215
   260  O   1.792        C  258 1.504    O  259 0.215
   261  H   0.955        N  252 0.920
   262  H   0.995        C  253 0.949
   263  H   0.995        C  256 0.964
   264  H   0.996        C  256 0.972
   265  H   1.000        C  257 0.981
   266  H   0.999        C  257 0.964
   267  N   3.481        C  254 1.317    C  268 0.974    H  275 0.926    O  255 0.185
   268  C   3.962        N  267 0.974    C  271 0.968    H  276 0.946    C  269 0.931
   269  C   3.960        O  270 1.619    N  281 1.304    C  268 0.931
   270  O   1.979        C  269 1.619    N  281 0.201
   271  C   3.986        C  268 0.968    C  272 0.965    H  277 0.964    H  278 0.962
   272  C   3.944        O  273 1.641    N  274 1.311    C  271 0.965
   273  O   1.945        C  272 1.641    N  274 0.204
   274  N   3.399        C  272 1.311    H  279 0.925    H  280 0.925    O  273 0.204
   275  H   0.956        N  267 0.926
   276  H   0.994        C  268 0.946
   277  H   0.992        C  271 0.964
   278  H   0.991        C  271 0.962
   279  H   0.946        N  274 0.925
   280  H   0.944        N  274 0.925
   281  N   3.532        C  269 1.304    C  287 0.975    C  282 0.962    O  270 0.201
   282  C   3.965        C  283 0.975    C  285 0.967    N  281 0.962    H  288 0.952
   283  C   3.908        O  284 1.896    C  282 0.975    H  326 0.953
   284  O   2.052        C  283 1.896
   285  C   3.986        C  286 1.004    H  289 0.973    H  290 0.970    C  282 0.967
   286  C   3.990        C  285 1.004    C  287 1.004    H  291 0.977    H  292 0.973
   287  C   3.960        C  286 1.004    N  281 0.975    H  293 0.966    H  294 0.955
   288  H   0.992        C  282 0.952
   289  H   0.995        C  285 0.973
   290  H   0.994        C  285 0.970
   291  H   0.995        C  286 0.977
   292  H   0.993        C  286 0.973
   293  H   0.995        C  287 0.966
   294  H   0.994        C  287 0.955
   295  N   2.999        C  296 1.015    H  327 0.955    H  304 0.943
   296  C   3.985        N  295 1.015    C  297 0.979    H  305 0.958    C  299 0.958
   297  C   3.884        O  298 1.883    C  296 0.979    H  328 0.954
   298  O   2.018        C  297 1.883
   299  C   3.990        C  300 1.003    H  307 0.977    H  306 0.968    C  296 0.958
   300  C   3.993        C  299 1.003    C  301 1.002    H  308 0.976    H  309 0.970
   301  C   3.985        C  302 1.009    C  300 1.002    H  311 0.972    H  310 0.969
   302  C   3.912        C  301 1.009    H  313 0.966    H  312 0.966    N  303 0.952
   303  N   3.659        C  302 0.952    H  314 0.907    H  316 0.905    H  315 0.839
   304  H   0.970        N  295 0.943
   305  H   0.997        C  296 0.958
   306  H   0.996        C  299 0.968
   307  H   0.998        C  299 0.977
   308  H   0.997        C  300 0.976
   309  H   0.997        C  300 0.970
   310  H   0.994        C  301 0.969
   311  H   0.994        C  301 0.972
   312  H   0.987        C  302 0.966
   313  H   0.989        C  302 0.966
   314  H   0.921        N  303 0.907
   315  H   0.915        N  303 0.839
   316  H   0.921        N  303 0.905
   317  H   0.963        N    1 0.953
   318  H   0.994        C   22 0.953
   319  H   0.965        N   32 0.954
   320  H   0.994        C   34 0.955
   321  H   0.966        N   49 0.953
   322  H   0.996        C  148 0.956
   323  H   0.963        N  168 0.953
   324  H   0.993        C  180 0.951
   325  H   0.965        N  190 0.954
   326  H   0.995        C  283 0.953
   327  H   0.967        N  295 0.955
   328  H   0.995        C  297 0.954
 
molecular dipole:
                 x           y           z       tot (Debye)
 q only:     -328.930    -148.934    -181.044
   full:     -328.163    -148.189    -180.652    1023.957
molecular quadrupole (traceless):
                xx          xy          yy          xz          yz          zz
 q only:   -80505.472  -73180.607   48565.982  -89423.477  -40653.497   31939.490
  q+dip:   -80255.554  -72673.586   48471.795  -88982.032  -40392.843   31783.759
   full:   -80252.144  -72676.256   48471.811  -88982.194  -40391.514   31780.333


           -------------------------------------------------
          | TOTAL ENERGY             -518.545821777306 Eh   |
          | GRADIENT NORM               0.544518203811 Eh/α |
          | HOMO-LUMO GAP               1.594960159905 eV   |
           -------------------------------------------------

------------------------------------------------------------------------
 * finished run on 2019/05/31 at 05:35:20.344     
------------------------------------------------------------------------
 total:
 * wall-time:     0 d,  0 h,  0 min,  4.356 sec
 *  cpu-time:     0 d,  0 h,  0 min,  8.122 sec
 * ratio c/w:     1.864 speedup
 SCF:
 * wall-time:     0 d,  0 h,  0 min,  3.734 sec
 *  cpu-time:     0 d,  0 h,  0 min,  7.365 sec
 * ratio c/w:     1.973 speedup

