      -----------------------------------------------------------      
     |                   =====================                   |     
     |                           x T B                           |     
     |                   =====================                   |     
     |                         S. Grimme                         |     
     |          Mulliken Center for Theoretical Chemistry        |     
     |                    University of Bonn                     |     
     |                 Version 6.0.1 (SAW181210)                 |     
      -----------------------------------------------------------      

   This program is distributed in the hope that it will be useful,
   but WITHOUT ANY WARRANTY; without even the implied warranty of
   MERCHANTABILITY or FITNESS FOR A PARTICULAR PURPOSE.
   
   FOR NON-COMMERCIAL, ACADEMIA USE ONLY.
   
   Cite this work as:
   S. Grimme, C. Bannwarth, P. Shushkov, J. Comput. Theory Chem., 2017,
   13, 1989-2009.
   C. Bannwarth, S. Ehlert and S. Grimme., ChemRxiv, 2018, preprint.
   http://doi.org/10.26434/chemrxiv.7246238.v1
   
   for sTDA-xTB:
   S. Grimme and C. Bannwarth, J. Chem. Phys., 2016, 145, 054103.
   
   in the mass-spec context:
   V. Asgeirsson, C. Bauer and S. Grimme, Chem. Sci., 2017, 8, 4879.
   
   if GBSA is used:
   P. Shushkov, F. März and S. Grimme, unpublished.
   
   for ANC optimizer:
   S. Grimme, unpublished.
   Rational Function algorithm used in ANCopt:
   F. Eckert, P. Pulay, H.-J. Werner, J. Comput. Chem., 1997, 18, 1473.
   
   with help from (in alphabetical order)
   C. Bannwarth, F. Bohle, G. Brandenburg, E. Caldeweyher, M. Checinski,
   S. Dohm, S. Ehlert, S. Ehrlich, F. März, H. Neugebauer, J. Pisarek,
   P. Pracht, P. Shushkov, and S. Spicher.
   
 * started run on 2019/03/14 at 15:08:18.504     
========================================================================
 # omp threads = 1
========================================================================
number of atoms            : 374
number of electrons        : 972
charge                     : 0
spin                       : .0
first test random number   : .4630
           ------------------------------------------------- 
          |                 G F N 2 - x T B                 |
          | Geometry, Frequencies, Noncovalent interactions |
          |            JCTC 2018 parametrisation            |
           ------------------------------------------------- 
 
      method parameters     
 k(s)        :  1.8500
 k(p)        :  2.2300
 k(d)        :  2.2300
 k(f)        :  2.0000
 kEN (H0ij)  : -2.0000
 D4 a1       :  0.5200
 D4 a2       :  5.0000
 D4 s6       :  1.0000
 D4 s8       :  2.7000
 D4 s9       :  5.0000
 alphaj      :  2.0000

 Solvent             : h2o
 Using internal parameter file: .param_gbsa2_h2o
 Gsolv ref. state (COSMO-RS): gsolv [1 M gas/solution]
 temperature (mdtemp)       :    298.150000000000     
 dielectric constant        :    80.2000000000000     
 rho                        :    1.00000000000000     
 mass                       :    18.0000000000000     
 surface tension            :    15.5689454083859     
 probe radius               :   0.975313790000000     
 vdW radii scaling          :    1.00000000000000     
 Gshift (Eh)                :   1.857443126794793E-003
 c1                         :    1.55243817000000     
 soset                      :   0.130326360000000     
 HB correction              :  T

            Z     q(EN)     CN     RAES       Cart. coordinates
     1  N   5.0   -0.21    3.26    1.97   132.69299    74.40811    78.77527
     2  C   4.0    0.03    4.35    4.29   132.63724    72.42816    76.88253
     3  C   4.0    0.14    3.43    3.09   130.03872    72.34669    75.61188
     4  O   6.0   -0.32    1.29    1.80   129.82626    72.54124    73.31058
     5  C   4.0   -0.04    4.33    4.26   133.41348    69.94976    78.12741
     6  C   4.0   -0.02    3.57    3.15   136.02575    70.09803    79.26162
     7  C   4.0   -0.05    3.47    3.10   136.62315    68.58025    81.32049
     8  C   4.0   -0.05    3.49    3.11   137.88802    71.66808    78.27520
     9  C   4.0   -0.05    3.38    3.07   138.98747    68.70542    82.42910
    10  C   4.0   -0.05    3.38    3.07   140.25177    71.79345    79.38263
    11  C   4.0   -0.04    3.38    3.07   140.79628    70.33866    81.48457
    12  H   1.0    0.08    1.03    1.43   133.27752    73.94773    80.53495
    13  H   1.0    0.04    1.06    1.44   133.95689    72.90683    75.35386
    14  H   1.0    0.04    1.03    1.43   132.03994    69.45525    79.59029
    15  H   1.0    0.04    1.06    1.44   133.38342    68.45663    76.70511
    16  H   1.0    0.04    1.03    1.43   135.23957    67.24358    82.00824
    17  H   1.0    0.04    1.03    1.43   137.53708    72.79046    76.60847
    18  H   1.0    0.05    1.03    1.43   139.43417    67.48839    84.00455
    19  H   1.0    0.04    1.03    1.43   141.66977    73.02200    78.57575
    20  H   1.0    0.05    1.03    1.43   142.64590    70.43185    82.33244
    21  N   5.0   -0.15    3.47    2.06   128.04228    72.08522    77.12502
    22  C   4.0    0.03    4.43    4.43   125.53755    71.92209    76.01556
    23  C   4.0    0.09    3.27    3.05   125.01487    74.32359    74.48668
    24  O   6.0   -0.29    1.12    1.80   124.17510    74.23509    72.33136
    25  C   4.0   -0.03    4.31    4.23   123.52255    71.43385    78.05385
    26  C   4.0   -0.05    4.20    4.00   124.07696    68.89712    79.34759
    27  C   4.0   -0.07    4.13    3.86   120.89032    71.44141    76.87261
    28  C   4.0   -0.08    4.01    3.64   122.46209    68.40219    81.68040
    29  H   1.0    0.07    1.06    1.44   128.22089    72.00553    79.02913
    30  H   1.0    0.05    1.05    1.44   125.51932    70.36636    74.63658
    31  H   1.0    0.04    1.05    1.44   123.65623    72.95605    79.44943
    32  H   1.0    0.04    1.03    1.43   123.79035    67.38129    77.97917
    33  H   1.0    0.04    1.03    1.43   126.04861    68.86739    79.94277
    34  H   1.0    0.04    1.00    1.43   119.45445    71.14588    78.30653
    35  H   1.0    0.05    1.00    1.43   120.49976    73.22527    75.93588
    36  H   1.0    0.04    1.00    1.43   120.74006    69.94106    75.47803
    37  H   1.0    0.04    1.00    1.43   123.04137    66.63295    82.54869
    38  H   1.0    0.04    1.00    1.43   122.72163    69.90837    83.05261
    39  H   1.0    0.04    1.00    1.43   120.46879    68.25812    81.21665
    40  N   5.0   -0.20    3.20    1.96   128.65394    74.78509    68.28585
    41  C   4.0    0.03    4.22    4.05   127.69986    73.12246    66.32796
    42  C   4.0    0.09    3.23    3.04   125.23257    74.20783    65.30944
    43  O   6.0   -0.29    1.12    1.80   124.80105    74.27182    63.03511
    44  C   4.0   -0.04    4.36    4.30   127.16944    70.43721    67.22901
    45  C   4.0   -0.02    4.17    3.94   129.49807    68.82707    67.83447
    46  C   4.0   -0.08    4.12    3.85   128.58412    66.17578    68.52031
    47  C   4.0   -0.08    4.11    3.82   131.34198    68.66517    65.62497
    48  H   1.0    0.12    1.05    1.44   128.90323    74.09446    70.05593
    49  H   1.0    0.05    1.05    1.44   129.02650    73.12129    64.73565
    50  H   1.0    0.06    1.03    1.43   125.97321    70.55504    68.90528
    51  H   1.0    0.04    1.03    1.43   126.09887    69.49438    65.73412
    52  H   1.0    0.05    1.05    1.44   130.46620    69.67215    69.45482
    53  H   1.0    0.04    1.01    1.43   130.16970    64.93293    68.90150
    54  H   1.0    0.04    1.00    1.43   127.38755    66.24216    70.18682
    55  H   1.0    0.04    1.00    1.43   127.51568    65.37258    66.95932
    56  H   1.0    0.04    1.00    1.43   132.90108    67.41771    66.10867
    57  H   1.0    0.04    1.00    1.43   130.41463    67.89839    63.95857
    58  H   1.0    0.04    1.00    1.43   132.11861    70.50782    65.15901
    59  N   5.0   -0.22    3.23    1.96   134.75697    61.21946    33.97706
    60  C   4.0    0.02    4.31    4.21   136.97579    60.09577    35.13412
    61  C   4.0    0.14    3.42    3.08   138.03711    61.88664    37.13868
    62  O   6.0   -0.34    1.37    1.80   138.93891    61.04051    39.10726
    63  C   4.0   -0.04    4.35    4.29   138.99933    59.46643    33.15710
    64  C   4.0   -0.05    4.04    3.70   138.35872    57.11438    31.62400
    65  S   6.0   -0.05    2.49    3.10   140.68971    56.79744    29.09365
    66  C   4.0   -0.07    3.88    3.43   140.08416    53.59189    28.05931
    67  H   1.0    0.07    1.02    1.43   134.73646    61.36460    32.05238
    68  H   1.0    0.04    1.05    1.44   136.44120    58.35245    36.13453
    69  H   1.0    0.04    1.04    1.43   139.20186    61.06693    31.87443
    70  H   1.0    0.05    1.03    1.43   140.81869    59.17200    34.08324
    71  H   1.0    0.04    1.06    1.44   138.45633    55.41473    32.78559
    72  H   1.0    0.04    1.06    1.44   136.49673    57.27209    30.75679
    73  H   1.0    0.04    1.05    1.44   141.36678    53.23093    26.50193
    74  H   1.0    0.04    1.04    1.43   140.46203    52.29019    29.60200
    75  H   1.0    0.04    1.04    1.43   138.13970    53.43209    27.41910
    76  N   5.0   -0.15    3.52    2.09   137.96172    64.33018    36.59889
    77  C   4.0    0.03    4.42    4.41   138.94644    66.27431    38.24626
    78  C   4.0    0.14    3.41    3.08   136.85730    67.27948    40.04252
    79  O   6.0   -0.32    1.29    1.80   137.00110    69.33018    41.01594
    80  C   4.0   -0.03    4.33    4.25   140.05380    68.50198    36.75907
    81  C   4.0   -0.00    3.57    3.15   141.26244    70.51298    38.38067
    82  C   4.0   -0.04    3.46    3.10   141.17097    73.02855    37.62026
    83  C   4.0   -0.03    3.49    3.11   142.54795    69.93341    40.59509
    84  C   4.0   -0.04    3.37    3.07   142.25413    74.90715    39.08367
    85  C   4.0   -0.04    3.37    3.07   143.64359    71.80285    42.05680
    86  C   4.0   -0.04    3.37    3.07   143.48572    74.30456    41.31134
    87  H   1.0    0.07    1.07    1.44   137.35839    64.95450    34.88280
    88  H   1.0    0.05    1.06    1.44   140.45637    65.37297    39.35232
    89  H   1.0    0.04    1.03    1.43   141.44682    67.80461    35.40261
    90  H   1.0    0.04    1.04    1.43   138.51353    69.34641    35.68741
    91  H   1.0    0.05    1.03    1.43   140.26403    73.53018    35.85858
    92  H   1.0    0.04    1.03    1.43   142.69583    67.99061    41.19879
    93  H   1.0    0.05    1.03    1.43   142.13439    76.85491    38.48514
    94  H   1.0    0.04    1.03    1.43   144.64458    71.30884    43.76885
    95  H   1.0    0.05    1.03    1.43   144.35380    75.76225    42.44483
    96  N   5.0   -0.15    3.54    2.11   134.98656    65.61286    40.46713
    97  C   4.0    0.02    4.49    4.52   132.96686    65.94896    42.28378
    98  C   4.0    0.14    3.55    3.14   132.92552    63.62743    44.00274
    99  O   6.0   -0.33    1.27    1.80   132.59543    63.77440    46.27947
   100  C   4.0   -0.03    4.32    4.24   130.34965    66.32654    41.04594
   101  C   4.0   -0.05    4.18    3.96   129.76711    69.15265    40.81100
   102  C   4.0   -0.08    4.18    3.96   128.30187    64.94929    42.51667
   103  C   4.0   -0.08    4.00    3.63   127.67159    69.78781    38.94171
   104  H   1.0    0.08    1.10    1.44   134.64871    64.32464    39.09626
   105  H   1.0    0.05    1.06    1.44   133.45457    67.57150    43.47174
   106  H   1.0    0.04    1.06    1.44   130.45608    65.49096    39.16612
   107  H   1.0    0.04    1.03    1.43   129.23798    69.85405    42.67763
   108  H   1.0    0.05    1.03    1.43   131.49402    70.10447    40.21284
   109  H   1.0    0.03    1.01    1.43   126.52767    65.11182    41.51681
   110  H   1.0    0.04    1.02    1.43   128.72408    62.94777    42.70101
   111  H   1.0    0.04    1.00    1.43   128.09249    65.76181    44.39277
   112  H   1.0    0.04    1.00    1.43   127.39673    71.82302    38.88758
   113  H   1.0    0.04    1.00    1.43   128.16383    69.12757    37.05884
   114  H   1.0    0.04    1.00    1.43   125.90078    68.92648    39.50479
   115  N   5.0   -0.15    3.56    2.12   133.40022    61.44075    42.81855
   116  C   4.0    0.03    4.52    4.57   133.65074    59.11239    44.21451
   117  C   4.0    0.15    3.47    3.10   136.28324    59.05897    45.40794
   118  O   6.0   -0.32    1.36    1.80   136.53069    58.50688    47.64224
   119  C   4.0   -0.03    4.31    4.22   133.01022    56.81645    42.55539
   120  C   4.0   -0.05    4.20    4.01   130.23652    57.04532    41.73414
   121  C   4.0   -0.08    4.12    3.85   133.47054    54.39324    44.04620
   122  C   4.0   -0.08    4.00    3.62   129.40722    55.18106    39.70329
   123  H   1.0    0.07    1.07    1.44   133.24418    61.32896    40.91942
   124  H   1.0    0.06    1.06    1.44   132.34398    59.16411    45.83109
   125  H   1.0    0.04    1.05    1.44   134.23422    56.85570    40.88656
   126  H   1.0    0.04    1.03    1.43   129.05291    56.80861    43.40657
   127  H   1.0    0.04    1.04    1.43   129.93046    58.94263    40.98834
   128  H   1.0    0.04    1.00    1.43   132.97986    52.73846    42.93833
   129  H   1.0    0.05    1.00    1.43   135.44148    54.24475    44.60651
   130  H   1.0    0.04    1.00    1.43   132.31853    54.39710    45.74764
   131  H   1.0    0.03    1.00    1.43   127.44538    55.54961    39.21631
   132  H   1.0    0.03    1.00    1.43   130.54010    55.42654    38.00795
   133  H   1.0    0.04    1.00    1.43   129.55562    53.23551    40.33731
   134  N   5.0   -0.15    3.49    2.07   138.23930    59.76973    43.98239
   135  C   4.0    0.04    4.48    4.50   140.73474    59.95127    45.09743
   136  C   4.0    0.15    3.56    3.14   140.69950    61.65380    47.41775
   137  O   6.0   -0.33    1.39    1.80   141.60674    60.80444    49.38015
   138  C   4.0    0.05    4.23    4.05   142.78193    60.77632    43.16899
   139  O   6.0   -0.26    2.13    1.84   143.10208    58.92597    41.29618
   140  C   4.0   -0.07    4.10    3.80   145.33755    61.14719    44.45044
   141  H   1.0    0.11    1.13    1.45   138.10335    60.15831    42.10655
   142  H   1.0    0.06    1.06    1.44   141.29733    58.08904    45.83161
   143  H   1.0    0.04    1.04    1.43   142.16812    62.55890    42.30451
   144  H   1.0    0.14    1.06    1.44   141.73542    59.08690    40.08817
   145  H   1.0    0.04    1.00    1.43   146.70369    61.76159    43.04505
   146  H   1.0    0.04    1.00    1.43   145.23536    62.53068    45.96000
   147  H   1.0    0.05    1.00    1.43   145.96855    59.35428    45.22535
   148  N   5.0   -0.10    3.67    2.23   139.81345    64.01863    47.31800
   149  C   4.0    0.03    4.61    4.67   140.09657    65.67719    49.50526
   150  C   4.0    0.15    3.49    3.11   138.25842    64.98546    51.60129
   151  O   6.0   -0.33    1.38    1.80   138.90848    65.12526    53.82293
   152  C   4.0   -0.05    4.34    4.28   139.58307    68.32702    48.46771
   153  C   4.0   -0.04    4.30    4.19   137.63573    67.81128    46.41987
   154  C   4.0   -0.00    4.40    4.38   138.52989    65.32207    45.26860
   155  H   1.0    0.05    1.05    1.44   142.00111    65.53377    50.30483
   156  H   1.0    0.04    1.02    1.43   138.90240    69.61377    49.91651
   157  H   1.0    0.04    1.02    1.43   141.30913    69.09740    47.64663
   158  H   1.0    0.05    1.03    1.43   135.75803    67.57670    47.23703
   159  H   1.0    0.06    1.04    1.43   137.59359    69.28857    44.99587
   160  H   1.0    0.06    1.07    1.44   136.95131    64.22241    44.55692
   161  H   1.0    0.04    1.03    1.43   139.82147    65.69301    43.70839
   162  N   5.0   -0.14    3.53    2.10   135.92477    64.27675    50.96894
   163  C   4.0    0.04    4.55    4.60   134.25353    63.47739    52.99456
   164  C   4.0    0.16    3.54    3.14   135.42065    61.15634    54.24386
   165  O   6.0   -0.32    1.33    1.80   135.36331    60.81071    56.53685
   166  C   4.0   -0.02    4.26    4.12   131.55425    62.95463    52.07708
   167  C   4.0   -0.07    4.13    3.86   129.97948    61.77051    54.18498
   168  C   4.0   -0.07    4.12    3.85   130.32560    65.40237    51.18239
   169  H   1.0    0.10    1.08    1.44   135.33227    64.10428    49.16136
   170  H   1.0    0.05    1.06    1.44   134.22688    64.98123    54.42629
   171  H   1.0    0.06    1.05    1.44   131.66306    61.63562    50.48965
   172  H   1.0    0.04    1.00    1.43   128.08898    61.35787    53.49960
   173  H   1.0    0.05    1.00    1.43   130.82056    60.02388    54.86377
   174  H   1.0    0.04    1.00    1.43   129.82691    63.06398    55.77429
   175  H   1.0    0.04    1.00    1.43   128.42519    65.01022    50.51526
   176  H   1.0    0.04    1.00    1.43   130.22416    66.75994    52.71954
   177  H   1.0    0.06    1.01    1.43   131.39132    66.21495    49.63433
   178  N   5.0   -0.14    3.54    2.11   136.56119    59.54307    52.68002
   179  C   4.0    0.04    4.51    4.55   137.83163    57.37457    53.74812
   180  C   4.0    0.16    3.51    3.12   140.02825    58.28105    55.37290
   181  O   6.0   -0.33    1.41    1.80   140.32163    57.45661    57.53459
   182  C   4.0   -0.04    4.34    4.27   138.77907    55.50553    51.76446
   183  C   4.0   -0.04    4.05    3.71   139.41054    52.95328    52.93210
   184  S   6.0   -0.05    2.52    3.10   136.59301    51.38342    54.19679
   185  C   4.0   -0.06    3.88    3.43   136.91843    52.00102    57.55763
   186  H   1.0    0.12    1.12    1.45   136.39321    59.63225    50.77309
   187  H   1.0    0.05    1.09    1.44   136.49426    56.42397    55.01381
   188  H   1.0    0.06    1.04    1.44   137.30786    55.22268    50.35142
   189  H   1.0    0.06    1.03    1.43   140.44166    56.29561    50.83320
   190  H   1.0    0.04    1.07    1.44   140.16254    51.68669    51.49415
   191  H   1.0    0.05    1.07    1.44   140.74955    53.09974    54.48634
   192  H   1.0    0.04    1.05    1.44   135.58433    50.77230    58.51276
   193  H   1.0    0.05    1.04    1.43   138.84360    51.58771    58.13674
   194  H   1.0    0.05    1.03    1.43   136.45930    53.95718    57.97341
   195  N   5.0   -0.14    3.53    2.10   141.59811    59.93712    54.35152
   196  C   4.0    0.04    4.51    4.55   143.85069    60.74432    55.68203
   197  C   4.0    0.16    3.51    3.12   143.11128    62.01302    58.16582
   198  O   6.0   -0.34    1.35    1.80   144.22979    61.45428    60.12461
   199  C   4.0   -0.02    4.27    4.13   145.47568    62.48870    54.02050
   200  C   4.0   -0.08    4.15    3.89   147.51572    63.78430    55.58513
   201  C   4.0   -0.07    4.12    3.84   146.74033    61.02309    51.88462
   202  H   1.0    0.12    1.15    1.45   141.41726    60.45339    52.50302
   203  H   1.0    0.05    1.05    1.44   144.95684    59.06741    56.22692
   204  H   1.0    0.05    1.06    1.44   144.20838    63.92252    53.23833
   205  H   1.0    0.03    1.00    1.43   148.65308    65.00332    54.38756
   206  H   1.0    0.04    1.01    1.43   146.68482    64.90714    57.08359
   207  H   1.0    0.04    1.00    1.43   148.74811    62.37565    56.43243
   208  H   1.0    0.04    1.00    1.43   147.79194    62.32200    50.68953
   209  H   1.0    0.04    1.00    1.43   148.05836    59.65650    52.66669
   210  H   1.0    0.06    1.01    1.43   145.36236    60.04270    50.72967
   211  N   5.0   -0.14    3.52    2.09   141.26393    63.71150    58.09391
   212  C   4.0    0.03    4.45    4.46   140.47914    65.03254    60.35549
   213  C   4.0    0.15    3.47    3.10   139.08368    63.26234    62.14906
   214  O   6.0   -0.32    1.32    1.80   139.38319    63.41070    64.44497
   215  C   4.0   -0.05    4.36    4.30   138.79087    67.30034    59.77808
   216  C   4.0   -0.02    4.18    3.97   140.04766    69.31985    58.12580
   217  C   4.0   -0.08    4.11    3.82   138.18428    71.47995    57.70357
   218  C   4.0   -0.08    4.11    3.82   142.47483    70.34217    59.29075
   219  H   1.0    0.12    1.14    1.45   140.39363    64.18255    56.45020
   220  H   1.0    0.05    1.06    1.44   142.17728    65.66081    61.36578
   221  H   1.0    0.05    1.03    1.43   137.09340    66.61719    58.82634
   222  H   1.0    0.04    1.03    1.43   138.23388    68.13186    61.58398
   223  H   1.0    0.05    1.06    1.44   140.49310    68.46164    56.30097
   224  H   1.0    0.04    1.00    1.43   138.99693    72.89228    56.45460
   225  H   1.0    0.04    1.00    1.43   136.44613    70.77291    56.87027
   226  H   1.0    0.04    1.00    1.43   137.73264    72.38936    59.49005
   227  H   1.0    0.04    1.00    1.43   143.22402    71.84639    58.11274
   228  H   1.0    0.04    1.00    1.43   142.12293    71.10295    61.16701
   229  H   1.0    0.04    1.00    1.43   143.90278    68.87485    59.43290
   230  N   5.0   -0.14    3.46    2.05   137.55071    61.58676    61.07037
   231  C   4.0    0.02    4.28    4.15   136.35762    59.60880    62.51968
   232  C   4.0    0.16    3.37    3.07   138.35705    58.11293    63.95528
   233  O   6.0   -0.33    1.32    1.80   138.05961    57.53641    66.17402
   234  H   1.0    0.12    1.12    1.45   137.15598    61.61531    59.19308
   235  H   1.0    0.05    1.02    1.43   135.01933    60.37339    63.90004
   236  H   1.0    0.05    1.03    1.43   135.36969    58.35410    61.21783
   237  N   5.0   -0.14    3.55    2.11   140.39614    57.53619    62.59803
   238  C   4.0    0.04    4.45    4.46   142.51987    56.10639    63.54766
   239  C   4.0    0.15    3.46    3.10   143.96975    57.63915    65.50689
   240  O   6.0   -0.33    1.32    1.80   144.78032    56.61236    67.42482
   241  C   4.0    0.06    4.24    4.08   144.28468    55.31408    61.34820
   242  O   6.0   -0.26    2.13    1.84   143.01214    53.69362    59.66570
   243  C   4.0   -0.07    4.09    3.79   146.61158    53.90607    62.29439
   244  H   1.0    0.12    1.14    1.45   140.44319    58.03663    60.74588
   245  H   1.0    0.05    1.05    1.44   141.84071    54.38454    64.48978
   246  H   1.0    0.06    1.04    1.43   144.86409    57.05609    60.37235
   247  H   1.0    0.15    1.08    1.44   141.84275    54.71634    58.68378
   248  H   1.0    0.04    1.00    1.43   147.79261    53.40611    60.69102
   249  H   1.0    0.05    1.00    1.43   147.69089    55.05525    63.60481
   250  H   1.0    0.05    1.00    1.43   146.02248    52.17716    63.23024
   251  N   5.0   -0.14    3.55    2.11   144.26349    60.08237    64.99287
   252  C   4.0    0.03    4.50    4.54   145.63904    61.77920    66.64093
   253  C   4.0    0.15    3.49    3.11   144.14717    62.13986    69.08141
   254  O   6.0   -0.33    1.33    1.80   145.26475    62.33004    71.10731
   255  C   4.0   -0.02    4.33    4.25   146.23708    64.29411    65.29182
   256  C   4.0   -0.05    4.18    3.97   148.45759    63.93343    63.46388
   257  C   4.0   -0.07    4.15    3.89   146.79245    66.37506    67.20666
   258  C   4.0   -0.08    4.02    3.65   148.91094    66.21903    61.76822
   259  H   1.0    0.12    1.14    1.45   143.90302    60.74082    63.21847
   260  H   1.0    0.05    1.06    1.44   147.41888    60.88708    67.23559
   261  H   1.0    0.05    1.06    1.44   144.55625    64.81604    64.20702
   262  H   1.0    0.04    1.03    1.43   150.16351    63.54009    64.55343
   263  H   1.0    0.05    1.03    1.43   148.05256    62.30175    62.27203
   264  H   1.0    0.03    1.00    1.43   147.24021    68.13580    66.25533
   265  H   1.0    0.05    1.01    1.43   145.16735    66.69022    68.42108
   266  H   1.0    0.05    1.00    1.43   148.38540    65.84019    68.38799
   267  H   1.0    0.04    1.00    1.43   150.33678    65.77506    60.35930
   268  H   1.0    0.04    1.00    1.43   147.17245    66.72492    60.79872
   269  H   1.0    0.03    1.00    1.43   149.55009    67.85014    62.83490
   270  N   5.0   -0.14    3.53    2.10   141.64425    62.18345    68.87366
   271  C   4.0    0.03    4.42    4.41   140.00383    62.26624    71.07115
   272  C   4.0    0.15    3.56    3.15   140.15421    59.71534    72.41576
   273  O   6.0   -0.32    1.42    1.80   140.62862    59.55722    74.68253
   274  C   4.0   -0.03    4.32    4.24   137.32157    62.94949    70.25269
   275  C   4.0   -0.02    3.52    3.13   135.45292    63.42462    72.35442
   276  C   4.0   -0.05    3.48    3.11   133.74410    65.40399    72.09674
   277  C   4.0   -0.04    3.49    3.11   135.26885    61.90439    74.49086
   278  C   4.0   -0.05    3.41    3.08   131.84116    65.77295    73.85028
   279  C   4.0   -0.05    3.37    3.07   133.41899    62.32232    76.29527
   280  C   4.0   -0.05    3.38    3.07   131.66572    64.22748    75.95446
   281  H   1.0    0.12    1.13    1.45   140.82737    62.14128    67.13350
   282  H   1.0    0.05    1.06    1.44   140.70928    63.69263    72.40086
   283  H   1.0    0.05    1.04    1.43   137.46625    64.64829    69.08831
   284  H   1.0    0.06    1.03    1.43   136.62786    61.41304    69.05589
   285  H   1.0    0.04    1.03    1.43   133.88700    66.68300    70.51442
   286  H   1.0    0.06    1.06    1.44   136.59558    60.39505    74.77464
   287  H   1.0    0.05    1.03    1.43   130.50998    67.29162    73.56764
   288  H   1.0    0.04    1.03    1.43   133.32514    61.15626    77.96877
   289  H   1.0    0.04    1.03    1.43   130.21393    64.55038    77.34778
   290  N   5.0   -0.14    3.55    2.11   139.73873    57.68038    71.00451
   291  C   4.0    0.04    4.55    4.61   140.02231    55.21329    72.15724
   292  C   4.0    0.17    3.62    3.18   142.44769    55.28272    73.70814
   293  O   6.0   -0.32    1.39    1.80   142.52125    54.45564    75.86730
   294  C   4.0   -0.02    4.34    4.27   140.07373    53.09298    70.18167
   295  C   4.0   -0.05    4.19    3.99   137.39025    52.60003    69.21252
   296  C   4.0   -0.07    4.15    3.90   141.21659    50.69962    71.31269
   297  C   4.0   -0.08    4.01    3.64   137.31850    50.96526    66.84335
   298  H   1.0    0.12    1.13    1.45   139.36851    57.78011    69.12359
   299  H   1.0    0.05    1.05    1.44   138.47843    54.87358    73.50751
   300  H   1.0    0.06    1.06    1.44   141.27306    53.73999    68.62695
   301  H   1.0    0.04    1.03    1.43   136.31318    51.68538    70.71339
   302  H   1.0    0.06    1.04    1.43   136.50827    54.41048    68.78524
   303  H   1.0    0.04    1.00    1.43   141.20201    49.18907    69.92586
   304  H   1.0    0.05    1.01    1.43   143.15710    51.02381    71.90268
   305  H   1.0    0.04    1.00    1.43   140.14276    50.10827    72.96149
   306  H   1.0    0.04    1.00    1.43   135.37801    50.73602    66.21267
   307  H   1.0    0.05    1.00    1.43   138.38778    51.86027    65.33337
   308  H   1.0    0.04    1.00    1.43   138.10825    49.10338    67.19076
   309  N   5.0   -0.14    3.57    2.13   144.44446    56.27337    72.52909
   310  C   4.0    0.04    4.44    4.45   146.85763    56.46983    73.78447
   311  C   4.0    0.16    3.51    3.12   146.66531    58.28601    76.00502
   312  O   6.0   -0.28    1.29    1.80   147.76511    57.81532    78.00338
   313  C   4.0   -0.03    4.33    4.26   148.89112    57.33825    71.90539
   314  C   4.0   -0.01    3.56    3.15   151.48299    57.13479    73.04788
   315  C   4.0   -0.04    3.46    3.10   152.86974    54.91209    72.83642
   316  C   4.0   -0.03    3.47    3.10   152.50671    59.14836    74.38631
   317  C   4.0   -0.04    3.37    3.07   155.21983    54.69985    73.96561
   318  C   4.0   -0.04    3.37    3.07   154.85251    58.93759    75.52776
   319  C   4.0   -0.04    3.37    3.07   156.20341    56.70460    75.33083
   320  H   1.0    0.12    1.14    1.45   144.43335    56.57971    70.63080
   321  H   1.0    0.06    1.05    1.44   147.37325    54.63527    74.61906
   322  H   1.0    0.05    1.03    1.43   148.75727    56.15031    70.22499
   323  H   1.0    0.06    1.04    1.43   148.46842    59.28948    71.38872
   324  H   1.0    0.05    1.03    1.43   152.12473    53.34119    71.76416
   325  H   1.0    0.06    1.03    1.43   151.46468    60.90270    74.50673
   326  H   1.0    0.05    1.03    1.43   156.28905    52.97168    73.76780
   327  H   1.0    0.05    1.03    1.43   155.62601    60.51388    76.56833
   328  H   1.0    0.05    1.03    1.43   158.02499    56.53101    76.22931
   329  N   5.0   -0.12    3.57    2.13   145.29349    60.35732    75.76386
   330  C   4.0    0.04    4.51    4.56   145.01679    62.04371    77.90061
   331  C   4.0    0.17    3.50    3.12   144.10398    60.58781    80.23367
   332  O   6.0   -0.28    1.22    1.80   145.06155    60.94096    82.31015
   333  C   4.0   -0.02    4.26    4.11   143.32298    64.31010    77.17655
   334  C   4.0   -0.07    4.15    3.91   140.75485    64.29260    78.47938
   335  C   4.0   -0.08    4.10    3.81   144.69311    66.79900    77.64605
   336  H   1.0    0.12    1.14    1.45   144.78348    61.05497    74.04311
   337  H   1.0    0.06    1.06    1.44   146.90590    62.70289    78.44145
   338  H   1.0    0.05    1.07    1.44   143.00274    64.18685    75.14321
   339  H   1.0    0.04    1.00    1.43   139.70317    65.97105    77.94114
   340  H   1.0    0.05    1.01    1.43   139.65299    62.65343    77.93344
   341  H   1.0    0.05    1.01    1.43   140.98400    64.29298    80.51886
   342  H   1.0    0.04    1.00    1.43   143.46852    68.36562    77.13276
   343  H   1.0    0.05    1.00    1.43   145.17678    66.97953    79.63071
   344  H   1.0    0.04    1.00    1.43   146.39352    66.88853    76.49803
   345  N   5.0   -0.14    3.53    2.10   142.18415    58.98441    79.85707
   346  C   4.0    0.04    4.41    4.39   141.09709    57.52873    81.89683
   347  C   4.0    0.16    3.50    3.11   142.78365    55.26492    82.56471
   348  O   6.0   -0.28    1.22    1.80   142.97662    54.53927    84.75918
   349  C   4.0   -0.05    4.29    4.19   138.33450    56.79530    81.29174
   350  C   4.0   -0.04    4.07    3.74   137.63545    54.06221    81.88110
   351  S   6.0   -0.02    2.63    3.10   138.81949    51.89804    79.44134
   352  C   4.0   -0.07    3.88    3.43   136.83319    49.17011    80.07129
   353  H   1.0    0.11    1.10    1.44   141.48558    58.73928    78.09379
   354  H   1.0    0.06    1.06    1.44   141.13210    58.71815    83.59885
   355  H   1.0    0.04    1.03    1.43   137.08337    58.01829    82.38345
   356  H   1.0    0.05    1.04    1.43   137.98190    57.15490    79.28938
   357  H   1.0    0.05    1.06    1.44   138.39097    53.48109    83.70890
   358  H   1.0    0.04    1.07    1.44   135.58922    53.82501    81.89841
   359  H   1.0    0.04    1.05    1.44   137.48655    47.69039    78.81028
   360  H   1.0    0.04    1.04    1.43   137.06575    48.58587    82.02478
   361  H   1.0    0.04    1.04    1.43   134.87394    49.63182    79.66903
   362  N   5.0   -0.12    3.47    2.06   144.09067    54.27767    80.65126
   363  C   4.0    0.03    4.15    3.91   145.58312    52.00807    80.94476
   364  C   4.0    0.10    3.12    3.03   148.06777    52.56921    82.32118
   365  O   6.0   -0.27    1.11    1.80   148.90078    51.15569    83.96771
   366  H   1.0    0.12    1.15    1.45   143.55740    54.72180    78.85507
   367  H   1.0    0.06    1.02    1.43   144.50818    50.59372    82.01007
   368  H   1.0    0.05    1.03    1.43   146.00119    51.25529    79.07217
   369  H   1.0    0.09    1.07    1.44   133.74324    75.64686    78.27027
   370  H   1.0    0.05    1.05    1.44   125.35952    76.01998    75.24466
   371  H   1.0    0.09    1.07    1.44   130.18776    75.36778    67.83813
   372  H   1.0    0.07    1.05    1.44   123.93321    74.88332    66.50377
   373  H   1.0    0.08    1.07    1.44   133.38236    60.30011    34.37431
   374  H   1.0    0.07    1.05    1.44   149.05837    54.11926    81.88860

  Z AO/shell   Hii/eV     exponent
  1     Wed Apr 25 08:07:45 CEST 2018   EN: 2.200 GM2: 0.406  GM3: 0.0800  RAES: 1.40
     1s    -10.707211    1.230000
  6     Wed Apr 25 08:07:45 CEST 2018   EN: 2.550 GM2: 0.538  GM3: 0.1500  RAES: 3.00
     2s    -13.970922    2.096432
     2p    -10.063292    1.800000
  7     Wed Apr 25 08:07:45 CEST 2018   EN: 3.040 GM2: 0.461  GM3:-0.0640  RAES: 1.90
     2s    -16.686243    2.339881
     2p    -12.523956    2.014332
  8     Wed Apr 25 08:07:45 CEST 2018   EN: 3.440 GM2: 0.452  GM3:-0.0517  RAES: 1.80
     2s    -20.229985    2.439742
     2p    -15.503117    2.137023
 16     Tue Apr 24 11:44:34 CEST 2018   EN: 2.580 GM2: 0.340  GM3:-0.0502  RAES: 3.10
     3s    -20.029654    1.981333
     3p    -11.377694    2.025643
     3d     -0.420282    1.702555
 no old-style atom pair restraining (fixing) potential

molecular fragmentation (1/2 indicates fragments):
111111111111111111111111111111111111111222222222222222222222222222222222
222222222222222222222222222222222222222222222222222222222222222222222222
222222222222222222222222222222222222222222222222222222222222222222222222
222222222222222222222222222222222222222222222222222222222222222222222222
222222222222222222222222222222222222222222222222222222222222222222222222
22222222112222
# atoms in fragment 1/2:    41   333
 fragment masses (1/2) :      262.35     2228.92
CMA distance (Bohr)    :  23.231
constraining FC (au)   :  0.0500
           ------------------------------------------------- 
          |        Self-Consistent Charge Iterations        |
           ------------------------------------------------- 

 Ncao       : 914
 Nao        : 911
 Nshell     : 551
 Nel        : 972
 T(el)      :   500.0
 intcut     :    35.0
 scfconv/Eh :  0.100E-06
   qconv/e  :  0.100E-04
 intneglect :  0.100E-08
 broydamp   :      0.400
 iter      E             dE          RMSdq      gap      omega  full diag
   1   -547.6495181 -0.547650E+03  0.422E+00    2.80       0.0  T
   2   -548.6898198 -0.104030E+01  0.204E+00    1.72       1.0  T
   3   -548.7410085 -0.511887E-01  0.111E+00    2.01       1.0  T
   4   -548.8182514 -0.772429E-01  0.215E-01    1.61       1.0  T
   5   -548.8218429 -0.359146E-02  0.100E-01    1.74       1.0  T
   6   -548.8224223 -0.579435E-03  0.422E-02    1.72       1.0  T
   7   -548.8226350 -0.212751E-03  0.178E-02    1.73       1.0  T
   8   -548.8226497 -0.146224E-04  0.854E-03    1.73       1.0  T
   9   -548.8226549 -0.521235E-05  0.366E-03    1.73       1.4  T
  10   -548.8226556 -0.750186E-06  0.167E-03    1.73       3.1  T
  11   -548.8226558 -0.134740E-06  0.766E-04    1.73       6.8  T
  12   -548.8226558 -0.216252E-07  0.351E-04    1.73      14.7  T
  13   -548.8226558 -0.109393E-07  0.175E-04    1.73      29.6  T
  14   -548.8226558 -0.173384E-08  0.825E-05    1.73      62.7  T
  15   -548.8226558 -0.472255E-09  0.335E-05    1.73     154.2  T
speedup  1.00
cpu  time for SCC    5.31 s
wall time for SCC    5.31 s

   *** convergence criteria satisfied after 15 iterations ***

          eigenvalues
 #    :         474        475        476        477        478        479        480        481
 occ. :        2.000      2.000      2.000      2.000      2.000      2.000      2.000      2.000
 eps  :       -10.822    -10.751    -10.719    -10.692    -10.652    -10.532    -10.516    -10.457
 #    :         482        483        484        485        486        487        488        489
 occ. :        2.000      2.000      2.000      2.000      2.000      0.000      0.000      0.000
 eps  :       -10.006     -9.888     -9.815     -9.591     -9.468     -7.735     -7.657     -7.420
 #    :         490        491        492        493        494        495        496        497
 occ. :        0.000      0.000      0.000      0.000      0.000      0.000      0.000      0.000
 eps  :        -7.010     -6.985     -6.843     -6.752     -6.704     -6.677     -6.624     -6.561


   #   Z            q   n(s)   n(p)   n(d)      C6AA      α(0)
   1   7 N     -0.393  1.307  4.085  0.000    30.169     8.157
   2   6 C      0.036  1.056  2.908  0.000    19.990     6.368
   3   6 C      0.268  1.049  2.683  0.000    22.467     7.762
   4   8 O     -0.494  1.747  4.747  0.000    23.645     6.519
   5   6 C     -0.080  1.055  3.025  0.000    22.012     6.678
   6   6 C      0.012  1.083  2.905  0.000    27.737     8.639
   7   6 C     -0.043  1.082  2.961  0.000    29.064     8.841
   8   6 C     -0.043  1.077  2.966  0.000    29.062     8.841
   9   6 C     -0.028  1.080  2.949  0.000    28.709     8.787
  10   6 C     -0.035  1.080  2.955  0.000    28.871     8.811
  11   6 C     -0.033  1.078  2.954  0.000    28.814     8.803
  12   1 H      0.166  0.834  0.000  0.000     1.298     1.784
  13   1 H      0.036  0.964  0.000  0.000     2.500     2.473
  14   1 H      0.053  0.947  0.000  0.000     2.278     2.360
  15   1 H      0.060  0.940  0.000  0.000     2.202     2.321
  16   1 H      0.038  0.962  0.000  0.000     2.477     2.461
  17   1 H      0.034  0.966  0.000  0.000     2.526     2.485
  18   1 H      0.026  0.974  0.000  0.000     2.644     2.543
  19   1 H      0.034  0.966  0.000  0.000     2.527     2.486
  20   1 H      0.029  0.971  0.000  0.000     2.599     2.521
  21   7 N     -0.166  1.243  3.923  0.000    24.587     7.364
  22   6 C      0.026  1.064  2.910  0.000    20.131     6.388
  23   6 C      0.209  1.082  2.709  0.000    23.575     7.952
  24   8 O     -0.359  1.756  4.603  0.000    20.879     6.126
  25   6 C     -0.023  1.068  2.956  0.000    20.955     6.511
  26   6 C     -0.065  1.052  3.013  0.000    21.744     6.638
  27   6 C     -0.116  1.037  3.079  0.000    22.770     6.804
  28   6 C     -0.113  1.037  3.076  0.000    22.728     6.799
  29   1 H      0.217  0.783  0.000  0.000     1.022     1.584
  30   1 H      0.077  0.923  0.000  0.000     2.009     2.217
  31   1 H      0.056  0.944  0.000  0.000     2.247     2.344
  32   1 H      0.048  0.952  0.000  0.000     2.350     2.397
  33   1 H      0.041  0.959  0.000  0.000     2.430     2.438
  34   1 H      0.062  0.938  0.000  0.000     2.174     2.306
  35   1 H      0.036  0.964  0.000  0.000     2.507     2.476
  36   1 H      0.050  0.950  0.000  0.000     2.324     2.384
  37   1 H      0.045  0.955  0.000  0.000     2.387     2.416
  38   1 H      0.043  0.957  0.000  0.000     2.403     2.424
  39   1 H      0.045  0.955  0.000  0.000     2.384     2.414
  40   7 N     -0.397  1.313  4.084  0.000    30.291     8.174
  41   6 C      0.045  1.054  2.901  0.000    19.830     6.343
  42   6 C      0.203  1.095  2.703  0.000    23.687     7.971
  43   8 O     -0.394  1.755  4.639  0.000    21.556     6.225
  44   6 C     -0.064  1.058  3.006  0.000    21.723     6.634
  45   6 C     -0.006  1.055  2.951  0.000    20.654     6.464
  46   6 C     -0.116  1.043  3.073  0.000    22.762     6.801
  47   6 C     -0.111  1.039  3.072  0.000    22.668     6.788
  48   1 H      0.177  0.823  0.000  0.000     1.231     1.738
  49   1 H      0.046  0.954  0.000  0.000     2.368     2.406
  50   1 H      0.050  0.950  0.000  0.000     2.317     2.381
  51   1 H      0.036  0.964  0.000  0.000     2.503     2.474
  52   1 H      0.040  0.960  0.000  0.000     2.442     2.444
  53   1 H      0.045  0.955  0.000  0.000     2.380     2.412
  54   1 H      0.036  0.964  0.000  0.000     2.501     2.473
  55   1 H      0.040  0.960  0.000  0.000     2.449     2.447
  56   1 H      0.036  0.964  0.000  0.000     2.505     2.475
  57   1 H      0.041  0.959  0.000  0.000     2.442     2.444
  58   1 H      0.034  0.966  0.000  0.000     2.531     2.488
  59   7 N     -0.391  1.312  4.079  0.000    30.133     8.153
  60   6 C      0.025  1.060  2.915  0.000    20.161     6.395
  61   6 C      0.260  1.050  2.690  0.000    22.614     7.787
  62   8 O     -0.499  1.732  4.767  0.000    23.752     6.534
  63   6 C     -0.068  1.053  3.015  0.000    21.762     6.635
  64   6 C     -0.007  1.065  2.942  0.000    20.706     6.480
  65  16 S     -0.240  1.922  4.266  0.053   151.341    20.705
  66   6 C     -0.055  1.052  3.003  0.000    21.633     6.635
  67   1 H      0.171  0.829  0.000  0.000     1.267     1.763
  68   1 H      0.048  0.952  0.000  0.000     2.347     2.396
  69   1 H      0.065  0.935  0.000  0.000     2.138     2.287
  70   1 H      0.057  0.943  0.000  0.000     2.236     2.339
  71   1 H      0.052  0.948  0.000  0.000     2.298     2.371
  72   1 H      0.053  0.947  0.000  0.000     2.286     2.364
  73   1 H      0.063  0.937  0.000  0.000     2.170     2.303
  74   1 H      0.056  0.944  0.000  0.000     2.247     2.344
  75   1 H      0.058  0.942  0.000  0.000     2.222     2.331
  76   7 N     -0.160  1.242  3.917  0.000    24.452     7.344
  77   6 C      0.009  1.067  2.924  0.000    20.434     6.437
  78   6 C      0.275  1.039  2.687  0.000    22.357     7.742
  79   8 O     -0.433  1.740  4.692  0.000    22.344     6.338
  80   6 C     -0.077  1.053  3.025  0.000    21.969     6.672
  81   6 C      0.023  1.079  2.899  0.000    27.495     8.601
  82   6 C     -0.039  1.081  2.958  0.000    28.975     8.827
  83   6 C     -0.037  1.076  2.962  0.000    28.925     8.820
  84   6 C     -0.031  1.081  2.950  0.000    28.774     8.796
  85   6 C     -0.033  1.080  2.953  0.000    28.833     8.805
  86   6 C     -0.035  1.080  2.955  0.000    28.876     8.812
  87   1 H      0.231  0.769  0.000  0.000     0.961     1.536
  88   1 H      0.085  0.915  0.000  0.000     1.930     2.173
  89   1 H      0.075  0.925  0.000  0.000     2.030     2.228
  90   1 H      0.066  0.934  0.000  0.000     2.132     2.284
  91   1 H      0.037  0.963  0.000  0.000     2.483     2.464
  92   1 H      0.027  0.973  0.000  0.000     2.636     2.539
  93   1 H      0.034  0.966  0.000  0.000     2.533     2.489
  94   1 H      0.036  0.964  0.000  0.000     2.501     2.473
  95   1 H      0.033  0.967  0.000  0.000     2.542     2.493
  96   7 N     -0.199  1.250  3.950  0.000    25.326     7.474
  97   6 C      0.001  1.071  2.929  0.000    20.573     6.459
  98   6 C      0.271  1.045  2.684  0.000    22.419     7.754
  99   8 O     -0.467  1.740  4.727  0.000    23.056     6.438
 100   6 C     -0.027  1.068  2.959  0.000    21.015     6.520
 101   6 C     -0.065  1.051  3.014  0.000    21.744     6.639
 102   6 C     -0.118  1.037  3.080  0.000    22.808     6.809
 103   6 C     -0.113  1.037  3.076  0.000    22.730     6.799
 104   1 H      0.194  0.806  0.000  0.000     1.135     1.669
 105   1 H      0.093  0.907  0.000  0.000     1.852     2.128
 106   1 H      0.054  0.946  0.000  0.000     2.273     2.358
 107   1 H      0.045  0.955  0.000  0.000     2.385     2.415
 108   1 H      0.045  0.955  0.000  0.000     2.384     2.415
 109   1 H      0.061  0.939  0.000  0.000     2.193     2.316
 110   1 H      0.037  0.963  0.000  0.000     2.495     2.470
 111   1 H      0.050  0.950  0.000  0.000     2.326     2.385
 112   1 H      0.042  0.958  0.000  0.000     2.418     2.432
 113   1 H      0.044  0.956  0.000  0.000     2.401     2.423
 114   1 H      0.043  0.957  0.000  0.000     2.408     2.426
 115   7 N     -0.189  1.245  3.944  0.000    25.106     7.442
 116   6 C      0.015  1.067  2.919  0.000    20.326     6.418
 117   6 C      0.271  1.044  2.685  0.000    22.425     7.755
 118   8 O     -0.490  1.740  4.750  0.000    23.556     6.507
 119   6 C     -0.024  1.067  2.957  0.000    20.972     6.514
 120   6 C     -0.065  1.052  3.013  0.000    21.742     6.638
 121   6 C     -0.115  1.037  3.078  0.000    22.757     6.802
 122   6 C     -0.113  1.037  3.076  0.000    22.730     6.799
 123   1 H      0.201  0.799  0.000  0.000     1.100     1.643
 124   1 H      0.081  0.919  0.000  0.000     1.969     2.195
 125   1 H      0.047  0.953  0.000  0.000     2.356     2.400
 126   1 H      0.046  0.954  0.000  0.000     2.368     2.407
 127   1 H      0.039  0.961  0.000  0.000     2.458     2.452
 128   1 H      0.061  0.939  0.000  0.000     2.187     2.313
 129   1 H      0.037  0.963  0.000  0.000     2.488     2.467
 130   1 H      0.048  0.952  0.000  0.000     2.340     2.392
 131   1 H      0.048  0.952  0.000  0.000     2.344     2.394
 132   1 H      0.042  0.958  0.000  0.000     2.428     2.437
 133   1 H      0.044  0.956  0.000  0.000     2.390     2.418
 134   7 N     -0.193  1.254  3.938  0.000    25.177     7.452
 135   6 C      0.013  1.068  2.920  0.000    20.363     6.425
 136   6 C      0.261  1.048  2.691  0.000    22.596     7.784
 137   8 O     -0.485  1.732  4.753  0.000    23.462     6.494
 138   6 C      0.121  1.044  2.835  0.000    18.710     6.176
 139   8 O     -0.473  1.721  4.752  0.000    22.310     6.376
 140   6 C     -0.127  1.041  3.086  0.000    22.999     6.839
 141   1 H      0.241  0.759  0.000  0.000     0.918     1.501
 142   1 H      0.080  0.920  0.000  0.000     1.984     2.203
 143   1 H      0.026  0.974  0.000  0.000     2.647     2.544
 144   1 H      0.338  0.662  0.000  0.000     0.618     1.235
 145   1 H      0.072  0.928  0.000  0.000     2.059     2.244
 146   1 H      0.048  0.952  0.000  0.000     2.345     2.395
 147   1 H      0.063  0.937  0.000  0.000     2.167     2.302
 148   7 N     -0.097  1.235  3.862  0.000    23.137     7.144
 149   6 C      0.018  1.066  2.916  0.000    20.247     6.401
 150   6 C      0.271  1.042  2.687  0.000    22.427     7.756
 151   8 O     -0.488  1.732  4.756  0.000    23.520     6.502
 152   6 C     -0.074  1.054  3.020  0.000    21.890     6.657
 153   6 C     -0.080  1.052  3.029  0.000    22.009     6.675
 154   6 C     -0.006  1.048  2.958  0.000    20.716     6.486
 155   1 H      0.080  0.920  0.000  0.000     1.983     2.202
 156   1 H      0.075  0.925  0.000  0.000     2.029     2.227
 157   1 H      0.079  0.921  0.000  0.000     1.986     2.204
 158   1 H      0.059  0.941  0.000  0.000     2.209     2.324
 159   1 H      0.097  0.903  0.000  0.000     1.812     2.105
 160   1 H      0.049  0.951  0.000  0.000     2.334     2.389
 161   1 H      0.061  0.939  0.000  0.000     2.189     2.314
 162   7 N     -0.171  1.245  3.926  0.000    24.701     7.381
 163   6 C      0.019  1.066  2.916  0.000    20.254     6.406
 164   6 C      0.278  1.042  2.679  0.000    22.290     7.732
 165   8 O     -0.499  1.738  4.760  0.000    23.753     6.534
 166   6 C     -0.016  1.060  2.955  0.000    20.820     6.490
 167   6 C     -0.117  1.039  3.078  0.000    22.797     6.808
 168   6 C     -0.124  1.041  3.082  0.000    22.922     6.826
 169   1 H      0.219  0.781  0.000  0.000     1.015     1.578
 170   1 H      0.078  0.922  0.000  0.000     2.005     2.214
 171   1 H      0.052  0.948  0.000  0.000     2.296     2.369
 172   1 H      0.058  0.942  0.000  0.000     2.226     2.333
 173   1 H      0.034  0.966  0.000  0.000     2.530     2.487
 174   1 H      0.049  0.951  0.000  0.000     2.334     2.389
 175   1 H      0.056  0.944  0.000  0.000     2.243     2.342
 176   1 H      0.046  0.954  0.000  0.000     2.377     2.411
 177   1 H      0.063  0.937  0.000  0.000     2.162     2.299
 178   7 N     -0.194  1.255  3.939  0.000    25.203     7.456
 179   6 C      0.034  1.054  2.912  0.000    20.003     6.367
 180   6 C      0.275  1.045  2.680  0.000    22.342     7.741
 181   8 O     -0.520  1.735  4.785  0.000    24.223     6.599
 182   6 C     -0.074  1.054  3.020  0.000    21.894     6.657
 183   6 C     -0.017  1.066  2.950  0.000    20.877     6.506
 184  16 S     -0.221  1.916  4.260  0.045   150.485    20.647
 185   6 C     -0.059  1.055  3.004  0.000    21.713     6.647
 186   1 H      0.235  0.765  0.000  0.000     0.943     1.521
 187   1 H      0.072  0.928  0.000  0.000     2.059     2.244
 188   1 H      0.088  0.912  0.000  0.000     1.899     2.155
 189   1 H      0.063  0.937  0.000  0.000     2.160     2.298
 190   1 H      0.069  0.931  0.000  0.000     2.096     2.264
 191   1 H      0.050  0.950  0.000  0.000     2.322     2.383
 192   1 H      0.067  0.933  0.000  0.000     2.116     2.275
 193   1 H      0.062  0.938  0.000  0.000     2.171     2.304
 194   1 H      0.045  0.955  0.000  0.000     2.383     2.414
 195   7 N     -0.190  1.262  3.928  0.000    25.119     7.444
 196   6 C      0.025  1.064  2.911  0.000    20.156     6.392
 197   6 C      0.276  1.042  2.682  0.000    22.331     7.739
 198   8 O     -0.500  1.736  4.764  0.000    23.775     6.537
 199   6 C     -0.017  1.062  2.955  0.000    20.841     6.493
 200   6 C     -0.119  1.040  3.079  0.000    22.832     6.812
 201   6 C     -0.128  1.042  3.086  0.000    23.002     6.838
 202   1 H      0.249  0.751  0.000  0.000     0.886     1.474
 203   1 H      0.064  0.936  0.000  0.000     2.156     2.296
 204   1 H      0.044  0.956  0.000  0.000     2.391     2.418
 205   1 H      0.063  0.937  0.000  0.000     2.163     2.300
 206   1 H      0.040  0.960  0.000  0.000     2.448     2.447
 207   1 H      0.048  0.952  0.000  0.000     2.348     2.396
 208   1 H      0.057  0.943  0.000  0.000     2.233     2.337
 209   1 H      0.047  0.953  0.000  0.000     2.352     2.398
 210   1 H      0.063  0.937  0.000  0.000     2.166     2.302
 211   7 N     -0.195  1.255  3.940  0.000    25.239     7.461
 212   6 C      0.025  1.058  2.917  0.000    20.155     6.392
 213   6 C      0.268  1.043  2.688  0.000    22.471     7.763
 214   8 O     -0.496  1.737  4.759  0.000    23.695     6.526
 215   6 C     -0.073  1.058  3.015  0.000    21.884     6.659
 216   6 C     -0.015  1.056  2.959  0.000    20.815     6.489
 217   6 C     -0.118  1.042  3.076  0.000    22.815     6.810
 218   6 C     -0.117  1.040  3.077  0.000    22.789     6.806
 219   1 H      0.246  0.754  0.000  0.000     0.898     1.485
 220   1 H      0.072  0.928  0.000  0.000     2.067     2.248
 221   1 H      0.051  0.949  0.000  0.000     2.311     2.378
 222   1 H      0.058  0.942  0.000  0.000     2.225     2.333
 223   1 H      0.051  0.949  0.000  0.000     2.307     2.375
 224   1 H      0.051  0.949  0.000  0.000     2.311     2.377
 225   1 H      0.040  0.960  0.000  0.000     2.453     2.449
 226   1 H      0.043  0.957  0.000  0.000     2.413     2.429
 227   1 H      0.053  0.947  0.000  0.000     2.282     2.362
 228   1 H      0.043  0.957  0.000  0.000     2.413     2.429
 229   1 H      0.029  0.971  0.000  0.000     2.595     2.519
 230   7 N     -0.178  1.245  3.933  0.000    24.853     7.404
 231   6 C     -0.028  1.050  2.977  0.000    21.129     6.555
 232   6 C      0.278  1.038  2.684  0.000    22.288     7.731
 233   8 O     -0.482  1.731  4.751  0.000    23.389     6.484
 234   1 H      0.235  0.765  0.000  0.000     0.944     1.522
 235   1 H      0.091  0.909  0.000  0.000     1.869     2.138
 236   1 H      0.093  0.907  0.000  0.000     1.854     2.129
 237   7 N     -0.197  1.251  3.946  0.000    25.270     7.466
 238   6 C      0.016  1.066  2.918  0.000    20.315     6.418
 239   6 C      0.270  1.043  2.687  0.000    22.444     7.758
 240   8 O     -0.499  1.737  4.761  0.000    23.758     6.535
 241   6 C      0.119  1.046  2.835  0.000    18.728     6.179
 242   8 O     -0.474  1.716  4.758  0.000    22.344     6.381
 243   6 C     -0.125  1.041  3.085  0.000    22.964     6.833
 244   1 H      0.234  0.766  0.000  0.000     0.948     1.525
 245   1 H      0.069  0.931  0.000  0.000     2.092     2.262
 246   1 H      0.030  0.970  0.000  0.000     2.592     2.518
 247   1 H      0.324  0.676  0.000  0.000     0.654     1.270
 248   1 H      0.072  0.928  0.000  0.000     2.060     2.245
 249   1 H      0.045  0.955  0.000  0.000     2.389     2.417
 250   1 H      0.064  0.936  0.000  0.000     2.149     2.292
 251   7 N     -0.202  1.264  3.938  0.000    25.385     7.483
 252   6 C      0.024  1.064  2.912  0.000    20.167     6.394
 253   6 C      0.276  1.041  2.682  0.000    22.328     7.738
 254   8 O     -0.497  1.740  4.756  0.000    23.712     6.529
 255   6 C     -0.019  1.066  2.953  0.000    20.884     6.500
 256   6 C     -0.067  1.051  3.015  0.000    21.772     6.643
 257   6 C     -0.115  1.037  3.078  0.000    22.764     6.803
 258   6 C     -0.108  1.038  3.071  0.000    22.632     6.784
 259   1 H      0.244  0.756  0.000  0.000     0.908     1.493
 260   1 H      0.063  0.937  0.000  0.000     2.169     2.303
 261   1 H      0.048  0.952  0.000  0.000     2.350     2.397
 262   1 H      0.040  0.960  0.000  0.000     2.448     2.447
 263   1 H      0.049  0.951  0.000  0.000     2.333     2.388
 264   1 H      0.066  0.934  0.000  0.000     2.130     2.282
 265   1 H      0.034  0.966  0.000  0.000     2.526     2.485
 266   1 H      0.046  0.954  0.000  0.000     2.368     2.406
 267   1 H      0.051  0.949  0.000  0.000     2.302     2.373
 268   1 H      0.033  0.967  0.000  0.000     2.538     2.491
 269   1 H      0.048  0.952  0.000  0.000     2.345     2.395
 270   7 N     -0.194  1.255  3.939  0.000    25.214     7.458
 271   6 C      0.029  1.059  2.912  0.000    20.092     6.383
 272   6 C      0.278  1.040  2.682  0.000    22.303     7.734
 273   8 O     -0.497  1.744  4.753  0.000    23.726     6.531
 274   6 C     -0.079  1.055  3.024  0.000    21.995     6.676
 275   6 C      0.010  1.081  2.909  0.000    27.787     8.646
 276   6 C     -0.041  1.081  2.960  0.000    29.025     8.835
 277   6 C     -0.041  1.079  2.962  0.000    29.015     8.834
 278   6 C     -0.031  1.079  2.952  0.000    28.770     8.796
 279   6 C     -0.031  1.080  2.951  0.000    28.783     8.798
 280   6 C     -0.037  1.080  2.957  0.000    28.909     8.817
 281   1 H      0.237  0.763  0.000  0.000     0.937     1.516
 282   1 H      0.068  0.932  0.000  0.000     2.107     2.270
 283   1 H      0.074  0.926  0.000  0.000     2.047     2.237
 284   1 H      0.065  0.935  0.000  0.000     2.138     2.287
 285   1 H      0.044  0.956  0.000  0.000     2.396     2.421
 286   1 H      0.028  0.972  0.000  0.000     2.616     2.529
 287   1 H      0.044  0.956  0.000  0.000     2.398     2.422
 288   1 H      0.039  0.961  0.000  0.000     2.466     2.456
 289   1 H      0.047  0.953  0.000  0.000     2.352     2.398
 290   7 N     -0.196  1.258  3.938  0.000    25.254     7.464
 291   6 C      0.027  1.064  2.910  0.000    20.118     6.384
 292   6 C      0.294  1.039  2.667  0.000    22.015     7.684
 293   8 O     -0.487  1.733  4.754  0.000    23.509     6.501
 294   6 C     -0.021  1.064  2.956  0.000    20.909     6.504
 295   6 C     -0.069  1.052  3.017  0.000    21.817     6.649
 296   6 C     -0.114  1.038  3.076  0.000    22.738     6.799
 297   6 C     -0.107  1.037  3.070  0.000    22.603     6.780
 298   1 H      0.236  0.764  0.000  0.000     0.940     1.519
 299   1 H      0.067  0.933  0.000  0.000     2.120     2.277
 300   1 H      0.043  0.957  0.000  0.000     2.405     2.425
 301   1 H      0.047  0.953  0.000  0.000     2.360     2.402
 302   1 H      0.054  0.946  0.000  0.000     2.273     2.358
 303   1 H      0.062  0.938  0.000  0.000     2.179     2.308
 304   1 H      0.027  0.973  0.000  0.000     2.632     2.537
 305   1 H      0.051  0.949  0.000  0.000     2.311     2.377
 306   1 H      0.048  0.952  0.000  0.000     2.348     2.396
 307   1 H      0.028  0.972  0.000  0.000     2.611     2.527
 308   1 H      0.045  0.955  0.000  0.000     2.381     2.413
 309   7 N     -0.211  1.259  3.952  0.000    25.585     7.512
 310   6 C      0.042  1.057  2.901  0.000    19.874     6.347
 311   6 C      0.281  1.038  2.681  0.000    22.248     7.725
 312   8 O     -0.532  1.759  4.772  0.000    24.495     6.636
 313   6 C     -0.075  1.055  3.020  0.000    21.920     6.664
 314   6 C      0.011  1.081  2.908  0.000    27.770     8.644
 315   6 C     -0.042  1.081  2.961  0.000    29.053     8.839
 316   6 C     -0.033  1.080  2.953  0.000    28.822     8.804
 317   6 C     -0.035  1.081  2.953  0.000    28.862     8.810
 318   6 C     -0.032  1.081  2.951  0.000    28.796     8.800
 319   6 C     -0.036  1.081  2.955  0.000    28.896     8.815
 320   1 H      0.232  0.768  0.000  0.000     0.956     1.532
 321   1 H      0.047  0.953  0.000  0.000     2.356     2.400
 322   1 H      0.065  0.935  0.000  0.000     2.137     2.286
 323   1 H      0.056  0.944  0.000  0.000     2.250     2.346
 324   1 H      0.040  0.960  0.000  0.000     2.449     2.447
 325   1 H      0.019  0.981  0.000  0.000     2.742     2.590
 326   1 H      0.046  0.954  0.000  0.000     2.368     2.407
 327   1 H      0.037  0.963  0.000  0.000     2.488     2.467
 328   1 H      0.043  0.957  0.000  0.000     2.403     2.424
 329   7 N     -0.192  1.263  3.930  0.000    25.169     7.451
 330   6 C      0.031  1.064  2.905  0.000    20.042     6.373
 331   6 C      0.295  1.040  2.666  0.000    22.004     7.681
 332   8 O     -0.516  1.752  4.764  0.000    24.136     6.587
 333   6 C     -0.015  1.063  2.952  0.000    20.813     6.489
 334   6 C     -0.116  1.039  3.077  0.000    22.768     6.804
 335   6 C     -0.117  1.043  3.075  0.000    22.800     6.808
 336   1 H      0.236  0.764  0.000  0.000     0.941     1.520
 337   1 H      0.052  0.948  0.000  0.000     2.301     2.372
 338   1 H      0.050  0.950  0.000  0.000     2.325     2.385
 339   1 H      0.053  0.947  0.000  0.000     2.283     2.363
 340   1 H      0.052  0.948  0.000  0.000     2.299     2.371
 341   1 H      0.032  0.968  0.000  0.000     2.558     2.501
 342   1 H      0.058  0.942  0.000  0.000     2.226     2.333
 343   1 H      0.042  0.958  0.000  0.000     2.423     2.434
 344   1 H      0.045  0.955  0.000  0.000     2.380     2.412
 345   7 N     -0.191  1.249  3.942  0.000    25.143     7.447
 346   6 C      0.027  1.061  2.911  0.000    20.121     6.388
 347   6 C      0.286  1.040  2.674  0.000    22.161     7.709
 348   8 O     -0.515  1.751  4.764  0.000    24.127     6.586
 349   6 C     -0.066  1.055  3.011  0.000    21.748     6.636
 350   6 C     -0.011  1.065  2.946  0.000    20.788     6.493
 351  16 S     -0.244  1.929  4.252  0.063   151.510    20.717
 352   6 C     -0.067  1.057  3.010  0.000    21.848     6.668
 353   1 H      0.225  0.775  0.000  0.000     0.987     1.556
 354   1 H      0.066  0.934  0.000  0.000     2.135     2.285
 355   1 H      0.068  0.932  0.000  0.000     2.108     2.270
 356   1 H      0.065  0.935  0.000  0.000     2.137     2.286
 357   1 H      0.039  0.961  0.000  0.000     2.458     2.452
 358   1 H      0.067  0.933  0.000  0.000     2.115     2.274
 359   1 H      0.078  0.922  0.000  0.000     2.001     2.212
 360   1 H      0.059  0.941  0.000  0.000     2.208     2.324
 361   1 H      0.070  0.930  0.000  0.000     2.084     2.257
 362   7 N     -0.184  1.260  3.924  0.000    24.979     7.423
 363   6 C     -0.012  1.048  2.964  0.000    20.861     6.516
 364   6 C      0.213  1.085  2.702  0.000    23.489     7.937
 365   8 O     -0.366  1.752  4.615  0.000    21.021     6.147
 366   1 H      0.242  0.758  0.000  0.000     0.913     1.497
 367   1 H      0.095  0.905  0.000  0.000     1.833     2.117
 368   1 H      0.104  0.896  0.000  0.000     1.746     2.066
 369   1 H      0.176  0.824  0.000  0.000     1.237     1.742
 370   1 H      0.070  0.930  0.000  0.000     2.083     2.257
 371   1 H      0.175  0.825  0.000  0.000     1.242     1.746
 372   1 H      0.069  0.931  0.000  0.000     2.091     2.261
 373   1 H      0.182  0.818  0.000  0.000     1.200     1.716
 374   1 H      0.072  0.928  0.000  0.000     2.058     2.243

 Mol. C6AA /au·bohr⁶  :    1319674.003659
 Mol. C8AA /au·bohr⁸  :   30376015.386984
 Mol. α(0) /au        :       1737.324846

 
molecular dipole:
                 x           y           z       tot (Debye)
 q only:       -8.851       5.277     -27.891
   full:       -8.944       5.134     -30.809      82.581
molecular quadrupole (traceless):
                xx          xy          yy          xz          yz          zz
 q only:    -1133.502     379.781    3517.821   -6809.896   -1952.603   -2384.318
  q+dip:    -1002.278     362.125    3667.264   -7411.772   -2192.594   -2664.986
   full:    -1000.008     364.267    3668.865   -7415.960   -2188.831   -2668.857
speedup  1.00
cpu  time for grad    6.78 s
wall time for grad    6.78 s

SCC energy    :    -548.8474131
rep           :       7.0164549
ES            :       1.0613622
AES           :      -0.0059909
AXC           :       0.2094182
disp          :      -0.5196309
XB            :       0.0000000
fix           :       0.0000000
Gborn         :       0.0000000
Gsasa         :       0.0000000
Ghb           :       0.0000000
Gshift        :       0.0000000
Gsolv         :      -0.1619835     -101.65
Etot ala COSMO:    -548.8474131
grad norm     :       0.3881777
total E       :    -541.7876251
atomizationE  :     104.7433026    65727.41
(atE without considering molecular charge,
 total energy contains solvation terms)
H-L gap (eV)  :          1.7331

------------------------------------------------------------------------
 * finished run on 2019/03/14 at 15:08:25.968     
------------------------------------------------------------------------
 total:
 * wall-time:     0 d,  0 h,  0 min,  7.463 sec
 *  cpu-time:     0 d,  0 h,  0 min,  7.264 sec
 * ratio c/w:     0.973 speedup
 SCF:
 * wall-time:     0 d,  0 h,  0 min,  7.151 sec
 *  cpu-time:     0 d,  0 h,  0 min,  7.148 sec
 * ratio c/w:     1.000 speedup

