      -----------------------------------------------------------      
     |                   =====================                   |     
     |                           x T B                           |     
     |                   =====================                   |     
     |                         S. Grimme                         |     
     |          Mulliken Center for Theoretical Chemistry        |     
     |                    University of Bonn                     |     
     |                 Version 6.0.1 (SAW181210)                 |     
      -----------------------------------------------------------      

   This program is distributed in the hope that it will be useful,
   but WITHOUT ANY WARRANTY; without even the implied warranty of
   MERCHANTABILITY or FITNESS FOR A PARTICULAR PURPOSE.
   
   FOR NON-COMMERCIAL, ACADEMIA USE ONLY.
   
   Cite this work as:
   S. Grimme, C. Bannwarth, P. Shushkov, J. Comput. Theory Chem., 2017,
   13, 1989-2009.
   C. Bannwarth, S. Ehlert and S. Grimme., ChemRxiv, 2018, preprint.
   http://doi.org/10.26434/chemrxiv.7246238.v1
   
   for sTDA-xTB:
   S. Grimme and C. Bannwarth, J. Chem. Phys., 2016, 145, 054103.
   
   in the mass-spec context:
   V. Asgeirsson, C. Bauer and S. Grimme, Chem. Sci., 2017, 8, 4879.
   
   if GBSA is used:
   P. Shushkov, F. März and S. Grimme, unpublished.
   
   for ANC optimizer:
   S. Grimme, unpublished.
   Rational Function algorithm used in ANCopt:
   F. Eckert, P. Pulay, H.-J. Werner, J. Comput. Chem., 1997, 18, 1473.
   
   with help from (in alphabetical order)
   C. Bannwarth, F. Bohle, G. Brandenburg, E. Caldeweyher, M. Checinski,
   S. Dohm, S. Ehlert, S. Ehrlich, F. März, H. Neugebauer, J. Pisarek,
   P. Pracht, P. Shushkov, and S. Spicher.
   
 * started run on 2019/03/07 at 11:37:46.430     
========================================================================
 # omp threads = 1
========================================================================
number of atoms            : 583
number of electrons        : 1544
charge                     : 0
spin                       : .0
first test random number   : .3047
           ------------------------------------------------- 
          |                 G F N 2 - x T B                 |
          | Geometry, Frequencies, Noncovalent interactions |
          |            JCTC 2018 parametrisation            |
           ------------------------------------------------- 
 
      method parameters     
 k(s)        :  1.8500
 k(p)        :  2.2300
 k(d)        :  2.2300
 k(f)        :  2.0000
 kEN (H0ij)  : -2.0000
 D4 a1       :  0.5200
 D4 a2       :  5.0000
 D4 s6       :  1.0000
 D4 s8       :  2.7000
 D4 s9       :  5.0000
 alphaj      :  2.0000

 Solvent             : h2o
 Using internal parameter file: .param_gbsa2_h2o
 Gsolv ref. state (COSMO-RS): gsolv [1 M gas/solution]
 temperature (mdtemp)       :    298.150000000000     
 dielectric constant        :    80.2000000000000     
 rho                        :    1.00000000000000     
 mass                       :    18.0000000000000     
 surface tension            :    15.5689454083859     
 probe radius               :   0.975313790000000     
 vdW radii scaling          :    1.00000000000000     
 Gshift (Eh)                :   1.857443126794793E-003
 c1                         :    1.55243817000000     
 soset                      :   0.130326360000000     
 HB correction              :  T

            Z     q(EN)     CN     RAES       Cart. coordinates
     1  N   5.0   -0.24    3.26    1.97   248.84667   119.81618   258.49372
     2  C   4.0    0.02    4.30    4.20   248.80321   118.61243   255.98228
     3  C   4.0    0.15    3.45    3.09   248.40826   120.67034   253.96405
     4  O   6.0   -0.32    1.30    1.80   249.52130   120.57018   251.93826
     5  C   4.0   -0.08    4.20    4.00   246.69805   116.62633   255.89157
     6  H   1.0    0.10    1.08    1.44   247.59945   119.44580   259.46693
     7  H   1.0    0.05    1.12    1.45   250.39247   117.76205   255.65158
     8  H   1.0    0.05    1.05    1.44   246.67349   115.83642   254.23806
     9  H   1.0    0.05    1.05    1.44   247.00419   115.35076   257.17280
    10  H   1.0    0.05    1.06    1.44   245.08234   117.43324   256.20715
    11  N   5.0   -0.17    3.55    2.11   246.83978   122.54684   254.58766
    12  C   4.0    0.04    4.46    4.48   246.32578   124.61798   252.83399
    13  C   4.0    0.17    3.50    3.11   248.88258   125.87465   252.26708
    14  O   6.0   -0.29    1.28    1.80   249.48162   126.36408   250.08633
    15  C   4.0    0.02    4.27    4.13   244.53432   126.54361   254.06043
    16  O   6.0   -0.27    2.09    1.84   243.44961   128.13665   252.23873
    17  H   1.0    0.09    1.13    1.45   246.05933   122.65266   256.01062
    18  H   1.0    0.06    1.12    1.45   245.52831   124.00193   251.30332
    19  H   1.0    0.04    1.07    1.44   243.21151   125.66111   254.97316
    20  H   1.0    0.04    1.08    1.44   245.45461   127.54705   255.28686
    21  H   1.0    0.14    1.08    1.44   242.47641   129.17033   252.94927
    22  N   5.0   -0.17    3.54    2.11   250.41514   126.15810   254.25318
    23  C   4.0    0.03    4.48    4.50   252.94927   127.24659   254.02452
    24  C   4.0    0.17    3.48    3.11   254.58010   125.59497   252.33322
    25  O   6.0   -0.29    1.34    1.80   255.69693   126.46991   250.51341
    26  C   4.0   -0.05    4.40    4.38   254.25696   127.41288   256.61723
    27  C   4.0   -0.06    4.32    4.23   252.90580   128.92088   258.62789
    28  C   4.0   -0.01    4.34    4.27   253.96027   128.46168   261.23194
    29  N   5.0   -0.16    3.43    2.04   252.53353   129.84307   263.15001
    30  C   4.0    0.11    3.47    3.10   253.40091   130.32117   265.49705
    31  N   5.0   -0.24    3.32    1.99   255.61567   129.52182   266.21703
    32  N   5.0   -0.24    3.28    1.98   251.94582   131.56839   267.17323
    33  H   1.0    0.09    1.14    1.45   250.01452   125.72536   255.76685
    34  H   1.0    0.05    1.12    1.45   252.76218   128.92655   253.31398
    35  H   1.0    0.05    1.10    1.44   254.50262   125.70835   257.24650
    36  H   1.0    0.06    1.10    1.44   255.92181   128.14043   256.37534
    37  H   1.0    0.05    1.09    1.44   253.03053   130.70667   258.23105
    38  H   1.0    0.04    1.10    1.44   251.12379   128.49003   258.61278
    39  H   1.0    0.05    1.09    1.44   253.91681   126.66833   261.60610
    40  H   1.0    0.05    1.09    1.44   255.71772   128.97758   261.28296
    41  H   1.0    0.09    1.13    1.45   251.05198   130.38353   262.75883
    42  H   1.0    0.11    1.10    1.44   256.54731   128.67522   265.18902
    43  H   1.0    0.11    1.10    1.44   256.14479   129.84118   267.71936
    44  H   1.0    0.11    1.08    1.44   250.45672   132.06350   266.74805
    45  H   1.0    0.11    1.09    1.44   252.50518   131.87075   268.66801
    46  N   5.0   -0.14    3.53    2.10   254.55364   123.13454   252.85856
    47  C   4.0    0.05    4.53    4.57   255.99173   121.25049   251.41103
    48  C   4.0    0.16    3.50    3.12   255.34544   121.39033   248.65392
    49  O   6.0   -0.31    1.31    1.80   256.99706   121.79095   247.05521
    50  C   4.0   -0.04    4.41    4.39   255.60433   118.56896   252.39936
    51  C   4.0    0.16    3.29    3.05   256.70037   118.20803   255.05820
    52  O   6.0   -0.28    1.23    1.80   257.94003   119.85587   256.06165
    53  N   5.0   -0.24    3.23    1.96   256.15235   116.04051   256.17881
    54  H   1.0    0.10    1.14    1.45   253.69193   122.49771   254.07932
    55  H   1.0    0.09    1.14    1.45   257.76618   121.65867   251.63024
    56  H   1.0    0.05    1.09    1.44   253.81287   118.18346   252.42392
    57  H   1.0    0.04    1.09    1.44   256.39235   117.37844   251.25040
    58  H   1.0    0.12    1.09    1.44   256.68148   115.74949   257.68681
    59  H   1.0    0.10    1.09    1.44   255.26796   114.92368   255.39835
    60  N   5.0   -0.16    3.53    2.10   252.93415   120.88010   248.05677
    61  C   4.0    0.03    4.39    4.36   251.94393   120.97648   245.46595
    62  C   4.0    0.17    3.49    3.11   252.67526   123.51816   244.26409
    63  O   6.0   -0.32    1.31    1.80   253.46138   123.60886   242.09468
    64  C   4.0   -0.08    4.20    4.00   249.04509   120.66089   245.48674
    65  H   1.0    0.12    1.17    1.46   251.81732   120.46436   249.16226
    66  H   1.0    0.05    1.12    1.45   252.66392   119.60831   244.48140
    67  H   1.0    0.05    1.05    1.44   248.41015   120.72703   243.76898
    68  H   1.0    0.05    1.05    1.44   248.61046   119.04518   246.23507
    69  H   1.0    0.06    1.05    1.44   248.28920   122.01205   246.46940
    70  N   5.0   -0.15    3.58    2.14   252.42392   125.54961   245.72107
    71  C   4.0    0.05    4.54    4.60   253.12879   128.05917   244.94250
    72  C   4.0    0.17    3.54    3.14   255.90858   128.02515   244.16960
    73  O   6.0   -0.31    1.33    1.80   256.58132   128.88498   242.11925
    74  C   4.0   -0.03    4.47    4.49   252.81510   129.96590   247.06088
    75  C   4.0    0.17    3.32    3.06   250.21105   131.06194   247.16671
    76  O   6.0   -0.29    1.23    1.80   248.99407   131.41721   245.23163
    77  N   5.0   -0.22    3.25    1.97   249.37202   131.69500   249.45894
    78  H   1.0    0.13    1.17    1.46   251.82110   125.48536   247.22907
    79  H   1.0    0.07    1.13    1.45   252.03842   128.55239   243.55355
    80  H   1.0    0.07    1.12    1.45   253.19682   129.15899   248.66148
    81  H   1.0    0.06    1.10    1.44   254.03208   131.31895   246.83978
    82  H   1.0    0.12    1.09    1.44   247.91126   132.38853   249.62713
    83  H   1.0    0.11    1.09    1.44   250.29231   131.40965   250.76852
    84  N   5.0   -0.15    3.63    2.19   257.47516   126.95179   245.82122
    85  C   4.0    0.04    4.51    4.55   260.16991   126.72313   245.37336
    86  C   4.0    0.17    3.54    3.13   260.45148   125.37198   242.85057
    87  O   6.0   -0.32    1.31    1.80   262.01995   126.08063   241.29344
    88  C   4.0   -0.03    4.39    4.35   261.49650   125.18679   247.40859
    89  C   4.0    0.26    3.15    3.03   261.18280   126.26393   250.07310
    90  O   6.0   -0.27    1.17    1.80   261.50973   128.59963   250.42270
    91  O   6.0   -0.27    1.20    1.80   260.70281   124.75593   251.78142
    92  H   1.0    0.14    1.18    1.46   256.98950   126.33385   247.24418
    93  H   1.0    0.06    1.12    1.45   260.93525   128.38798   245.38469
    94  H   1.0    0.07    1.11    1.44   260.84643   123.47280   247.37835
    95  H   1.0    0.05    1.09    1.44   263.28418   125.09041   247.01175
    96  N   5.0   -0.15    3.51    2.09   258.89812   123.39533   242.48207
    97  C   4.0    0.01    4.37    4.33   258.95104   121.94779   240.12748
    98  C   4.0    0.16    3.45    3.10   258.52774   123.70335   237.96563
    99  O   6.0   -0.32    1.29    1.80   259.96960   123.78461   236.16094
   100  H   1.0    0.13    1.15    1.45   257.81153   122.87376   243.57245
   101  H   1.0    0.05    1.09    1.44   260.56297   121.09364   239.94417
   102  H   1.0    0.04    1.09    1.44   257.65657   120.64955   240.15204
   103  N   5.0   -0.16    3.57    2.13   256.46605   125.14710   238.16027
   104  C   4.0    0.03    4.55    4.60   255.78764   127.00848   236.23653
   105  C   4.0    0.17    3.52    3.12   258.01940   128.83585   235.82835
   106  O   6.0   -0.31    1.30    1.80   258.64679   129.46512   233.70808
   107  C   4.0   -0.02    4.46    4.47   253.44815   128.55428   237.01699
   108  C   4.0   -0.05    4.36    4.31   251.15970   126.86486   237.52721
   109  C   4.0   -0.08    4.27    4.14   252.69415   130.30605   234.84002
   110  C   4.0   -0.08    4.15    3.91   248.92415   128.28594   238.59869
   111  H   1.0    0.13    1.17    1.46   255.42859   125.07151   239.40749
   112  H   1.0    0.05    1.12    1.45   255.39835   126.10141   234.69262
   113  H   1.0    0.07    1.12    1.45   253.89602   129.47457   238.53822
   114  H   1.0    0.04    1.10    1.44   250.65703   126.04661   235.96441
   115  H   1.0    0.06    1.10    1.44   251.64347   125.53827   238.69506
   116  H   1.0    0.05    1.06    1.44   251.22017   131.28304   235.32379
   117  H   1.0    0.07    1.06    1.44   254.08121   131.44178   234.46019
   118  H   1.0    0.04    1.06    1.44   252.30109   129.30450   233.35659
   119  H   1.0    0.05    1.06    1.44   247.53709   127.12186   238.88215
   120  H   1.0    0.06    1.06    1.44   249.40036   129.06639   240.18795
   121  H   1.0    0.05    1.06    1.44   248.39881   129.58418   237.41572
   122  N   5.0   -0.15    3.56    2.12   259.10221   129.82795   237.87303
   123  C   4.0    0.05    4.46    4.48   261.29241   131.50414   237.68406
   124  C   4.0    0.18    3.49    3.11   263.34465   130.17188   236.12504
   125  O   6.0   -0.30    1.30    1.80   264.32920   131.25092   234.33358
   126  C   4.0    0.03    4.26    4.12   262.20703   132.18822   240.34102
   127  O   6.0   -0.27    2.09    1.84   264.05708   134.10629   240.28243
   128  H   1.0    0.13    1.18    1.46   258.59577   129.55394   239.39237
   129  H   1.0    0.08    1.12    1.45   260.85588   133.06883   236.83557
   130  H   1.0    0.06    1.07    1.44   260.78407   132.74191   241.35580
   131  H   1.0    0.06    1.08    1.44   262.89678   130.69723   241.15360
   132  H   1.0    0.14    1.08    1.44   264.52006   134.44266   241.76398
   133  N   5.0   -0.16    3.56    2.13   263.79629   127.75681   236.68062
   134  C   4.0    0.04    4.55    4.60   265.67090   126.24503   235.36348
   135  C   4.0    0.17    3.52    3.13   265.04918   126.15621   232.54023
   136  O   6.0   -0.33    1.36    1.80   266.70269   126.30361   230.92829
   137  C   4.0   -0.03    4.45    4.46   265.76161   123.48225   236.39149
   138  C   4.0   -0.05    4.33    4.26   266.48537   123.37076   239.19017
   139  C   4.0   -0.09    4.28    4.16   267.63811   121.91945   234.90238
   140  C   4.0   -0.09    4.16    3.91   266.67435   120.72892   240.26732
   141  H   1.0    0.13    1.17    1.46   263.00828   126.94990   237.85036
   142  H   1.0    0.06    1.13    1.45   267.30363   127.02927   235.64127
   143  H   1.0    0.06    1.14    1.45   264.07030   122.80195   236.20252
   144  H   1.0    0.05    1.10    1.44   268.09731   124.21547   239.41505
   145  H   1.0    0.07    1.11    1.45   265.24571   124.31373   240.15771
   146  H   1.0    0.04    1.06    1.44   267.67212   120.20925   235.56379
   147  H   1.0    0.05    1.06    1.44   267.13922   121.88165   233.13927
   148  H   1.0    0.04    1.06    1.44   269.30673   122.66400   235.04978
   149  H   1.0    0.04    1.06    1.44   267.13733   120.82152   242.03799
   150  H   1.0    0.04    1.06    1.44   265.05485   119.88421   240.10291
   151  H   1.0    0.04    1.06    1.44   267.94991   119.78406   239.35080
   152  N   5.0   -0.15    3.55    2.11   262.62088   125.86898   231.96197
   153  C   4.0    0.04    4.43    4.44   261.73271   125.70646   229.33147
   154  C   4.0    0.17    3.48    3.11   262.33743   128.15554   227.96898
   155  O   6.0   -0.31    1.28    1.80   263.23882   128.12720   225.82225
   156  C   4.0   -0.08    4.23    4.06   258.90001   125.22080   229.26533
   157  H   1.0    0.13    1.16    1.45   261.43792   125.76126   233.07124
   158  H   1.0    0.05    1.12    1.45   262.58309   124.31562   228.49432
   159  H   1.0    0.06    1.06    1.44   258.33688   125.11687   227.52300
   160  H   1.0    0.05    1.06    1.44   258.52963   123.64288   230.12138
   161  H   1.0    0.06    1.06    1.44   258.02507   126.59274   230.11004
   162  N   5.0   -0.16    3.58    2.14   261.74405   130.27582   229.17840
   163  C   4.0    0.04    4.49    4.53   262.19192   132.75703   228.07480
   164  C   4.0    0.16    3.46    3.10   264.99249   133.37119   227.90851
   165  O   6.0   -0.30    1.26    1.80   265.85421   134.49558   226.03957
   166  C   4.0   -0.05    4.39    4.36   260.87856   134.74691   229.72831
   167  C   4.0   -0.04    4.35    4.29   258.10444   134.09306   230.25366
   168  C   4.0    0.16    3.30    3.05   256.97627   135.81460   232.23787
   169  O   6.0   -0.28    1.20    1.80   257.38634   135.44422   234.52822
   170  N   5.0   -0.24    3.23    1.96   255.42859   137.59662   231.40639
   171  H   1.0    0.12    1.16    1.46   261.07320   130.31361   230.65806
   172  H   1.0    0.06    1.13    1.45   261.52295   132.73624   226.36838
   173  H   1.0    0.07    1.09    1.44   261.77618   134.90187   231.31757
   174  H   1.0    0.05    1.09    1.44   260.96926   136.37774   228.89872
   175  H   1.0    0.05    1.10    1.44   257.13690   134.23101   228.70219
   176  H   1.0    0.07    1.11    1.45   257.97972   132.35074   230.81113
   177  H   1.0    0.11    1.09    1.44   255.19804   137.78937   229.80957
   178  H   1.0    0.12    1.09    1.44   254.65569   138.55849   232.46086
   179  N   5.0   -0.16    3.55    2.12   266.44002   132.55105   229.80390
   180  C   4.0    0.03    4.54    4.59   269.17445   132.97435   229.84359
   181  C   4.0    0.16    3.49    3.11   270.41600   131.47012   227.74410
   182  O   6.0   -0.30    1.28    1.80   271.73881   132.56994   226.17185
   183  C   4.0    0.05    4.34    4.27   270.38955   132.13531   232.35692
   184  O   6.0   -0.28    2.21    1.86   269.49193   129.69189   233.03345
   185  C   4.0   -0.07    4.15    3.91   269.91523   134.03070   234.51688
   186  H   1.0    0.13    1.17    1.46   265.86932   131.74035   231.09270
   187  H   1.0    0.06    1.13    1.45   269.43146   134.77714   229.62816
   188  H   1.0    0.05    1.11    1.45   272.20368   132.07484   232.09614
   189  H   1.0    0.17    1.17    1.46   268.49415   129.16655   231.91662
   190  H   1.0    0.05    1.05    1.44   270.71269   133.42221   236.05134
   191  H   1.0    0.05    1.05    1.44   270.62198   135.66154   234.06713
   192  H   1.0    0.07    1.05    1.44   268.11243   134.20267   234.79467
   193  N   5.0   -0.16    3.53    2.10   269.83397   129.01348   227.62316
   194  C   4.0    0.03    4.49    4.52   270.86198   127.35052   225.65029
   195  C   4.0    0.15    3.46    3.10   270.00782   128.25759   223.01034
   196  O   6.0   -0.31    1.26    1.80   271.55551   128.68089   221.31714
   197  C   4.0    0.05    4.31    4.21   270.07018   124.57829   226.11705
   198  O   6.0   -0.29    2.12    1.84   270.86954   123.74870   228.62471
   199  C   4.0   -0.08    4.20    4.00   271.21158   122.84353   224.15362
   200  H   1.0    0.12    1.17    1.46   268.84186   128.26893   228.67196
   201  H   1.0    0.05    1.12    1.45   272.69123   127.42800   225.71643
   202  H   1.0    0.05    1.11    1.44   268.24282   124.49892   225.99989
   203  H   1.0    0.16    1.09    1.44   269.86042   124.30995   229.71509
   204  H   1.0    0.04    1.06    1.44   270.69001   121.11821   224.48432
   205  H   1.0    0.04    1.06    1.44   270.63899   123.34619   222.48688
   206  H   1.0    0.05    1.06    1.44   273.03894   122.95313   224.22921
   207  N   5.0   -0.17    3.54    2.11   267.54929   128.71112   222.69286
   208  C   4.0    0.03    4.50    4.54   266.48915   129.66355   220.28535
   209  C   4.0    0.16    3.51    3.12   267.66834   132.18255   219.65041
   210  O   6.0   -0.30    1.22    1.80   267.98960   132.82317   217.40163
   211  C   4.0   -0.04    4.44    4.45   263.65834   130.06417   220.53669
   212  C   4.0   -0.03    4.33    4.26   262.11633   127.72280   220.12473
   213  C   4.0    0.25    3.17    3.03   259.38378   128.07807   220.72755
   214  O   6.0   -0.28    1.18    1.80   258.05531   129.50859   219.41986
   215  O   6.0   -0.29    1.21    1.80   258.52207   126.84407   222.51901
   216  H   1.0    0.12    1.16    1.45   266.43813   128.48058   223.85694
   217  H   1.0    0.05    1.12    1.45   266.84064   128.43144   218.97388
   218  H   1.0    0.07    1.11    1.44   263.29930   130.72368   222.20909
   219  H   1.0    0.06    1.10    1.44   263.13111   131.34162   219.33104
   220  H   1.0    0.04    1.10    1.44   262.28262   127.19367   218.37862
   221  H   1.0    0.05    1.10    1.44   262.78907   126.36975   221.16219
   222  N   5.0   -0.14    3.52    2.09   268.33542   133.57528   221.63840
   223  C   4.0    0.02    4.37    4.33   269.49193   136.03759   221.36628
   224  C   4.0    0.16    3.41    3.08   272.12999   135.75413   220.36094
   225  O   6.0   -0.28    1.23    1.80   272.82540   137.07127   218.54114
   226  H   1.0    0.13    1.16    1.46   268.12377   133.10663   223.18041
   227  H   1.0    0.06    1.09    1.44   268.49604   137.07505   220.23055
   228  H   1.0    0.06    1.09    1.44   269.52594   136.89553   222.98577
   229  N   5.0   -0.15    3.54    2.11   273.59074   134.07984   221.56092
   230  C   4.0    0.04    4.39    4.37   276.18723   133.52048   220.82015
   231  C   4.0    0.16    3.47    3.10   276.17967   132.76459   218.02902
   232  O   6.0   -0.27    1.21    1.80   277.71979   133.71701   216.52291
   233  C   4.0   -0.08    4.19    3.98   277.28138   131.39265   222.51523
   234  H   1.0    0.13    1.17    1.46   273.08619   133.22757   222.84782
   235  H   1.0    0.06    1.12    1.45   277.25870   134.99068   221.04313
   236  H   1.0    0.05    1.05    1.44   279.00670   131.03360   222.00878
   237  H   1.0    0.05    1.05    1.44   277.25870   131.93311   224.26701
   238  H   1.0    0.06    1.05    1.44   276.26471   129.87897   222.33004
   239  N   5.0   -0.16    3.54    2.10   274.41844   131.11863   217.32415
   240  C   4.0    0.04    4.51    4.56   274.16900   130.20212   214.74657
   241  C   4.0    0.17    3.48    3.11   273.60019   132.27515   212.85684
   242  O   6.0   -0.27    1.26    1.80   274.60364   132.21468   210.79137
   243  C   4.0   -0.05    4.48    4.51   272.22447   128.07051   214.61429
   244  C   4.0   -0.03    4.32    4.24   273.03516   125.63087   215.84828
   245  C   4.0   -0.09    4.23    4.06   270.71080   123.99626   216.33394
   246  C   4.0   -0.09    4.22    4.03   274.90032   124.18712   214.15697
   247  H   1.0    0.12    1.16    1.46   273.32051   130.49692   218.34838
   248  H   1.0    0.06    1.14    1.45   275.80361   129.53315   214.26091
   249  H   1.0    0.06    1.10    1.44   270.67301   128.64120   215.40608
   250  H   1.0    0.05    1.10    1.44   271.83708   127.73792   212.85306
   251  H   1.0    0.05    1.13    1.45   273.87231   126.02204   217.43187
   252  H   1.0    0.04    1.06    1.44   271.22292   122.42590   217.12762
   253  H   1.0    0.05    1.06    1.44   269.55429   124.89010   217.43943
   254  H   1.0    0.04    1.06    1.44   269.87554   123.63343   214.74279
   255  H   1.0    0.04    1.05    1.44   275.39543   122.62810   214.98467
   256  H   1.0    0.05    1.06    1.44   274.09908   123.79973   212.55449
   257  H   1.0    0.05    1.05    1.44   276.38565   125.22080   213.86218
   258  N   5.0   -0.15    3.49    2.07   272.02605   134.09306   213.61651
   259  C   4.0    0.05    4.38    4.35   271.42134   136.22845   211.95355
   260  C   4.0    0.11    3.30    3.05   273.87609   137.35473   211.01814
   261  O   6.0   -0.25    1.12    1.80   274.18790   137.84984   208.77314
   262  C   4.0   -0.03    4.35    4.29   269.86042   138.31471   213.32360
   263  C   4.0    0.17    3.27    3.05   267.01072   137.85173   213.24424
   264  O   6.0   -0.27    1.20    1.80   265.93924   137.37174   211.20900
   265  N   5.0   -0.23    3.22    1.96   265.74838   138.14464   215.38718
   266  H   1.0    0.13    1.14    1.45   271.29473   134.12897   215.06782
   267  H   1.0    0.07    1.12    1.45   270.39522   135.60484   210.56838
   268  H   1.0    0.07    1.10    1.44   270.40278   138.41676   215.07160
   269  H   1.0    0.06    1.09    1.44   270.22514   139.93799   212.55449
   270  H   1.0    0.13    1.09    1.44   264.12889   138.00291   215.40230
   271  H   1.0    0.11    1.09    1.44   266.54773   138.47534   216.76290
   272  N   5.0   -0.23    3.26    1.97   278.92733   127.32784   239.17883
   273  C   4.0    0.03    4.30    4.21   276.90721   128.13665   240.87581
   274  C   4.0    0.08    3.26    3.05   277.45901   126.91588   243.40804
   275  O   6.0   -0.28    1.13    1.80   277.21524   124.60664   243.69339
   276  C   4.0   -0.04    4.42    4.41   274.34852   127.32973   239.78544
   277  C   4.0   -0.01    3.60    3.17   272.18101   127.61319   241.58068
   278  C   4.0   -0.04    3.52    3.13   271.10764   129.97913   242.02665
   279  C   4.0   -0.04    3.51    3.12   271.14355   125.55339   242.82412
   280  C   4.0   -0.04    3.44    3.09   269.04595   130.27393   243.63670
   281  C   4.0   -0.04    3.44    3.09   269.08753   125.85197   244.46818
   282  C   4.0   -0.04    3.43    3.09   268.04062   128.23869   244.85935
   283  H   1.0    0.11    1.09    1.44   279.38275   125.78205   239.39048
   284  H   1.0    0.04    1.12    1.45   276.83162   129.95834   241.07234
   285  H   1.0    0.04    1.10    1.44   274.00648   128.32184   238.28310
   286  H   1.0    0.05    1.10    1.44   274.45624   125.57796   239.25820
   287  H   1.0    0.05    1.10    1.44   271.78417   131.39265   241.23108
   288  H   1.0    0.06    1.10    1.44   271.82007   123.95279   242.56333
   289  H   1.0    0.06    1.10    1.44   268.35053   131.86886   243.88047
   290  H   1.0    0.06    1.09    1.44   268.42045   124.45546   245.29966
   291  H   1.0    0.06    1.10    1.44   266.67057   128.44089   245.94216
   292  N   5.0   -0.24    3.28    1.98   280.57706   121.05018   232.52511
   293  C   4.0    0.02    4.51    4.55   278.51915   120.19791   230.90372
   294  C   4.0    0.15    3.44    3.09   279.12197   119.00927   228.36204
   295  O   6.0   -0.30    1.23    1.80   277.97869   117.14600   227.61560
   296  C   4.0   -0.02    4.41    4.40   276.55950   122.30306   230.54279
   297  C   4.0   -0.09    4.25    4.11   275.06851   122.59786   232.95597
   298  C   4.0   -0.08    4.28    4.15   277.92577   124.78427   229.95697
   299  H   1.0    0.10    1.10    1.44   280.36163   122.53928   233.13927
   300  H   1.0    0.05    1.15    1.45   277.87664   118.77683   231.86748
   301  H   1.0    0.05    1.13    1.45   275.43323   121.87976   229.15951
   302  H   1.0    0.05    1.06    1.44   273.82318   123.92634   232.74621
   303  H   1.0    0.04    1.06    1.44   274.22002   121.02183   233.34714
   304  H   1.0    0.04    1.06    1.44   276.20423   123.03628   234.32602
   305  H   1.0    0.05    1.05    1.44   276.69367   126.12220   229.72642
   306  H   1.0    0.04    1.07    1.44   279.03882   125.21324   231.34781
   307  H   1.0    0.04    1.06    1.44   278.91221   124.59341   228.42440
   308  N   5.0   -0.17    3.51    2.08   280.95690   120.10342   227.05813
   309  C   4.0    0.03    4.41    4.40   281.73546   119.20202   224.60905
   310  C   4.0    0.08    3.23    3.04   283.93132   117.36332   224.70542
   311  O   6.0   -0.28    1.13    1.80   284.68343   116.37310   222.74389
   312  C   4.0   -0.05    4.47    4.50   282.48568   121.46780   222.96310
   313  C   4.0   -0.03    4.27    4.13   280.37864   123.11565   221.83871
   314  C   4.0   -0.09    4.20    4.01   281.53704   125.24726   220.24000
   315  C   4.0   -0.09    4.21    4.03   278.73269   121.43946   220.10016
   316  H   1.0    0.09    1.14    1.45   281.78460   121.39977   227.58348
   317  H   1.0    0.06    1.14    1.45   280.30872   118.29306   223.90418
   318  H   1.0    0.04    1.10    1.44   283.56661   122.55440   223.96843
   319  H   1.0    0.06    1.10    1.44   283.50236   120.83664   221.57415
   320  H   1.0    0.04    1.11    1.45   279.37708   123.84319   223.18986
   321  H   1.0    0.05    1.05    1.44   280.19723   126.28094   219.53513
   322  H   1.0    0.05    1.05    1.44   282.61796   126.28472   221.29636
   323  H   1.0    0.05    1.06    1.44   282.52726   124.52160   218.87940
   324  H   1.0    0.04    1.05    1.44   277.38909   122.44857   219.37073
   325  H   1.0    0.05    1.05    1.44   279.77015   120.74404   218.75846
   326  H   1.0    0.05    1.05    1.44   278.00514   120.07130   221.07904
   327  N   5.0   -0.20    3.26    1.97   265.68413   106.34622   235.66394
   328  C   4.0    0.03    4.32    4.23   265.03028   107.34966   238.15460
   329  C   4.0    0.08    3.22    3.04   262.29585   106.84888   238.91994
   330  O   6.0   -0.31    1.18    1.80   260.59321   107.95626   237.81445
   331  C   4.0   -0.05    4.50    4.54   265.49705   110.15402   238.18862
   332  C   4.0   -0.03    4.30    4.20   268.19747   111.09132   238.65916
   333  C   4.0   -0.09    4.25    4.10   270.07396   109.82142   236.91683
   334  C   4.0   -0.10    4.22    4.03   268.28628   113.96559   238.27932
   335  H   1.0    0.11    1.09    1.44   265.87688   107.47627   234.51121
   336  H   1.0    0.04    1.13    1.45   266.09420   106.47661   239.36592
   337  H   1.0    0.05    1.11    1.44   264.94147   110.83243   236.57857
   338  H   1.0    0.04    1.11    1.44   264.41801   110.88534   239.47930
   339  H   1.0    0.04    1.12    1.45   268.66423   110.66613   240.38070
   340  H   1.0    0.04    1.06    1.44   271.75771   110.45637   237.26454
   341  H   1.0    0.04    1.06    1.44   270.03617   108.00918   237.19273
   342  H   1.0    0.04    1.06    1.44   269.63366   110.18236   235.17450
   343  H   1.0    0.04    1.05    1.44   269.99082   114.57030   238.57412
   344  H   1.0    0.04    1.06    1.44   267.78362   114.37188   236.56345
   345  H   1.0    0.04    1.05    1.44   267.13922   114.77440   239.45851
   346  N   5.0   -0.22    3.25    1.97   256.63045   107.85800   242.70317
   347  C   4.0    0.03    4.44    4.44   255.69882   109.90268   244.36802
   348  C   4.0    0.08    3.26    3.05   253.43304   108.85577   245.75697
   349  O   6.0   -0.29    1.13    1.80   251.58488   108.07343   244.58912
   350  C   4.0   -0.03    4.47    4.49   255.13946   112.32342   242.99608
   351  C   4.0   -0.06    4.33    4.25   257.49595   113.26450   241.56367
   352  C   4.0   -0.09    4.27    4.14   254.25129   114.32275   244.81967
   353  C   4.0   -0.09    4.16    3.93   259.88645   113.29474   243.16049
   354  H   1.0    0.12    1.07    1.44   255.82543   107.68225   241.30289
   355  H   1.0    0.04    1.15    1.45   257.01029   110.39212   245.55099
   356  H   1.0    0.05    1.13    1.45   253.80720   111.99272   241.78288
   357  H   1.0    0.05    1.09    1.44   257.76996   112.19492   240.10102
   358  H   1.0    0.04    1.09    1.44   257.17658   114.95770   240.93817
   359  H   1.0    0.04    1.06    1.44   253.89791   115.87233   243.90504
   360  H   1.0    0.04    1.06    1.44   252.72628   113.75016   245.66059
   361  H   1.0    0.04    1.06    1.44   255.55709   114.63456   246.06877
   362  H   1.0    0.04    1.05    1.44   261.29052   113.90323   242.14948
   363  H   1.0    0.04    1.06    1.44   259.64646   114.40212   244.60046
   364  H   1.0    0.04    1.06    1.44   260.24928   111.59777   243.75008
   365  N   5.0   -0.24    3.25    1.97   247.33678   109.24506   249.16604
   366  C   4.0    0.03    4.37    4.33   245.20328   110.96849   249.23407
   367  C   4.0    0.08    3.25    3.04   242.91293   109.86678   250.56632
   368  O   6.0   -0.28    1.13    1.80   241.31611   111.21415   251.47339
   369  C   4.0   -0.02    4.38    4.34   244.39070   111.79241   246.52987
   370  C   4.0   -0.09    4.22    4.04   246.59601   113.05285   245.12958
   371  C   4.0   -0.08    4.26    4.13   243.49308   109.50395   245.06911
   372  H   1.0    0.11    1.08    1.44   247.03820   107.82398   248.43471
   373  H   1.0    0.05    1.13    1.45   245.79099   112.41980   250.18649
   374  H   1.0    0.05    1.12    1.45   243.02821   113.00939   246.66971
   375  H   1.0    0.04    1.05    1.44   246.04988   113.55174   243.45150
   376  H   1.0    0.04    1.05    1.44   247.14403   114.53440   246.05933
   377  H   1.0    0.05    1.06    1.44   247.98874   111.86989   244.99163
   378  H   1.0    0.05    1.06    1.44   242.98663   110.01418   243.38347
   379  H   1.0    0.05    1.06    1.44   244.85368   108.27941   244.95384
   380  H   1.0    0.05    1.06    1.44   242.06445   108.74806   245.93271
   381  N   5.0   -0.21    3.29    1.98   258.42569   109.00884   233.04856
   382  C   4.0    0.03    4.37    4.32   259.51229   110.68314   231.13616
   383  C   4.0    0.08    3.23    3.04   261.74216   109.34521   229.89461
   384  O   6.0   -0.28    1.16    1.80   262.85899   107.71627   231.11159
   385  C   4.0   -0.03    4.45    4.46   260.37400   113.22482   232.36259
   386  C   4.0   -0.06    4.35    4.29   258.18192   114.50416   233.72131
   387  C   4.0   -0.10    4.28    4.16   261.50028   114.93124   230.40295
   388  C   4.0   -0.09    4.17    3.94   258.83009   117.04774   234.80601
   389  H   1.0    0.14    1.10    1.44   259.31953   108.89546   234.39972
   390  H   1.0    0.04    1.12    1.45   258.24995   111.07431   229.86626
   391  H   1.0    0.05    1.13    1.45   261.66468   112.86010   233.61359
   392  H   1.0    0.04    1.11    1.45   256.78541   114.69503   232.54968
   393  H   1.0    0.04    1.10    1.44   257.59988   113.41190   235.07246
   394  H   1.0    0.04    1.06    1.44   262.02751   116.50160   231.18907
   395  H   1.0    0.04    1.06    1.44   262.95348   114.11299   229.64139
   396  H   1.0    0.04    1.06    1.44   260.25117   115.28462   229.10848
   397  H   1.0    0.04    1.06    1.44   257.35611   117.75071   235.63938
   398  H   1.0    0.04    1.06    1.44   260.19070   116.86632   236.02110
   399  H   1.0    0.05    1.06    1.44   259.36300   118.17023   233.45863
   400  N   5.0   -0.21    3.30    1.98   268.90233   109.93859   226.50255
   401  C   4.0    0.03    4.36    4.31   271.07741   111.48060   226.03201
   402  C   4.0    0.08    3.22    3.04   272.83674   110.11433   224.21598
   403  O   6.0   -0.27    1.14    1.80   272.98603   107.78808   224.30858
   404  C   4.0   -0.05    4.49    4.52   272.40400   112.17791   228.49432
   405  C   4.0   -0.03    4.36    4.31   270.70513   113.60654   230.29712
   406  C   4.0   -0.09    4.22    4.04   272.04306   114.24716   232.78022
   407  C   4.0   -0.09    4.29    4.18   269.87554   115.98004   228.97620
   408  H   1.0    0.12    1.08    1.44   269.18957   108.62901   227.42285
   409  H   1.0    0.04    1.14    1.45   270.55017   113.05474   225.25533
   410  H   1.0    0.05    1.09    1.44   273.00304   110.65101   229.31069
   411  H   1.0    0.05    1.10    1.44   273.87987   113.19836   228.11827
   412  H   1.0    0.04    1.13    1.45   269.26894   112.55964   230.74310
   413  H   1.0    0.04    1.06    1.44   270.89221   115.15990   233.87815
   414  H   1.0    0.04    1.06    1.44   272.57596   112.69948   233.60603
   415  H   1.0    0.05    1.06    1.44   273.50949   115.29029   232.43251
   416  H   1.0    0.04    1.06    1.44   268.77950   116.94569   230.08358
   417  H   1.0    0.05    1.06    1.44   271.34575   116.98537   228.54535
   418  H   1.0    0.04    1.07    1.44   268.96658   115.54351   227.44553
   419  N   5.0   -0.24    3.21    1.96   263.68480   118.72392   212.87007
   420  C   4.0    0.02    4.29    4.18   262.50561   121.03506   213.86218
   421  C   4.0    0.08    3.28    3.05   259.68614   120.74026   214.28547
   422  O   6.0   -0.31    1.14    1.80   258.70726   121.44702   216.28858
   423  C   4.0   -0.06    4.37    4.33   262.76072   123.23281   212.03859
   424  C   4.0   -0.05    4.27    4.14   261.50028   125.75748   212.94377
   425  C   4.0   -0.01    4.33    4.25   261.22249   127.69634   210.82728
   426  N   5.0   -0.16    3.44    2.04   263.59598   128.67333   209.88241
   427  C   4.0    0.12    3.48    3.11   263.76984   130.39109   208.07017
   428  N   5.0   -0.23    3.32    1.99   261.68547   131.32462   207.03082
   429  N   5.0   -0.23    3.27    1.97   266.03940   131.17533   207.24058
   430  H   1.0    0.10    1.08    1.44   264.55785   118.97526   211.52269
   431  H   1.0    0.04    1.12    1.45   263.38244   121.34875   215.44010
   432  H   1.0    0.04    1.09    1.44   264.54274   123.54083   211.73812
   433  H   1.0    0.05    1.09    1.44   262.02184   122.75093   210.43232
   434  H   1.0    0.06    1.09    1.44   259.84677   125.38899   213.64297
   435  H   1.0    0.05    1.09    1.44   262.50372   126.48125   214.29492
   436  H   1.0    0.05    1.09    1.44   260.30219   126.92911   209.43833
   437  H   1.0    0.05    1.09    1.44   260.20581   129.09474   211.43577
   438  H   1.0    0.09    1.14    1.45   264.97170   128.10641   210.53437
   439  H   1.0    0.11    1.10    1.44   260.22660   130.81439   207.53537
   440  H   1.0    0.11    1.09    1.44   261.79318   132.43955   205.85352
   441  H   1.0    0.11    1.09    1.44   267.39811   130.56117   207.88686
   442  H   1.0    0.12    1.09    1.44   266.13200   132.29215   206.06328
   443  N   5.0   -0.22    3.28    1.98   258.03452   117.80174   220.59527
   444  C   4.0    0.03    4.40    4.38   258.38979   119.46470   222.76089
   445  C   4.0    0.16    3.46    3.10   256.14101   121.22592   222.92719
   446  O   6.0   -0.31    1.23    1.80   254.96938   121.47158   224.92841
   447  C   4.0   -0.05    4.46    4.47   260.82375   121.03128   222.44720
   448  C   4.0   -0.03    4.31    4.22   263.29930   119.48737   222.36594
   449  C   4.0   -0.09    4.23    4.06   265.52728   121.19946   221.85005
   450  C   4.0   -0.09    4.24    4.07   263.66401   118.06819   224.82826
   451  H   1.0    0.11    1.09    1.44   259.29497   117.76772   219.57104
   452  H   1.0    0.04    1.12    1.45   258.53341   118.46125   224.28779
   453  H   1.0    0.06    1.09    1.44   260.69336   122.00827   220.90140
   454  H   1.0    0.05    1.09    1.44   260.92958   122.22936   223.83048
   455  H   1.0    0.04    1.13    1.45   263.18591   118.26661   221.00345
   456  H   1.0    0.04    1.06    1.44   267.06552   120.20358   221.80469
   457  H   1.0    0.04    1.06    1.44   265.29485   122.03661   220.23622
   458  H   1.0    0.05    1.06    1.44   265.65200   122.45613   223.17852
   459  H   1.0    0.04    1.06    1.44   265.22304   117.10632   224.75456
   460  H   1.0    0.04    1.06    1.44   263.74905   119.26249   226.21531
   461  H   1.0    0.04    1.06    1.44   262.25428   116.92679   225.09093
   462  N   5.0   -0.15    3.53    2.10   255.52307   122.43156   220.81826
   463  C   4.0    0.05    4.33    4.26   253.39146   124.16633   220.59149
   464  C   4.0    0.09    3.24    3.04   250.92537   122.80195   221.35872
   465  O   6.0   -0.29    1.20    1.80   249.62902   123.62587   223.13884
   466  C   4.0   -0.07    4.24    4.09   253.23273   125.09419   217.91753
   467  H   1.0    0.12    1.16    1.46   256.35644   122.25960   219.43498
   468  H   1.0    0.08    1.12    1.45   253.62957   125.60064   221.70832
   469  H   1.0    0.06    1.06    1.44   251.81921   126.24881   217.75312
   470  H   1.0    0.07    1.06    1.44   254.78608   125.96346   217.47911
   471  H   1.0    0.05    1.06    1.44   252.99084   123.66934   216.78936
   472  N   5.0   -0.22    3.26    1.97   249.67437   118.05685   224.79424
   473  C   4.0    0.03    4.41    4.39   249.72539   117.73560   227.54001
   474  C   4.0    0.16    3.44    3.09   248.84289   120.15633   228.93274
   475  O   6.0   -0.32    1.31    1.80   247.58056   119.97114   230.83002
   476  C   4.0   -0.03    4.36    4.31   252.48061   117.03640   228.38850
   477  C   4.0   -0.08    4.23    4.06   252.68093   116.91923   231.25521
   478  C   4.0   -0.09    4.21    4.02   253.39524   114.60621   227.13183
   479  H   1.0    0.11    1.09    1.44   251.06521   117.63544   224.06859
   480  H   1.0    0.05    1.12    1.45   248.56510   116.38822   227.98221
   481  H   1.0    0.06    1.13    1.45   253.59933   118.37243   227.82158
   482  H   1.0    0.04    1.07    1.44   254.39680   116.48460   231.73142
   483  H   1.0    0.06    1.06    1.44   252.24440   118.55196   231.96575
   484  H   1.0    0.05    1.06    1.44   251.52819   115.64556   231.89772
   485  H   1.0    0.04    1.06    1.44   255.09789   114.23015   227.69497
   486  H   1.0    0.04    1.06    1.44   252.28219   113.22482   227.58914
   487  H   1.0    0.04    1.06    1.44   253.38768   114.81786   225.31202
   488  N   5.0   -0.16    3.52    2.09   249.38335   122.39188   227.90473
   489  C   4.0    0.04    4.39    4.37   248.57077   124.77671   229.07069
   490  C   4.0    0.10    3.26    3.05   245.69839   124.81451   229.32580
   491  O   6.0   -0.28    1.14    1.80   244.66093   125.39654   231.34781
   492  C   4.0   -0.04    4.39    4.37   249.41926   127.00659   227.51167
   493  C   4.0   -0.04    4.26    4.11   252.28786   127.54138   227.58348
   494  C   4.0    0.17    3.24    3.04   253.12312   129.72402   225.84682
   495  O   6.0   -0.27    1.20    1.80   251.62079   130.73124   224.35771
   496  N   5.0   -0.23    3.20    1.96   255.57599   130.48747   225.98288
   497  H   1.0    0.13    1.17    1.46   250.22239   122.57329   226.52523
   498  H   1.0    0.05    1.13    1.45   249.33800   124.89766   230.73176
   499  H   1.0    0.08    1.11    1.44   248.91848   126.72880   225.77123
   500  H   1.0    0.06    1.10    1.44   248.52920   128.49947   228.09370
   501  H   1.0    0.04    1.09    1.44   252.77730   127.93067   229.30691
   502  H   1.0    0.06    1.09    1.44   253.18926   126.02015   227.10160
   503  H   1.0    0.11    1.08    1.44   256.59455   129.76937   227.02601
   504  H   1.0    0.13    1.08    1.44   256.10700   131.68744   225.02479
   505  N   5.0   -0.23    3.31    1.98   243.26820   119.39666   233.70052
   506  C   4.0    0.03    4.44    4.45   243.80866   120.29051   236.21952
   507  C   4.0    0.15    3.46    3.10   241.71863   122.10086   237.06423
   508  O   6.0   -0.31    1.25    1.80   240.70195   121.82307   239.14104
   509  C   4.0   -0.04    4.44    4.45   246.32956   121.68512   236.24031
   510  C   4.0   -0.01    3.58    3.15   248.54243   120.09775   237.12659
   511  C   4.0   -0.04    3.53    3.13   250.97639   120.95191   236.75243
   512  C   4.0   -0.05    3.54    3.13   248.19850   117.81118   238.37948
   513  C   4.0   -0.04    3.46    3.10   253.02864   119.54784   237.60469
   514  C   4.0   -0.05    3.43    3.09   250.28475   116.39767   239.26576
   515  C   4.0   -0.05    3.44    3.09   252.68471   117.30285   238.86703
   516  H   1.0    0.14    1.12    1.45   244.40771   119.79729   232.61393
   517  H   1.0    0.05    1.14    1.45   243.89370   118.85998   237.36092
   518  H   1.0    0.07    1.11    1.44   246.68105   122.29928   234.54901
   519  H   1.0    0.05    1.10    1.44   246.18405   123.15533   237.32501
   520  H   1.0    0.05    1.11    1.45   251.24662   122.47881   235.92473
   521  H   1.0    0.05    1.10    1.44   246.56955   117.20269   238.63837
   522  H   1.0    0.05    1.10    1.44   254.65947   120.13744   237.31556
   523  H   1.0    0.05    1.09    1.44   250.03531   114.87455   240.10669
   524  H   1.0    0.05    1.10    1.44   254.07365   116.39956   239.44906
   525  N   5.0   -0.16    3.50    2.08   241.05155   123.85453   235.39560
   526  C   4.0    0.03    4.41    4.39   239.04844   125.71024   235.90961
   527  C   4.0    0.09    3.25    3.04   236.53322   124.34586   236.34047
   528  O   6.0   -0.29    1.13    1.80   235.06868   125.08852   237.95618
   529  C   4.0   -0.04    4.42    4.41   238.70640   127.43556   233.60603
   530  C   4.0    0.17    3.31    3.06   240.83612   129.28749   233.29045
   531  O   6.0   -0.26    1.22    1.80   241.85847   129.61630   231.22876
   532  N   5.0   -0.24    3.26    1.97   241.45028   130.63864   235.31245
   533  H   1.0    0.12    1.15    1.45   241.73941   124.01138   233.93106
   534  H   1.0    0.05    1.12    1.45   239.51143   126.66644   237.40249
   535  H   1.0    0.06    1.10    1.44   238.57223   126.40566   232.09614
   536  H   1.0    0.05    1.10    1.44   237.12848   128.35397   233.77044
   537  H   1.0    0.12    1.09    1.44   242.59546   131.78760   235.20663
   538  H   1.0    0.10    1.09    1.44   240.70384   130.36463   236.72975
   539  N   5.0   -0.22    3.21    1.96   236.36881   121.80418   242.50475
   540  C   4.0    0.04    4.31    4.22   235.97764   123.92634   244.23007
   541  C   4.0    0.09    3.20    3.04   233.11848   124.62554   244.37180
   542  O   6.0   -0.28    1.11    1.80   232.16606   125.01860   246.44294
   543  C   4.0   -0.02    4.40    4.38   237.51965   126.38298   243.49308
   544  C   4.0   -0.05    4.35    4.29   240.33724   125.90110   243.59890
   545  C   4.0   -0.08    4.26    4.12   236.89982   128.53916   245.31288
   546  C   4.0   -0.08    4.17    3.94   241.95295   128.06106   242.79010
   547  H   1.0    0.13    1.10    1.44   237.23809   122.17834   241.18383
   548  H   1.0    0.05    1.12    1.45   236.59747   123.35186   245.85713
   549  H   1.0    0.06    1.12    1.45   237.04155   126.83841   241.78288
   550  H   1.0    0.05    1.10    1.44   240.78888   125.44568   245.31666
   551  H   1.0    0.06    1.11    1.45   240.72274   124.45546   242.54066
   552  H   1.0    0.05    1.06    1.44   237.85414   130.03015   244.84234
   553  H   1.0    0.06    1.06    1.44   235.10647   128.91144   245.23163
   554  H   1.0    0.05    1.06    1.44   237.34391   128.04405   247.02120
   555  H   1.0    0.05    1.06    1.44   243.71796   127.58674   242.91860
   556  H   1.0    0.05    1.06    1.44   241.56367   128.49947   241.05344
   557  H   1.0    0.05    1.06    1.44   241.62981   129.50481   243.87102
   558  H   1.0    0.10    1.07    1.44   250.25692   119.35016   259.32233
   559  H   1.0    0.08    1.05    1.44   275.27794   137.70796   212.23515
   560  H   1.0    0.09    1.08    1.44   278.41089   127.48489   237.56601
   561  H   1.0    0.06    1.04    1.43   278.02511   127.97739   244.86537
   562  H   1.0    0.10    1.08    1.44   280.74220   119.98456   233.84031
   563  H   1.0    0.06    1.04    1.44   284.75727   116.96371   226.35745
   564  H   1.0    0.09    1.08    1.44   267.14906   105.48804   235.76431
   565  H   1.0    0.05    1.04    1.43   261.91229   105.62778   240.31021
   566  H   1.0    0.10    1.08    1.44   258.25372   108.15577   242.29222
   567  H   1.0    0.05    1.05    1.44   253.42790   108.79473   247.64570
   568  H   1.0    0.10    1.09    1.44   248.62522   109.96953   248.32484
   569  H   1.0    0.06    1.05    1.44   242.70983   107.99296   250.70275
   570  H   1.0    0.09    1.08    1.44   256.89193   109.58626   233.50325
   571  H   1.0    0.05    1.04    1.43   262.25835   109.80301   228.13534
   572  H   1.0    0.09    1.09    1.44   267.71846   110.85718   227.30703
   573  H   1.0    0.05    1.04    1.43   273.85546   111.09982   222.96615
   574  H   1.0    0.09    1.07    1.44   264.72976   118.07139   214.04260
   575  H   1.0    0.05    1.04    1.44   258.60425   119.97026   212.94098
   576  H   1.0    0.09    1.08    1.44   257.78775   116.20865   221.13724
   577  H   1.0    0.06    1.04    1.43   250.37083   121.25594   220.42416
   578  H   1.0    0.10    1.08    1.44   248.44104   117.09069   224.13242
   579  H   1.0    0.07    1.04    1.44   244.61239   124.36461   227.84619
   580  H   1.0    0.10    1.08    1.44   243.15042   117.70004   233.71322
   581  H   1.0    0.06    1.05    1.44   236.08505   122.83760   235.29387
   582  H   1.0    0.10    1.08    1.44   237.19770   120.55938   243.31467
   583  H   1.0    0.07    1.04    1.43   232.09564   124.74629   242.78742

  Z AO/shell   Hii/eV     exponent
  1     Wed Apr 25 08:07:45 CEST 2018   EN: 2.200 GM2: 0.406  GM3: 0.0800  RAES: 1.40
     1s    -10.707211    1.230000
  6     Wed Apr 25 08:07:45 CEST 2018   EN: 2.550 GM2: 0.538  GM3: 0.1500  RAES: 3.00
     2s    -13.970922    2.096432
     2p    -10.063292    1.800000
  7     Wed Apr 25 08:07:45 CEST 2018   EN: 3.040 GM2: 0.461  GM3:-0.0640  RAES: 1.90
     2s    -16.686243    2.339881
     2p    -12.523956    2.014332
  8     Wed Apr 25 08:07:45 CEST 2018   EN: 3.440 GM2: 0.452  GM3:-0.0517  RAES: 1.80
     2s    -20.229985    2.439742
     2p    -15.503117    2.137023
 no old-style atom pair restraining (fixing) potential

molecular fragmentation (1/2 indicates fragments):
111111111111111111111111111111111111111111111111111111111111111111111111
111111111111111111111111111111111111111111111111111111111111111111111111
111111111111111111111111111111111111111111111111111111111111111111111111
111111111111111111111111111111111111111111111111111111122222222222222222
222222222222222222222222222222222222222222222222222222222222222222222222
222222222222222222222222222222222222222222222222222222222222222222222222
222222222222222222222222222222222222222222222222222222222222222222222222
222222222222222222222222222222222222222222222222222221122222222222222222
2222222
# atoms in fragment 1/2:   273   310
 fragment masses (1/2) :     1986.10     1878.56
CMA distance (Bohr)    :   9.838
constraining FC (au)   :  0.0500
           ------------------------------------------------- 
          |        Self-Consistent Charge Iterations        |
           ------------------------------------------------- 

 Ncao       : 1396
 Nao        : 1396
 Nshell     : 854
 Nel        : 1544
 T(el)      :   500.0
 intcut     :    35.0
 scfconv/Eh :  0.100E-06
   qconv/e  :  0.100E-04
 intneglect :  0.100E-08
 broydamp   :      0.400
 iter      E             dE          RMSdq      gap      omega  full diag
   1   -886.3223779 -0.886322E+03  0.457E+00    2.99       0.0  T
   2   -888.4440256 -0.212165E+01  0.213E+00    1.72       1.0  T
   3   -888.5647673 -0.120742E+00  0.126E+00    2.05       1.0  T
   4   -888.7075252 -0.142758E+00  0.229E-01    1.22       1.0  T
   5   -888.7163985 -0.887330E-02  0.108E-01    1.32       1.0  T
   6   -888.7174448 -0.104625E-02  0.480E-02    1.31       1.0  T
   7   -888.7177411 -0.296299E-03  0.183E-02    1.34       1.0  T
   8   -888.7177710 -0.299646E-04  0.929E-03    1.35       1.0  T
   9   -888.7177821 -0.110976E-04  0.418E-03    1.35       1.0  T
  10   -888.7177845 -0.239783E-05  0.184E-03    1.35       2.3  T
  11   -888.7177850 -0.460266E-06  0.851E-04    1.35       4.9  T
  12   -888.7177851 -0.897978E-07  0.439E-04    1.35       9.4  T
  13   -888.7177851 -0.276259E-07  0.190E-04    1.35      21.8  T
  14   -888.7177851 -0.479042E-08  0.883E-05    1.35      46.9  T
  15   -888.7177851 -0.894488E-09  0.339E-05    1.35     122.0  T
speedup  1.00
cpu  time for SCC   14.58 s
wall time for SCC   14.58 s

   *** convergence criteria satisfied after 15 iterations ***

          eigenvalues
 #    :         760        761        762        763        764        765        766        767
 occ. :        2.000      2.000      2.000      2.000      2.000      2.000      2.000      2.000
 eps  :       -10.174    -10.110     -9.974     -9.958     -9.881     -9.876     -9.866     -9.775
 #    :         768        769        770        771        772        773        774        775
 occ. :        2.000      2.000      2.000      2.000      2.000      0.000      0.000      0.000
 eps  :        -9.755     -9.736     -9.646     -9.612     -9.399     -8.045     -7.958     -7.924
 #    :         776        777        778        779        780        781        782        783
 occ. :        0.000      0.000      0.000      0.000      0.000      0.000      0.000      0.000
 eps  :        -7.893     -7.884     -7.871     -7.840     -7.818     -7.699     -7.664     -7.610


   #   Z            q   n(s)   n(p)   n(d)      C6AA      α(0)
   1   7 N     -0.425  1.283  4.143  0.000    31.086     8.281
   2   6 C      0.010  1.040  2.949  0.000    20.417     6.436
   3   6 C      0.260  1.052  2.688  0.000    22.618     7.788
   4   8 O     -0.504  1.749  4.755  0.000    23.880     6.552
   5   6 C     -0.156  0.982  3.174  0.000    23.562     6.918
   6   1 H      0.198  0.802  0.000  0.000     1.118     1.656
   7   1 H      0.064  0.936  0.000  0.000     2.154     2.295
   8   1 H      0.059  0.941  0.000  0.000     2.214     2.327
   9   1 H      0.080  0.920  0.000  0.000     1.976     2.198
  10   1 H      0.070  0.930  0.000  0.000     2.089     2.260
  11   7 N     -0.189  1.210  3.979  0.000    25.105     7.442
  12   6 C     -0.003  1.048  2.954  0.000    20.630     6.467
  13   6 C      0.275  1.042  2.683  0.000    22.348     7.741
  14   8 O     -0.487  1.754  4.733  0.000    23.506     6.500
  15   6 C      0.053  0.994  2.953  0.000    19.864     6.378
  16   8 O     -0.504  1.685  4.819  0.000    22.968     6.470
  17   1 H      0.236  0.764  0.000  0.000     0.938     1.517
  18   1 H      0.110  0.890  0.000  0.000     1.700     2.039
  19   1 H      0.078  0.922  0.000  0.000     2.002     2.212
  20   1 H      0.071  0.929  0.000  0.000     2.075     2.252
  21   1 H      0.359  0.641  0.000  0.000     0.566     1.181
  22   7 N     -0.197  1.206  3.991  0.000    25.287     7.468
  23   6 C      0.005  1.043  2.952  0.000    20.500     6.446
  24   6 C      0.284  1.034  2.682  0.000    22.193     7.715
  25   8 O     -0.504  1.759  4.746  0.000    23.879     6.552
  26   6 C     -0.105  1.008  3.097  0.000    22.485     6.748
  27   6 C     -0.112  1.003  3.108  0.000    22.620     6.769
  28   6 C     -0.045  1.008  3.037  0.000    21.443     6.604
  29   7 N     -0.156  1.181  3.974  0.000    24.367     7.331
  30   6 C      0.223  1.020  2.757  0.000    23.306     7.904
  31   7 N     -0.245  1.166  4.079  0.000    26.397     7.631
  32   7 N     -0.273  1.177  4.096  0.000    27.052     7.725
  33   1 H      0.236  0.764  0.000  0.000     0.937     1.517
  34   1 H      0.088  0.912  0.000  0.000     1.897     2.153
  35   1 H      0.083  0.917  0.000  0.000     1.953     2.185
  36   1 H      0.080  0.920  0.000  0.000     1.981     2.201
  37   1 H      0.093  0.907  0.000  0.000     1.848     2.126
  38   1 H      0.092  0.908  0.000  0.000     1.856     2.130
  39   1 H      0.106  0.894  0.000  0.000     1.734     2.059
  40   1 H      0.095  0.905  0.000  0.000     1.830     2.115
  41   1 H      0.243  0.757  0.000  0.000     0.910     1.495
  42   1 H      0.249  0.751  0.000  0.000     0.885     1.474
  43   1 H      0.262  0.738  0.000  0.000     0.839     1.435
  44   1 H      0.254  0.746  0.000  0.000     0.868     1.460
  45   1 H      0.257  0.743  0.000  0.000     0.856     1.449
  46   7 N     -0.184  1.206  3.978  0.000    24.981     7.423
  47   6 C      0.023  1.031  2.945  0.000    20.183     6.396
  48   6 C      0.274  1.042  2.684  0.000    22.369     7.745
  49   8 O     -0.512  1.756  4.756  0.000    24.061     6.577
  50   6 C     -0.138  1.019  3.119  0.000    23.144     6.846
  51   6 C      0.285  1.029  2.686  0.000    22.168     7.709
  52   8 O     -0.484  1.753  4.731  0.000    23.436     6.491
  53   7 N     -0.302  1.196  4.106  0.000    27.779     7.828
  54   1 H      0.224  0.776  0.000  0.000     0.990     1.558
  55   1 H      0.109  0.891  0.000  0.000     1.703     2.041
  56   1 H      0.103  0.897  0.000  0.000     1.754     2.071
  57   1 H      0.096  0.904  0.000  0.000     1.820     2.110
  58   1 H      0.252  0.748  0.000  0.000     0.876     1.466
  59   1 H      0.242  0.758  0.000  0.000     0.915     1.498
  60   7 N     -0.202  1.221  3.981  0.000    25.386     7.483
  61   6 C      0.010  1.044  2.945  0.000    20.409     6.433
  62   6 C      0.274  1.042  2.684  0.000    22.367     7.745
  63   8 O     -0.499  1.739  4.759  0.000    23.751     6.534
  64   6 C     -0.161  0.984  3.177  0.000    23.670     6.934
  65   1 H      0.249  0.751  0.000  0.000     0.886     1.474
  66   1 H      0.091  0.909  0.000  0.000     1.866     2.136
  67   1 H      0.082  0.918  0.000  0.000     1.958     2.188
  68   1 H      0.094  0.906  0.000  0.000     1.843     2.123
  69   1 H      0.081  0.919  0.000  0.000     1.965     2.192
  70   7 N     -0.191  1.209  3.982  0.000    25.141     7.447
  71   6 C      0.031  1.029  2.940  0.000    20.047     6.374
  72   6 C      0.275  1.042  2.682  0.000    22.346     7.741
  73   8 O     -0.513  1.741  4.771  0.000    24.072     6.578
  74   6 C     -0.126  1.011  3.115  0.000    22.889     6.807
  75   6 C      0.291  1.030  2.679  0.000    22.067     7.692
  76   8 O     -0.490  1.749  4.741  0.000    23.559     6.508
  77   7 N     -0.293  1.193  4.100  0.000    27.559     7.797
  78   1 H      0.231  0.769  0.000  0.000     0.959     1.534
  79   1 H      0.101  0.899  0.000  0.000     1.776     2.084
  80   1 H      0.100  0.900  0.000  0.000     1.786     2.090
  81   1 H      0.087  0.913  0.000  0.000     1.904     2.158
  82   1 H      0.251  0.749  0.000  0.000     0.879     1.468
  83   1 H      0.226  0.774  0.000  0.000     0.981     1.551
  84   7 N     -0.197  1.219  3.978  0.000    25.279     7.467
  85   6 C      0.042  1.028  2.930  0.000    19.862     6.345
  86   6 C      0.276  1.046  2.678  0.000    22.330     7.739
  87   8 O     -0.500  1.738  4.762  0.000    23.794     6.540
  88   6 C     -0.116  1.017  3.099  0.000    22.697     6.780
  89   6 C      0.377  1.018  2.605  0.000    20.613     7.430
  90   8 O     -0.665  1.777  4.888  0.000    27.759     7.064
  91   8 O     -0.616  1.757  4.859  0.000    26.515     6.904
  92   1 H      0.238  0.762  0.000  0.000     0.931     1.511
  93   1 H      0.066  0.934  0.000  0.000     2.135     2.285
  94   1 H      0.066  0.934  0.000  0.000     2.131     2.283
  95   1 H      0.047  0.953  0.000  0.000     2.356     2.400
  96   7 N     -0.191  1.210  3.981  0.000    25.144     7.447
  97   6 C     -0.036  1.002  3.033  0.000    21.258     6.573
  98   6 C      0.280  1.032  2.687  0.000    22.254     7.725
  99   8 O     -0.495  1.734  4.761  0.000    23.672     6.523
 100   1 H      0.226  0.774  0.000  0.000     0.980     1.551
 101   1 H      0.100  0.900  0.000  0.000     1.781     2.087
 102   1 H      0.101  0.899  0.000  0.000     1.771     2.081
 103   7 N     -0.201  1.220  3.981  0.000    25.364     7.480
 104   6 C      0.013  1.044  2.943  0.000    20.363     6.425
 105   6 C      0.285  1.042  2.673  0.000    22.181     7.712
 106   8 O     -0.501  1.728  4.773  0.000    23.795     6.540
 107   6 C     -0.037  1.042  2.995  0.000    21.199     6.548
 108   6 C     -0.092  1.006  3.086  0.000    22.227     6.709
 109   6 C     -0.153  0.978  3.175  0.000    23.491     6.906
 110   6 C     -0.147  0.974  3.173  0.000    23.383     6.892
 111   1 H      0.235  0.765  0.000  0.000     0.942     1.521
 112   1 H      0.080  0.920  0.000  0.000     1.974     2.197
 113   1 H      0.064  0.936  0.000  0.000     2.152     2.294
 114   1 H      0.053  0.947  0.000  0.000     2.283     2.362
 115   1 H      0.061  0.939  0.000  0.000     2.186     2.312
 116   1 H      0.080  0.920  0.000  0.000     1.982     2.201
 117   1 H      0.048  0.952  0.000  0.000     2.340     2.392
 118   1 H      0.056  0.944  0.000  0.000     2.246     2.344
 119   1 H      0.058  0.942  0.000  0.000     2.225     2.332
 120   1 H      0.053  0.947  0.000  0.000     2.285     2.364
 121   1 H      0.064  0.936  0.000  0.000     2.150     2.293
 122   7 N     -0.200  1.218  3.982  0.000    25.336     7.476
 123   6 C      0.014  1.041  2.945  0.000    20.350     6.423
 124   6 C      0.280  1.043  2.677  0.000    22.256     7.725
 125   8 O     -0.494  1.727  4.766  0.000    23.645     6.520
 126   6 C      0.064  0.991  2.945  0.000    19.685     6.350
 127   8 O     -0.490  1.672  4.818  0.000    22.671     6.428
 128   1 H      0.228  0.772  0.000  0.000     0.975     1.546
 129   1 H      0.109  0.891  0.000  0.000     1.707     2.043
 130   1 H      0.054  0.946  0.000  0.000     2.269     2.355
 131   1 H      0.051  0.949  0.000  0.000     2.305     2.374
 132   1 H      0.347  0.653  0.000  0.000     0.595     1.211
 133   7 N     -0.194  1.214  3.980  0.000    25.215     7.458
 134   6 C      0.007  1.045  2.948  0.000    20.459     6.440
 135   6 C      0.281  1.045  2.674  0.000    22.245     7.723
 136   8 O     -0.520  1.727  4.793  0.000    24.228     6.599
 137   6 C     -0.040  1.043  2.996  0.000    21.240     6.554
 138   6 C     -0.095  1.005  3.090  0.000    22.299     6.721
 139   6 C     -0.157  0.977  3.180  0.000    23.565     6.917
 140   6 C     -0.146  0.974  3.172  0.000    23.351     6.887
 141   1 H      0.229  0.771  0.000  0.000     0.970     1.542
 142   1 H      0.103  0.897  0.000  0.000     1.761     2.075
 143   1 H      0.071  0.929  0.000  0.000     2.075     2.252
 144   1 H      0.054  0.946  0.000  0.000     2.274     2.358
 145   1 H      0.056  0.944  0.000  0.000     2.248     2.344
 146   1 H      0.081  0.919  0.000  0.000     1.972     2.196
 147   1 H      0.053  0.947  0.000  0.000     2.287     2.365
 148   1 H      0.069  0.931  0.000  0.000     2.094     2.263
 149   1 H      0.052  0.948  0.000  0.000     2.289     2.366
 150   1 H      0.045  0.955  0.000  0.000     2.385     2.415
 151   1 H      0.070  0.930  0.000  0.000     2.080     2.255
 152   7 N     -0.191  1.219  3.972  0.000    25.146     7.448
 153   6 C      0.026  1.035  2.939  0.000    20.130     6.388
 154   6 C      0.273  1.041  2.686  0.000    22.390     7.749
 155   8 O     -0.490  1.741  4.750  0.000    23.575     6.510
 156   6 C     -0.157  0.979  3.178  0.000    23.580     6.919
 157   1 H      0.227  0.773  0.000  0.000     0.976     1.547
 158   1 H      0.090  0.910  0.000  0.000     1.879     2.143
 159   1 H      0.084  0.916  0.000  0.000     1.938     2.177
 160   1 H      0.087  0.913  0.000  0.000     1.909     2.161
 161   1 H      0.068  0.932  0.000  0.000     2.106     2.269
 162   7 N     -0.200  1.213  3.987  0.000    25.349     7.478
 163   6 C      0.017  1.038  2.945  0.000    20.284     6.412
 164   6 C      0.264  1.046  2.690  0.000    22.542     7.775
 165   8 O     -0.494  1.747  4.747  0.000    23.647     6.520
 166   6 C     -0.092  1.011  3.081  0.000    22.231     6.710
 167   6 C     -0.129  1.014  3.115  0.000    22.957     6.819
 168   6 C      0.281  1.038  2.681  0.000    22.245     7.723
 169   8 O     -0.515  1.767  4.748  0.000    24.124     6.585
 170   7 N     -0.297  1.200  4.096  0.000    27.646     7.809
 171   1 H      0.230  0.770  0.000  0.000     0.963     1.537
 172   1 H      0.089  0.911  0.000  0.000     1.884     2.146
 173   1 H      0.078  0.922  0.000  0.000     1.995     2.208
 174   1 H      0.089  0.911  0.000  0.000     1.886     2.148
 175   1 H      0.076  0.924  0.000  0.000     2.022     2.223
 176   1 H      0.094  0.906  0.000  0.000     1.838     2.120
 177   1 H      0.244  0.756  0.000  0.000     0.905     1.490
 178   1 H      0.249  0.751  0.000  0.000     0.888     1.476
 179   7 N     -0.201  1.216  3.985  0.000    25.363     7.480
 180   6 C     -0.004  1.046  2.958  0.000    20.651     6.470
 181   6 C      0.265  1.043  2.692  0.000    22.530     7.773
 182   8 O     -0.482  1.739  4.742  0.000    23.379     6.483
 183   6 C      0.096  1.030  2.874  0.000    19.073     6.233
 184   8 O     -0.488  1.671  4.818  0.000    22.639     6.423
 185   6 C     -0.171  0.986  3.185  0.000    23.872     6.964
 186   1 H      0.234  0.766  0.000  0.000     0.946     1.523
 187   1 H      0.104  0.896  0.000  0.000     1.745     2.066
 188   1 H      0.074  0.926  0.000  0.000     2.043     2.235
 189   1 H      0.320  0.680  0.000  0.000     0.664     1.280
 190   1 H      0.085  0.915  0.000  0.000     1.927     2.170
 191   1 H      0.078  0.922  0.000  0.000     1.996     2.209
 192   1 H      0.074  0.926  0.000  0.000     2.047     2.237
 193   7 N     -0.201  1.216  3.985  0.000    25.374     7.481
 194   6 C     -0.004  1.052  2.952  0.000    20.655     6.472
 195   6 C      0.261  1.048  2.690  0.000    22.599     7.784
 196   8 O     -0.473  1.735  4.738  0.000    23.197     6.457
 197   6 C      0.099  1.028  2.873  0.000    19.050     6.232
 198   8 O     -0.467  1.672  4.795  0.000    22.188     6.359
 199   6 C     -0.163  0.980  3.183  0.000    23.708     6.939
 200   1 H      0.225  0.775  0.000  0.000     0.985     1.554
 201   1 H      0.109  0.891  0.000  0.000     1.704     2.041
 202   1 H      0.047  0.953  0.000  0.000     2.362     2.403
 203   1 H      0.313  0.687  0.000  0.000     0.684     1.298
 204   1 H      0.093  0.907  0.000  0.000     1.854     2.129
 205   1 H      0.074  0.926  0.000  0.000     2.041     2.234
 206   1 H      0.086  0.914  0.000  0.000     1.919     2.166
 207   7 N     -0.201  1.220  3.981  0.000    25.373     7.481
 208   6 C      0.017  1.044  2.940  0.000    20.295     6.414
 209   6 C      0.263  1.043  2.694  0.000    22.567     7.780
 210   8 O     -0.493  1.744  4.749  0.000    23.630     6.517
 211   6 C     -0.072  1.001  3.071  0.000    21.847     6.651
 212   6 C     -0.113  1.009  3.104  0.000    22.635     6.771
 213   6 C      0.371  1.014  2.615  0.000    20.705     7.447
 214   8 O     -0.661  1.769  4.892  0.000    27.674     7.053
 215   8 O     -0.647  1.768  4.879  0.000    27.296     7.005
 216   1 H      0.217  0.783  0.000  0.000     1.024     1.585
 217   1 H      0.099  0.901  0.000  0.000     1.797     2.096
 218   1 H      0.053  0.947  0.000  0.000     2.277     2.359
 219   1 H      0.067  0.933  0.000  0.000     2.122     2.278
 220   1 H      0.049  0.951  0.000  0.000     2.326     2.385
 221   1 H      0.052  0.948  0.000  0.000     2.291     2.367
 222   7 N     -0.173  1.202  3.972  0.000    24.745     7.388
 223   6 C     -0.042  1.004  3.038  0.000    21.376     6.591
 224   6 C      0.267  1.040  2.694  0.000    22.496     7.767
 225   8 O     -0.503  1.754  4.749  0.000    23.859     6.549
 226   1 H      0.213  0.787  0.000  0.000     1.043     1.600
 227   1 H      0.099  0.901  0.000  0.000     1.791     2.093
 228   1 H      0.106  0.894  0.000  0.000     1.727     2.055
 229   7 N     -0.188  1.215  3.973  0.000    25.084     7.439
 230   6 C      0.010  1.043  2.947  0.000    20.417     6.434
 231   6 C      0.273  1.044  2.683  0.000    22.381     7.747
 232   8 O     -0.516  1.765  4.751  0.000    24.151     6.589
 233   6 C     -0.167  0.985  3.181  0.000    23.782     6.951
 234   1 H      0.236  0.764  0.000  0.000     0.939     1.517
 235   1 H      0.093  0.907  0.000  0.000     1.850     2.127
 236   1 H      0.088  0.912  0.000  0.000     1.898     2.154
 237   1 H      0.087  0.913  0.000  0.000     1.912     2.162
 238   1 H      0.083  0.917  0.000  0.000     1.953     2.185
 239   7 N     -0.188  1.209  3.979  0.000    25.077     7.437
 240   6 C      0.008  1.038  2.954  0.000    20.438     6.436
 241   6 C      0.279  1.036  2.685  0.000    22.281     7.730
 242   8 O     -0.485  1.745  4.740  0.000    23.452     6.493
 243   6 C     -0.103  1.012  3.091  0.000    22.445     6.741
 244   6 C     -0.032  1.033  3.000  0.000    21.112     6.535
 245   6 C     -0.155  0.979  3.176  0.000    23.520     6.910
 246   6 C     -0.161  0.982  3.179  0.000    23.651     6.930
 247   1 H      0.228  0.772  0.000  0.000     0.972     1.544
 248   1 H      0.097  0.903  0.000  0.000     1.808     2.102
 249   1 H      0.069  0.931  0.000  0.000     2.096     2.264
 250   1 H      0.082  0.918  0.000  0.000     1.960     2.189
 251   1 H      0.055  0.945  0.000  0.000     2.258     2.350
 252   1 H      0.065  0.935  0.000  0.000     2.137     2.286
 253   1 H      0.041  0.959  0.000  0.000     2.435     2.440
 254   1 H      0.066  0.934  0.000  0.000     2.128     2.281
 255   1 H      0.065  0.935  0.000  0.000     2.145     2.290
 256   1 H      0.064  0.936  0.000  0.000     2.155     2.296
 257   1 H      0.050  0.950  0.000  0.000     2.323     2.383
 258   7 N     -0.186  1.210  3.977  0.000    25.039     7.432
 259   6 C      0.026  1.039  2.935  0.000    20.148     6.392
 260   6 C      0.213  1.079  2.708  0.000    23.499     7.939
 261   8 O     -0.361  1.751  4.609  0.000    20.913     6.131
 262   6 C     -0.127  1.021  3.106  0.000    22.919     6.814
 263   6 C      0.283  1.038  2.679  0.000    22.207     7.716
 264   8 O     -0.488  1.747  4.740  0.000    23.512     6.501
 265   7 N     -0.283  1.192  4.091  0.000    27.299     7.760
 266   1 H      0.220  0.780  0.000  0.000     1.011     1.575
 267   1 H      0.119  0.881  0.000  0.000     1.622     1.991
 268   1 H      0.098  0.902  0.000  0.000     1.802     2.099
 269   1 H      0.108  0.892  0.000  0.000     1.717     2.049
 270   1 H      0.248  0.752  0.000  0.000     0.893     1.480
 271   1 H      0.218  0.782  0.000  0.000     1.016     1.579
 272   7 N     -0.402  1.285  4.117  0.000    30.416     8.191
 273   6 C      0.031  1.032  2.938  0.000    20.070     6.380
 274   6 C      0.201  1.090  2.709  0.000    23.727     7.978
 275   8 O     -0.373  1.762  4.611  0.000    21.144     6.165
 276   6 C     -0.096  1.009  3.087  0.000    22.312     6.722
 277   6 C     -0.003  1.086  2.918  0.000    28.109     8.696
 278   6 C     -0.066  1.059  3.007  0.000    29.653     8.931
 279   6 C     -0.059  1.059  3.000  0.000    29.478     8.904
 280   6 C     -0.054  1.053  3.001  0.000    29.342     8.883
 281   6 C     -0.054  1.058  2.996  0.000    29.341     8.883
 282   6 C     -0.053  1.051  3.002  0.000    29.319     8.879
 283   1 H      0.186  0.814  0.000  0.000     1.180     1.702
 284   1 H      0.075  0.925  0.000  0.000     2.033     2.229
 285   1 H      0.075  0.925  0.000  0.000     2.030     2.228
 286   1 H      0.073  0.927  0.000  0.000     2.049     2.238
 287   1 H      0.066  0.934  0.000  0.000     2.131     2.283
 288   1 H      0.067  0.933  0.000  0.000     2.113     2.273
 289   1 H      0.053  0.947  0.000  0.000     2.279     2.360
 290   1 H      0.044  0.956  0.000  0.000     2.391     2.418
 291   1 H      0.032  0.968  0.000  0.000     2.551     2.498
 292   7 N     -0.425  1.277  4.148  0.000    31.072     8.279
 293   6 C      0.011  1.034  2.955  0.000    20.398     6.430
 294   6 C      0.266  1.045  2.689  0.000    22.520     7.771
 295   8 O     -0.512  1.753  4.760  0.000    24.056     6.576
 296   6 C     -0.031  1.037  2.994  0.000    21.080     6.529
 297   6 C     -0.149  0.976  3.173  0.000    23.393     6.891
 298   6 C     -0.157  0.979  3.179  0.000    23.575     6.918
 299   1 H      0.188  0.812  0.000  0.000     1.170     1.695
 300   1 H      0.057  0.943  0.000  0.000     2.235     2.338
 301   1 H      0.061  0.939  0.000  0.000     2.181     2.309
 302   1 H      0.060  0.940  0.000  0.000     2.201     2.320
 303   1 H      0.054  0.946  0.000  0.000     2.264     2.353
 304   1 H      0.051  0.949  0.000  0.000     2.302     2.372
 305   1 H      0.058  0.942  0.000  0.000     2.217     2.328
 306   1 H      0.061  0.939  0.000  0.000     2.189     2.314
 307   1 H      0.057  0.943  0.000  0.000     2.230     2.335
 308   7 N     -0.187  1.207  3.980  0.000    25.057     7.435
 309   6 C      0.014  1.035  2.951  0.000    20.340     6.421
 310   6 C      0.198  1.086  2.716  0.000    23.783     7.987
 311   8 O     -0.374  1.760  4.614  0.000    21.173     6.169
 312   6 C     -0.099  1.016  3.084  0.000    22.377     6.731
 313   6 C     -0.031  1.040  2.991  0.000    21.091     6.532
 314   6 C     -0.155  0.981  3.174  0.000    23.539     6.914
 315   6 C     -0.160  0.982  3.178  0.000    23.627     6.927
 316   1 H      0.224  0.776  0.000  0.000     0.993     1.561
 317   1 H      0.119  0.881  0.000  0.000     1.624     1.993
 318   1 H      0.070  0.930  0.000  0.000     2.081     2.256
 319   1 H      0.082  0.918  0.000  0.000     1.953     2.185
 320   1 H      0.054  0.946  0.000  0.000     2.266     2.354
 321   1 H      0.059  0.941  0.000  0.000     2.207     2.323
 322   1 H      0.055  0.945  0.000  0.000     2.263     2.352
 323   1 H      0.060  0.940  0.000  0.000     2.195     2.316
 324   1 H      0.062  0.938  0.000  0.000     2.175     2.306
 325   1 H      0.061  0.939  0.000  0.000     2.186     2.312
 326   1 H      0.051  0.949  0.000  0.000     2.301     2.372
 327   7 N     -0.403  1.281  4.122  0.000    30.460     8.197
 328   6 C      0.031  1.026  2.943  0.000    20.060     6.379
 329   6 C      0.194  1.093  2.713  0.000    23.859     8.000
 330   8 O     -0.360  1.749  4.612  0.000    20.903     6.130
 331   6 C     -0.089  1.008  3.081  0.000    22.165     6.699
 332   6 C     -0.029  1.035  2.994  0.000    21.053     6.526
 333   6 C     -0.146  0.975  3.171  0.000    23.349     6.885
 334   6 C     -0.152  0.980  3.173  0.000    23.474     6.904
 335   1 H      0.185  0.815  0.000  0.000     1.185     1.705
 336   1 H      0.056  0.944  0.000  0.000     2.250     2.345
 337   1 H      0.063  0.937  0.000  0.000     2.160     2.298
 338   1 H      0.049  0.951  0.000  0.000     2.334     2.389
 339   1 H      0.048  0.952  0.000  0.000     2.345     2.395
 340   1 H      0.052  0.948  0.000  0.000     2.300     2.371
 341   1 H      0.048  0.952  0.000  0.000     2.345     2.395
 342   1 H      0.055  0.945  0.000  0.000     2.260     2.351
 343   1 H      0.059  0.941  0.000  0.000     2.215     2.327
 344   1 H      0.055  0.945  0.000  0.000     2.256     2.349
 345   1 H      0.048  0.952  0.000  0.000     2.348     2.396
 346   7 N     -0.405  1.284  4.120  0.000    30.503     8.203
 347   6 C      0.019  1.031  2.950  0.000    20.253     6.408
 348   6 C      0.198  1.088  2.714  0.000    23.782     7.987
 349   8 O     -0.370  1.757  4.613  0.000    21.094     6.158
 350   6 C     -0.034  1.035  3.000  0.000    21.148     6.540
 351   6 C     -0.084  1.004  3.080  0.000    22.092     6.690
 352   6 C     -0.151  0.975  3.176  0.000    23.444     6.899
 353   6 C     -0.146  0.972  3.174  0.000    23.365     6.889
 354   1 H      0.184  0.816  0.000  0.000     1.193     1.711
 355   1 H      0.074  0.926  0.000  0.000     2.038     2.232
 356   1 H      0.057  0.943  0.000  0.000     2.238     2.339
 357   1 H      0.052  0.948  0.000  0.000     2.293     2.368
 358   1 H      0.048  0.952  0.000  0.000     2.347     2.396
 359   1 H      0.055  0.945  0.000  0.000     2.253     2.347
 360   1 H      0.053  0.947  0.000  0.000     2.280     2.361
 361   1 H      0.054  0.946  0.000  0.000     2.266     2.354
 362   1 H      0.047  0.953  0.000  0.000     2.351     2.398
 363   1 H      0.052  0.948  0.000  0.000     2.290     2.366
 364   1 H      0.052  0.948  0.000  0.000     2.291     2.367
 365   7 N     -0.411  1.282  4.129  0.000    30.668     8.225
 366   6 C      0.017  1.039  2.944  0.000    20.298     6.416
 367   6 C      0.205  1.081  2.714  0.000    23.645     7.964
 368   8 O     -0.382  1.749  4.632  0.000    21.316     6.190
 369   6 C     -0.030  1.042  2.988  0.000    21.064     6.527
 370   6 C     -0.147  0.977  3.170  0.000    23.377     6.890
 371   6 C     -0.147  0.974  3.173  0.000    23.367     6.888
 372   1 H      0.180  0.820  0.000  0.000     1.212     1.724
 373   1 H      0.083  0.917  0.000  0.000     1.947     2.182
 374   1 H      0.054  0.946  0.000  0.000     2.269     2.355
 375   1 H      0.060  0.940  0.000  0.000     2.196     2.317
 376   1 H      0.052  0.948  0.000  0.000     2.290     2.366
 377   1 H      0.057  0.943  0.000  0.000     2.231     2.335
 378   1 H      0.058  0.942  0.000  0.000     2.216     2.328
 379   1 H      0.061  0.939  0.000  0.000     2.182     2.310
 380   1 H      0.045  0.955  0.000  0.000     2.384     2.414
 381   7 N     -0.413  1.291  4.122  0.000    30.739     8.234
 382   6 C      0.021  1.040  2.939  0.000    20.230     6.406
 383   6 C      0.190  1.085  2.725  0.000    23.933     8.012
 384   8 O     -0.360  1.758  4.601  0.000    20.892     6.128
 385   6 C     -0.033  1.041  2.991  0.000    21.114     6.535
 386   6 C     -0.084  1.001  3.084  0.000    22.092     6.689
 387   6 C     -0.154  0.974  3.179  0.000    23.500     6.907
 388   6 C     -0.145  0.972  3.173  0.000    23.341     6.885
 389   1 H      0.196  0.804  0.000  0.000     1.126     1.662
 390   1 H      0.064  0.936  0.000  0.000     2.146     2.291
 391   1 H      0.053  0.947  0.000  0.000     2.277     2.359
 392   1 H      0.050  0.950  0.000  0.000     2.321     2.382
 393   1 H      0.053  0.947  0.000  0.000     2.286     2.364
 394   1 H      0.067  0.933  0.000  0.000     2.118     2.276
 395   1 H      0.051  0.949  0.000  0.000     2.304     2.373
 396   1 H      0.051  0.949  0.000  0.000     2.308     2.376
 397   1 H      0.047  0.953  0.000  0.000     2.354     2.399
 398   1 H      0.051  0.949  0.000  0.000     2.303     2.373
 399   1 H      0.050  0.950  0.000  0.000     2.316     2.380
 400   7 N     -0.403  1.276  4.127  0.000    30.456     8.196
 401   6 C      0.030  1.028  2.942  0.000    20.073     6.380
 402   6 C      0.193  1.089  2.718  0.000    23.879     8.003
 403   8 O     -0.382  1.764  4.618  0.000    21.330     6.192
 404   6 C     -0.091  1.009  3.082  0.000    22.208     6.705
 405   6 C     -0.020  1.026  2.994  0.000    20.891     6.500
 406   6 C     -0.155  0.980  3.175  0.000    23.528     6.912
 407   6 C     -0.155  0.975  3.180  0.000    23.516     6.908
 408   1 H      0.183  0.817  0.000  0.000     1.195     1.713
 409   1 H      0.076  0.924  0.000  0.000     2.020     2.223
 410   1 H      0.049  0.951  0.000  0.000     2.328     2.386
 411   1 H      0.060  0.940  0.000  0.000     2.197     2.317
 412   1 H      0.042  0.958  0.000  0.000     2.423     2.434
 413   1 H      0.062  0.938  0.000  0.000     2.175     2.306
 414   1 H      0.056  0.944  0.000  0.000     2.249     2.345
 415   1 H      0.049  0.951  0.000  0.000     2.330     2.387
 416   1 H      0.056  0.944  0.000  0.000     2.251     2.346
 417   1 H      0.060  0.940  0.000  0.000     2.199     2.319
 418   1 H      0.049  0.951  0.000  0.000     2.332     2.388
 419   7 N     -0.423  1.290  4.133  0.000    31.014     8.271
 420   6 C      0.029  1.028  2.943  0.000    20.103     6.386
 421   6 C      0.192  1.096  2.712  0.000    23.907     8.008
 422   8 O     -0.390  1.769  4.621  0.000    21.483     6.214
 423   6 C     -0.110  1.017  3.092  0.000    22.572     6.761
 424   6 C     -0.099  1.009  3.090  0.000    22.377     6.734
 425   6 C     -0.046  1.008  3.038  0.000    21.456     6.605
 426   7 N     -0.143  1.174  3.969  0.000    24.105     7.292
 427   6 C      0.222  1.020  2.758  0.000    23.321     7.907
 428   7 N     -0.257  1.169  4.088  0.000    26.663     7.669
 429   7 N     -0.264  1.172  4.092  0.000    26.836     7.694
 430   1 H      0.201  0.799  0.000  0.000     1.100     1.643
 431   1 H      0.064  0.936  0.000  0.000     2.147     2.291
 432   1 H      0.086  0.914  0.000  0.000     1.921     2.167
 433   1 H      0.091  0.909  0.000  0.000     1.872     2.140
 434   1 H      0.069  0.931  0.000  0.000     2.092     2.262
 435   1 H      0.068  0.932  0.000  0.000     2.105     2.268
 436   1 H      0.108  0.892  0.000  0.000     1.712     2.046
 437   1 H      0.097  0.903  0.000  0.000     1.810     2.104
 438   1 H      0.232  0.768  0.000  0.000     0.955     1.531
 439   1 H      0.251  0.749  0.000  0.000     0.878     1.468
 440   1 H      0.259  0.741  0.000  0.000     0.848     1.442
 441   1 H      0.240  0.760  0.000  0.000     0.925     1.506
 442   1 H      0.256  0.744  0.000  0.000     0.859     1.451
 443   7 N     -0.423  1.285  4.138  0.000    31.032     8.273
 444   6 C      0.026  1.034  2.940  0.000    20.148     6.392
 445   6 C      0.269  1.047  2.683  0.000    22.448     7.759
 446   8 O     -0.524  1.750  4.775  0.000    24.324     6.612
 447   6 C     -0.091  1.013  3.078  0.000    22.222     6.709
 448   6 C     -0.027  1.032  2.995  0.000    21.022     6.521
 449   6 C     -0.152  0.977  3.175  0.000    23.476     6.904
 450   6 C     -0.153  0.976  3.176  0.000    23.479     6.904
 451   1 H      0.186  0.814  0.000  0.000     1.179     1.701
 452   1 H      0.054  0.946  0.000  0.000     2.273     2.357
 453   1 H      0.058  0.942  0.000  0.000     2.226     2.333
 454   1 H      0.044  0.956  0.000  0.000     2.398     2.421
 455   1 H      0.051  0.949  0.000  0.000     2.302     2.373
 456   1 H      0.071  0.929  0.000  0.000     2.076     2.253
 457   1 H      0.049  0.951  0.000  0.000     2.327     2.385
 458   1 H      0.041  0.959  0.000  0.000     2.435     2.440
 459   1 H      0.061  0.939  0.000  0.000     2.190     2.314
 460   1 H      0.046  0.954  0.000  0.000     2.367     2.406
 461   1 H      0.051  0.949  0.000  0.000     2.305     2.374
 462   7 N     -0.173  1.212  3.961  0.000    24.749     7.389
 463   6 C      0.034  1.031  2.935  0.000    20.008     6.370
 464   6 C      0.189  1.099  2.712  0.000    23.950     8.015
 465   8 O     -0.363  1.759  4.604  0.000    20.952     6.137
 466   6 C     -0.157  0.978  3.179  0.000    23.561     6.916
 467   1 H      0.234  0.766  0.000  0.000     0.947     1.524
 468   1 H      0.085  0.915  0.000  0.000     1.930     2.173
 469   1 H      0.079  0.921  0.000  0.000     1.989     2.205
 470   1 H      0.083  0.917  0.000  0.000     1.950     2.183
 471   1 H      0.086  0.914  0.000  0.000     1.917     2.165
 472   7 N     -0.421  1.286  4.135  0.000    30.973     8.265
 473   6 C      0.014  1.048  2.938  0.000    20.351     6.426
 474   6 C      0.267  1.052  2.681  0.000    22.499     7.767
 475   8 O     -0.493  1.732  4.761  0.000    23.628     6.517
 476   6 C     -0.034  1.041  2.992  0.000    21.142     6.540
 477   6 C     -0.151  0.977  3.174  0.000    23.450     6.901
 478   6 C     -0.144  0.975  3.170  0.000    23.322     6.882
 479   1 H      0.175  0.825  0.000  0.000     1.244     1.747
 480   1 H      0.058  0.942  0.000  0.000     2.224     2.332
 481   1 H      0.061  0.939  0.000  0.000     2.189     2.314
 482   1 H      0.067  0.933  0.000  0.000     2.113     2.273
 483   1 H      0.042  0.958  0.000  0.000     2.426     2.436
 484   1 H      0.055  0.945  0.000  0.000     2.258     2.349
 485   1 H      0.054  0.946  0.000  0.000     2.266     2.354
 486   1 H      0.059  0.941  0.000  0.000     2.214     2.327
 487   1 H      0.048  0.952  0.000  0.000     2.338     2.391
 488   7 N     -0.184  1.215  3.969  0.000    24.998     7.426
 489   6 C      0.026  1.034  2.940  0.000    20.141     6.390
 490   6 C      0.200  1.089  2.712  0.000    23.747     7.981
 491   8 O     -0.355  1.751  4.604  0.000    20.806     6.116
 492   6 C     -0.092  1.006  3.086  0.000    22.242     6.712
 493   6 C     -0.117  1.013  3.103  0.000    22.723     6.785
 494   6 C      0.284  1.049  2.667  0.000    22.195     7.714
 495   8 O     -0.489  1.756  4.733  0.000    23.540     6.505
 496   7 N     -0.291  1.187  4.104  0.000    27.509     7.790
 497   1 H      0.231  0.769  0.000  0.000     0.961     1.535
 498   1 H      0.090  0.910  0.000  0.000     1.883     2.146
 499   1 H      0.101  0.899  0.000  0.000     1.772     2.081
 500   1 H      0.084  0.916  0.000  0.000     1.943     2.179
 501   1 H      0.077  0.923  0.000  0.000     2.014     2.219
 502   1 H      0.091  0.909  0.000  0.000     1.864     2.135
 503   1 H      0.208  0.792  0.000  0.000     1.066     1.618
 504   1 H      0.219  0.781  0.000  0.000     1.013     1.576
 505   7 N     -0.431  1.284  4.147  0.000    31.243     8.301
 506   6 C      0.025  1.032  2.943  0.000    20.165     6.395
 507   6 C      0.262  1.053  2.685  0.000    22.585     7.782
 508   8 O     -0.503  1.746  4.757  0.000    23.847     6.547
 509   6 C     -0.099  1.011  3.088  0.000    22.371     6.730
 510   6 C      0.011  1.089  2.900  0.000    27.765     8.643
 511   6 C     -0.061  1.056  3.005  0.000    29.524     8.911
 512   6 C     -0.068  1.058  3.009  0.000    29.682     8.935
 513   6 C     -0.055  1.053  3.002  0.000    29.361     8.886
 514   6 C     -0.059  1.059  3.000  0.000    29.456     8.900
 515   6 C     -0.065  1.049  3.016  0.000    29.626     8.926
 516   1 H      0.196  0.804  0.000  0.000     1.125     1.661
 517   1 H      0.067  0.933  0.000  0.000     2.118     2.276
 518   1 H      0.083  0.917  0.000  0.000     1.947     2.182
 519   1 H      0.061  0.939  0.000  0.000     2.192     2.315
 520   1 H      0.051  0.949  0.000  0.000     2.309     2.376
 521   1 H      0.060  0.940  0.000  0.000     2.195     2.317
 522   1 H      0.040  0.960  0.000  0.000     2.447     2.446
 523   1 H      0.068  0.932  0.000  0.000     2.102     2.267
 524   1 H      0.060  0.940  0.000  0.000     2.195     2.317
 525   7 N     -0.181  1.210  3.971  0.000    24.921     7.414
 526   6 C      0.017  1.042  2.941  0.000    20.289     6.414
 527   6 C      0.200  1.083  2.717  0.000    23.738     7.979
 528   8 O     -0.341  1.747  4.594  0.000    20.547     6.077
 529   6 C     -0.128  1.018  3.110  0.000    22.936     6.815
 530   6 C      0.292  1.028  2.680  0.000    22.055     7.690
 531   8 O     -0.490  1.760  4.730  0.000    23.564     6.508
 532   7 N     -0.293  1.190  4.102  0.000    27.545     7.795
 533   1 H      0.227  0.773  0.000  0.000     0.978     1.549
 534   1 H      0.104  0.896  0.000  0.000     1.751     2.069
 535   1 H      0.105  0.895  0.000  0.000     1.740     2.063
 536   1 H      0.113  0.887  0.000  0.000     1.674     2.023
 537   1 H      0.238  0.762  0.000  0.000     0.930     1.511
 538   1 H      0.230  0.770  0.000  0.000     0.964     1.538
 539   7 N     -0.418  1.286  4.132  0.000    30.876     8.252
 540   6 C      0.019  1.049  2.932  0.000    20.285     6.416
 541   6 C      0.202  1.098  2.701  0.000    23.707     7.974
 542   8 O     -0.381  1.754  4.627  0.000    21.315     6.190
 543   6 C     -0.036  1.047  2.988  0.000    21.178     6.545
 544   6 C     -0.086  0.997  3.088  0.000    22.120     6.693
 545   6 C     -0.153  0.978  3.175  0.000    23.486     6.906
 546   6 C     -0.144  0.972  3.173  0.000    23.316     6.881
 547   1 H      0.184  0.816  0.000  0.000     1.190     1.709
 548   1 H      0.068  0.932  0.000  0.000     2.102     2.267
 549   1 H      0.056  0.944  0.000  0.000     2.243     2.342
 550   1 H      0.051  0.949  0.000  0.000     2.303     2.373
 551   1 H      0.057  0.943  0.000  0.000     2.239     2.340
 552   1 H      0.068  0.932  0.000  0.000     2.111     2.272
 553   1 H      0.043  0.957  0.000  0.000     2.402     2.423
 554   1 H      0.062  0.938  0.000  0.000     2.178     2.308
 555   1 H      0.050  0.950  0.000  0.000     2.324     2.384
 556   1 H      0.039  0.961  0.000  0.000     2.456     2.450
 557   1 H      0.062  0.938  0.000  0.000     2.173     2.305
 558   1 H      0.187  0.813  0.000  0.000     1.177     1.699
 559   1 H      0.069  0.931  0.000  0.000     2.093     2.262
 560   1 H      0.191  0.809  0.000  0.000     1.151     1.681
 561   1 H      0.068  0.932  0.000  0.000     2.103     2.267
 562   1 H      0.172  0.828  0.000  0.000     1.260     1.758
 563   1 H      0.074  0.926  0.000  0.000     2.044     2.235
 564   1 H      0.178  0.822  0.000  0.000     1.225     1.734
 565   1 H      0.067  0.933  0.000  0.000     2.121     2.277
 566   1 H      0.174  0.826  0.000  0.000     1.247     1.749
 567   1 H      0.072  0.928  0.000  0.000     2.061     2.245
 568   1 H      0.178  0.822  0.000  0.000     1.224     1.733
 569   1 H      0.063  0.937  0.000  0.000     2.162     2.299
 570   1 H      0.177  0.823  0.000  0.000     1.232     1.739
 571   1 H      0.062  0.938  0.000  0.000     2.174     2.306
 572   1 H      0.173  0.827  0.000  0.000     1.257     1.756
 573   1 H      0.066  0.934  0.000  0.000     2.131     2.283
 574   1 H      0.183  0.817  0.000  0.000     1.196     1.713
 575   1 H      0.088  0.912  0.000  0.000     1.894     2.152
 576   1 H      0.178  0.822  0.000  0.000     1.226     1.735
 577   1 H      0.087  0.913  0.000  0.000     1.906     2.159
 578   1 H      0.183  0.817  0.000  0.000     1.198     1.715
 579   1 H      0.080  0.920  0.000  0.000     1.981     2.201
 580   1 H      0.178  0.822  0.000  0.000     1.223     1.732
 581   1 H      0.081  0.919  0.000  0.000     1.972     2.196
 582   1 H      0.181  0.819  0.000  0.000     1.209     1.722
 583   1 H      0.070  0.930  0.000  0.000     2.086     2.259

 Mol. C6AA /au·bohr⁶  :    2980367.799970
 Mol. C8AA /au·bohr⁸  :   65749896.407366
 Mol. α(0) /au        :       2579.185229

 
molecular dipole:
                 x           y           z       tot (Debye)
 q only:       -8.985       2.197      23.116
   full:       -9.286       1.371      27.759      74.483
molecular quadrupole (traceless):
                xx          xy          yy          xz          yz          zz
 q only:   -11153.756    -942.206   -3132.332    5544.300    5308.652   14286.088
  q+dip:   -12328.367   -1323.333   -4305.064    7304.754    5904.756   16633.431
   full:   -12330.210   -1324.572   -4301.371    7306.933    5906.896   16631.581
speedup  1.00
cpu  time for grad   18.45 s
wall time for grad   18.46 s

SCC energy    :    -888.7448574
rep           :      19.4749820
ES            :       2.5414715
AES           :      -0.0782800
AXC           :       0.1476194
disp          :      -0.7712197
XB            :       0.0000000
fix           :       0.0000000
Gborn         :       0.0000000
Gsasa         :       0.0000000
Ghb           :       0.0000000
Gshift        :       0.0000000
Gsolv         :      -0.5300105     -332.59
Etot ala COSMO:    -888.7448574
grad norm     :       3.1605217
total E       :    -869.1871283
atomizationE  :     155.9002503    97828.88
(atE without considering molecular charge,
 total energy contains solvation terms)
H-L gap (eV)  :          1.3535

------------------------------------------------------------------------
 * finished run on 2019/03/07 at 11:38:06.114     
------------------------------------------------------------------------
 total:
 * wall-time:     0 d,  0 h,  0 min, 19.683 sec
 *  cpu-time:     0 d,  0 h,  0 min, 19.487 sec
 * ratio c/w:     0.990 speedup
 SCF:
 * wall-time:     0 d,  0 h,  0 min, 19.191 sec
 *  cpu-time:     0 d,  0 h,  0 min, 19.190 sec
 * ratio c/w:     1.000 speedup

