      -----------------------------------------------------------      
     |                   =====================                   |     
     |                           x T B                           |     
     |                   =====================                   |     
     |                         S. Grimme                         |     
     |          Mulliken Center for Theoretical Chemistry        |     
     |                    University of Bonn                     |     
     |                 Version 6.0.1 (SAW181210)                 |     
      -----------------------------------------------------------      

   This program is distributed in the hope that it will be useful,
   but WITHOUT ANY WARRANTY; without even the implied warranty of
   MERCHANTABILITY or FITNESS FOR A PARTICULAR PURPOSE.
   
   FOR NON-COMMERCIAL, ACADEMIA USE ONLY.
   
   Cite this work as:
   S. Grimme, C. Bannwarth, P. Shushkov, J. Comput. Theory Chem., 2017,
   13, 1989-2009.
   C. Bannwarth, S. Ehlert and S. Grimme., ChemRxiv, 2018, preprint.
   http://doi.org/10.26434/chemrxiv.7246238.v1
   
   for sTDA-xTB:
   S. Grimme and C. Bannwarth, J. Chem. Phys., 2016, 145, 054103.
   
   in the mass-spec context:
   V. Asgeirsson, C. Bauer and S. Grimme, Chem. Sci., 2017, 8, 4879.
   
   if GBSA is used:
   P. Shushkov, F. März and S. Grimme, unpublished.
   
   for ANC optimizer:
   S. Grimme, unpublished.
   Rational Function algorithm used in ANCopt:
   F. Eckert, P. Pulay, H.-J. Werner, J. Comput. Chem., 1997, 18, 1473.
   
   with help from (in alphabetical order)
   C. Bannwarth, F. Bohle, G. Brandenburg, E. Caldeweyher, M. Checinski,
   S. Dohm, S. Ehlert, S. Ehrlich, F. März, H. Neugebauer, J. Pisarek,
   P. Pracht, P. Shushkov, and S. Spicher.
   
 * started run on 2019/03/14 at 16:03:17.295     
========================================================================
 # omp threads = 1
========================================================================
number of atoms            : 465
number of electrons        : 1200
charge                     : 1
spin                       : .0
first test random number   : .8872

########################################################################
# WARNING! Please study the warnings concerning your input carefully
#  - XTBPATH is not set, using XTBHOME instead
########################################################################

           ------------------------------------------------- 
          |                 G F N 2 - x T B                 |
          | Geometry, Frequencies, Noncovalent interactions |
          |            JCTC 2018 parametrisation            |
           ------------------------------------------------- 
 
      method parameters     
 k(s)        :  1.8500
 k(p)        :  2.2300
 k(d)        :  2.2300
 k(f)        :  2.0000
 kEN (H0ij)  : -2.0000
 D4 a1       :  0.5200
 D4 a2       :  5.0000
 D4 s6       :  1.0000
 D4 s8       :  2.7000
 D4 s9       :  5.0000
 alphaj      :  2.0000

 Solvent             : h2o
 Using internal parameter file: .param_gbsa2_h2o
 Gsolv ref. state (COSMO-RS): gsolv [1 M gas/solution]
 temperature (mdtemp)       :    298.150000000000     
 dielectric constant        :    80.2000000000000     
 rho                        :    1.00000000000000     
 mass                       :    18.0000000000000     
 surface tension            :    15.5689454083859     
 probe radius               :   0.975313790000000     
 vdW radii scaling          :    1.00000000000000     
 Gshift (Eh)                :   1.857443126794793E-003
 c1                         :    1.55243817000000     
 soset                      :   0.130326360000000     
 HB correction              :  T

            Z     q(EN)     CN     RAES       Cart. coordinates
     1  N   5.0   -0.21    3.19    1.95    40.87486    21.78827    32.89461
     2  C   4.0    0.03    4.20    4.00    43.50389    21.53797    32.25805
     3  C   4.0    0.08    3.20    3.04    44.16624    18.94280    31.09785
     4  O   6.0   -0.29    1.13    1.80    46.35703    18.37788    30.63760
     5  C   4.0   -0.04    4.32    4.24    45.29476    21.99960    34.48509
     6  C   4.0   -0.03    4.14    3.87    45.37241    24.61126    35.78375
     7  C   4.0   -0.08    4.09    3.77    46.05610    26.79037    34.01477
     8  C   4.0   -0.07    4.10    3.80    42.93294    25.22945    37.19616
     9  H   1.0    0.09    1.02    1.43    40.25004    21.09487    34.56274
    10  H   1.0    0.04    1.06    1.44    43.85054    22.90551    30.73862
    11  H   1.0    0.05    1.03    1.43    44.83591    20.56151    35.89595
    12  H   1.0    0.05    1.04    1.43    47.17810    21.53977    33.77258
    13  H   1.0    0.04    1.06    1.44    46.88226    24.43212    37.19424
    14  H   1.0    0.04    1.00    1.43    46.19263    28.54807    35.07240
    15  H   1.0    0.04    1.00    1.43    47.85898    26.45121    33.09210
    16  H   1.0    0.04    1.00    1.43    44.60330    27.03913    32.58554
    17  H   1.0    0.04    1.00    1.43    43.24112    26.72316    38.57560
    18  H   1.0    0.04    1.00    1.43    41.48529    25.85666    35.88645
    19  H   1.0    0.05    1.00    1.43    42.21499    23.58475    38.19350
    20  N   5.0   -0.18    3.24    1.97    43.85431    19.04032    22.86625
    21  C   4.0    0.03    4.29    4.18    45.93959    20.41261    21.76488
    22  C   4.0    0.15    3.40    3.08    48.27660    18.71348    21.57141
    23  O   6.0   -0.28    1.24    1.80    48.40956    16.66223    22.61868
    24  C   4.0   -0.05    4.33    4.26    46.34030    22.91616    23.17210
    25  C   4.0   -0.02    4.17    3.94    46.86629    22.81102    26.02035
    26  C   4.0   -0.06    4.10    3.80    49.59758    22.12938    26.64183
    27  C   4.0   -0.08    4.13    3.85    46.27572    25.41958    27.11507
    28  H   1.0    0.10    1.03    1.43    43.86600    18.81254    24.75572
    29  H   1.0    0.05    1.06    1.44    45.32094    20.83640    19.82905
    30  H   1.0    0.04    1.03    1.43    47.88735    23.95488    22.29716
    31  H   1.0    0.05    1.04    1.43    44.59282    23.98595    22.91547
    32  H   1.0    0.05    1.05    1.44    45.62890    21.41483    26.92217
    33  H   1.0    0.05    1.00    1.43    49.79494    21.87288    28.67309
    34  H   1.0    0.07    1.00    1.43    50.16369    20.36480    25.75463
    35  H   1.0    0.06    1.00    1.43    50.83835    23.65490    26.04238
    36  H   1.0    0.04    1.00    1.43    46.79012    25.48430    29.09688
    37  H   1.0    0.06    1.01    1.43    47.38752    26.85641    26.15208
    38  H   1.0    0.04    1.00    1.43    44.27792    25.87366    26.93766
    39  N   5.0   -0.14    3.48    2.06    50.08057    19.54507    19.96128
    40  C   4.0    0.04    4.48    4.51    52.35243    18.08047    19.61294
    41  C   4.0    0.16    3.47    3.10    54.40134    18.92742    21.47458
    42  O   6.0   -0.31    1.29    1.80    54.35078    20.97609    22.53155
    43  C   4.0    0.05    4.24    4.08    53.41143    18.34880    16.91050
    44  O   6.0   -0.26    2.16    1.85    54.63977    20.73556    16.74726
    45  C   4.0   -0.07    4.09    3.77    51.37569    18.10477    14.89075
    46  H   1.0    0.08    1.06    1.44    50.17380    21.39396    19.51204
    47  H   1.0    0.06    1.06    1.44    51.82686    16.11294    19.97707
    48  H   1.0    0.04    1.03    1.43    54.85015    16.86549    16.65877
    49  H   1.0    0.11    1.04    1.43    54.59379    21.23226    14.99049
    50  H   1.0    0.05    1.00    1.43    52.24313    18.17141    13.02754
    51  H   1.0    0.05    1.00    1.43    50.34668    16.34083    15.07756
    52  H   1.0    0.05    1.00    1.43    50.02883    19.64778    15.04998
    53  N   5.0   -0.15    3.48    2.06    56.32249    17.30109    21.76012
    54  C   4.0    0.04    4.35    4.28    58.39848    17.87912    23.46922
    55  C   4.0    0.16    3.45    3.09    59.69425    20.37637    22.74181
    56  O   6.0   -0.30    1.23    1.80    60.51075    21.84492    24.31140
    57  C   4.0   -0.07    4.11    3.83    60.30054    15.72320    23.42574
    58  H   1.0    0.08    1.06    1.44    56.23586    15.54839    21.01077
    59  H   1.0    0.06    1.05    1.44    57.63646    18.14013    25.37925
    60  H   1.0    0.05    1.00    1.43    61.84238    16.13053    24.71552
    61  H   1.0    0.05    1.00    1.43    59.37637    13.98480    24.00879
    62  H   1.0    0.05    1.00    1.43    61.06913    15.48435    21.53629
    63  N   5.0   -0.14    3.51    2.09    59.94720    20.73210    20.24679
    64  C   4.0    0.04    4.43    4.43    61.02674    23.03704    19.22171
    65  C   4.0    0.16    3.51    3.12    59.50200    25.31294    20.14106
    66  O   6.0   -0.29    1.26    1.80    60.44370    27.18105    21.11718
    67  C   4.0   -0.04    4.28    4.15    60.98817    22.91274    16.33876
    68  C   4.0   -0.03    4.17    3.94    62.19164    25.21226    15.08239
    69  C   4.0    0.25    3.09    3.02    65.13813    25.28775    15.35118
    70  O   6.0   -0.28    1.18    1.80    66.04241    24.97129    17.49950
    71  O   6.0   -0.27    1.16    1.80    66.34191    25.69146    13.36539
    72  H   1.0    0.08    1.08    1.44    59.12981    19.50686    19.03764
    73  H   1.0    0.08    1.06    1.44    62.97640    23.26245    19.88257
    74  H   1.0    0.05    1.03    1.43    62.00601    21.22477    15.72569
    75  H   1.0    0.05    1.03    1.43    59.02001    22.75364    15.73553
    76  H   1.0    0.06    1.03    1.43    61.77047    25.21211    13.06357
    77  H   1.0    0.06    1.03    1.43    61.44631    26.95136    15.90673
    78  N   5.0   -0.14    3.52    2.09    57.00816    25.10134    19.74633
    79  C   4.0    0.04    4.44    4.44    55.31217    27.11208    20.51253
    80  C   4.0    0.18    3.58    3.16    55.93769    27.95147    23.21925
    81  O   6.0   -0.30    1.32    1.80    56.28873    30.18562    23.73261
    82  C   4.0   -0.04    4.26    4.12    52.55916    26.28400    20.30399
    83  C   4.0   -0.04    4.17    3.94    50.72699    28.48355    20.61248
    84  C   4.0    0.25    3.13    3.03    50.78686    29.74635    23.29114
    85  O   6.0   -0.31    1.24    1.80    51.29413    28.36441    25.12191
    86  O   6.0   -0.31    1.17    1.80    50.22301    32.02960    23.36835
    87  H   1.0    0.10    1.09    1.44    56.26864    23.49519    19.01747
    88  H   1.0    0.05    1.05    1.44    55.63145    28.75508    19.27741
    89  H   1.0    0.05    1.03    1.43    52.26479    25.40311    18.45563
    90  H   1.0    0.06    1.03    1.43    52.20151    24.87420    21.76561
    91  H   1.0    0.05    1.02    1.43    51.04578    29.94934    19.19544
    92  H   1.0    0.04    1.02    1.43    48.79058    27.80276    20.36477
    93  N   5.0   -0.12    3.53    2.10    56.20880    26.08509    24.88953
    94  C   4.0    0.04    4.41    4.39    56.33940    26.54709    27.60143
    95  C   4.0    0.16    3.50    3.12    58.24487    28.63866    28.17105
    96  O   6.0   -0.31    1.25    1.80    57.81270    30.33266    29.70303
    97  C   4.0   -0.04    4.34    4.27    57.00855    24.03052    28.88372
    98  C   4.0   -0.02    4.15    3.90    57.17256    24.01018    31.78657
    99  C   4.0   -0.07    4.10    3.80    59.58139    25.29335    32.75176
   100  C   4.0   -0.08    4.09    3.79    54.80156    25.16663    32.97691
   101  H   1.0    0.10    1.09    1.44    55.75891    24.31352    24.33015
   102  H   1.0    0.06    1.05    1.44    54.47914    27.22601    28.22488
   103  H   1.0    0.05    1.03    1.43    55.55759    22.67834    28.29546
   104  H   1.0    0.06    1.03    1.43    58.79391    23.38415    28.07714
   105  H   1.0    0.04    1.06    1.44    57.26556    22.00798    32.30929
   106  H   1.0    0.04    1.00    1.43    59.96810    24.70481    34.67974
   107  H   1.0    0.05    1.00    1.43    61.19115    24.74578    31.59905
   108  H   1.0    0.05    1.01    1.43    59.38674    27.33107    32.61624
   109  H   1.0    0.03    1.00    1.43    54.71197    24.82077    34.99987
   110  H   1.0    0.05    1.00    1.43    54.74888    27.18877    32.62224
   111  H   1.0    0.04    1.00    1.43    53.11290    24.35013    32.13176
   112  N   5.0   -0.14    3.49    2.07    60.49405    28.40077    27.04988
   113  C   4.0    0.03    4.42    4.41    62.48400    30.25703    27.43137
   114  C   4.0    0.16    3.51    3.12    61.56876    32.96652    26.97197
   115  O   6.0   -0.31    1.25    1.80    62.04094    34.69837    28.43364
   116  C   4.0   -0.05    4.27    4.13    64.71867    29.65857    25.68660
   117  C   4.0   -0.05    4.20    4.00    66.59668    31.86623    25.44981
   118  C   4.0   -0.05    4.16    3.92    69.35401    31.00198    25.32103
   119  C   4.0   -0.04    4.13    3.85    70.35342    30.33657    27.94483
   120  N   5.0   -0.12    4.01    2.89    73.02877    29.47396    27.79856
   121  H   1.0    0.10    1.07    1.44    60.70318    27.10323    25.66374
   122  H   1.0    0.05    1.05    1.44    63.05849    30.16509    29.42113
   123  H   1.0    0.05    1.03    1.43    65.63798    27.96512    26.41041
   124  H   1.0    0.06    1.03    1.43    63.96663    29.16322    23.82938
   125  H   1.0    0.04    1.03    1.43    66.15048    32.92476    23.74147
   126  H   1.0    0.05    1.04    1.43    66.37016    33.15969    27.03669
   127  H   1.0    0.05    1.03    1.43    69.47850    29.38841    24.04435
   128  H   1.0    0.04    1.03    1.43    70.47415    32.53460    24.52138
   129  H   1.0    0.04    1.02    1.43    70.25632    31.99612    29.16390
   130  H   1.0    0.04    1.02    1.43    69.21540    28.83748    28.77902
   131  H   1.0    0.06    1.02    1.43    73.70116    28.99169    29.56086
   132  H   1.0    0.06    1.02    1.43    73.16854    27.92299    26.62819
   133  H   1.0    0.06    1.02    1.43    74.14715    30.88872    27.06072
   134  N   5.0   -0.14    3.53    2.10    60.42149    33.30557    24.75667
   135  C   4.0    0.04    4.43    4.43    59.44113    35.75198    24.02298
   136  C   4.0    0.16    3.49    3.11    57.72191    36.85025    26.07765
   137  O   6.0   -0.31    1.28    1.80    57.92940    39.01832    26.84706
   138  C   4.0   -0.05    4.28    4.16    58.01400    35.52724    21.52128
   139  C   4.0   -0.04    4.17    3.94    59.73432    34.80922    19.30460
   140  C   4.0   -0.05    4.15    3.90    61.50771    36.91781    18.41296
   141  C   4.0   -0.04    4.12    3.83    60.17966    39.30654    17.49378
   142  N   5.0   -0.12    4.02    2.91    58.52737    38.78386    15.27063
   143  H   1.0    0.11    1.10    1.44    59.77798    31.76969    23.81999
   144  H   1.0    0.05    1.05    1.44    61.03429    37.06161    23.83983
   145  H   1.0    0.06    1.04    1.43    56.57822    34.06308    21.74985
   146  H   1.0    0.04    1.06    1.44    57.03169    37.30277    21.17403
   147  H   1.0    0.05    1.03    1.43    60.86779    33.17023    19.84084
   148  H   1.0    0.04    1.03    1.43    58.54617    34.15390    17.75189
   149  H   1.0    0.04    1.03    1.43    62.76108    37.45822    19.95126
   150  H   1.0    0.04    1.03    1.43    62.70444    36.15645    16.91711
   151  H   1.0    0.04    1.02    1.43    59.02214    40.12959    18.98660
   152  H   1.0    0.04    1.02    1.43    61.60617    40.67986    16.92804
   153  H   1.0    0.06    1.02    1.43    57.80160    40.44305    14.55774
   154  H   1.0    0.06    1.02    1.43    59.53953    37.87482    13.87564
   155  H   1.0    0.06    1.02    1.43    57.03965    37.64356    15.78836
   156  N   5.0   -0.14    3.52    2.09    55.98972    35.24156    26.97011
   157  C   4.0    0.04    4.45    4.46    54.08762    36.10712    28.74083
   158  C   4.0    0.17    3.49    3.11    55.35609    37.47217    30.95893
   159  O   6.0   -0.31    1.25    1.80    54.55050    39.47393    31.79625
   160  C   4.0   -0.03    4.33    4.25    52.45707    33.87724    29.59702
   161  C   4.0   -0.01    3.57    3.15    50.20228    34.76491    31.06397
   162  C   4.0   -0.04    3.48    3.11    48.15256    35.78450    29.77575
   163  C   4.0   -0.04    3.46    3.10    50.09255    34.60374    33.67823
   164  C   4.0   -0.05    3.38    3.07    46.03262    36.59063    31.06522
   165  C   4.0   -0.05    3.38    3.07    47.97231    35.42013    34.97052
   166  C   4.0   -0.05    3.37    3.07    45.93388    36.41097    33.67298
   167  H   1.0    0.11    1.08    1.44    55.86565    33.47367    26.25450
   168  H   1.0    0.05    1.05    1.44    52.86840    37.52477    27.83411
   169  H   1.0    0.07    1.03    1.43    51.79984    32.88845    27.90208
   170  H   1.0    0.06    1.03    1.43    53.61834    32.57013    30.68477
   171  H   1.0    0.05    1.03    1.43    48.22985    35.89880    27.73846
   172  H   1.0    0.05    1.03    1.43    51.67403    33.82119    34.69182
   173  H   1.0    0.05    1.03    1.43    44.45099    37.35356    30.02824
   174  H   1.0    0.04    1.03    1.43    47.88197    35.27605    37.00169
   175  H   1.0    0.04    1.03    1.43    44.27782    37.02969    34.68814
   176  N   5.0   -0.14    3.50    2.08    57.37029    36.29381    31.91393
   177  C   4.0    0.03    4.43    4.43    58.80443    37.34241    34.00335
   178  C   4.0    0.16    3.51    3.12    59.56293    40.08999    33.52029
   179  O   6.0   -0.30    1.26    1.80    59.12102    41.78455    35.02989
   180  C   4.0   -0.05    4.31    4.21    61.20899    35.79207    34.39945
   181  C   4.0   -0.05    4.19    3.97    60.68149    33.14153    35.40829
   182  C   4.0   -0.05    4.18    3.95    59.55178    33.22879    38.06838
   183  C   4.0   -0.04    4.14    3.88    59.95312    30.76744    39.48266
   184  N   5.0   -0.13    4.02    2.91    58.34042    28.68896    38.49074
   185  H   1.0    0.10    1.08    1.44    57.96858    34.64195    31.15915
   186  H   1.0    0.05    1.05    1.44    57.62835    37.37046    35.70482
   187  H   1.0    0.06    1.04    1.43    62.19592    35.67131    32.59678
   188  H   1.0    0.04    1.03    1.43    62.41699    36.78232    35.74037
   189  H   1.0    0.05    1.02    1.43    59.43367    32.13065    34.11705
   190  H   1.0    0.04    1.03    1.43    62.47278    32.12581    35.47671
   191  H   1.0    0.04    1.03    1.43    60.49508    34.70008    39.15768
   192  H   1.0    0.04    1.02    1.43    57.54798    33.69297    37.99566
   193  H   1.0    0.04    1.02    1.43    61.92345    30.17933    39.37288
   194  H   1.0    0.04    1.02    1.43    59.53810    30.94491    41.48700
   195  H   1.0    0.05    1.03    1.43    58.80745    27.11068    39.54685
   196  H   1.0    0.05    1.02    1.43    56.46321    29.10223    38.77553
   197  H   1.0    0.05    1.02    1.43    58.64083    28.34785    36.59647
   198  N   5.0   -0.14    3.51    2.08    60.91852    40.45688    31.42185
   199  C   4.0    0.04    4.45    4.46    61.85051    42.97316    30.88583
   200  C   4.0    0.16    3.50    3.11    59.72163    44.91427    31.02444
   201  O   6.0   -0.30    1.23    1.80    59.98165    46.97470    32.04238
   202  C   4.0   -0.05    4.35    4.28    63.13702    43.09568    28.29526
   203  C   4.0   -0.02    4.17    3.93    66.00983    42.70275    28.44313
   204  C   4.0   -0.08    4.09    3.79    67.10167    42.10180    25.83686
   205  C   4.0   -0.07    4.10    3.81    67.29023    45.05560    29.52774
   206  H   1.0    0.10    1.07    1.44    61.02555    39.10005    30.07941
   207  H   1.0    0.05    1.06    1.44    63.16893    43.48990    32.39768
   208  H   1.0    0.05    1.03    1.43    62.24814    41.67071    27.09918
   209  H   1.0    0.05    1.04    1.43    62.76208    44.93776    27.45087
   210  H   1.0    0.04    1.05    1.44    66.38626    41.09889    29.69182
   211  H   1.0    0.04    1.00    1.43    69.14122    41.89774    25.96792
   212  H   1.0    0.04    1.00    1.43    66.31970    40.35429    25.09608
   213  H   1.0    0.04    1.00    1.43    66.69535    43.61504    24.50937
   214  H   1.0    0.04    1.00    1.43    69.32287    44.79017    29.65985
   215  H   1.0    0.04    1.00    1.43    66.93084    46.68189    28.32313
   216  H   1.0    0.05    1.00    1.43    66.58861    45.50547    31.40611
   217  N   5.0   -0.14    3.51    2.08    57.61045    44.26666    29.77767
   218  C   4.0    0.04    4.45    4.46    55.64010    46.11969    29.44194
   219  C   4.0    0.15    3.43    3.09    54.22699    46.75690    31.88379
   220  O   6.0   -0.32    1.33    1.80    53.34098    48.89955    32.18623
   221  C   4.0   -0.05    4.25    4.10    53.85680    45.32394    27.29845
   222  C   4.0   -0.05    4.18    3.96    52.43838    47.57223    26.16505
   223  C   4.0   -0.05    4.20    4.00    54.24722    49.42601    24.88800
   224  C   4.0   -0.03    4.13    3.86    52.88268    51.78540    23.96413
   225  N   5.0   -0.12    4.02    2.93    54.73089    53.89383    23.73493
   226  H   1.0    0.11    1.07    1.44    57.35051    42.49459    29.11236
   227  H   1.0    0.06    1.07    1.44    56.60296    47.88633    28.94039
   228  H   1.0    0.05    1.03    1.43    54.97384    44.40916    25.82422
   229  H   1.0    0.05    1.03    1.43    52.53510    43.92097    28.02759
   230  H   1.0    0.04    1.02    1.43    51.06335    46.89571    24.78606
   231  H   1.0    0.05    1.03    1.43    51.38728    48.53643    27.65225
   232  H   1.0    0.05    1.04    1.43    55.65693    50.02093    26.26279
   233  H   1.0    0.04    1.03    1.43    55.18449    48.46885    23.32726
   234  H   1.0    0.05    1.02    1.43    51.97613    51.44120    22.14946
   235  H   1.0    0.05    1.02    1.43    51.43079    52.34175    25.31412
   236  H   1.0    0.07    1.02    1.43    53.84570    55.51333    23.12842
   237  H   1.0    0.07    1.03    1.43    55.50151    54.21704    25.50649
   238  H   1.0    0.06    1.02    1.43    56.14136    53.41241    22.48198
   239  N   5.0   -0.13    3.47    2.06    54.08450    44.97404    33.64345
   240  C   4.0    0.03    4.38    4.35    52.74334    45.32961    36.03515
   241  C   4.0    0.16    3.49    3.11    53.44482    47.90031    37.18333
   242  O   6.0   -0.31    1.28    1.80    51.86373    49.49972    37.73156
   243  C   4.0   -0.05    4.32    4.23    53.38622    43.10162    37.78467
   244  C   4.0   -0.02    4.14    3.89    51.88019    42.82877    40.26824
   245  C   4.0   -0.07    4.09    3.79    52.60253    44.79805    42.25685
   246  C   4.0   -0.08    4.10    3.79    49.02784    42.86218    39.81409
   247  H   1.0    0.11    1.09    1.44    54.82243    43.23906    33.28995
   248  H   1.0    0.05    1.05    1.44    50.70639    45.39815    35.65235
   249  H   1.0    0.05    1.03    1.43    53.10278    41.38144    36.67627
   250  H   1.0    0.05    1.03    1.43    55.39619    43.20605    38.22498
   251  H   1.0    0.04    1.06    1.44    52.38693    40.96576    41.01757
   252  H   1.0    0.04    1.00    1.43    51.59028    44.44817    44.01197
   253  H   1.0    0.04    1.00    1.43    54.61750    44.74275    42.64891
   254  H   1.0    0.06    1.01    1.43    52.09518    46.68346    41.62644
   255  H   1.0    0.04    1.00    1.43    47.99409    42.36482    41.52117
   256  H   1.0    0.04    1.00    1.43    48.42394    44.74492    39.25736
   257  H   1.0    0.04    1.00    1.43    48.50052    41.52867    38.34004
   258  N   5.0   -0.14    3.48    2.07    55.91891    48.27161    37.56928
   259  C   4.0    0.04    4.38    4.35    56.87076    50.55339    38.77579
   260  C   4.0    0.16    3.47    3.10    55.81330    52.97814    37.59783
   261  O   6.0   -0.28    1.23    1.80    55.42461    54.85136    38.88889
   262  C   4.0   -0.05    4.33    4.25    59.78393    50.51272    38.73084
   263  C   4.0   -0.02    4.18    3.96    61.11684    53.09475    38.96253
   264  C   4.0   -0.07    4.10    3.81    63.65948    52.76182    40.29923
   265  C   4.0   -0.07    4.11    3.82    61.56874    54.27271    36.35881
   266  H   1.0    0.09    1.07    1.44    57.15841    46.89880    37.09147
   267  H   1.0    0.06    1.05    1.44    56.19283    50.58766    40.73757
   268  H   1.0    0.04    1.03    1.43    60.39619    49.29085    40.27503
   269  H   1.0    0.06    1.04    1.43    60.36946    49.63587    36.96022
   270  H   1.0    0.06    1.05    1.44    59.93612    54.38318    40.06595
   271  H   1.0    0.05    1.00    1.43    64.64000    54.56443    40.39058
   272  H   1.0    0.05    1.00    1.43    63.40624    52.05483    42.20903
   273  H   1.0    0.04    1.00    1.43    64.81361    51.43539    39.24063
   274  H   1.0    0.05    1.00    1.43    62.67272    55.99885    36.52047
   275  H   1.0    0.05    1.00    1.43    62.58690    52.96429    35.14481
   276  H   1.0    0.05    1.01    1.43    59.80615    54.76242    35.43425
   277  N   5.0   -0.14    3.49    2.07    55.55865    52.97058    35.06762
   278  C   4.0    0.04    4.38    4.34    54.82928    55.22682    33.72240
   279  C   4.0    0.17    3.42    3.09    51.99311    55.82336    33.63969
   280  O   6.0   -0.29    1.26    1.80    51.27685    57.71422    32.50474
   281  C   4.0    0.04    4.15    3.91    55.84002    55.21364    31.00513
   282  O   6.0   -0.26    2.05    1.83    54.89314    53.25027    29.47683
   283  H   1.0    0.11    1.09    1.44    55.51301    51.30272    34.13364
   284  H   1.0    0.06    1.06    1.44    55.68553    56.83294    34.72301
   285  H   1.0    0.06    1.02    1.43    55.26073    57.00850    30.15139
   286  H   1.0    0.04    1.01    1.43    57.91338    55.13026    31.03629
   287  H   1.0    0.15    1.06    1.44    54.22815    51.87169    30.50678
   288  N   5.0   -0.12    3.47    2.06    50.38512    54.19985    34.70034
   289  C   4.0    0.04    4.53    4.57    47.70055    54.73922    34.54221
   290  C   4.0    0.15    3.54    3.13    46.97153    56.83654    36.39843
   291  O   6.0   -0.27    1.27    1.80    47.87699    56.95514    38.52967
   292  C   4.0   -0.02    4.26    4.12    46.17950    52.29911    34.98564
   293  C   4.0   -0.05    4.13    3.87    46.14194    51.50698    37.75471
   294  C   4.0   -0.07    4.11    3.82    43.47481    52.59172    34.02639
   295  H   1.0    0.12    1.08    1.44    50.94098    52.78635    35.86515
   296  H   1.0    0.05    1.07    1.44    47.36396    55.41043    32.61433
   297  H   1.0    0.05    1.06    1.44    47.14171    50.83608    33.88024
   298  H   1.0    0.04    1.00    1.43    45.14122    49.72343    37.94279
   299  H   1.0    0.07    1.01    1.43    48.03529    51.27992    38.50851
   300  H   1.0    0.07    1.01    1.43    45.16526    52.92102    38.87494
   301  H   1.0    0.04    1.00    1.43    42.48317    50.79703    34.16254
   302  H   1.0    0.06    1.00    1.43    42.47310    53.95449    35.19369
   303  H   1.0    0.04    1.00    1.43    43.42989    53.20471    32.06563
   304  N   5.0   -0.09    3.68    2.25    45.25115    58.53390    35.63359
   305  C   4.0    0.04    4.51    4.55    44.24984    60.30057    37.49837
   306  C   4.0    0.10    3.25    3.04    43.01695    58.80022    39.63903
   307  O   6.0   -0.28    1.13    1.80    41.73935    56.91938    39.22653
   308  C   4.0   -0.04    4.33    4.25    42.32596    61.89367    36.02930
   309  C   4.0   -0.04    4.26    4.13    43.34231    61.78942    33.33059
   310  C   4.0   -0.01    4.35    4.29    44.28174    59.06678    33.12287
   311  H   1.0    0.06    1.04    1.43    45.79806    61.45228    38.24947
   312  H   1.0    0.06    1.03    1.43    40.46812    61.00494    36.12553
   313  H   1.0    0.05    1.02    1.43    42.17557    63.80313    36.77207
   314  H   1.0    0.05    1.02    1.43    41.91438    62.23168    31.92184
   315  H   1.0    0.05    1.02    1.43    44.92280    63.09152    33.11071
   316  H   1.0    0.04    1.02    1.43    42.71620    57.79320    32.67597
   317  H   1.0    0.05    1.02    1.43    45.77996    58.86576    31.72415
   318  N   5.0   -0.21    3.18    1.95    54.81435    20.90352    40.16766
   319  C   4.0    0.03    4.12    3.85    52.09464    21.33680    39.98659
   320  C   4.0    0.08    3.20    3.04    50.82138    20.93138    42.55671
   321  O   6.0   -0.30    1.12    1.80    49.27697    22.41818    43.42981
   322  C   4.0   -0.07    4.09    3.79    50.89951    19.61903    38.00679
   323  H   1.0    0.08    1.02    1.43    55.67824    19.85069    38.82801
   324  H   1.0    0.04    1.05    1.44    51.76022    23.31687    39.46888
   325  H   1.0    0.04    1.00    1.43    48.89012    20.00261    37.82797
   326  H   1.0    0.04    1.00    1.43    51.77458    19.92999    36.17608
   327  H   1.0    0.05    1.00    1.43    51.09928    17.63128    38.48575
   328  N   5.0   -0.20    3.20    1.95    52.44501    25.73185    47.52294
   329  C   4.0    0.04    4.24    4.08    51.00682    27.90721    46.70925
   330  C   4.0    0.09    3.22    3.04    48.22859    27.72302    47.41407
   331  O   6.0   -0.29    1.14    1.80    47.02273    29.67024    47.61638
   332  C   4.0   -0.04    4.35    4.28    51.29219    28.28794    43.85285
   333  C   4.0   -0.02    4.18    3.97    49.90348    30.61007    42.79164
   334  C   4.0   -0.07    4.10    3.79    50.96856    33.10056    43.79531
   335  C   4.0   -0.08    4.11    3.81    50.03783    30.56732    39.90825
   336  H   1.0    0.09    1.03    1.43    53.17272    24.58339    46.17869
   337  H   1.0    0.05    1.06    1.44    51.70856    29.58074    47.70957
   338  H   1.0    0.03    1.03    1.43    53.31345    28.41680    43.46885
   339  H   1.0    0.06    1.04    1.43    50.56603    26.58632    42.94323
   340  H   1.0    0.06    1.06    1.44    47.91667    30.48706    43.34019
   341  H   1.0    0.04    1.00    1.43    49.99713    34.67047    42.89513
   342  H   1.0    0.05    1.00    1.43    50.66659    33.25508    45.81822
   343  H   1.0    0.04    1.00    1.43    52.97615    33.24564    43.39914
   344  H   1.0    0.04    1.00    1.43    48.88467    32.08157    39.14682
   345  H   1.0    0.03    1.00    1.43    51.97142    30.83085    39.27537
   346  H   1.0    0.04    1.00    1.43    49.32508    28.79722    39.14608
   347  N   5.0   -0.21    3.27    1.97    39.18121    44.76196    30.10532
   348  C   4.0    0.02    4.40    4.37    41.68110    44.07964    29.21437
   349  C   4.0    0.14    3.44    3.09    41.46183    42.22797    27.00927
   350  O   6.0   -0.32    1.25    1.80    42.87856    42.24844    25.16683
   351  C   4.0   -0.02    4.26    4.13    43.30172    42.88190    31.30873
   352  C   4.0   -0.07    4.12    3.83    46.07405    42.83030    30.49105
   353  C   4.0   -0.08    4.12    3.85    43.04445    44.30922    33.80542
   354  H   1.0    0.08    1.03    1.43    38.65308    44.30529    31.88445
   355  H   1.0    0.04    1.05    1.44    42.60726    45.79512    28.50150
   356  H   1.0    0.04    1.06    1.44    42.61892    40.94851    31.56830
   357  H   1.0    0.04    1.00    1.43    47.16939    41.70851    31.81618
   358  H   1.0    0.05    1.00    1.43    46.30061    42.01573    28.61867
   359  H   1.0    0.04    1.00    1.43    46.84623    44.73462    30.44097
   360  H   1.0    0.04    1.00    1.43    44.42422    43.58432    35.14197
   361  H   1.0    0.04    1.00    1.43    43.40077    46.30981    33.50982
   362  H   1.0    0.04    1.00    1.43    41.18489    44.08665    34.65216
   363  N   5.0   -0.15    3.48    2.07    39.65477    40.48972    27.29331
   364  C   4.0    0.03    4.34    4.27    39.29967    38.54000    25.41538
   365  C   4.0    0.09    3.25    3.04    38.46122    39.62636    22.86955
   366  O   6.0   -0.31    1.23    1.80    39.60248    39.05869    20.92543
   367  C   4.0   -0.05    4.36    4.30    37.34712    36.60098    26.27275
   368  C   4.0   -0.03    4.17    3.93    38.04830    35.05992    28.62908
   369  C   4.0   -0.07    4.12    3.83    35.85950    33.26508    29.20523
   370  C   4.0   -0.08    4.10    3.81    40.46090    33.51483    28.28299
   371  H   1.0    0.07    1.07    1.44    38.50817    40.48948    28.82722
   372  H   1.0    0.05    1.06    1.44    41.13256    37.63462    25.06006
   373  H   1.0    0.04    1.03    1.43    35.60090    37.63408    26.63463
   374  H   1.0    0.05    1.03    1.43    37.03600    35.29935    24.70627
   375  H   1.0    0.04    1.05    1.44    38.29212    36.34994    30.22422
   376  H   1.0    0.04    1.00    1.43    36.26988    32.16089    30.88497
   377  H   1.0    0.05    1.00    1.43    34.10365    34.28913    29.50613
   378  H   1.0    0.05    1.00    1.43    35.58669    31.96442    27.63869
   379  H   1.0    0.04    1.00    1.43    40.93861    32.55371    30.03508
   380  H   1.0    0.04    1.00    1.43    40.20034    32.09115    26.82452
   381  H   1.0    0.04    1.00    1.43    42.06453    34.68622    27.76974
   382  N   5.0   -0.20    3.25    1.97    39.01863    44.89494    20.60166
   383  C   4.0    0.04    4.33    4.25    40.75204    46.78213    19.66228
   384  C   4.0    0.15    3.42    3.08    43.10961    45.59511    18.49247
   385  O   6.0   -0.28    1.23    1.80    44.13499    46.50506    16.63830
   386  C   4.0   -0.03    4.27    4.14    41.50542    48.58782    21.76451
   387  C   4.0    0.26    3.10    3.02    42.60192    51.10491    20.65016
   388  O   6.0   -0.27    1.17    1.80    41.25657    52.23538    19.08939
   389  O   6.0   -0.28    1.16    1.80    44.70044    51.77151    21.47412
   390  H   1.0    0.09    1.03    1.43    39.05744    44.51486    22.47347
   391  H   1.0    0.07    1.06    1.44    39.81894    47.84978    18.14666
   392  H   1.0    0.05    1.03    1.43    39.83420    49.05922    22.87865
   393  H   1.0    0.06    1.03    1.43    42.90819    47.71530    22.99409
   394  N   5.0   -0.14    3.47    2.06    43.96293    43.49095    19.64821
   395  C   4.0    0.03    4.43    4.43    46.23769    42.23990    18.80382
   396  C   4.0    0.14    3.46    3.10    45.84953    39.44197    18.19079
   397  O   6.0   -0.30    1.25    1.80    46.87455    38.42432    16.39343
   398  C   4.0   -0.04    4.32    4.24    48.40380    42.41982    20.73727
   399  C   4.0   -0.04    4.09    3.78    50.85810    41.53113    19.50857
   400  S   6.0   -0.05    2.51    3.10    53.17769    40.30600    21.72435
   401  C   4.0   -0.05    3.91    3.48    51.72207    37.28800    22.30935
   402  H   1.0    0.11    1.08    1.44    43.13211    42.92861    21.27363
   403  H   1.0    0.07    1.07    1.44    46.79944    43.21254    17.06461
   404  H   1.0    0.05    1.03    1.43    48.56347    44.37702    21.36332
   405  H   1.0    0.05    1.03    1.43    47.89114    41.28085    22.38219
   406  H   1.0    0.06    1.09    1.44    50.48968    39.99524    18.18589
   407  H   1.0    0.05    1.07    1.44    51.75382    43.08064    18.50565
   408  H   1.0    0.06    1.05    1.44    52.85178    36.22375    23.63750
   409  H   1.0    0.05    1.04    1.43    49.84712    37.55602    23.09716
   410  H   1.0    0.06    1.04    1.43    51.56868    36.22559    20.56029
   411  N   5.0   -0.14    3.43    2.03    44.48215    38.14374    19.88607
   412  C   4.0    0.02    4.28    4.15    43.95472    35.49435    19.48623
   413  C   4.0    0.16    3.34    3.06    42.62216    34.96415    16.95815
   414  O   6.0   -0.30    1.24    1.80    43.14602    33.12038    15.68063
   415  H   1.0    0.10    1.08    1.44    43.50971    39.08595    21.22889
   416  H   1.0    0.06    1.02    1.43    45.73049    34.43558    19.52120
   417  H   1.0    0.05    1.03    1.43    42.74252    34.81529    21.00579
   418  N   5.0   -0.14    3.49    2.07    40.74899    36.59343    16.47543
   419  C   4.0    0.04    4.37    4.33    39.36221    36.78206    14.11234
   420  C   4.0    0.16    3.42    3.09    38.26430    34.20601    13.32149
   421  O   6.0   -0.29    1.25    1.80    38.52135    33.34506    11.20752
   422  C   4.0   -0.03    4.37    4.33    40.96114    37.82056    11.92893
   423  C   4.0   -0.02    4.18    3.95    42.18724    40.39554    12.40639
   424  C   4.0   -0.06    4.12    3.83    43.90749    41.02833    10.17791
   425  C   4.0   -0.06    4.11    3.81    40.24505    42.49908    12.72549
   426  H   1.0    0.11    1.12    1.45    40.53401    38.01392    17.74156
   427  H   1.0    0.05    1.05    1.44    37.78032    38.06753    14.46542
   428  H   1.0    0.07    1.03    1.43    42.42973    36.43762    11.49657
   429  H   1.0    0.06    1.03    1.43    39.74831    37.95221    10.26798
   430  H   1.0    0.06    1.06    1.44    43.34363    40.28476    14.11540
   431  H   1.0    0.05    1.00    1.43    44.83956    42.83271    10.48859
   432  H   1.0    0.05    1.00    1.43    45.34842    39.58609     9.92572
   433  H   1.0    0.05    1.00    1.43    42.78902    41.15493     8.45900
   434  H   1.0    0.06    1.00    1.43    41.18680    44.29113    13.09397
   435  H   1.0    0.05    1.00    1.43    39.12207    42.70559    11.01811
   436  H   1.0    0.05    1.00    1.43    38.97564    42.16322    14.30057
   437  N   5.0   -0.13    3.47    2.06    36.86847    33.04011    15.10779
   438  C   4.0    0.04    4.33    4.25    35.90275    30.51998    14.71178
   439  C   4.0    0.09    3.23    3.04    33.07754    30.41664    15.22367
   440  O   6.0   -0.27    1.13    1.80    32.08329    31.54104    16.98107
   441  C   4.0   -0.03    4.29    4.18    37.16047    28.62785    16.51941
   442  C   4.0   -0.03    4.23    4.07    39.93664    28.19113    15.87396
   443  C   4.0    0.15    3.22    3.04    41.23227    26.75637    17.99801
   444  O   6.0   -0.29    1.20    1.80    40.41625    24.77568    18.85898
   445  N   5.0   -0.19    3.19    1.95    43.32513    27.88816    18.87437
   446  H   1.0    0.09    1.06    1.44    36.78133    33.73778    16.87902
   447  H   1.0    0.06    1.07    1.44    36.30411    30.03375    12.74435
   448  H   1.0    0.06    1.03    1.43    37.01751    29.39286    18.43077
   449  H   1.0    0.06    1.03    1.43    36.16386    26.82586    16.47750
   450  H   1.0    0.06    1.03    1.43    40.08709    27.08633    14.14143
   451  H   1.0    0.07    1.06    1.44    40.89642    29.98383    15.57377
   452  H   1.0    0.10    1.03    1.43    43.95254    29.52234    18.12464
   453  H   1.0    0.09    1.03    1.43    44.30462    27.11297    20.31506
   454  H   1.0    0.09    1.08    1.44    40.45548    23.43595    32.93746
   455  H   1.0    0.06    1.04    1.44    42.79410    17.70137    30.71425
   456  H   1.0    0.10    1.08    1.44    42.39707    19.84362    22.51452
   457  H   1.0    0.06    1.05    1.44    43.24595    59.35048    41.43230
   458  H   1.0    0.09    1.07    1.44    55.63075    22.39497    40.12737
   459  H   1.0    0.06    1.05    1.44    51.24230    19.40587    43.58954
   460  H   1.0    0.09    1.07    1.44    53.78427    26.24605    48.43649
   461  H   1.0    0.07    1.04    1.44    47.43620    26.03126    47.69888
   462  H   1.0    0.09    1.07    1.44    38.99596    46.45125    30.03790
   463  H   1.0    0.05    1.04    1.44    36.98283    40.80028    22.78399
   464  H   1.0    0.10    1.07    1.44    37.42116    45.37862    20.27503
   465  H   1.0    0.06    1.05    1.44    31.95031    29.39806    14.09988

  Z AO/shell   Hii/eV     exponent
  1     Wed Apr 25 08:07:45 CEST 2018   EN: 2.200 GM2: 0.406  GM3: 0.0800  RAES: 1.40
     1s    -10.707211    1.230000
  6     Wed Apr 25 08:07:45 CEST 2018   EN: 2.550 GM2: 0.538  GM3: 0.1500  RAES: 3.00
     2s    -13.970922    2.096432
     2p    -10.063292    1.800000
  7     Wed Apr 25 08:07:45 CEST 2018   EN: 3.040 GM2: 0.461  GM3:-0.0640  RAES: 1.90
     2s    -16.686243    2.339881
     2p    -12.523956    2.014332
  8     Wed Apr 25 08:07:45 CEST 2018   EN: 3.440 GM2: 0.452  GM3:-0.0517  RAES: 1.80
     2s    -20.229985    2.439742
     2p    -15.503117    2.137023
 16     Tue Apr 24 11:44:34 CEST 2018   EN: 2.580 GM2: 0.340  GM3:-0.0502  RAES: 3.10
     3s    -20.029654    1.981333
     3p    -11.377694    2.025643
     3d     -0.420282    1.702555
 no old-style atom pair restraining (fixing) potential

molecular fragmentation (1/2 indicates fragments):
111111111111111111122222222222222222222222222222222222222222222222222222
222222222222222222222222222222222222222222222222222222222222222222222222
222222222222222222222222222222222222222222222222222222222222222222222222
222222222222222222222222222222222222222222222222222222222222222222222222
222222222222222222222222222222222222222222222222222222222222222222222222
222222222222222222222222222222222222222222222222222222222222222222222222
222222222222222222222112222222222
# atoms in fragment 1/2:    21   444
 fragment masses (1/2) :      115.17     2891.64
CMA distance (Bohr)    :  17.335
constraining FC (au)   :  0.0500
           ------------------------------------------------- 
          |        Self-Consistent Charge Iterations        |
           ------------------------------------------------- 

 Ncao       : 1101
 Nao        : 1100
 Nshell     : 676
 Nel        : 1200
 T(el)      :   500.0
 intcut     :    35.0
 scfconv/Eh :  0.100E-06
   qconv/e  :  0.100E-04
 intneglect :  0.100E-08
 broydamp   :      0.400
 iter      E             dE          RMSdq      gap      omega  full diag
   1   -681.9951727 -0.681995E+03  0.431E+00    3.12       0.0  T
   2   -683.4561785 -0.146101E+01  0.205E+00    1.70       1.0  T
   3   -683.5459747 -0.897962E-01  0.115E+00    1.83       1.0  T
   4   -683.6449580 -0.989833E-01  0.262E-01    0.96       1.0  T
   5   -683.6511363 -0.617835E-02  0.133E-01    1.11       1.0  T
   6   -683.6521071 -0.970777E-03  0.580E-02    1.05       1.0  T
   7   -683.6524410 -0.333913E-03  0.281E-02    1.06       1.0  T
   8   -683.6524974 -0.563722E-04  0.134E-02    1.06       1.0  T
   9   -683.6525173 -0.198569E-04  0.649E-03    1.05       1.0  T
  10   -683.6525209 -0.360896E-05  0.299E-03    1.05       1.5  T
  11   -683.6525218 -0.965231E-06  0.135E-03    1.05       3.4  T
  12   -683.6525220 -0.140326E-06  0.602E-04    1.05       7.7  T
  13   -683.6525220 -0.308598E-07  0.333E-04    1.05      13.9  T
  14   -683.6525220 -0.849434E-08  0.126E-04    1.05      36.8  T
  15   -683.6525220 -0.171826E-08  0.638E-05    1.05      72.6  T
  16   -683.6525220 -0.388809E-09  0.304E-05    1.05     152.7  T
speedup  1.00
cpu  time for SCC   10.01 s
wall time for SCC   10.00 s

   *** convergence criteria satisfied after 16 iterations ***

          eigenvalues
 #    :         588        589        590        591        592        593        594        595
 occ. :        2.000      2.000      2.000      2.000      2.000      2.000      2.000      2.000
 eps  :       -10.473    -10.439    -10.391    -10.271    -10.187    -10.150    -10.136    -10.109
 #    :         596        597        598        599        600        601        602        603
 occ. :        2.000      2.000      2.000      2.000      2.000      0.000      0.000      0.000
 eps  :       -10.012     -9.946     -9.830     -9.684     -9.683     -8.637     -8.170     -7.941
 #    :         604        605        606        607        608        609        610        611
 occ. :        0.000      0.000      0.000      0.000      0.000      0.000      0.000      0.000
 eps  :        -7.770     -7.753     -7.388     -6.748     -6.568     -6.558     -6.537     -6.383


   #   Z            q   n(s)   n(p)   n(d)      C6AA      α(0)
   1   7 N     -0.393  1.312  4.081  0.000    30.169     8.157
   2   6 C      0.039  1.054  2.907  0.000    19.947     6.363
   3   6 C      0.194  1.093  2.713  0.000    23.853     7.998
   4   8 O     -0.380  1.756  4.623  0.000    21.281     6.185
   5   6 C     -0.068  1.057  3.010  0.000    21.795     6.646
   6   6 C     -0.008  1.058  2.950  0.000    20.689     6.470
   7   6 C     -0.111  1.039  3.072  0.000    22.677     6.790
   8   6 C     -0.111  1.038  3.072  0.000    22.671     6.789
   9   1 H      0.162  0.838  0.000  0.000     1.324     1.802
  10   1 H      0.074  0.926  0.000  0.000     2.045     2.237
  11   1 H      0.031  0.969  0.000  0.000     2.568     2.506
  12   1 H      0.050  0.950  0.000  0.000     2.320     2.382
  13   1 H      0.043  0.957  0.000  0.000     2.406     2.426
  14   1 H      0.052  0.948  0.000  0.000     2.298     2.371
  15   1 H      0.039  0.961  0.000  0.000     2.466     2.456
  16   1 H      0.029  0.971  0.000  0.000     2.599     2.521
  17   1 H      0.043  0.957  0.000  0.000     2.409     2.427
  18   1 H      0.036  0.964  0.000  0.000     2.503     2.474
  19   1 H      0.033  0.967  0.000  0.000     2.540     2.492
  20   7 N     -0.382  1.310  4.071  0.000    29.870     8.117
  21   6 C      0.033  1.058  2.909  0.000    20.030     6.375
  22   6 C      0.277  1.049  2.674  0.000    22.312     7.735
  23   8 O     -0.470  1.746  4.724  0.000    23.137     6.449
  24   6 C     -0.065  1.058  3.006  0.000    21.734     6.636
  25   6 C      0.002  1.052  2.946  0.000    20.512     6.442
  26   6 C     -0.096  1.035  3.061  0.000    22.385     6.746
  27   6 C     -0.108  1.040  3.068  0.000    22.621     6.780
  28   1 H      0.151  0.849  0.000  0.000     1.391     1.848
  29   1 H      0.046  0.954  0.000  0.000     2.377     2.411
  30   1 H      0.022  0.978  0.000  0.000     2.708     2.573
  31   1 H      0.033  0.967  0.000  0.000     2.546     2.495
  32   1 H      0.017  0.983  0.000  0.000     2.774     2.605
  33   1 H      0.041  0.959  0.000  0.000     2.431     2.438
  34   1 H      0.018  0.982  0.000  0.000     2.760     2.598
  35   1 H      0.043  0.957  0.000  0.000     2.415     2.430
  36   1 H      0.052  0.948  0.000  0.000     2.300     2.372
  37   1 H      0.039  0.961  0.000  0.000     2.463     2.454
  38   1 H      0.022  0.978  0.000  0.000     2.697     2.568
  39   7 N     -0.179  1.242  3.937  0.000    24.867     7.406
  40   6 C      0.013  1.061  2.926  0.000    20.356     6.424
  41   6 C      0.277  1.043  2.680  0.000    22.315     7.736
  42   8 O     -0.480  1.741  4.739  0.000    23.351     6.479
  43   6 C      0.109  1.053  2.838  0.000    18.880     6.204
  44   8 O     -0.494  1.728  4.767  0.000    22.769     6.441
  45   6 C     -0.142  1.044  3.098  0.000    23.290     6.882
  46   1 H      0.192  0.808  0.000  0.000     1.146     1.677
  47   1 H      0.084  0.916  0.000  0.000     1.940     2.178
  48   1 H      0.042  0.958  0.000  0.000     2.420     2.433
  49   1 H      0.340  0.660  0.000  0.000     0.613     1.229
  50   1 H      0.072  0.928  0.000  0.000     2.059     2.244
  51   1 H      0.068  0.932  0.000  0.000     2.105     2.269
  52   1 H      0.062  0.938  0.000  0.000     2.173     2.305
  53   7 N     -0.194  1.253  3.941  0.000    25.203     7.456
  54   6 C      0.022  1.061  2.917  0.000    20.206     6.401
  55   6 C      0.280  1.040  2.681  0.000    22.268     7.727
  56   8 O     -0.471  1.735  4.736  0.000    23.149     6.451
  57   6 C     -0.139  1.044  3.095  0.000    23.227     6.871
  58   1 H      0.218  0.782  0.000  0.000     1.016     1.579
  59   1 H      0.079  0.921  0.000  0.000     1.988     2.205
  60   1 H      0.084  0.916  0.000  0.000     1.935     2.175
  61   1 H      0.083  0.917  0.000  0.000     1.952     2.185
  62   1 H      0.067  0.933  0.000  0.000     2.123     2.278
  63   7 N     -0.188  1.248  3.940  0.000    25.085     7.439
  64   6 C      0.026  1.060  2.914  0.000    20.140     6.390
  65   6 C      0.287  1.042  2.672  0.000    22.145     7.706
  66   8 O     -0.482  1.734  4.748  0.000    23.391     6.484
  67   6 C     -0.059  1.054  3.005  0.000    21.626     6.620
  68   6 C     -0.095  1.066  3.028  0.000    22.307     6.725
  69   6 C      0.371  1.024  2.605  0.000    20.714     7.448
  70   8 O     -0.628  1.763  4.864  0.000    26.806     6.942
  71   8 O     -0.650  1.778  4.873  0.000    27.391     7.017
  72   1 H      0.198  0.802  0.000  0.000     1.114     1.654
  73   1 H      0.093  0.907  0.000  0.000     1.851     2.127
  74   1 H      0.044  0.956  0.000  0.000     2.402     2.424
  75   1 H      0.041  0.959  0.000  0.000     2.432     2.439
  76   1 H      0.025  0.975  0.000  0.000     2.655     2.548
  77   1 H      0.019  0.981  0.000  0.000     2.752     2.594
  78   7 N     -0.198  1.253  3.945  0.000    25.301     7.471
  79   6 C      0.042  1.057  2.901  0.000    19.872     6.347
  80   6 C      0.306  1.038  2.656  0.000    21.810     7.647
  81   8 O     -0.505  1.729  4.776  0.000    23.890     6.553
  82   6 C     -0.053  1.050  3.003  0.000    21.520     6.604
  83   6 C     -0.091  1.065  3.026  0.000    22.240     6.715
  84   6 C      0.371  1.023  2.606  0.000    20.719     7.449
  85   8 O     -0.616  1.762  4.854  0.000    26.522     6.905
  86   8 O     -0.635  1.767  4.868  0.000    27.004     6.967
  87   1 H      0.210  0.790  0.000  0.000     1.058     1.612
  88   1 H      0.043  0.957  0.000  0.000     2.404     2.425
  89   1 H      0.033  0.967  0.000  0.000     2.543     2.494
  90   1 H      0.050  0.950  0.000  0.000     2.319     2.381
  91   1 H      0.014  0.986  0.000  0.000     2.824     2.628
  92   1 H      0.012  0.988  0.000  0.000     2.859     2.644
  93   7 N     -0.184  1.253  3.931  0.000    24.980     7.423
  94   6 C      0.038  1.057  2.905  0.000    19.947     6.360
  95   6 C      0.285  1.042  2.673  0.000    22.176     7.711
  96   8 O     -0.492  1.727  4.765  0.000    23.614     6.515
  97   6 C     -0.075  1.059  3.015  0.000    21.919     6.665
  98   6 C     -0.019  1.060  2.960  0.000    20.889     6.501
  99   6 C     -0.143  1.047  3.096  0.000    23.317     6.886
 100   6 C     -0.123  1.041  3.082  0.000    22.918     6.826
 101   1 H      0.198  0.802  0.000  0.000     1.114     1.653
 102   1 H      0.066  0.934  0.000  0.000     2.134     2.284
 103   1 H      0.029  0.971  0.000  0.000     2.594     2.519
 104   1 H      0.061  0.939  0.000  0.000     2.188     2.313
 105   1 H      0.048  0.952  0.000  0.000     2.341     2.393
 106   1 H      0.076  0.924  0.000  0.000     2.016     2.221
 107   1 H      0.052  0.948  0.000  0.000     2.294     2.369
 108   1 H      0.057  0.943  0.000  0.000     2.237     2.339
 109   1 H      0.064  0.936  0.000  0.000     2.152     2.294
 110   1 H      0.048  0.952  0.000  0.000     2.342     2.393
 111   1 H      0.023  0.977  0.000  0.000     2.695     2.567
 112   7 N     -0.169  1.241  3.928  0.000    24.649     7.374
 113   6 C      0.011  1.068  2.922  0.000    20.400     6.431
 114   6 C      0.274  1.043  2.684  0.000    22.371     7.745
 115   8 O     -0.473  1.729  4.743  0.000    23.189     6.456
 116   6 C     -0.086  1.059  3.027  0.000    22.134     6.698
 117   6 C     -0.077  1.050  3.027  0.000    21.969     6.673
 118   6 C     -0.094  1.054  3.040  0.000    22.298     6.723
 119   6 C     -0.056  1.062  2.994  0.000    21.669     6.645
 120   7 N     -0.148  1.229  3.919  0.000    24.193     7.305
 121   1 H      0.191  0.809  0.000  0.000     1.153     1.682
 122   1 H      0.099  0.901  0.000  0.000     1.796     2.096
 123   1 H      0.076  0.924  0.000  0.000     2.019     2.222
 124   1 H      0.048  0.952  0.000  0.000     2.344     2.394
 125   1 H      0.052  0.948  0.000  0.000     2.299     2.371
 126   1 H      0.075  0.925  0.000  0.000     2.034     2.230
 127   1 H      0.068  0.932  0.000  0.000     2.107     2.270
 128   1 H      0.084  0.916  0.000  0.000     1.939     2.177
 129   1 H      0.132  0.868  0.000  0.000     1.522     1.929
 130   1 H      0.119  0.881  0.000  0.000     1.621     1.991
 131   1 H      0.307  0.693  0.000  0.000     0.693     1.304
 132   1 H      0.291  0.709  0.000  0.000     0.742     1.349
 133   1 H      0.298  0.702  0.000  0.000     0.719     1.328
 134   7 N     -0.173  1.245  3.928  0.000    24.754     7.389
 135   6 C      0.015  1.063  2.922  0.000    20.321     6.418
 136   6 C      0.276  1.042  2.681  0.000    22.324     7.737
 137   8 O     -0.473  1.732  4.741  0.000    23.191     6.457
 138   6 C     -0.086  1.054  3.032  0.000    22.145     6.699
 139   6 C     -0.073  1.048  3.025  0.000    21.901     6.663
 140   6 C     -0.096  1.052  3.044  0.000    22.330     6.728
 141   6 C     -0.060  1.061  2.999  0.000    21.760     6.659
 142   7 N     -0.142  1.226  3.916  0.000    24.058     7.285
 143   1 H      0.204  0.796  0.000  0.000     1.087     1.633
 144   1 H      0.095  0.905  0.000  0.000     1.832     2.117
 145   1 H      0.044  0.956  0.000  0.000     2.393     2.419
 146   1 H      0.077  0.923  0.000  0.000     2.014     2.219
 147   1 H      0.050  0.950  0.000  0.000     2.320     2.382
 148   1 H      0.044  0.956  0.000  0.000     2.391     2.418
 149   1 H      0.094  0.906  0.000  0.000     1.844     2.123
 150   1 H      0.081  0.919  0.000  0.000     1.965     2.192
 151   1 H      0.127  0.873  0.000  0.000     1.558     1.952
 152   1 H      0.138  0.862  0.000  0.000     1.478     1.901
 153   1 H      0.304  0.696  0.000  0.000     0.700     1.311
 154   1 H      0.295  0.705  0.000  0.000     0.729     1.337
 155   1 H      0.274  0.726  0.000  0.000     0.797     1.398
 156   7 N     -0.184  1.246  3.937  0.000    24.979     7.423
 157   6 C      0.042  1.057  2.901  0.000    19.876     6.347
 158   6 C      0.279  1.040  2.681  0.000    22.279     7.729
 159   8 O     -0.500  1.742  4.758  0.000    23.794     6.540
 160   6 C     -0.067  1.050  3.017  0.000    21.777     6.642
 161   6 C      0.014  1.082  2.904  0.000    27.694     8.632
 162   6 C     -0.034  1.077  2.956  0.000    28.838     8.807
 163   6 C     -0.044  1.081  2.963  0.000    29.081     8.844
 164   6 C     -0.031  1.077  2.953  0.000    28.765     8.795
 165   6 C     -0.034  1.080  2.954  0.000    28.849     8.808
 166   6 C     -0.038  1.079  2.959  0.000    28.956     8.824
 167   1 H      0.200  0.800  0.000  0.000     1.105     1.647
 168   1 H      0.044  0.956  0.000  0.000     2.395     2.420
 169   1 H      0.052  0.948  0.000  0.000     2.294     2.369
 170   1 H      0.062  0.938  0.000  0.000     2.180     2.309
 171   1 H      0.008  0.992  0.000  0.000     2.919     2.672
 172   1 H      0.057  0.943  0.000  0.000     2.236     2.338
 173   1 H      0.023  0.977  0.000  0.000     2.691     2.565
 174   1 H      0.051  0.949  0.000  0.000     2.309     2.376
 175   1 H      0.040  0.960  0.000  0.000     2.455     2.450
 176   7 N     -0.170  1.240  3.929  0.000    24.670     7.377
 177   6 C      0.012  1.063  2.925  0.000    20.381     6.428
 178   6 C      0.275  1.041  2.684  0.000    22.358     7.744
 179   8 O     -0.499  1.750  4.750  0.000    23.766     6.536
 180   6 C     -0.094  1.058  3.036  0.000    22.288     6.720
 181   6 C     -0.091  1.054  3.037  0.000    22.232     6.713
 182   6 C     -0.097  1.051  3.046  0.000    22.348     6.730
 183   6 C     -0.059  1.060  2.999  0.000    21.725     6.653
 184   7 N     -0.122  1.219  3.903  0.000    23.641     7.222
 185   1 H      0.220  0.780  0.000  0.000     1.011     1.575
 186   1 H      0.080  0.920  0.000  0.000     1.981     2.201
 187   1 H      0.087  0.913  0.000  0.000     1.910     2.161
 188   1 H      0.073  0.927  0.000  0.000     2.057     2.243
 189   1 H      0.058  0.942  0.000  0.000     2.223     2.332
 190   1 H      0.087  0.913  0.000  0.000     1.910     2.161
 191   1 H      0.091  0.909  0.000  0.000     1.865     2.136
 192   1 H      0.069  0.931  0.000  0.000     2.098     2.265
 193   1 H      0.131  0.869  0.000  0.000     1.530     1.934
 194   1 H      0.120  0.880  0.000  0.000     1.611     1.985
 195   1 H      0.292  0.708  0.000  0.000     0.737     1.345
 196   1 H      0.271  0.729  0.000  0.000     0.805     1.406
 197   1 H      0.280  0.720  0.000  0.000     0.778     1.381
 198   7 N     -0.176  1.247  3.929  0.000    24.816     7.399
 199   6 C      0.018  1.062  2.920  0.000    20.272     6.410
 200   6 C      0.279  1.043  2.678  0.000    22.275     7.729
 201   8 O     -0.495  1.746  4.749  0.000    23.673     6.523
 202   6 C     -0.085  1.062  3.022  0.000    22.111     6.693
 203   6 C     -0.015  1.059  2.956  0.000    20.803     6.488
 204   6 C     -0.125  1.043  3.082  0.000    22.959     6.832
 205   6 C     -0.118  1.042  3.077  0.000    22.820     6.811
 206   1 H      0.219  0.781  0.000  0.000     1.015     1.578
 207   1 H      0.078  0.922  0.000  0.000     1.998     2.210
 208   1 H      0.072  0.928  0.000  0.000     2.058     2.244
 209   1 H      0.060  0.940  0.000  0.000     2.199     2.319
 210   1 H      0.048  0.952  0.000  0.000     2.340     2.392
 211   1 H      0.052  0.948  0.000  0.000     2.297     2.370
 212   1 H      0.049  0.951  0.000  0.000     2.335     2.389
 213   1 H      0.047  0.953  0.000  0.000     2.355     2.400
 214   1 H      0.046  0.954  0.000  0.000     2.371     2.408
 215   1 H      0.040  0.960  0.000  0.000     2.445     2.445
 216   1 H      0.030  0.970  0.000  0.000     2.581     2.512
 217   7 N     -0.183  1.240  3.943  0.000    24.958     7.420
 218   6 C      0.014  1.062  2.924  0.000    20.335     6.420
 219   6 C      0.272  1.046  2.682  0.000    22.406     7.751
 220   8 O     -0.515  1.747  4.768  0.000    24.109     6.583
 221   6 C     -0.076  1.055  3.021  0.000    21.952     6.670
 222   6 C     -0.067  1.048  3.020  0.000    21.790     6.646
 223   6 C     -0.105  1.057  3.048  0.000    22.510     6.754
 224   6 C     -0.045  1.056  2.988  0.000    21.469     6.614
 225   7 N     -0.150  1.233  3.917  0.000    24.232     7.311
 226   1 H      0.214  0.786  0.000  0.000     1.040     1.597
 227   1 H      0.097  0.903  0.000  0.000     1.816     2.108
 228   1 H      0.088  0.912  0.000  0.000     1.899     2.155
 229   1 H      0.043  0.957  0.000  0.000     2.413     2.429
 230   1 H      0.047  0.953  0.000  0.000     2.356     2.400
 231   1 H      0.046  0.954  0.000  0.000     2.373     2.409
 232   1 H      0.090  0.910  0.000  0.000     1.883     2.146
 233   1 H      0.096  0.904  0.000  0.000     1.818     2.109
 234   1 H      0.107  0.893  0.000  0.000     1.719     2.050
 235   1 H      0.101  0.899  0.000  0.000     1.776     2.084
 236   1 H      0.294  0.706  0.000  0.000     0.730     1.339
 237   1 H      0.296  0.704  0.000  0.000     0.725     1.334
 238   1 H      0.308  0.692  0.000  0.000     0.689     1.301
 239   7 N     -0.169  1.250  3.920  0.000    24.668     7.376
 240   6 C      0.026  1.063  2.911  0.000    20.152     6.393
 241   6 C      0.290  1.040  2.670  0.000    22.088     7.696
 242   8 O     -0.503  1.750  4.753  0.000    23.848     6.547
 243   6 C     -0.083  1.062  3.021  0.000    22.078     6.689
 244   6 C     -0.014  1.060  2.954  0.000    20.797     6.487
 245   6 C     -0.115  1.039  3.076  0.000    22.759     6.803
 246   6 C     -0.114  1.038  3.076  0.000    22.737     6.799
 247   1 H      0.227  0.773  0.000  0.000     0.979     1.550
 248   1 H      0.066  0.934  0.000  0.000     2.127     2.281
 249   1 H      0.069  0.931  0.000  0.000     2.100     2.266
 250   1 H      0.067  0.933  0.000  0.000     2.124     2.279
 251   1 H      0.059  0.941  0.000  0.000     2.209     2.325
 252   1 H      0.046  0.954  0.000  0.000     2.376     2.410
 253   1 H      0.043  0.957  0.000  0.000     2.406     2.426
 254   1 H      0.024  0.976  0.000  0.000     2.672     2.556
 255   1 H      0.046  0.954  0.000  0.000     2.372     2.408
 256   1 H      0.030  0.970  0.000  0.000     2.581     2.513
 257   1 H      0.041  0.959  0.000  0.000     2.437     2.441
 258   7 N     -0.181  1.246  3.935  0.000    24.918     7.414
 259   6 C      0.026  1.063  2.911  0.000    20.153     6.393
 260   6 C      0.291  1.039  2.669  0.000    22.063     7.692
 261   8 O     -0.500  1.757  4.743  0.000    23.786     6.539
 262   6 C     -0.084  1.065  3.019  0.000    22.100     6.692
 263   6 C     -0.010  1.056  2.955  0.000    20.728     6.476
 264   6 C     -0.121  1.045  3.076  0.000    22.868     6.818
 265   6 C     -0.119  1.042  3.077  0.000    22.834     6.813
 266   1 H      0.214  0.786  0.000  0.000     1.035     1.594
 267   1 H      0.061  0.939  0.000  0.000     2.183     2.311
 268   1 H      0.068  0.932  0.000  0.000     2.108     2.270
 269   1 H      0.073  0.927  0.000  0.000     2.052     2.240
 270   1 H      0.028  0.972  0.000  0.000     2.619     2.531
 271   1 H      0.045  0.955  0.000  0.000     2.386     2.416
 272   1 H      0.041  0.959  0.000  0.000     2.432     2.439
 273   1 H      0.055  0.945  0.000  0.000     2.256     2.349
 274   1 H      0.043  0.957  0.000  0.000     2.405     2.425
 275   1 H      0.055  0.945  0.000  0.000     2.256     2.349
 276   1 H      0.026  0.974  0.000  0.000     2.645     2.543
 277   7 N     -0.191  1.243  3.947  0.000    25.133     7.446
 278   6 C      0.016  1.058  2.926  0.000    20.315     6.418
 279   6 C      0.274  1.043  2.684  0.000    22.374     7.746
 280   8 O     -0.503  1.744  4.759  0.000    23.851     6.548
 281   6 C      0.058  1.041  2.901  0.000    19.819     6.377
 282   8 O     -0.458  1.684  4.774  0.000    22.005     6.332
 283   1 H      0.216  0.784  0.000  0.000     1.027     1.587
 284   1 H      0.074  0.926  0.000  0.000     2.047     2.237
 285   1 H      0.073  0.927  0.000  0.000     2.050     2.239
 286   1 H      0.060  0.940  0.000  0.000     2.198     2.319
 287   1 H      0.324  0.676  0.000  0.000     0.653     1.269
 288   7 N     -0.169  1.244  3.925  0.000    24.659     7.375
 289   6 C      0.027  1.062  2.911  0.000    20.122     6.386
 290   6 C      0.271  1.045  2.683  0.000    22.413     7.753
 291   8 O     -0.513  1.758  4.756  0.000    24.083     6.580
 292   6 C     -0.011  1.061  2.950  0.000    20.741     6.477
 293   6 C     -0.108  1.034  3.073  0.000    22.617     6.781
 294   6 C     -0.118  1.041  3.077  0.000    22.816     6.810
 295   1 H      0.211  0.789  0.000  0.000     1.052     1.607
 296   1 H      0.064  0.936  0.000  0.000     2.148     2.292
 297   1 H      0.047  0.953  0.000  0.000     2.353     2.399
 298   1 H      0.048  0.952  0.000  0.000     2.351     2.398
 299   1 H      0.054  0.946  0.000  0.000     2.265     2.354
 300   1 H      0.030  0.970  0.000  0.000     2.587     2.515
 301   1 H      0.051  0.949  0.000  0.000     2.306     2.375
 302   1 H      0.049  0.951  0.000  0.000     2.328     2.386
 303   1 H      0.040  0.960  0.000  0.000     2.442     2.444
 304   7 N     -0.080  1.231  3.850  0.000    22.805     7.093
 305   6 C      0.028  1.063  2.909  0.000    20.083     6.376
 306   6 C      0.211  1.083  2.706  0.000    23.535     7.945
 307   8 O     -0.367  1.751  4.616  0.000    21.033     6.149
 308   6 C     -0.067  1.055  3.012  0.000    21.751     6.636
 309   6 C     -0.072  1.053  3.020  0.000    21.853     6.651
 310   6 C     -0.011  1.054  2.957  0.000    20.804     6.500
 311   1 H      0.070  0.930  0.000  0.000     2.087     2.259
 312   1 H      0.066  0.934  0.000  0.000     2.126     2.280
 313   1 H      0.076  0.924  0.000  0.000     2.022     2.224
 314   1 H      0.077  0.923  0.000  0.000     2.011     2.218
 315   1 H      0.069  0.931  0.000  0.000     2.097     2.264
 316   1 H      0.067  0.933  0.000  0.000     2.120     2.277
 317   1 H      0.071  0.929  0.000  0.000     2.080     2.255
 318   7 N     -0.390  1.312  4.078  0.000    30.094     8.147
 319   6 C      0.042  1.054  2.904  0.000    19.895     6.354
 320   6 C      0.197  1.092  2.711  0.000    23.806     7.990
 321   8 O     -0.374  1.761  4.613  0.000    21.166     6.168
 322   6 C     -0.118  1.039  3.079  0.000    22.818     6.811
 323   1 H      0.174  0.826  0.000  0.000     1.249     1.751
 324   1 H      0.053  0.947  0.000  0.000     2.285     2.364
 325   1 H      0.041  0.959  0.000  0.000     2.434     2.440
 326   1 H      0.065  0.935  0.000  0.000     2.144     2.290
 327   1 H      0.052  0.948  0.000  0.000     2.289     2.366
 328   7 N     -0.400  1.321  4.078  0.000    30.363     8.184
 329   6 C      0.040  1.053  2.907  0.000    19.923     6.358
 330   6 C      0.206  1.087  2.707  0.000    23.622     7.960
 331   8 O     -0.392  1.756  4.635  0.000    21.516     6.219
 332   6 C     -0.077  1.065  3.013  0.000    21.967     6.672
 333   6 C     -0.012  1.054  2.957  0.000    20.752     6.480
 334   6 C     -0.118  1.040  3.078  0.000    22.812     6.810
 335   6 C     -0.119  1.043  3.075  0.000    22.824     6.811
 336   1 H      0.162  0.838  0.000  0.000     1.321     1.801
 337   1 H      0.058  0.942  0.000  0.000     2.222     2.331
 338   1 H      0.065  0.935  0.000  0.000     2.141     2.288
 339   1 H      0.056  0.944  0.000  0.000     2.251     2.346
 340   1 H      0.021  0.979  0.000  0.000     2.722     2.580
 341   1 H      0.037  0.963  0.000  0.000     2.490     2.468
 342   1 H      0.033  0.967  0.000  0.000     2.551     2.498
 343   1 H      0.059  0.941  0.000  0.000     2.214     2.327
 344   1 H      0.038  0.962  0.000  0.000     2.471     2.458
 345   1 H      0.053  0.947  0.000  0.000     2.287     2.365
 346   1 H      0.037  0.963  0.000  0.000     2.488     2.466
 347   7 N     -0.400  1.308  4.092  0.000    30.369     8.185
 348   6 C      0.031  1.060  2.910  0.000    20.066     6.379
 349   6 C      0.267  1.052  2.681  0.000    22.492     7.767
 350   8 O     -0.512  1.749  4.762  0.000    24.044     6.574
 351   6 C     -0.017  1.063  2.954  0.000    20.843     6.493
 352   6 C     -0.107  1.037  3.070  0.000    22.597     6.778
 353   6 C     -0.111  1.038  3.072  0.000    22.668     6.789
 354   1 H      0.173  0.827  0.000  0.000     1.253     1.754
 355   1 H      0.034  0.966  0.000  0.000     2.535     2.490
 356   1 H      0.039  0.961  0.000  0.000     2.465     2.455
 357   1 H      0.049  0.951  0.000  0.000     2.337     2.391
 358   1 H      0.031  0.969  0.000  0.000     2.571     2.508
 359   1 H      0.041  0.959  0.000  0.000     2.442     2.444
 360   1 H      0.055  0.945  0.000  0.000     2.259     2.351
 361   1 H      0.039  0.961  0.000  0.000     2.466     2.456
 362   1 H      0.045  0.955  0.000  0.000     2.385     2.415
 363   7 N     -0.168  1.241  3.927  0.000    24.634     7.371
 364   6 C      0.031  1.055  2.915  0.000    20.065     6.378
 365   6 C      0.197  1.093  2.710  0.000    23.805     7.991
 366   8 O     -0.363  1.745  4.618  0.000    20.964     6.139
 367   6 C     -0.081  1.061  3.020  0.000    22.035     6.681
 368   6 C     -0.011  1.058  2.954  0.000    20.747     6.479
 369   6 C     -0.122  1.043  3.079  0.000    22.882     6.819
 370   6 C     -0.114  1.038  3.076  0.000    22.744     6.800
 371   1 H      0.227  0.773  0.000  0.000     0.978     1.549
 372   1 H      0.075  0.925  0.000  0.000     2.029     2.228
 373   1 H      0.070  0.930  0.000  0.000     2.085     2.258
 374   1 H      0.064  0.936  0.000  0.000     2.154     2.295
 375   1 H      0.047  0.953  0.000  0.000     2.354     2.399
 376   1 H      0.054  0.946  0.000  0.000     2.265     2.353
 377   1 H      0.047  0.953  0.000  0.000     2.355     2.400
 378   1 H      0.043  0.957  0.000  0.000     2.406     2.426
 379   1 H      0.051  0.949  0.000  0.000     2.306     2.375
 380   1 H      0.038  0.962  0.000  0.000     2.480     2.463
 381   1 H      0.034  0.966  0.000  0.000     2.529     2.487
 382   7 N     -0.393  1.312  4.081  0.000    30.181     8.159
 383   6 C      0.048  1.051  2.901  0.000    19.785     6.335
 384   6 C      0.279  1.048  2.673  0.000    22.287     7.731
 385   8 O     -0.501  1.750  4.752  0.000    23.809     6.542
 386   6 C     -0.092  1.071  3.021  0.000    22.257     6.716
 387   6 C      0.371  1.024  2.606  0.000    20.719     7.449
 388   8 O     -0.648  1.776  4.872  0.000    27.334     7.010
 389   8 O     -0.630  1.760  4.870  0.000    26.868     6.950
 390   1 H      0.147  0.853  0.000  0.000     1.423     1.869
 391   1 H      0.031  0.969  0.000  0.000     2.571     2.507
 392   1 H      0.017  0.983  0.000  0.000     2.775     2.605
 393   1 H      0.016  0.984  0.000  0.000     2.794     2.614
 394   7 N     -0.187  1.244  3.942  0.000    25.046     7.433
 395   6 C      0.018  1.059  2.923  0.000    20.273     6.411
 396   6 C      0.275  1.042  2.683  0.000    22.348     7.742
 397   8 O     -0.473  1.744  4.729  0.000    23.193     6.457
 398   6 C     -0.060  1.052  3.008  0.000    21.634     6.619
 399   6 C     -0.030  1.070  2.960  0.000    21.105     6.541
 400  16 S     -0.172  1.893  4.231  0.048   148.312    20.497
 401   6 C     -0.039  1.048  2.992  0.000    21.342     6.590
 402   1 H      0.209  0.791  0.000  0.000     1.064     1.615
 403   1 H      0.085  0.915  0.000  0.000     1.928     2.172
 404   1 H      0.059  0.941  0.000  0.000     2.215     2.328
 405   1 H      0.041  0.959  0.000  0.000     2.435     2.440
 406   1 H      0.057  0.943  0.000  0.000     2.231     2.336
 407   1 H      0.090  0.910  0.000  0.000     1.883     2.146
 408   1 H      0.057  0.943  0.000  0.000     2.238     2.339
 409   1 H      0.021  0.979  0.000  0.000     2.712     2.575
 410   1 H      0.039  0.961  0.000  0.000     2.458     2.452
 411   7 N     -0.176  1.241  3.935  0.000    24.803     7.397
 412   6 C     -0.023  1.050  2.973  0.000    21.041     6.542
 413   6 C      0.282  1.038  2.681  0.000    22.225     7.719
 414   8 O     -0.481  1.742  4.740  0.000    23.379     6.483
 415   1 H      0.211  0.789  0.000  0.000     1.049     1.605
 416   1 H      0.080  0.920  0.000  0.000     1.983     2.202
 417   1 H      0.082  0.918  0.000  0.000     1.956     2.187
 418   7 N     -0.190  1.249  3.941  0.000    25.122     7.444
 419   6 C      0.017  1.064  2.918  0.000    20.298     6.417
 420   6 C      0.280  1.042  2.678  0.000    22.260     7.726
 421   8 O     -0.463  1.743  4.720  0.000    22.979     6.427
 422   6 C     -0.067  1.053  3.014  0.000    21.774     6.642
 423   6 C     -0.005  1.053  2.952  0.000    20.638     6.462
 424   6 C     -0.114  1.042  3.072  0.000    22.735     6.798
 425   6 C     -0.111  1.038  3.073  0.000    22.682     6.790
 426   1 H      0.227  0.773  0.000  0.000     0.977     1.549
 427   1 H      0.071  0.929  0.000  0.000     2.070     2.250
 428   1 H      0.054  0.946  0.000  0.000     2.267     2.354
 429   1 H      0.059  0.941  0.000  0.000     2.207     2.323
 430   1 H      0.020  0.980  0.000  0.000     2.734     2.586
 431   1 H      0.043  0.957  0.000  0.000     2.407     2.426
 432   1 H      0.044  0.956  0.000  0.000     2.402     2.424
 433   1 H      0.044  0.956  0.000  0.000     2.395     2.420
 434   1 H      0.033  0.967  0.000  0.000     2.542     2.493
 435   1 H      0.045  0.955  0.000  0.000     2.389     2.417
 436   1 H      0.028  0.972  0.000  0.000     2.619     2.531
 437   7 N     -0.171  1.237  3.934  0.000    24.699     7.381
 438   6 C      0.021  1.057  2.922  0.000    20.227     6.404
 439   6 C      0.198  1.085  2.716  0.000    23.772     7.985
 440   8 O     -0.355  1.751  4.604  0.000    20.808     6.116
 441   6 C     -0.058  1.053  3.005  0.000    21.604     6.616
 442   6 C     -0.107  1.058  3.048  0.000    22.533     6.757
 443   6 C      0.292  1.038  2.670  0.000    22.041     7.687
 444   8 O     -0.493  1.748  4.745  0.000    23.636     6.518
 445   7 N     -0.276  1.258  4.018  0.000    27.137     7.737
 446   1 H      0.204  0.796  0.000  0.000     1.086     1.632
 447   1 H      0.101  0.899  0.000  0.000     1.776     2.084
 448   1 H      0.059  0.941  0.000  0.000     2.214     2.327
 449   1 H      0.073  0.927  0.000  0.000     2.048     2.238
 450   1 H      0.078  0.922  0.000  0.000     2.000     2.212
 451   1 H      0.079  0.921  0.000  0.000     1.991     2.206
 452   1 H      0.215  0.785  0.000  0.000     1.034     1.593
 453   1 H      0.198  0.802  0.000  0.000     1.117     1.655
 454   1 H      0.183  0.817  0.000  0.000     1.196     1.713
 455   1 H      0.065  0.935  0.000  0.000     2.139     2.287
 456   1 H      0.183  0.817  0.000  0.000     1.194     1.711
 457   1 H      0.072  0.928  0.000  0.000     2.062     2.245
 458   1 H      0.188  0.812  0.000  0.000     1.167     1.692
 459   1 H      0.072  0.928  0.000  0.000     2.065     2.247
 460   1 H      0.190  0.810  0.000  0.000     1.160     1.687
 461   1 H      0.061  0.939  0.000  0.000     2.181     2.309
 462   1 H      0.176  0.824  0.000  0.000     1.237     1.742
 463   1 H      0.086  0.914  0.000  0.000     1.915     2.164
 464   1 H      0.184  0.816  0.000  0.000     1.190     1.709
 465   1 H      0.087  0.913  0.000  0.000     1.911     2.162

 Mol. C6AA /au·bohr⁶  :    1865347.493615
 Mol. C8AA /au·bohr⁸  :   41226441.668584
 Mol. α(0) /au        :       2036.793251

 
 Wiberg/Mayer (AO) data. WBOs > 0.1 written file <wbo>
 largest (>0.05) Wiberg bond orders for each atom
           total WBO             WBO to atom ...
     1  N   3.002    C    2 1.029    H    9 0.954    H  454 0.949
     2  C   3.984    N    1 1.029    C    3 0.977    C    5 0.962    H   10 0.920    O    4 0.067
     3  C   3.893    O    4 1.883    C    2 0.977    H  455 0.954
     4  O   2.037    C    3 1.883    C    2 0.067
     5  C   3.991    C    6 0.991    H   11 0.973    H   12 0.969    C    2 0.962
     6  C   3.995    C    7 1.010    C    8 1.010    C    5 0.991    H   13 0.964
     7  C   3.995    C    6 1.010    H   16 0.983    H   14 0.983    H   15 0.983
     8  C   3.996    C    6 1.010    H   17 0.986    H   19 0.985    H   18 0.982
     9  H   0.974    N    1 0.954
    10  H   0.995    C    2 0.920
    11  H   0.999    C    5 0.973
    12  H   0.997    C    5 0.969
    13  H   0.998    C    6 0.964
    14  H   0.997    C    7 0.983
    15  H   0.998    C    7 0.983
    16  H   0.999    C    7 0.983
    17  H   0.998    C    8 0.986
    18  H   0.999    C    8 0.982
    19  H   0.999    C    8 0.985
    20  N   2.999    C   21 1.025    H  456 0.954    H   28 0.953
    21  C   3.987    N   20 1.025    C   24 0.967    H   29 0.952    C   22 0.947    O   23 0.051
    22  C   3.941    O   23 1.672    N   39 1.246    C   21 0.947
    23  O   1.976    C   22 1.672    N   39 0.184    C   21 0.051
    24  C   3.994    C   25 0.996    H   30 0.968    H   31 0.968    C   21 0.967
    25  C   3.996    C   26 1.011    C   27 1.006    C   24 0.996    H   32 0.958
    26  C   3.997    C   25 1.011    H   33 0.984    H   34 0.984    H   35 0.982
    27  C   3.994    C   25 1.006    H   38 0.986    H   37 0.980    H   36 0.975
    28  H   0.977    N   20 0.953
    29  H   0.998    C   21 0.952
    30  H   0.999    C   24 0.968
    31  H   0.999    C   24 0.968
    32  H   0.999    C   25 0.958
    33  H   0.998    C   26 0.984
    34  H   1.000    C   26 0.984
    35  H   0.998    C   26 0.982
    36  H   0.997    C   27 0.975
    37  H   0.998    C   27 0.980
    38  H   0.999    C   27 0.986
    39  N   3.426    C   22 1.246    C   40 0.996    H   46 0.925    O   23 0.184
    40  C   3.969    N   39 0.996    C   43 0.955    H   47 0.946    C   41 0.934    O   42 0.051
    41  C   3.949    O   42 1.637    N   53 1.293    C   40 0.934
    42  O   1.975    C   41 1.637    N   53 0.194    C   40 0.051
    43  C   3.951    C   45 1.007    O   44 0.974    H   48 0.958    C   40 0.955
    44  O   1.939    C   43 0.974    H   49 0.865
    45  C   3.987    C   43 1.007    H   52 0.982    H   51 0.981    H   50 0.978
    46  H   0.963    N   39 0.925
    47  H   0.993    C   40 0.946
    48  H   0.998    C   43 0.958
    49  H   0.884    O   44 0.865
    50  H   0.994    C   45 0.978
    51  H   0.995    C   45 0.981
    52  H   0.996    C   45 0.982
    53  N   3.453    C   41 1.293    C   54 0.969    H   58 0.920    O   42 0.194
    54  C   3.957    C   57 0.995    N   53 0.969    H   59 0.951    C   55 0.932    O   56 0.054
    55  C   3.948    O   56 1.649    N   63 1.287    C   54 0.932
    56  O   1.971    C   55 1.649    N   63 0.195    C   54 0.054
    57  C   3.980    C   54 0.995    H   62 0.983    H   60 0.978    H   61 0.977
    58  H   0.952    N   53 0.920
    59  H   0.993    C   54 0.951
    60  H   0.992    C   57 0.978
    61  H   0.993    C   57 0.977
    62  H   0.996    C   57 0.983
    63  N   3.457    C   55 1.287    C   64 0.973    H   72 0.923    O   56 0.195
    64  C   3.960    C   67 0.984    N   63 0.973    H   73 0.945    C   65 0.936
    65  C   3.945    O   66 1.632    N   78 1.296    C   64 0.936
    66  O   1.959    C   65 1.632    N   78 0.194
    67  C   3.994    C   68 1.005    C   64 0.984    H   74 0.974    H   75 0.969
    68  C   3.985    C   67 1.005    H   76 0.980    H   77 0.969    C   69 0.908    O   70 0.054    O   71 0.052
    69  C   3.936    O   70 1.507    O   71 1.503    C   68 0.908
    70  O   1.811    C   69 1.507    O   71 0.219    C   68 0.054
    71  O   1.794    C   69 1.503    O   70 0.219    C   68 0.052
    72  H   0.961    N   63 0.923
    73  H   0.991    C   64 0.945
    74  H   0.998    C   67 0.974
    75  H   0.998    C   67 0.969
    76  H   0.999    C   68 0.980
    77  H   1.000    C   68 0.969
    78  N   3.457    C   65 1.296    C   79 0.976    H   87 0.904    O   66 0.194
    79  C   3.965    C   82 0.986    N   78 0.976    H   88 0.955    C   80 0.934
    80  C   3.946    O   81 1.589    N   93 1.325    C   79 0.934
    81  O   1.937    C   80 1.589    N   93 0.181
    82  C   3.993    C   83 1.009    C   79 0.986    H   89 0.969    H   90 0.963
    83  C   3.980    C   82 1.009    H   91 0.978    H   92 0.961    C   84 0.904    O   85 0.055    O   86 0.053
    84  C   3.938    O   86 1.504    O   85 1.503    C   83 0.904
    85  O   1.826    C   84 1.503    O   86 0.215    C   83 0.055
    86  O   1.803    C   84 1.504    O   85 0.215    C   83 0.053
    87  H   0.956    N   78 0.904
    88  H   0.998    C   79 0.955
    89  H   0.998    C   82 0.969
    90  H   0.997    C   82 0.963
    91  H   1.000    C   83 0.978
    92  H   1.000    C   83 0.961
    93  N   3.464    C   80 1.325    C   94 0.958    H  101 0.914    O   81 0.181
    94  C   3.949    C   97 0.974    N   93 0.958    C   95 0.948    H  102 0.947
    95  C   3.952    O   96 1.602    N  112 1.314    C   94 0.948
    96  O   1.927    C   95 1.602    N  112 0.190
    97  C   3.980    C   98 0.990    C   94 0.974    H  103 0.971    H  104 0.967
    98  C   3.988    C  100 1.009    C   99 1.008    C   97 0.990    H  105 0.967
    99  C   3.990    C   98 1.008    H  107 0.983    H  106 0.980    H  108 0.975
   100  C   3.993    C   98 1.009    H  111 0.986    H  110 0.983    H  109 0.983
   101  H   0.960    N   93 0.914
   102  H   0.995    C   94 0.947
   103  H   0.999    C   97 0.971
   104  H   0.996    C   97 0.967
   105  H   0.997    C   98 0.967
   106  H   0.994    C   99 0.980
   107  H   0.997    C   99 0.983
   108  H   0.997    C   99 0.975
   109  H   0.996    C  100 0.983
   110  H   0.998    C  100 0.983
   111  H   0.999    C  100 0.986
   112  N   3.475    C   95 1.314    C  113 0.968    H  121 0.924    O   96 0.190
   113  C   3.952    C  116 0.979    N  112 0.968    H  122 0.950    C  114 0.935    O  115 0.051
   114  C   3.949    O  115 1.623    N  134 1.306    C  113 0.935
   115  O   1.955    C  114 1.623    N  134 0.193    C  113 0.051
   116  C   3.982    C  117 1.000    C  113 0.979    H  124 0.973    H  123 0.968
   117  C   3.989    C  118 1.004    C  116 1.000    H  125 0.978    H  126 0.970
   118  C   3.988    C  119 1.012    C  117 1.004    H  127 0.972    H  128 0.970
   119  C   3.910    C  118 1.012    H  130 0.962    H  129 0.961    N  120 0.955
   120  N   3.663    C  119 0.955    H  132 0.900    H  133 0.896    H  131 0.893
   121  H   0.963    N  112 0.924
   122  H   0.990    C  113 0.950
   123  H   0.994    C  116 0.968
   124  H   0.998    C  116 0.973
   125  H   0.997    C  117 0.978
   126  H   0.994    C  117 0.970
   127  H   0.995    C  118 0.972
   128  H   0.993    C  118 0.970
   129  H   0.983    C  119 0.961
   130  H   0.986    C  119 0.962
   131  H   0.905    N  120 0.893
   132  H   0.915    N  120 0.900
   133  H   0.911    N  120 0.896
   134  N   3.473    C  114 1.306    C  135 0.980    H  143 0.906    O  115 0.193
   135  C   3.964    C  138 0.982    N  134 0.980    H  144 0.946    C  136 0.934    O  137 0.051
   136  C   3.943    O  137 1.626    N  156 1.298    C  135 0.934
   137  O   1.968    C  136 1.626    N  156 0.193    C  135 0.051
   138  C   3.986    C  139 1.003    C  135 0.982    H  145 0.967    H  146 0.958
   139  C   3.991    C  140 1.007    C  138 1.003    H  148 0.971    H  147 0.971
   140  C   3.986    C  141 1.015    C  139 1.007    H  150 0.969    H  149 0.961
   141  C   3.903    C  140 1.015    H  152 0.960    H  151 0.958    N  142 0.946
   142  N   3.667    C  141 0.946    H  155 0.907    H  154 0.897    H  153 0.894
   143  H   0.958    N  134 0.906
   144  H   0.990    C  135 0.946
   145  H   0.998    C  138 0.967
   146  H   0.993    C  138 0.958
   147  H   0.997    C  139 0.971
   148  H   0.997    C  139 0.971
   149  H   0.991    C  140 0.961
   150  H   0.993    C  140 0.969
   151  H   0.984    C  141 0.958
   152  H   0.981    C  141 0.960
   153  H   0.907    N  142 0.894
   154  H   0.913    N  142 0.897
   155  H   0.925    N  142 0.907
   156  N   3.472    C  136 1.298    C  157 0.976    H  167 0.916    O  137 0.193
   157  C   3.965    N  156 0.976    C  160 0.968    H  168 0.951    C  158 0.934
   158  C   3.954    O  159 1.612    N  176 1.321    C  157 0.934
   159  O   1.948    C  158 1.612    N  176 0.198
   160  C   3.988    C  161 1.010    H  170 0.969    C  157 0.968    H  169 0.959
   161  C   3.987    C  163 1.418    C  162 1.406    C  160 1.010    C  166 0.111
   162  C   3.992    C  164 1.452    C  161 1.406    H  171 0.970    C  165 0.112
   163  C   3.988    C  165 1.440    C  161 1.418    H  172 0.966    C  164 0.109
   164  C   3.992    C  162 1.452    C  166 1.431    H  173 0.964    C  163 0.109
   165  C   3.991    C  166 1.443    C  163 1.440    H  174 0.963    C  162 0.112
   166  C   3.991    C  165 1.443    C  164 1.431    H  175 0.970    C  161 0.111
   167  H   0.960    N  156 0.916
   168  H   0.998    C  157 0.951
   169  H   0.997    C  160 0.959
   170  H   0.996    C  160 0.969
   171  H   1.000    C  162 0.970
   172  H   0.997    C  163 0.966
   173  H   0.999    C  164 0.964
   174  H   0.997    C  165 0.963
   175  H   0.998    C  166 0.970
   176  N   3.479    C  158 1.321    C  177 0.970    H  185 0.909    O  159 0.198
   177  C   3.955    C  180 0.979    N  176 0.970    H  186 0.949    C  178 0.935    O  179 0.050
   178  C   3.947    O  179 1.625    N  198 1.307    C  177 0.935
   179  O   1.951    C  178 1.625    N  198 0.195    C  177 0.050
   180  C   3.979    C  181 1.006    C  177 0.979    H  188 0.969    H  187 0.961
   181  C   3.990    C  180 1.006    C  182 1.006    H  189 0.970    H  190 0.968
   182  C   3.986    C  183 1.017    C  181 1.006    H  192 0.969    H  191 0.961
   183  C   3.905    C  182 1.017    H  194 0.963    H  193 0.958    N  184 0.944
   184  N   3.679    C  183 0.944    H  196 0.908    H  195 0.902    H  197 0.891
   185  H   0.952    N  176 0.909
   186  H   0.993    C  177 0.949
   187  H   0.992    C  180 0.961
   188  H   0.994    C  180 0.969
   189  H   0.997    C  181 0.970
   190  H   0.992    C  181 0.968
   191  H   0.992    C  182 0.961
   192  H   0.995    C  182 0.969
   193  H   0.983    C  183 0.958
   194  H   0.985    C  183 0.963
   195  H   0.915    N  184 0.902
   196  H   0.926    N  184 0.908
   197  H   0.922    N  184 0.891
   198  N   3.471    C  178 1.307    C  199 0.979    H  206 0.909    O  179 0.195
   199  C   3.962    N  198 0.979    C  202 0.976    H  207 0.946    C  200 0.939    O  201 0.050
   200  C   3.944    O  201 1.636    N  217 1.283    C  199 0.939
   201  O   1.946    C  200 1.636    N  217 0.189    C  199 0.050
   202  C   3.982    C  203 0.992    C  199 0.976    H  209 0.970    H  208 0.965
   203  C   3.993    C  205 1.010    C  204 1.008    C  202 0.992    H  210 0.968
   204  C   3.992    C  203 1.008    H  213 0.986    H  212 0.986    H  211 0.985
   205  C   3.995    C  203 1.010    H  215 0.986    H  214 0.985    H  216 0.982
   206  H   0.952    N  198 0.909
   207  H   0.993    C  199 0.946
   208  H   0.995    C  202 0.965
   209  H   0.996    C  202 0.970
   210  H   0.998    C  203 0.968
   211  H   0.997    C  204 0.985
   212  H   0.998    C  204 0.986
   213  H   0.998    C  204 0.986
   214  H   0.998    C  205 0.985
   215  H   0.998    C  205 0.986
   216  H   0.999    C  205 0.982
   217  N   3.459    C  200 1.283    C  218 0.990    H  226 0.911    O  201 0.189
   218  C   3.966    N  217 0.990    C  221 0.975    C  219 0.942    H  227 0.931
   219  C   3.941    O  220 1.556    N  239 1.350    C  218 0.942
   220  O   1.944    C  219 1.556    N  239 0.186
   221  C   3.986    C  222 1.007    H  229 0.976    C  218 0.975    H  228 0.964
   222  C   3.993    C  221 1.007    C  223 1.006    H  231 0.974    H  230 0.974
   223  C   3.982    C  224 1.008    C  222 1.006    H  233 0.970    H  232 0.953
   224  C   3.919    C  223 1.008    H  234 0.968    H  235 0.967    N  225 0.959
   225  N   3.663    C  224 0.959    H  236 0.900    H  238 0.892    H  237 0.884
   226  H   0.954    N  217 0.911
   227  H   0.990    C  218 0.931
   228  H   0.992    C  221 0.964
   229  H   0.998    C  221 0.976
   230  H   0.997    C  222 0.974
   231  H   0.998    C  222 0.974
   232  H   0.992    C  223 0.953
   233  H   0.991    C  223 0.970
   234  H   0.988    C  224 0.968
   235  H   0.990    C  224 0.967
   236  H   0.913    N  225 0.900
   237  H   0.912    N  225 0.884
   238  H   0.905    N  225 0.892
   239  N   3.495    C  219 1.350    C  240 0.969    H  247 0.899    O  220 0.186
   240  C   3.961    C  243 0.980    N  239 0.969    H  248 0.952    C  241 0.938
   241  C   3.942    O  242 1.612    N  258 1.301    C  240 0.938
   242  O   1.957    C  241 1.612    N  258 0.190
   243  C   3.984    C  244 0.993    C  240 0.980    H  250 0.969    H  249 0.967
   244  C   3.993    C  245 1.010    C  246 1.010    C  243 0.993    H  251 0.965
   245  C   3.995    C  244 1.010    H  253 0.986    H  252 0.985    H  254 0.984
   246  C   3.995    C  244 1.010    H  257 0.986    H  255 0.985    H  256 0.985
   247  H   0.948    N  239 0.899
   248  H   0.995    C  240 0.952
   249  H   0.995    C  243 0.967
   250  H   0.996    C  243 0.969
   251  H   0.996    C  244 0.965
   252  H   0.998    C  245 0.985
   253  H   0.998    C  245 0.986
   254  H   0.999    C  245 0.984
   255  H   0.998    C  246 0.985
   256  H   0.999    C  246 0.985
   257  H   0.998    C  246 0.986
   258  N   3.466    C  241 1.301    C  259 0.977    H  266 0.918    O  242 0.190
   259  C   3.962    N  258 0.977    C  262 0.972    H  267 0.953    C  260 0.941    O  261 0.051
   260  C   3.942    O  261 1.647    N  277 1.270    C  259 0.941
   261  O   1.955    C  260 1.647    N  277 0.187    C  259 0.051
   262  C   3.982    C  263 0.992    H  268 0.972    C  259 0.972    H  269 0.968
   263  C   3.993    C  265 1.010    C  264 1.008    C  262 0.992    H  270 0.969
   264  C   3.994    C  263 1.008    H  272 0.986    H  273 0.986    H  271 0.985
   265  C   3.995    C  263 1.010    H  274 0.985    H  275 0.984    H  276 0.982
   266  H   0.954    N  258 0.918
   267  H   0.996    C  259 0.953
   268  H   0.995    C  262 0.972
   269  H   0.995    C  262 0.968
   270  H   0.999    C  263 0.969
   271  H   0.998    C  264 0.985
   272  H   0.998    C  264 0.986
   273  H   0.997    C  264 0.986
   274  H   0.998    C  265 0.985
   275  H   0.997    C  265 0.984
   276  H   0.999    C  265 0.982
   277  N   3.444    C  260 1.270    C  278 0.993    H  283 0.896    O  261 0.187
   278  C   3.966    N  277 0.993    C  281 0.971    H  284 0.939    C  279 0.933    O  280 0.053
   279  C   3.948    O  280 1.615    N  288 1.318    C  278 0.933
   280  O   1.931    C  279 1.615    N  288 0.194    C  278 0.053
   281  C   3.959    O  282 1.009    C  278 0.971    H  285 0.965    H  286 0.963
   282  O   1.949    C  281 1.009    H  287 0.838
   283  H   0.953    N  277 0.896
   284  H   0.994    C  278 0.939
   285  H   0.994    C  281 0.965
   286  H   0.996    C  281 0.963
   287  H   0.895    O  282 0.838
   288  N   3.482    C  279 1.318    C  289 0.981    H  295 0.903    O  280 0.194
   289  C   3.966    N  288 0.981    C  292 0.961    H  296 0.948    C  290 0.939
   290  C   3.947    O  291 1.612    N  304 1.294    C  289 0.939
   291  O   1.943    C  290 1.612    N  304 0.194
   292  C   3.990    C  293 1.011    C  294 1.008    H  297 0.964    C  289 0.961
   293  C   3.994    C  292 1.011    H  300 0.985    H  298 0.984    H  299 0.977
   294  C   3.993    C  292 1.008    H  303 0.985    H  302 0.983    H  301 0.982
   295  H   0.955    N  288 0.903
   296  H   0.996    C  289 0.948
   297  H   0.997    C  292 0.964
   298  H   0.998    C  293 0.984
   299  H   0.997    C  293 0.977
   300  H   0.999    C  293 0.985
   301  H   0.997    C  294 0.982
   302  H   0.998    C  294 0.983
   303  H   0.998    C  294 0.985
   304  N   3.519    C  290 1.294    C  310 0.974    C  305 0.964    O  291 0.194
   305  C   3.971    C  306 0.978    N  304 0.964    C  308 0.963    H  311 0.955    O  307 0.058
   306  C   3.900    O  307 1.894    C  305 0.978    H  457 0.954
   307  O   2.042    C  306 1.894    C  305 0.058
   308  C   3.984    C  309 1.002    H  312 0.975    H  313 0.975    C  305 0.963
   309  C   3.989    C  310 1.003    C  308 1.002    H  315 0.977    H  314 0.972
   310  C   3.961    C  309 1.003    N  304 0.974    H  317 0.963    H  316 0.963
   311  H   0.995    C  305 0.955
   312  H   0.996    C  308 0.975
   313  H   0.994    C  308 0.975
   314  H   0.993    C  309 0.972
   315  H   0.995    C  309 0.977
   316  H   0.996    C  310 0.963
   317  H   0.995    C  310 0.963
   318  N   2.993    C  319 1.012    H  458 0.955    H  323 0.952
   319  C   3.987    N  318 1.012    C  322 0.982    C  320 0.970    H  324 0.958    O  321 0.057
   320  C   3.889    O  321 1.895    C  319 0.970    H  459 0.954
   321  O   2.039    C  320 1.895    C  319 0.057
   322  C   3.990    H  327 0.984    C  319 0.982    H  325 0.980    H  326 0.976
   323  H   0.970    N  318 0.952
   324  H   0.997    C  319 0.958
   325  H   0.998    C  322 0.980
   326  H   0.996    C  322 0.976
   327  H   0.997    C  322 0.984
   328  N   2.994    C  329 1.019    H  336 0.955    H  460 0.954
   329  C   3.984    N  328 1.019    C  330 0.985    C  332 0.954    H  337 0.947    O  331 0.059
   330  C   3.888    O  331 1.879    C  329 0.985    H  461 0.954
   331  O   2.026    C  330 1.879    C  329 0.059
   332  C   3.989    C  333 0.995    H  338 0.968    H  339 0.967    C  329 0.954
   333  C   3.994    C  334 1.009    C  335 1.006    C  332 0.995    H  340 0.967
   334  C   3.994    C  333 1.009    H  341 0.986    H  343 0.985    H  342 0.984
   335  C   3.994    C  333 1.006    H  346 0.985    H  345 0.983    H  344 0.979
   336  H   0.974    N  328 0.955
   337  H   0.997    C  329 0.947
   338  H   0.996    C  332 0.968
   339  H   0.997    C  332 0.967
   340  H   0.999    C  333 0.967
   341  H   0.999    C  334 0.986
   342  H   0.999    C  334 0.984
   343  H   0.997    C  334 0.985
   344  H   0.998    C  335 0.979
   345  H   0.997    C  335 0.983
   346  H   0.999    C  335 0.985
   347  N   2.993    C  348 1.015    H  462 0.958    H  354 0.943
   348  C   3.983    N  347 1.015    H  355 0.962    C  351 0.956    C  349 0.944
   349  C   3.939    O  350 1.608    N  363 1.304    C  348 0.944
   350  O   1.940    C  349 1.608    N  363 0.189
   351  C   3.992    C  352 1.009    C  353 1.007    H  356 0.964    C  348 0.956
   352  C   3.995    C  351 1.009    H  359 0.986    H  358 0.985    H  357 0.984
   353  C   3.994    C  351 1.007    H  361 0.984    H  360 0.981    H  362 0.979
   354  H   0.970    N  347 0.943
   355  H   0.998    C  348 0.962
   356  H   0.998    C  351 0.964
   357  H   0.998    C  352 0.984
   358  H   0.999    C  352 0.985
   359  H   0.998    C  352 0.986
   360  H   0.996    C  353 0.981
   361  H   0.998    C  353 0.984
   362  H   0.998    C  353 0.979
   363  N   3.473    C  349 1.304    C  364 0.981    H  371 0.910    O  350 0.189
   364  C   3.967    N  363 0.981    C  365 0.973    C  367 0.963    H  372 0.945    O  366 0.054
   365  C   3.888    O  366 1.860    C  364 0.973    H  463 0.950
   366  O   2.067    C  365 1.860    C  364 0.054
   367  C   3.980    C  368 0.986    H  373 0.970    H  374 0.969    C  364 0.963
   368  C   3.993    C  370 1.011    C  369 1.005    C  367 0.986    H  375 0.966
   369  C   3.991    C  368 1.005    H  378 0.986    H  377 0.985    H  376 0.983
   370  C   3.995    C  368 1.011    H  380 0.986    H  379 0.984    H  381 0.978
   371  H   0.948    N  363 0.910
   372  H   0.994    C  364 0.945
   373  H   0.995    C  367 0.970
   374  H   0.995    C  367 0.969
   375  H   0.998    C  368 0.966
   376  H   0.995    C  369 0.983
   377  H   0.998    C  369 0.985
   378  H   0.998    C  369 0.986
   379  H   0.997    C  370 0.984
   380  H   0.999    C  370 0.986
   381  H   0.999    C  370 0.978
   382  N   2.994    C  383 1.009    H  464 0.955    H  390 0.954
   383  C   3.983    N  382 1.009    C  386 0.973    H  391 0.960    C  384 0.945
   384  C   3.942    O  385 1.644    N  394 1.280    C  383 0.945
   385  O   1.950    C  384 1.644    N  394 0.191
   386  C   3.986    H  393 0.981    C  383 0.973    H  392 0.967    C  387 0.902    O  388 0.054    O  389 0.053
   387  C   3.936    O  389 1.508    O  388 1.507    C  386 0.902
   388  O   1.801    C  387 1.507    O  389 0.219    C  386 0.054
   389  O   1.800    C  387 1.508    O  388 0.219    C  386 0.053
   390  H   0.978    N  382 0.954
   391  H   0.998    C  383 0.960
   392  H   0.999    C  386 0.967
   393  H   1.000    C  386 0.981
   394  N   3.452    C  384 1.280    C  395 0.985    H  402 0.906    O  385 0.191
   395  C   3.960    N  394 0.985    C  398 0.957    H  403 0.951    C  396 0.940    O  397 0.051
   396  C   3.948    O  397 1.644    N  411 1.283    C  395 0.940
   397  O   1.969    C  396 1.644    N  411 0.194    C  395 0.051
   398  C   3.988    C  399 1.010    H  404 0.972    H  405 0.972    C  395 0.957
   399  C   3.976    C  398 1.010    S  400 0.993    H  407 0.970    H  406 0.968
   400  S   2.098    C  401 1.011    C  399 0.993
   401  C   3.978    S  400 1.011    H  410 0.983    H  409 0.983    H  408 0.973
   402  H   0.956    N  394 0.906
   403  H   0.992    C  395 0.951
   404  H   0.996    C  398 0.972
   405  H   0.998    C  398 0.972
   406  H   0.997    C  399 0.968
   407  H   0.992    C  399 0.970
   408  H   0.997    C  401 0.973
   409  H   0.999    C  401 0.983
   410  H   0.998    C  401 0.983
   411  N   3.460    C  396 1.283    C  412 0.997    H  415 0.906    O  397 0.194
   412  C   3.967    N  411 0.997    H  416 0.962    H  417 0.956    C  413 0.938    O  414 0.055
   413  C   3.951    O  414 1.630    N  418 1.307    C  412 0.938
   414  O   1.973    C  413 1.630    N  418 0.194    C  412 0.055
   415  H   0.955    N  411 0.906
   416  H   0.993    C  412 0.962
   417  H   0.993    C  412 0.956
   418  N   3.466    C  413 1.307    C  419 0.976    H  426 0.891    O  414 0.194
   419  C   3.965    C  422 0.982    N  418 0.976    H  427 0.947    C  420 0.932    O  421 0.053
   420  C   3.949    O  421 1.672    N  437 1.269    C  419 0.932
   421  O   1.987    C  420 1.672    N  437 0.195    C  419 0.053
   422  C   3.988    C  423 0.996    C  419 0.982    H  428 0.973    H  429 0.970
   423  C   3.995    C  425 1.010    C  424 1.007    C  422 0.996    H  430 0.965
   424  C   3.995    C  423 1.007    H  433 0.986    H  432 0.986    H  431 0.986
   425  C   3.995    C  423 1.010    H  435 0.986    H  434 0.985    H  436 0.984
   426  H   0.948    N  418 0.891
   427  H   0.995    C  419 0.947
   428  H   0.997    C  422 0.973
   429  H   0.996    C  422 0.970
   430  H   1.000    C  423 0.965
   431  H   0.998    C  424 0.986
   432  H   0.998    C  424 0.986
   433  H   0.998    C  424 0.986
   434  H   0.999    C  425 0.985
   435  H   0.998    C  425 0.986
   436  H   0.999    C  425 0.984
   437  N   3.454    C  420 1.269    C  438 0.987    H  446 0.927    O  421 0.195
   438  C   3.965    N  437 0.987    C  439 0.978    C  441 0.950    H  447 0.947    O  440 0.058
   439  C   3.903    O  440 1.905    C  438 0.978    H  465 0.952
   440  O   2.043    C  439 1.905    C  438 0.058
   441  C   3.988    C  442 0.994    H  448 0.973    H  449 0.969    C  438 0.950
   442  C   3.990    C  441 0.994    C  443 0.967    H  450 0.955    H  451 0.955    O  444 0.054
   443  C   3.941    O  444 1.651    N  445 1.295    C  442 0.967
   444  O   1.949    C  443 1.651    N  445 0.198    C  442 0.054
   445  N   3.395    C  443 1.295    H  453 0.928    H  452 0.927    O  444 0.198
   446  H   0.958    N  437 0.927
   447  H   0.990    C  438 0.947
   448  H   0.997    C  441 0.973
   449  H   0.994    C  441 0.969
   450  H   0.994    C  442 0.955
   451  H   0.994    C  442 0.955
   452  H   0.954    N  445 0.927
   453  H   0.960    N  445 0.928
   454  H   0.966    N    1 0.949
   455  H   0.996    C    3 0.954
   456  H   0.966    N   20 0.954
   457  H   0.995    C  306 0.954
   458  H   0.965    N  318 0.955
   459  H   0.995    C  320 0.954
   460  H   0.964    N  328 0.954
   461  H   0.996    C  330 0.954
   462  H   0.969    N  347 0.958
   463  H   0.992    C  365 0.950
   464  H   0.966    N  382 0.955
   465  H   0.992    C  439 0.952
 MOs/occ written to file <molden.input>
 
molecular dipole:
                 x           y           z       tot (Debye)
 q only:       86.228      28.294      41.519
   full:       83.105      26.028      40.184     243.782
molecular quadrupole (traceless):
                xx          xy          yy          xz          yz          zz
 q only:     5532.228    4120.350   -3366.459    4726.466    1593.653   -2165.769
  q+dip:     5314.217    3733.934   -3319.718    4473.691    1470.415   -1994.499
   full:     5317.278    3736.067   -3320.385    4475.732    1467.294   -1996.893
speedup  0.93
cpu  time for grad   14.22 s
wall time for grad   15.31 s

SCC energy    :    -683.6727814
rep           :       8.2932212
ES            :       2.2089406
AES           :      -0.1318503
AXC           :       0.2387530
disp          :      -0.5876723
XB            :       0.0000000
fix           :       0.0000000
Gborn         :       0.0000000
Gsasa         :       0.0000000
Ghb           :       0.0000000
Gshift        :       0.0000000
Gsolv         :      -0.6634102     -416.30
Etot ala COSMO:    -683.6727814
grad norm     :       0.5393606
total E       :    -675.3266901
atomizationE  :     126.4677517    79359.71
(atE without considering molecular charge,
 total energy contains solvation terms)
H-L gap (eV)  :          1.0460

------------------------------------------------------------------------
 * finished run on 2019/03/14 at 16:03:33.415     
------------------------------------------------------------------------
 total:
 * wall-time:     0 d,  0 h,  0 min, 16.119 sec
 *  cpu-time:     0 d,  0 h,  0 min, 14.925 sec
 * ratio c/w:     0.926 speedup
 SCF:
 * wall-time:     0 d,  0 h,  0 min, 15.838 sec
 *  cpu-time:     0 d,  0 h,  0 min, 14.751 sec
 * ratio c/w:     0.931 speedup

