      -----------------------------------------------------------      
     |                   =====================                   |     
     |                           x T B                           |     
     |                   =====================                   |     
     |                         S. Grimme                         |     
     |          Mulliken Center for Theoretical Chemistry        |     
     |                    University of Bonn                     |     
     |                 Version 6.0.1 (SAW181210)                 |     
      -----------------------------------------------------------      

   This program is distributed in the hope that it will be useful,
   but WITHOUT ANY WARRANTY; without even the implied warranty of
   MERCHANTABILITY or FITNESS FOR A PARTICULAR PURPOSE.
   
   FOR NON-COMMERCIAL, ACADEMIA USE ONLY.
   
   Cite this work as:
   S. Grimme, C. Bannwarth, P. Shushkov, J. Comput. Theory Chem., 2017,
   13, 1989-2009.
   C. Bannwarth, S. Ehlert and S. Grimme., ChemRxiv, 2018, preprint.
   http://doi.org/10.26434/chemrxiv.7246238.v1
   
   for sTDA-xTB:
   S. Grimme and C. Bannwarth, J. Chem. Phys., 2016, 145, 054103.
   
   in the mass-spec context:
   V. Asgeirsson, C. Bauer and S. Grimme, Chem. Sci., 2017, 8, 4879.
   
   if GBSA is used:
   P. Shushkov, F. März and S. Grimme, unpublished.
   
   for ANC optimizer:
   S. Grimme, unpublished.
   Rational Function algorithm used in ANCopt:
   F. Eckert, P. Pulay, H.-J. Werner, J. Comput. Chem., 1997, 18, 1473.
   
   with help from (in alphabetical order)
   C. Bannwarth, F. Bohle, G. Brandenburg, E. Caldeweyher, M. Checinski,
   S. Dohm, S. Ehlert, S. Ehrlich, F. März, H. Neugebauer, J. Pisarek,
   P. Pracht, P. Shushkov, and S. Spicher.
   
 * started run on 2019/02/13 at 00:18:38.138     
========================================================================
 # omp threads = 16
========================================================================
number of atoms            : 205
number of electrons        : 542
charge                     : 0
spin                       : .0
first test random number   : .3866

########################################################################
# WARNING! Please study the warnings concerning your input carefully
#  - Process number higher than OMP_NUM_THREADS, I hope you know what you are doing.
########################################################################

           ------------------------------------------------- 
          |                 G F N 2 - x T B                 |
          | Geometry, Frequencies, Noncovalent interactions |
          |            JCTC 2018 parametrisation            |
           ------------------------------------------------- 
 
      method parameters     
 k(s)        :  1.8500
 k(p)        :  2.2300
 k(d)        :  2.2300
 k(f)        :  2.0000
 kEN (H0ij)  : -2.0000
 D4 a1       :  0.5200
 D4 a2       :  5.0000
 D4 s6       :  1.0000
 D4 s8       :  2.7000
 D4 s9       :  5.0000
 alphaj      :  2.0000

 Solvent             : h2o
 Using internal parameter file: .param_gbsa2_h2o
 Gsolv ref. state (COSMO-RS): gsolv [1 M gas/solution]
 temperature (mdtemp)       :    298.150000000000     
 dielectric constant        :    80.2000000000000     
 rho                        :    1.00000000000000     
 mass                       :    18.0000000000000     
 surface tension            :    15.5689454083859     
 probe radius               :   0.975313790000000     
 vdW radii scaling          :    1.00000000000000     
 Gshift (Eh)                :   1.857443126794793E-003
 c1                         :    1.55243817000000     
 soset                      :   0.130326360000000     
 HB correction              :  T

            Z     q(EN)     CN     RAES       Cart. coordinates
     1  N   5.0   -0.21    3.21    1.96   180.84792   107.21200   375.43139
     2  C   4.0    0.03    4.29    4.18   179.48714   108.96070   373.80326
     3  C   4.0    0.08    3.23    3.04   181.19090   109.69454   371.58607
     4  O   6.0   -0.31    1.12    1.80   180.42935   109.74172   369.39537
     5  C   4.0   -0.02    4.25    4.10   178.62464   111.31324   375.28959
     6  C   4.0   -0.07    4.13    3.86   177.44508   113.23784   373.48837
     7  C   4.0   -0.08    4.11    3.82   176.71525   110.59164   377.33224
     8  H   1.0    0.08    1.03    1.43   180.69268   107.43838   377.32027
     9  H   1.0    0.05    1.05    1.44   177.82430   108.01953   372.99396
    10  H   1.0    0.04    1.05    1.44   180.28324   112.17449   376.17716
    11  H   1.0    0.04    1.00    1.43   176.84595   114.90286   374.53049
    12  H   1.0    0.05    1.00    1.43   178.77969   113.82968   372.04190
    13  H   1.0    0.04    1.00    1.43   175.79909   112.43926   372.55236
    14  H   1.0    0.04    1.00    1.43   176.08550   112.28710   378.30435
    15  H   1.0    0.04    1.00    1.43   175.07181   109.69254   376.48941
    16  H   1.0    0.04    1.00    1.43   177.51357   109.31926   378.73076
    17  N   5.0   -0.21    3.20    1.95   179.35446   110.98527   363.61333
    18  C   4.0    0.04    4.25    4.09   179.91766   113.31201   362.28868
    19  C   4.0    0.09    3.23    3.04   181.87534   112.78687   360.22056
    20  O   6.0   -0.27    1.11    1.80   181.69173   113.69175   358.09809
    21  C   4.0   -0.04    4.29    4.19   180.89449   115.37559   364.05342
    22  C   4.0    0.15    3.26    3.05   180.94707   117.82971   362.53376
    23  O   6.0   -0.30    1.21    1.80   179.01273   118.83072   361.78461
    24  N   5.0   -0.19    3.18    1.95   183.24792   118.78544   362.08452
    25  H   1.0    0.11    1.03    1.43   179.79578   110.82646   365.46745
    26  H   1.0    0.06    1.05    1.44   178.20092   113.98523   361.33451
    27  H   1.0    0.04    1.03    1.43   179.56274   115.60339   365.61038
    28  H   1.0    0.04    1.03    1.43   182.75183   114.87805   364.78797
    29  H   1.0    0.10    1.03    1.43   183.38868   120.33907   360.98991
    30  H   1.0    0.08    1.03    1.43   184.84594   117.89543   362.59916
    31  N   5.0   -0.21    3.22    1.96   177.90288   134.43626   357.20697
    32  C   4.0    0.03    4.40    4.38   175.44452   134.16174   358.38313
    33  C   4.0    0.13    3.52    3.12   175.34298   131.75933   359.99771
    34  O   6.0   -0.33    1.37    1.80   175.22067   131.99290   362.32332
    35  C   4.0   -0.03    4.26    4.11   173.33088   134.42731   356.41850
    36  C   4.0   -0.08    4.12    3.84   170.77217   133.87448   357.63309
    37  C   4.0   -0.08    4.12    3.84   173.36973   137.09330   355.30810
    38  H   1.0    0.08    1.03    1.43   177.98194   134.32413   355.29576
    39  H   1.0    0.05    1.06    1.44   175.25581   135.69440   359.77866
    40  H   1.0    0.04    1.06    1.44   173.68068   133.09023   354.88788
    41  H   1.0    0.04    1.00    1.43   169.27485   134.08690   356.24544
    42  H   1.0    0.04    1.00    1.43   170.70358   131.96355   358.38323
    43  H   1.0    0.04    1.00    1.43   170.41804   135.18318   359.17799
    44  H   1.0    0.04    1.00    1.43   171.83630   137.30460   353.95907
    45  H   1.0    0.04    1.00    1.43   173.13176   138.49875   356.78885
    46  H   1.0    0.04    1.00    1.43   175.14041   137.46492   354.33306
    47  N   5.0   -0.11    3.68    2.24   175.40239   129.47046   358.96687
    48  C   4.0    0.03    4.62    4.69   175.30536   127.28548   360.64303
    49  C   4.0    0.16    3.52    3.12   177.31659   127.42810   362.69517
    50  O   6.0   -0.31    1.32    1.80   176.82616   126.80238   364.87554
    51  C   4.0   -0.04    4.32    4.24   175.64022   124.97089   358.92425
    52  C   4.0   -0.04    4.26    4.13   176.74843   126.07495   356.49965
    53  C   4.0   -0.02    4.36    4.31   175.50024   128.66797   356.35030
    54  H   1.0    0.05    1.05    1.44   173.48233   127.24598   361.62527
    55  H   1.0    0.06    1.02    1.43   176.84117   123.54431   359.79257
    56  H   1.0    0.04    1.02    1.43   173.79898   124.12973   358.55021
    57  H   1.0    0.04    1.02    1.43   178.78783   126.30880   356.65540
    58  H   1.0    0.04    1.02    1.43   176.32837   124.92894   354.84836
    59  H   1.0    0.04    1.02    1.43   176.57419   129.98117   355.20268
    60  H   1.0    0.04    1.02    1.43   173.57184   128.50700   355.61642
    61  N   5.0   -0.14    3.49    2.07   179.62875   128.13405   361.96882
    62  C   4.0    0.03    4.43    4.43   181.64919   128.27187   363.81338
    63  C   4.0    0.17    3.49    3.11   180.73015   129.52050   366.26535
    64  O   6.0   -0.30    1.22    1.80   181.26434   128.65904   368.34033
    65  C   4.0   -0.04    4.28    4.17   183.91341   129.74718   362.79313
    66  C   4.0   -0.04    4.22    4.03   185.36613   128.27597   360.76857
    67  C   4.0    0.15    3.22    3.04   187.57765   129.83472   359.82082
    68  O   6.0   -0.29    1.20    1.80   187.31019   131.81338   358.66024
    69  N   5.0   -0.18    3.18    1.95   189.87682   128.88399   360.32760
    70  H   1.0    0.08    1.06    1.44   179.97581   128.78145   360.19927
    71  H   1.0    0.05    1.05    1.44   182.22095   126.34417   364.33538
    72  H   1.0    0.05    1.03    1.43   183.24601   131.53265   362.00845
    73  H   1.0    0.05    1.03    1.43   185.16551   130.17142   364.37820
    74  H   1.0    0.04    1.03    1.43   186.02141   126.48341   361.53464
    75  H   1.0    0.05    1.03    1.43   184.14291   127.92121   359.14660
    76  H   1.0    0.08    1.03    1.43   190.10634   127.33652   361.40584
    77  H   1.0    0.10    1.03    1.43   191.41458   129.89389   359.83532
    78  N   5.0   -0.13    3.51    2.08   179.47274   131.69347   365.92678
    79  C   4.0    0.04    4.43    4.43   178.46647   133.10267   368.03379
    80  C   4.0    0.16    3.45    3.10   176.12223   131.84358   369.18715
    81  O   6.0   -0.30    1.31    1.80   175.91663   131.63132   371.49322
    82  C   4.0   -0.03    4.31    4.21   177.85087   135.82144   367.24265
    83  C   4.0    0.16    3.23    3.04   180.26190   137.39641   367.29152
    84  O   6.0   -0.28    1.20    1.80   180.91722   138.56339   369.17625
    85  N   5.0   -0.18    3.18    1.95   181.61479   137.36549   365.15996
    86  H   1.0    0.09    1.08    1.44   178.98550   132.26723   364.16518
    87  H   1.0    0.07    1.06    1.44   179.88654   133.11200   369.54969
    88  H   1.0    0.05    1.03    1.43   177.00773   135.80382   365.36460
    89  H   1.0    0.06    1.03    1.43   176.53322   136.63598   368.60198
    90  H   1.0    0.10    1.03    1.43   183.26601   138.31055   365.12588
    91  H   1.0    0.08    1.02    1.43   181.08062   136.35379   363.62051
    92  N   5.0   -0.14    3.50    2.08   174.35799   131.06359   367.57715
    93  C   4.0    0.04    4.51    4.54   172.05157   129.87041   368.46754
    94  C   4.0    0.16    3.57    3.15   172.64506   127.92729   370.51690
    95  O   6.0   -0.32    1.34    1.80   171.39743   127.78794   372.46681
    96  C   4.0   -0.02    4.27    4.14   170.62780   128.61442   366.26704
    97  C   4.0   -0.07    4.13    3.87   168.48178   126.94322   367.23110
    98  C   4.0   -0.08    4.11    3.82   169.57899   130.61932   364.47474
    99  H   1.0    0.11    1.10    1.44   174.62432   131.22747   365.68189
   100  H   1.0    0.05    1.05    1.44   170.84386   131.30484   369.35914
   101  H   1.0    0.05    1.06    1.44   171.99902   127.42034   365.28100
   102  H   1.0    0.04    1.00    1.43   167.47964   126.10972   365.64450
   103  H   1.0    0.05    1.00    1.43   169.19174   125.42469   368.41871
   104  H   1.0    0.04    1.00    1.43   167.15499   128.05018   368.33907
   105  H   1.0    0.04    1.00    1.43   168.60071   129.71462   362.91154
   106  H   1.0    0.04    1.00    1.43   168.23683   131.81812   365.46484
   107  H   1.0    0.06    1.01    1.43   171.07605   131.80020   363.71673
   108  N   5.0   -0.14    3.52    2.09   174.52846   126.33824   369.99698
   109  C   4.0    0.04    4.43    4.43   175.20321   124.33815   371.73427
   110  C   4.0    0.16    3.49    3.11   175.14218   125.21970   374.48614
   111  O   6.0   -0.31    1.22    1.80   174.39672   123.83383   376.18018
   112  C   4.0   -0.04    4.37    4.33   177.87310   123.36526   371.19866
   113  C   4.0   -0.02    4.18    3.96   178.19520   122.08053   368.62144
   114  C   4.0   -0.07    4.11    3.82   181.00059   121.53602   368.21807
   115  C   4.0   -0.07    4.10    3.79   176.64909   119.65861   368.38271
   116  H   1.0    0.11    1.09    1.44   175.51751   126.48800   368.36525
   117  H   1.0    0.05    1.05    1.44   173.82391   122.79320   371.59340
   118  H   1.0    0.06    1.03    1.43   179.16323   124.97497   371.30007
   119  H   1.0    0.04    1.03    1.43   178.37708   122.03730   372.69617
   120  H   1.0    0.07    1.07    1.44   177.58408   123.38653   367.14433
   121  H   1.0    0.05    1.01    1.43   181.29724   120.72632   366.35649
   122  H   1.0    0.05    1.00    1.43   182.07911   123.27819   368.37398
   123  H   1.0    0.04    1.00    1.43   181.68675   120.21406   369.63397
   124  H   1.0    0.05    1.00    1.43   176.84561   118.90595   366.48093
   125  H   1.0    0.04    1.00    1.43   177.28620   118.25308   369.74153
   126  H   1.0    0.04    1.00    1.43   174.65303   120.01235   368.70762
   127  N   5.0   -0.14    3.53    2.10   176.18109   127.49248   374.90831
   128  C   4.0    0.04    4.37    4.33   176.59896   128.49093   377.39961
   129  C   4.0    0.15    3.42    3.08   174.43021   130.07539   378.48165
   130  O   6.0   -0.29    1.30    1.80   174.80962   131.43929   380.32504
   131  C   4.0    0.05    4.17    3.95   179.03692   130.09111   377.38563
   132  O   6.0   -0.24    2.05    1.83   179.84110   130.73256   379.81964
   133  H   1.0    0.12    1.11    1.45   176.45511   128.72010   373.46201
   134  H   1.0    0.06    1.06    1.44   176.84655   126.89049   378.70121
   135  H   1.0    0.05    1.01    1.43   180.56162   129.00402   376.50557
   136  H   1.0    0.06    1.01    1.43   178.69153   131.79566   376.24166
   137  H   1.0    0.15    1.07    1.44   178.36057   131.38679   380.70674
   138  N   5.0   -0.14    3.49    2.07   172.16249   129.86601   377.39297
   139  C   4.0    0.04    4.41    4.40   170.03367   131.23041   378.44090
   140  C   4.0    0.16    3.47    3.10   168.75212   129.80609   380.60632
   141  O   6.0   -0.31    1.29    1.80   167.27091   130.91174   382.00361
   142  C   4.0   -0.04    4.32    4.24   168.14540   132.09435   376.41410
   143  C   4.0   -0.02    4.17    3.94   166.54644   130.04654   375.12147
   144  C   4.0   -0.07    4.11    3.82   164.36001   129.13357   376.76767
   145  C   4.0   -0.08    4.12    3.83   165.47219   131.14421   372.67168
   146  H   1.0    0.12    1.10    1.44   171.92057   128.88224   375.76153
   147  H   1.0    0.07    1.07    1.44   170.83612   132.92239   379.34488
   148  H   1.0    0.04    1.03    1.43   166.86061   133.44292   377.29607
   149  H   1.0    0.05    1.03    1.43   169.24764   133.07522   374.97217
   150  H   1.0    0.06    1.06    1.44   167.75167   128.43985   374.64739
   151  H   1.0    0.04    1.00    1.43   163.27363   127.71015   375.75913
   152  H   1.0    0.05    1.01    1.43   165.01998   128.29455   378.51748
   153  H   1.0    0.04    1.00    1.43   163.10723   130.69526   377.23377
   154  H   1.0    0.04    1.00    1.43   164.30519   129.74693   371.72120
   155  H   1.0    0.04    1.00    1.43   164.31252   132.79257   373.07211
   156  H   1.0    0.04    1.00    1.43   166.99272   131.69719   371.40675
   157  N   5.0   -0.14    3.49    2.07   169.28788   127.34933   380.83622
   158  C   4.0    0.03    4.42    4.41   168.32805   125.94862   382.98981
   159  C   4.0    0.16    3.47    3.10   169.02761   127.41281   385.41029
   160  O   6.0   -0.29    1.24    1.80   171.06393   128.48473   385.64204
   161  C   4.0   -0.05    4.32    4.24   169.24989   123.20682   383.00970
   162  C   4.0   -0.02    4.18    3.97   171.88952   122.74379   384.11691
   163  C   4.0   -0.08    4.11    3.81   172.39200   119.90025   384.16767
   164  C   4.0   -0.06    4.10    3.81   173.96556   124.09025   382.63204
   165  H   1.0    0.09    1.08    1.44   170.65654   126.55870   379.77041
   166  H   1.0    0.05    1.06    1.44   166.25518   125.95528   382.85315
   167  H   1.0    0.04    1.03    1.43   167.89621   122.11619   384.12287
   168  H   1.0    0.04    1.03    1.43   169.19915   122.49766   381.07048
   169  H   1.0    0.05    1.05    1.44   171.91381   123.45660   386.06338
   170  H   1.0    0.04    1.00    1.43   174.21357   119.51591   385.03470
   171  H   1.0    0.04    1.00    1.43   170.94126   118.92512   385.24820
   172  H   1.0    0.04    1.00    1.43   172.40750   119.15629   382.25245
   173  H   1.0    0.05    1.00    1.43   175.80816   123.54244   383.36136
   174  H   1.0    0.06    1.00    1.43   173.88519   123.58727   380.63813
   175  H   1.0    0.07    1.00    1.43   173.79561   126.12741   382.85008
   176  N   5.0   -0.14    3.49    2.07   167.17702   127.51029   387.11755
   177  C   4.0    0.04    4.36    4.31   167.37679   128.68222   389.56971
   178  C   4.0    0.25    3.19    3.03   165.81807   127.02160   391.48594
   179  O   6.0   -0.28    1.16    1.80   166.10195   127.51980   393.76066
   180  C   4.0   -0.04    4.26    4.11   166.29062   131.36742   389.53351
   181  C   4.0   -0.03    4.18    3.96   167.81928   133.13542   387.84005
   182  C   4.0   -0.01    4.21    4.01   166.58677   135.74725   387.65707
   183  N   5.0   -0.14    3.39    2.02   167.97365   137.45650   386.02456
   184  C   4.0    0.10    3.35    3.06   167.72268   137.60860   383.52972
   185  N   5.0   -0.18    3.26    1.97   166.03796   136.19710   382.29872
   186  N   5.0   -0.18    3.24    1.97   169.01120   139.37143   382.27873
   187  O   6.0   -0.29    1.22    1.80   164.42625   125.38146   390.52635
   188  H   1.0    0.10    1.10    1.44   165.66411   126.32851   387.04152
   189  H   1.0    0.06    1.05    1.44   169.35742   128.71962   390.17537
   190  H   1.0    0.05    1.03    1.43   164.33981   131.24697   388.86589
   191  H   1.0    0.05    1.03    1.43   166.26096   132.04677   391.48175
   192  H   1.0    0.06    1.02    1.43   169.73276   133.29723   388.59159
   193  H   1.0    0.08    1.04    1.43   167.96584   132.28991   385.96749
   194  H   1.0    0.05    1.03    1.43   164.65755   135.56267   386.95273
   195  H   1.0    0.04    1.03    1.43   166.51268   136.60283   389.53117
   196  H   1.0    0.08    1.07    1.44   169.43496   138.38181   386.83138
   197  H   1.0    0.10    1.05    1.44   165.59064   134.45926   382.95954
   198  H   1.0    0.08    1.04    1.43   165.92645   136.38609   380.40653
   199  H   1.0    0.09    1.03    1.43   170.18788   140.56132   383.18271
   200  H   1.0    0.09    1.03    1.43   168.87440   139.50698   380.38615
   201  H   1.0    0.09    1.07    1.44   180.31355   105.62527   375.13258
   202  H   1.0    0.05    1.05    1.44   182.99646   110.15870   371.89518
   203  H   1.0    0.10    1.07    1.44   177.68058   110.68978   363.55522
   204  H   1.0    0.06    1.05    1.44   183.35944   111.67515   360.58471
   205  H   1.0    0.09    1.07    1.44   178.55183   135.95925   357.59674

  Z AO/shell   Hii/eV     exponent
  1     Wed Apr 25 08:07:45 CEST 2018   EN: 2.200 GM2: 0.406  GM3: 0.0800  RAES: 1.40
     1s    -10.707211    1.230000
  6     Wed Apr 25 08:07:45 CEST 2018   EN: 2.550 GM2: 0.538  GM3: 0.1500  RAES: 3.00
     2s    -13.970922    2.096432
     2p    -10.063292    1.800000
  7     Wed Apr 25 08:07:45 CEST 2018   EN: 3.040 GM2: 0.461  GM3:-0.0640  RAES: 1.90
     2s    -16.686243    2.339881
     2p    -12.523956    2.014332
  8     Wed Apr 25 08:07:45 CEST 2018   EN: 3.440 GM2: 0.452  GM3:-0.0517  RAES: 1.80
     2s    -20.229985    2.439742
     2p    -15.503117    2.137023
 no old-style atom pair restraining (fixing) potential

molecular fragmentation (1/2 indicates fragments):
111111111111111122222222222222222222222222222222222222222222222222222222
222222222222222222222222222222222222222222222222222222222222222222222222
2222222222222222222222222222222222222222222222222222222211222
# atoms in fragment 1/2:    18   187
 fragment masses (1/2) :      101.15     1254.49
CMA distance (Bohr)    :  18.905
constraining FC (au)   :  0.0500
           ------------------------------------------------- 
          |        Self-Consistent Charge Iterations        |
           ------------------------------------------------- 

 Ncao       : 490
 Nao        : 490
 Nshell     : 300
 Nel        : 542
 T(el)      :   500.0
 intcut     :    35.0
 scfconv/Eh :  0.100E-06
   qconv/e  :  0.100E-04
 intneglect :  0.100E-08
 broydamp   :      0.400
 iter      E             dE          RMSdq      gap      omega  full diag
   1   -309.5081369 -0.309508E+03  0.445E+00    3.52       0.0  T
   2   -310.2584250 -0.750288E+00  0.204E+00    2.14       1.0  T
   3   -310.3025951 -0.441701E-01  0.116E+00    2.47       1.0  T
   4   -310.3447292 -0.421342E-01  0.226E-01    1.84       1.0  T
   5   -310.3472683 -0.253909E-02  0.105E-01    1.94       1.0  T
   6   -310.3475151 -0.246830E-03  0.377E-02    1.90       1.0  T
   7   -310.3475840 -0.688973E-04  0.153E-02    1.91       1.0  T
   8   -310.3475889 -0.487150E-05  0.642E-03    1.92       1.1  T
   9   -310.3475907 -0.184034E-05  0.254E-03    1.92       2.8  T
  10   -310.3475909 -0.161919E-06  0.102E-03    1.92       6.9  T
  11   -310.3475909 -0.346310E-07  0.419E-04    1.91      16.7  T
  12   -310.3475909 -0.544935E-08  0.138E-04    1.91      50.6  T
  13   -310.3475909 -0.642729E-09  0.723E-05    1.91      96.6  T
  14   -310.3475909 -0.139664E-09  0.264E-05    1.91     264.1  T
speedup 15.96
cpu  time for SCC   10.88 s
wall time for SCC    0.68 s

   *** convergence criteria satisfied after 14 iterations ***

          eigenvalues
 #    :         259        260        261        262        263        264        265        266
 occ. :        2.000      2.000      2.000      2.000      2.000      2.000      2.000      2.000
 eps  :       -11.077    -11.032    -10.999    -10.934    -10.849    -10.809    -10.756    -10.615
 #    :         267        268        269        270        271        272        273        274
 occ. :        2.000      2.000      2.000      2.000      2.000      0.000      0.000      0.000
 eps  :       -10.437    -10.336    -10.098    -10.020     -9.749     -7.834     -7.796     -6.720
 #    :         275        276        277        278        279        280        281        282
 occ. :        0.000      0.000      0.000      0.000      0.000      0.000      0.000      0.000
 eps  :        -6.596     -6.476     -6.335     -6.269     -6.171     -6.125     -6.100     -6.052


   #   Z            q   n(s)   n(p)   n(d)      C6AA      α(0)
   1   7 N     -0.391  1.312  4.079  0.000    30.118     8.151
   2   6 C      0.037  1.060  2.902  0.000    19.962     6.364
   3   6 C      0.201  1.094  2.704  0.000    23.719     7.976
   4   8 O     -0.380  1.752  4.628  0.000    21.293     6.187
   5   6 C     -0.015  1.064  2.951  0.000    20.805     6.487
   6   6 C     -0.112  1.039  3.073  0.000    22.706     6.794
   7   6 C     -0.114  1.039  3.074  0.000    22.732     6.798
   8   1 H      0.167  0.833  0.000  0.000     1.291     1.780
   9   1 H      0.044  0.956  0.000  0.000     2.402     2.424
  10   1 H      0.048  0.952  0.000  0.000     2.351     2.398
  11   1 H      0.047  0.953  0.000  0.000     2.363     2.404
  12   1 H      0.032  0.968  0.000  0.000     2.564     2.504
  13   1 H      0.047  0.953  0.000  0.000     2.356     2.400
  14   1 H      0.049  0.951  0.000  0.000     2.329     2.386
  15   1 H      0.046  0.954  0.000  0.000     2.366     2.405
  16   1 H      0.043  0.957  0.000  0.000     2.406     2.426
  17   7 N     -0.390  1.309  4.081  0.000    30.103     8.149
  18   6 C      0.048  1.053  2.900  0.000    19.788     6.335
  19   6 C      0.197  1.094  2.709  0.000    23.798     7.989
  20   8 O     -0.378  1.759  4.619  0.000    21.242     6.179
  21   6 C     -0.103  1.065  3.039  0.000    22.465     6.747
  22   6 C      0.288  1.038  2.674  0.000    22.111     7.700
  23   8 O     -0.489  1.747  4.742  0.000    23.544     6.506
  24   7 N     -0.288  1.266  4.022  0.000    27.440     7.780
  25   1 H      0.181  0.819  0.000  0.000     1.207     1.721
  26   1 H      0.058  0.942  0.000  0.000     2.223     2.332
  27   1 H      0.083  0.917  0.000  0.000     1.953     2.185
  28   1 H      0.067  0.933  0.000  0.000     2.122     2.278
  29   1 H      0.229  0.771  0.000  0.000     0.970     1.543
  30   1 H      0.228  0.772  0.000  0.000     0.974     1.546
  31   7 N     -0.390  1.310  4.080  0.000    30.083     8.146
  32   6 C      0.030  1.062  2.908  0.000    20.077     6.382
  33   6 C      0.252  1.056  2.691  0.000    22.758     7.813
  34   8 O     -0.524  1.745  4.779  0.000    24.318     6.612
  35   6 C     -0.025  1.064  2.961  0.000    20.991     6.516
  36   6 C     -0.116  1.040  3.076  0.000    22.779     6.805
  37   6 C     -0.114  1.040  3.074  0.000    22.727     6.797
  38   1 H      0.162  0.838  0.000  0.000     1.324     1.802
  39   1 H      0.043  0.957  0.000  0.000     2.409     2.427
  40   1 H      0.044  0.956  0.000  0.000     2.391     2.418
  41   1 H      0.050  0.950  0.000  0.000     2.319     2.382
  42   1 H      0.034  0.966  0.000  0.000     2.536     2.490
  43   1 H      0.042  0.958  0.000  0.000     2.416     2.431
  44   1 H      0.047  0.953  0.000  0.000     2.360     2.402
  45   1 H      0.041  0.959  0.000  0.000     2.436     2.441
  46   1 H      0.042  0.958  0.000  0.000     2.424     2.435
  47   7 N     -0.078  1.234  3.844  0.000    22.754     7.085
  48   6 C      0.016  1.067  2.917  0.000    20.277     6.406
  49   6 C      0.280  1.040  2.680  0.000    22.258     7.726
  50   8 O     -0.493  1.746  4.747  0.000    23.631     6.518
  51   6 C     -0.074  1.054  3.020  0.000    21.890     6.657
  52   6 C     -0.076  1.053  3.023  0.000    21.928     6.663
  53   6 C     -0.016  1.054  2.962  0.000    20.898     6.514
  54   1 H      0.072  0.928  0.000  0.000     2.061     2.245
  55   1 H      0.069  0.931  0.000  0.000     2.098     2.265
  56   1 H      0.073  0.927  0.000  0.000     2.057     2.243
  57   1 H      0.062  0.938  0.000  0.000     2.173     2.305
  58   1 H      0.080  0.920  0.000  0.000     1.983     2.202
  59   1 H      0.085  0.915  0.000  0.000     1.932     2.173
  60   1 H      0.076  0.924  0.000  0.000     2.022     2.224
  61   7 N     -0.174  1.240  3.934  0.000    24.766     7.391
  62   6 C      0.015  1.064  2.922  0.000    20.329     6.419
  63   6 C      0.284  1.038  2.678  0.000    22.192     7.714
  64   8 O     -0.484  1.752  4.732  0.000    23.436     6.491
  65   6 C     -0.070  1.053  3.016  0.000    21.824     6.650
  66   6 C     -0.104  1.060  3.044  0.000    22.475     6.749
  67   6 C      0.291  1.036  2.673  0.000    22.071     7.692
  68   8 O     -0.500  1.754  4.746  0.000    23.778     6.538
  69   7 N     -0.291  1.270  4.021  0.000    27.507     7.789
  70   1 H      0.217  0.783  0.000  0.000     1.022     1.583
  71   1 H      0.084  0.916  0.000  0.000     1.941     2.179
  72   1 H      0.069  0.931  0.000  0.000     2.095     2.264
  73   1 H      0.064  0.936  0.000  0.000     2.148     2.292
  74   1 H      0.071  0.929  0.000  0.000     2.073     2.252
  75   1 H      0.082  0.918  0.000  0.000     1.958     2.188
  76   1 H      0.231  0.769  0.000  0.000     0.962     1.536
  77   1 H      0.229  0.771  0.000  0.000     0.970     1.542
  78   7 N     -0.184  1.243  3.942  0.000    24.990     7.425
  79   6 C      0.030  1.058  2.912  0.000    20.069     6.379
  80   6 C      0.272  1.043  2.685  0.000    22.396     7.750
  81   8 O     -0.508  1.750  4.758  0.000    23.969     6.564
  82   6 C     -0.110  1.065  3.045  0.000    22.584     6.765
  83   6 C      0.292  1.033  2.675  0.000    22.046     7.688
  84   8 O     -0.496  1.757  4.739  0.000    23.702     6.527
  85   7 N     -0.276  1.262  4.014  0.000    27.144     7.738
  86   1 H      0.211  0.789  0.000  0.000     1.053     1.608
  87   1 H      0.075  0.925  0.000  0.000     2.027     2.227
  88   1 H      0.086  0.914  0.000  0.000     1.914     2.163
  89   1 H      0.084  0.916  0.000  0.000     1.943     2.180
  90   1 H      0.241  0.759  0.000  0.000     0.921     1.503
  91   1 H      0.221  0.779  0.000  0.000     1.006     1.571
  92   7 N     -0.178  1.252  3.926  0.000    24.865     7.406
  93   6 C      0.022  1.065  2.913  0.000    20.203     6.399
  94   6 C      0.284  1.041  2.676  0.000    22.198     7.715
  95   8 O     -0.496  1.739  4.758  0.000    23.696     6.527
  96   6 C     -0.019  1.062  2.956  0.000    20.871     6.498
  97   6 C     -0.118  1.039  3.079  0.000    22.805     6.809
  98   6 C     -0.124  1.041  3.082  0.000    22.930     6.827
  99   1 H      0.242  0.758  0.000  0.000     0.914     1.498
 100   1 H      0.068  0.932  0.000  0.000     2.107     2.270
 101   1 H      0.048  0.952  0.000  0.000     2.351     2.398
 102   1 H      0.061  0.939  0.000  0.000     2.188     2.313
 103   1 H      0.030  0.970  0.000  0.000     2.590     2.517
 104   1 H      0.055  0.945  0.000  0.000     2.255     2.348
 105   1 H      0.056  0.944  0.000  0.000     2.243     2.342
 106   1 H      0.053  0.947  0.000  0.000     2.285     2.364
 107   1 H      0.056  0.944  0.000  0.000     2.249     2.345
 108   7 N     -0.186  1.248  3.938  0.000    25.034     7.431
 109   6 C      0.027  1.059  2.914  0.000    20.116     6.386
 110   6 C      0.285  1.041  2.675  0.000    22.176     7.712
 111   8 O     -0.497  1.744  4.753  0.000    23.717     6.529
 112   6 C     -0.074  1.059  3.015  0.000    21.898     6.660
 113   6 C     -0.013  1.057  2.957  0.000    20.777     6.483
 114   6 C     -0.117  1.041  3.076  0.000    22.797     6.807
 115   6 C     -0.115  1.040  3.075  0.000    22.756     6.802
 116   1 H      0.227  0.773  0.000  0.000     0.979     1.550
 117   1 H      0.065  0.935  0.000  0.000     2.137     2.286
 118   1 H      0.052  0.948  0.000  0.000     2.295     2.369
 119   1 H      0.052  0.948  0.000  0.000     2.290     2.366
 120   1 H      0.050  0.950  0.000  0.000     2.321     2.382
 121   1 H      0.044  0.956  0.000  0.000     2.397     2.421
 122   1 H      0.045  0.955  0.000  0.000     2.389     2.417
 123   1 H      0.043  0.957  0.000  0.000     2.413     2.429
 124   1 H      0.050  0.950  0.000  0.000     2.320     2.382
 125   1 H      0.039  0.961  0.000  0.000     2.463     2.454
 126   1 H      0.034  0.966  0.000  0.000     2.531     2.488
 127   7 N     -0.193  1.245  3.948  0.000    25.188     7.454
 128   6 C      0.013  1.061  2.927  0.000    20.374     6.428
 129   6 C      0.269  1.044  2.687  0.000    22.461     7.761
 130   8 O     -0.493  1.747  4.746  0.000    23.630     6.517
 131   6 C      0.082  1.037  2.882  0.000    19.431     6.314
 132   8 O     -0.479  1.718  4.762  0.000    22.453     6.397
 133   1 H      0.214  0.786  0.000  0.000     1.035     1.594
 134   1 H      0.081  0.919  0.000  0.000     1.968     2.194
 135   1 H      0.056  0.944  0.000  0.000     2.247     2.344
 136   1 H      0.032  0.968  0.000  0.000     2.560     2.502
 137   1 H      0.343  0.657  0.000  0.000     0.606     1.223
 138   7 N     -0.184  1.248  3.936  0.000    24.991     7.425
 139   6 C      0.018  1.061  2.921  0.000    20.272     6.411
 140   6 C      0.278  1.043  2.679  0.000    22.304     7.734
 141   8 O     -0.485  1.730  4.755  0.000    23.463     6.494
 142   6 C     -0.079  1.062  3.018  0.000    22.007     6.678
 143   6 C     -0.018  1.056  2.962  0.000    20.854     6.496
 144   6 C     -0.116  1.040  3.076  0.000    22.772     6.804
 145   6 C     -0.114  1.043  3.070  0.000    22.725     6.796
 146   1 H      0.223  0.777  0.000  0.000     0.994     1.562
 147   1 H      0.088  0.912  0.000  0.000     1.903     2.157
 148   1 H      0.070  0.930  0.000  0.000     2.085     2.258
 149   1 H      0.064  0.936  0.000  0.000     2.150     2.293
 150   1 H      0.045  0.955  0.000  0.000     2.378     2.411
 151   1 H      0.042  0.958  0.000  0.000     2.428     2.437
 152   1 H      0.025  0.975  0.000  0.000     2.660     2.550
 153   1 H      0.050  0.950  0.000  0.000     2.318     2.381
 154   1 H      0.043  0.957  0.000  0.000     2.409     2.427
 155   1 H      0.052  0.948  0.000  0.000     2.297     2.370
 156   1 H      0.035  0.965  0.000  0.000     2.518     2.481
 157   7 N     -0.171  1.242  3.928  0.000    24.693     7.380
 158   6 C      0.027  1.064  2.909  0.000    20.120     6.387
 159   6 C      0.288  1.038  2.674  0.000    22.123     7.702
 160   8 O     -0.497  1.747  4.750  0.000    23.710     6.528
 161   6 C     -0.076  1.060  3.017  0.000    21.954     6.670
 162   6 C     -0.002  1.053  2.949  0.000    20.588     6.454
 163   6 C     -0.117  1.044  3.074  0.000    22.800     6.808
 164   6 C     -0.112  1.038  3.075  0.000    22.703     6.794
 165   1 H      0.199  0.801  0.000  0.000     1.112     1.652
 166   1 H      0.052  0.948  0.000  0.000     2.301     2.372
 167   1 H      0.048  0.952  0.000  0.000     2.351     2.398
 168   1 H      0.065  0.935  0.000  0.000     2.140     2.288
 169   1 H      0.012  0.988  0.000  0.000     2.853     2.641
 170   1 H      0.045  0.955  0.000  0.000     2.387     2.416
 171   1 H      0.037  0.963  0.000  0.000     2.493     2.469
 172   1 H      0.051  0.949  0.000  0.000     2.303     2.373
 173   1 H      0.037  0.963  0.000  0.000     2.491     2.468
 174   1 H      0.049  0.951  0.000  0.000     2.327     2.385
 175   1 H      0.035  0.965  0.000  0.000     2.518     2.481
 176   7 N     -0.184  1.254  3.930  0.000    24.996     7.425
 177   6 C      0.015  1.069  2.916  0.000    20.337     6.424
 178   6 C      0.366  1.024  2.609  0.000    20.785     7.461
 179   8 O     -0.630  1.771  4.859  0.000    26.865     6.949
 180   6 C     -0.058  1.052  3.005  0.000    21.608     6.618
 181   6 C     -0.073  1.052  3.021  0.000    21.900     6.663
 182   6 C     -0.026  1.055  2.971  0.000    21.109     6.556
 183   7 N     -0.139  1.212  3.926  0.000    24.001     7.276
 184   6 C      0.234  1.020  2.746  0.000    23.091     7.867
 185   7 N     -0.241  1.242  4.000  0.000    26.299     7.616
 186   7 N     -0.258  1.234  4.024  0.000    26.697     7.674
 187   8 O     -0.628  1.769  4.859  0.000    26.827     6.944
 188   1 H      0.199  0.801  0.000  0.000     1.112     1.652
 189   1 H      0.023  0.977  0.000  0.000     2.688     2.564
 190   1 H      0.038  0.962  0.000  0.000     2.470     2.458
 191   1 H      0.042  0.958  0.000  0.000     2.423     2.434
 192   1 H      0.049  0.951  0.000  0.000     2.329     2.386
 193   1 H      0.064  0.936  0.000  0.000     2.148     2.292
 194   1 H      0.087  0.913  0.000  0.000     1.913     2.163
 195   1 H      0.086  0.914  0.000  0.000     1.914     2.163
 196   1 H      0.236  0.764  0.000  0.000     0.938     1.517
 197   1 H      0.245  0.755  0.000  0.000     0.903     1.488
 198   1 H      0.233  0.767  0.000  0.000     0.954     1.530
 199   1 H      0.254  0.746  0.000  0.000     0.870     1.461
 200   1 H      0.256  0.744  0.000  0.000     0.862     1.454
 201   1 H      0.182  0.818  0.000  0.000     1.202     1.717
 202   1 H      0.075  0.925  0.000  0.000     2.031     2.229
 203   1 H      0.184  0.816  0.000  0.000     1.189     1.708
 204   1 H      0.083  0.917  0.000  0.000     1.951     2.184
 205   1 H      0.181  0.819  0.000  0.000     1.206     1.720

 Mol. C6AA /au·bohr⁶  :     366773.782189
 Mol. C8AA /au·bohr⁸  :    8021315.968749
 Mol. α(0) /au        :        900.843230

 
molecular dipole:
                 x           y           z       tot (Debye)
 q only:        3.993       7.270     -18.631
   full:        4.221       6.990     -19.627      54.034
molecular quadrupole (traceless):
                xx          xy          yy          xz          yz          zz
 q only:     7465.634    2520.025    8282.856   -2555.709     572.372  -15748.490
  q+dip:     7948.722    2503.955    8545.067   -2679.304     192.149  -16493.789
   full:     7947.380    2503.593    8547.886   -2679.161     192.025  -16495.266
speedup 15.96
cpu  time for grad   11.78 s
wall time for grad    0.74 s

SCC energy    :    -310.3584578
rep           :       3.7055183
ES            :       0.9249968
AES           :      -0.0190604
AXC           :       0.1015250
disp          :      -0.2404556
XB            :       0.0000000
fix           :       0.0000000
Gborn         :       0.0000000
Gsasa         :       0.0000000
Ghb           :       0.0000000
Gshift        :       0.0000000
Gsolv         :      -0.2147475     -134.76
Etot ala COSMO:    -310.3584578
grad norm     :       0.3632468
total E       :    -306.6390766
atomizationE  :      56.4125515    35399.41
(atE without considering molecular charge,
 total energy contains solvation terms)
H-L gap (eV)  :          1.9145

------------------------------------------------------------------------
 * finished run on 2019/02/13 at 00:18:39.006     
------------------------------------------------------------------------
 total:
 * wall-time:     0 d,  0 h,  0 min,  0.867 sec
 *  cpu-time:     0 d,  0 h,  0 min, 13.556 sec
 * ratio c/w:    15.638 speedup
 SCF:
 * wall-time:     0 d,  0 h,  0 min,  0.784 sec
 *  cpu-time:     0 d,  0 h,  0 min, 12.518 sec
 * ratio c/w:    15.961 speedup

