      -----------------------------------------------------------      
     |                   =====================                   |     
     |                           x T B                           |     
     |                   =====================                   |     
     |                         S. Grimme                         |     
     |          Mulliken Center for Theoretical Chemistry        |     
     |                    University of Bonn                     |     
     |                 Version 6.0.1 (SAW181210)                 |     
      -----------------------------------------------------------      

   This program is distributed in the hope that it will be useful,
   but WITHOUT ANY WARRANTY; without even the implied warranty of
   MERCHANTABILITY or FITNESS FOR A PARTICULAR PURPOSE.
   
   FOR NON-COMMERCIAL, ACADEMIA USE ONLY.
   
   Cite this work as:
   S. Grimme, C. Bannwarth, P. Shushkov, J. Comput. Theory Chem., 2017,
   13, 1989-2009.
   C. Bannwarth, S. Ehlert and S. Grimme., ChemRxiv, 2018, preprint.
   http://doi.org/10.26434/chemrxiv.7246238.v1
   
   for sTDA-xTB:
   S. Grimme and C. Bannwarth, J. Chem. Phys., 2016, 145, 054103.
   
   in the mass-spec context:
   V. Asgeirsson, C. Bauer and S. Grimme, Chem. Sci., 2017, 8, 4879.
   
   if GBSA is used:
   P. Shushkov, F. März and S. Grimme, unpublished.
   
   for ANC optimizer:
   S. Grimme, unpublished.
   Rational Function algorithm used in ANCopt:
   F. Eckert, P. Pulay, H.-J. Werner, J. Comput. Chem., 1997, 18, 1473.
   
   with help from (in alphabetical order)
   C. Bannwarth, F. Bohle, G. Brandenburg, E. Caldeweyher, M. Checinski,
   S. Dohm, S. Ehlert, S. Ehrlich, F. März, H. Neugebauer, J. Pisarek,
   P. Pracht, P. Shushkov, and S. Spicher.
   
 * started run on 2019/02/13 at 00:17:34.247     
========================================================================
 # omp threads = 16
========================================================================
number of atoms            : 535
number of electrons        : 1456
charge                     : -3
spin                       : .0
first test random number   : .4484

########################################################################
# WARNING! Please study the warnings concerning your input carefully
#  - Process number higher than OMP_NUM_THREADS, I hope you know what you are doing.
########################################################################

           ------------------------------------------------- 
          |                 G F N 2 - x T B                 |
          | Geometry, Frequencies, Noncovalent interactions |
          |            JCTC 2018 parametrisation            |
           ------------------------------------------------- 
 
      method parameters     
 k(s)        :  1.8500
 k(p)        :  2.2300
 k(d)        :  2.2300
 k(f)        :  2.0000
 kEN (H0ij)  : -2.0000
 D4 a1       :  0.5200
 D4 a2       :  5.0000
 D4 s6       :  1.0000
 D4 s8       :  2.7000
 D4 s9       :  5.0000
 alphaj      :  2.0000

 Solvent             : h2o
 Using internal parameter file: .param_gbsa2_h2o
 Gsolv ref. state (COSMO-RS): gsolv [1 M gas/solution]
 temperature (mdtemp)       :    298.150000000000     
 dielectric constant        :    80.2000000000000     
 rho                        :    1.00000000000000     
 mass                       :    18.0000000000000     
 surface tension            :    15.5689454083859     
 probe radius               :   0.975313790000000     
 vdW radii scaling          :    1.00000000000000     
 Gshift (Eh)                :   1.857443126794793E-003
 c1                         :    1.55243817000000     
 soset                      :   0.130326360000000     
 HB correction              :  T

            Z     q(EN)     CN     RAES       Cart. coordinates
     1  N   5.0   -0.23    3.21    1.96   252.61899   121.64021   247.94493
     2  C   4.0    0.03    4.15    3.89   251.57291   121.73393   245.41752
     3  C   4.0    0.07    3.22    3.04   252.57233   124.06746   244.04916
     4  O   6.0   -0.33    1.20    1.80   253.26135   123.98361   241.83556
     5  C   4.0   -0.08    4.11    3.83   248.70232   121.85693   245.55291
     6  H   1.0    0.07    1.03    1.43   251.35868   121.57260   249.39946
     7  H   1.0    0.04    1.05    1.44   252.18694   120.07543   244.33072
     8  H   1.0    0.04    1.00    1.43   247.92599   121.80855   243.65446
     9  H   1.0    0.03    1.00    1.43   247.98817   120.25695   246.62270
    10  H   1.0    0.03    1.00    1.43   248.12803   123.60943   246.45821
    11  N   5.0   -0.21    3.14    1.94   258.87460   123.59274   242.37212
    12  C   4.0    0.00    4.16    3.92   258.73814   122.16930   240.04748
    13  C   4.0    0.15    3.35    3.06   258.34513   123.90072   237.76917
    14  O   6.0   -0.32    1.28    1.80   259.73487   123.81104   235.91269
    15  H   1.0    0.08    1.02    1.43   257.80429   123.00134   243.85128
    16  H   1.0    0.04    1.02    1.43   260.48174   121.09849   239.73767
    17  H   1.0    0.04    1.03    1.43   257.12522   120.89492   240.18489
    18  N   5.0   -0.15    3.50    2.07   256.38277   125.45020   237.97853
    19  C   4.0    0.03    4.40    4.39   255.76659   127.29681   236.05809
    20  C   4.0    0.09    3.30    3.05   258.14115   128.81494   235.43076
    21  O   6.0   -0.32    1.19    1.80   258.80250   129.17415   233.23568
    22  C   4.0   -0.03    4.32    4.24   253.57961   128.99466   236.95136
    23  C   4.0   -0.05    4.18    3.96   251.09571   127.49775   236.87979
    24  C   4.0   -0.07    4.14    3.88   253.42403   131.38392   235.34426
    25  C   4.0   -0.08    4.01    3.63   248.88491   128.83639   238.15442
    26  H   1.0    0.11    1.13    1.45   255.21468   125.27537   239.50068
    27  H   1.0    0.05    1.05    1.44   255.22439   126.32062   234.30234
    28  H   1.0    0.04    1.06    1.44   254.00881   129.54323   238.89945
    29  H   1.0    0.04    1.03    1.43   250.61176   127.14165   234.90373
    30  H   1.0    0.05    1.03    1.43   251.38271   125.67647   237.80655
    31  H   1.0    0.04    1.00    1.43   251.89341   132.57584   236.00575
    32  H   1.0    0.06    1.01    1.43   255.17283   132.45426   235.48429
    33  H   1.0    0.06    1.00    1.43   253.09822   130.93007   233.36519
    34  H   1.0    0.04    1.00    1.43   247.19252   127.69166   237.95647
    35  H   1.0    0.04    1.00    1.43   249.23344   129.10612   240.16147
    36  H   1.0    0.04    1.00    1.43   248.53080   130.66365   237.29467
    37  N   5.0   -0.20    3.23    1.96   263.15168   125.22303   231.94412
    38  C   4.0    0.03    4.25    4.09   262.39690   125.26183   229.31433
    39  C   4.0    0.16    3.43    3.09   263.16315   127.78021   228.11703
    40  O   6.0   -0.33    1.33    1.80   264.51773   127.81706   226.23788
    41  C   4.0   -0.06    4.11    3.83   259.57674   124.81747   229.03478
    42  H   1.0    0.12    1.06    1.44   261.82658   124.84565   233.27780
    43  H   1.0    0.04    1.05    1.44   263.46726   123.79979   228.29247
    44  H   1.0    0.06    1.00    1.43   259.01177   125.10669   227.07895
    45  H   1.0    0.04    1.00    1.43   259.09185   122.90437   229.59915
    46  H   1.0    0.07    1.01    1.43   258.55070   126.14563   230.21593
    47  N   5.0   -0.14    3.48    2.06   262.30033   129.84496   229.25603
    48  C   4.0    0.04    4.33    4.26   262.55544   132.33806   228.14634
    49  C   4.0    0.08    3.25    3.04   265.31085   133.02761   227.69651
    50  O   6.0   -0.30    1.12    1.80   266.01773   133.98958   225.70678
    51  C   4.0   -0.04    4.29    4.19   261.35934   134.31461   229.87371
    52  C   4.0   -0.02    4.25    4.09   258.48825   134.13493   229.82383
    53  C   4.0    0.15    3.22    3.04   257.24401   135.58134   231.96471
    54  O   6.0   -0.31    1.21    1.80   258.38830   136.29745   233.84389
    55  N   5.0   -0.19    3.19    1.95   254.77792   136.02641   231.57877
    56  H   1.0    0.11    1.12    1.45   261.14623   129.67258   230.77729
    57  H   1.0    0.08    1.07    1.44   261.61469   132.36454   226.29216
    58  H   1.0    0.06    1.03    1.43   262.03780   134.02308   231.80001
    59  H   1.0    0.05    1.03    1.43   261.94787   136.19492   229.26641
    60  H   1.0    0.05    1.03    1.43   257.75840   134.80210   228.01782
    61  H   1.0    0.07    1.04    1.43   257.90800   132.16695   230.04944
    62  H   1.0    0.11    1.06    1.44   253.83826   134.94984   230.30119
    63  H   1.0    0.09    1.03    1.43   253.76876   136.76065   233.01809
    64  N   5.0   -0.20    3.25    1.97   270.17593   129.26842   227.43176
    65  C   4.0    0.03    4.37    4.32   271.18983   127.56041   225.55460
    66  C   4.0    0.15    3.43    3.09   270.42710   128.44187   222.91322
    67  O   6.0   -0.33    1.29    1.80   271.97133   128.50783   221.18528
    68  C   4.0    0.05    4.23    4.06   270.30001   124.82569   226.07302
    69  O   6.0   -0.27    2.12    1.84   271.02531   124.04476   228.50583
    70  C   4.0   -0.07    4.09    3.79   271.48441   123.00531   224.18156
    71  H   1.0    0.09    1.03    1.43   268.98181   128.57519   228.75601
    72  H   1.0    0.04    1.05    1.44   273.26388   127.61753   225.64030
    73  H   1.0    0.05    1.04    1.43   268.22668   124.80630   225.90108
    74  H   1.0    0.11    1.02    1.43   269.93332   124.85080   229.73498
    75  H   1.0    0.04    1.00    1.43   270.77286   121.11307   224.52919
    76  H   1.0    0.04    1.00    1.43   271.03911   123.57096   222.26237
    77  H   1.0    0.04    1.00    1.43   273.51981   122.99454   224.44296
    78  N   5.0   -0.14    3.49    2.07   268.01316   129.08598   222.63926
    79  C   4.0    0.04    4.32    4.23   267.00607   130.02615   220.28032
    80  C   4.0    0.09    3.25    3.04   268.41521   132.40200   219.45384
    81  O   6.0   -0.30    1.12    1.80   268.98695   132.73441   217.23396
    82  C   4.0   -0.04    4.29    4.18   264.20250   130.69001   220.51278
    83  C   4.0   -0.03    4.17    3.94   262.47236   128.43042   220.95625
    84  C   4.0    0.25    3.13    3.03   260.07638   129.17420   222.47865
    85  O   6.0   -0.31    1.22    1.80   259.69488   131.44854   222.93900
    86  O   6.0   -0.32    1.25    1.80   258.66729   127.39037   223.16097
    87  H   1.0    0.12    1.13    1.45   266.79608   128.95204   224.11135
    88  H   1.0    0.05    1.05    1.44   267.29492   128.59884   218.79853
    89  H   1.0    0.08    1.04    1.43   263.97892   131.99859   222.09414
    90  H   1.0    0.05    1.03    1.43   263.61958   131.69100   218.80706
    91  H   1.0    0.04    1.02    1.43   261.85249   127.56194   219.19222
    92  H   1.0    0.06    1.04    1.43   263.42045   126.98650   222.07546
    93  N   5.0   -0.21    3.21    1.96   274.57636   130.41810   216.94708
    94  C   4.0    0.03    4.23    4.06   274.14408   129.24812   214.51295
    95  C   4.0    0.08    3.22    3.04   273.66786   131.24871   212.49634
    96  O   6.0   -0.31    1.12    1.80   274.53110   130.99919   210.35678
    97  C   4.0   -0.04    4.35    4.30   271.88630   127.44835   214.55475
    98  C   4.0   -0.02    4.17    3.94   272.33279   125.00139   216.04249
    99  C   4.0   -0.08    4.11    3.82   269.88021   123.47511   216.08234
   100  C   4.0   -0.09    4.10    3.81   274.44821   123.40810   214.89775
   101  H   1.0    0.12    1.07    1.44   273.44631   129.91403   218.41308
   102  H   1.0    0.04    1.05    1.44   275.85771   128.23764   213.92851
   103  H   1.0    0.06    1.03    1.43   270.28236   128.47141   215.35234
   104  H   1.0    0.04    1.03    1.43   271.42517   126.96828   212.60130
   105  H   1.0    0.05    1.06    1.44   272.83551   125.49634   217.98564
   106  H   1.0    0.03    1.00    1.43   270.10832   121.76547   217.19711
   107  H   1.0    0.04    1.00    1.43   268.34728   124.57146   216.90406
   108  H   1.0    0.04    1.00    1.43   269.33356   122.92752   214.17709
   109  H   1.0    0.03    1.00    1.43   274.50161   121.57447   215.81953
   110  H   1.0    0.03    1.00    1.43   274.11324   123.11650   212.89122
   111  H   1.0    0.03    1.00    1.43   276.28289   124.29565   215.14162
   112  N   5.0   -0.20    3.22    1.96   257.09754   107.24349   243.40174
   113  C   4.0    0.03    4.31    4.21   256.30325   109.22927   245.12308
   114  C   4.0    0.07    3.24    3.04   253.72535   108.55167   246.25273
   115  O   6.0   -0.32    1.17    1.80   251.74077   108.76452   245.08240
   116  C   4.0   -0.01    4.34    4.27   256.12869   111.80897   243.80515
   117  C   4.0   -0.05    4.18    3.96   258.58707   112.50898   242.44112
   118  C   4.0   -0.08    4.13    3.86   255.34613   113.81369   245.73415
   119  C   4.0   -0.09    4.02    3.65   260.86398   112.89918   244.16206
   120  H   1.0    0.12    1.04    1.43   256.48342   107.36771   241.59174
   121  H   1.0    0.02    1.05    1.44   257.70480   109.27824   246.64598
   122  H   1.0    0.06    1.06    1.44   254.65183   111.63495   242.36796
   123  H   1.0    0.04    1.03    1.43   259.01276   111.03930   241.05395
   124  H   1.0    0.03    1.03    1.43   258.24760   114.25433   241.39669
   125  H   1.0    0.03    1.00    1.43   255.35427   115.67364   244.86176
   126  H   1.0    0.04    1.00    1.43   253.45975   113.42597   246.44986
   127  H   1.0    0.03    1.00    1.43   256.64506   113.82980   247.32511
   128  H   1.0    0.03    1.00    1.43   262.48954   113.43781   243.02700
   129  H   1.0    0.03    1.00    1.43   260.51240   114.40168   245.51470
   130  H   1.0    0.03    1.00    1.43   261.33465   111.17359   245.17512
   131  N   5.0   -0.23    3.20    1.96   247.50627   109.23763   249.25251
   132  C   4.0    0.03    4.30    4.19   245.63318   111.21762   249.28165
   133  C   4.0    0.06    3.21    3.04   243.29717   110.58873   250.86699
   134  O   6.0   -0.31    1.12    1.80   242.03385   112.28658   251.78834
   135  C   4.0   -0.02    4.26    4.11   244.76269   112.02275   246.60875
   136  C   4.0   -0.08    4.11    3.83   246.99090   113.07368   245.11488
   137  C   4.0   -0.08    4.11    3.82   243.49734   109.87352   245.16019
   138  H   1.0    0.08    1.02    1.43   247.00921   107.55936   248.48035
   139  H   1.0    0.04    1.06    1.44   246.53368   112.85697   250.17418
   140  H   1.0    0.04    1.06    1.44   243.37032   113.52551   246.90439
   141  H   1.0    0.03    1.00    1.43   246.35577   113.66481   243.25588
   142  H   1.0    0.03    1.00    1.43   247.82048   114.68028   246.09123
   143  H   1.0    0.05    1.01    1.43   248.43696   111.63050   244.88178
   144  H   1.0    0.03    1.00    1.43   242.80729   110.57052   243.35596
   145  H   1.0    0.04    1.00    1.43   244.82608   108.35172   244.78062
   146  H   1.0    0.04    1.00    1.43   241.90851   109.10311   246.21037
   147  N   5.0   -0.20    3.27    1.97   249.06536   107.49905   240.33673
   148  C   4.0    0.03    4.42    4.42   249.54343   108.30081   237.76401
   149  C   4.0    0.16    3.46    3.10   252.40009   108.12251   237.41523
   150  O   6.0   -0.31    1.29    1.80   253.84653   108.81737   239.08147
   151  C   4.0   -0.03    4.33    4.25   248.49690   110.97555   237.28667
   152  C   4.0   -0.06    4.20    4.00   245.60541   110.80657   237.27808
   153  C   4.0   -0.07    4.12    3.85   249.54703   112.05597   234.82853
   154  C   4.0   -0.08    4.01    3.64   244.30950   113.37162   237.37568
   155  H   1.0    0.12    1.06    1.44   250.37168   108.11544   241.59891
   156  H   1.0    0.04    1.05    1.44   248.60570   106.94108   236.51586
   157  H   1.0    0.04    1.06    1.44   249.11360   112.17411   238.85260
   158  H   1.0    0.03    1.03    1.43   245.01287   109.77540   235.59426
   159  H   1.0    0.03    1.04    1.43   245.02497   109.68376   238.90818
   160  H   1.0    0.04    1.00    1.43   248.77546   113.92684   234.48462
   161  H   1.0    0.05    1.00    1.43   251.59512   112.21595   234.92634
   162  H   1.0    0.04    1.00    1.43   249.10010   110.82512   233.24326
   163  H   1.0    0.04    1.00    1.43   242.27163   113.12788   237.31154
   164  H   1.0    0.04    1.00    1.43   244.79149   114.34283   239.11774
   165  H   1.0    0.05    1.00    1.43   244.87111   114.55321   235.79563
   166  N   5.0   -0.13    3.48    2.06   253.17724   107.14597   235.21984
   167  C   4.0    0.04    4.47    4.49   255.81662   106.68375   234.72964
   168  C   4.0    0.15    3.41    3.08   256.78572   108.56108   232.77264
   169  O   6.0   -0.30    1.23    1.80   255.47870   109.29831   231.01312
   170  C   4.0   -0.02    4.25    4.10   256.29610   103.98171   233.86827
   171  C   4.0    0.25    3.10    3.02   255.84710   102.02433   236.03172
   172  O   6.0   -0.29    1.20    1.80   255.09197   102.86628   238.11070
   173  O   6.0   -0.30    1.16    1.80   256.28834    99.78009   235.52808
   174  H   1.0    0.08    1.06    1.44   251.93179   106.55891   233.90714
   175  H   1.0    0.06    1.08    1.44   256.80815   106.98110   236.51702
   176  H   1.0    0.06    1.02    1.43   255.08991   103.47183   232.27053
   177  H   1.0    0.06    1.02    1.43   258.25237   103.77152   233.23741
   178  N   5.0   -0.14    3.51    2.08   259.10518   109.42400   233.28946
   179  C   4.0    0.03    4.50    4.54   260.44476   111.14001   231.64396
   180  C   4.0    0.15    3.46    3.10   262.75540   109.79162   230.59571
   181  O   6.0   -0.30    1.25    1.80   264.23087   108.69505   232.01642
   182  C   4.0   -0.02    4.34    4.27   261.35256   113.54000   233.04648
   183  C   4.0   -0.05    4.20    4.01   259.34574   114.43440   234.92961
   184  C   4.0   -0.08    4.12    3.84   262.03424   115.56073   231.10326
   185  C   4.0   -0.08    4.02    3.65   260.16228   116.76934   236.40280
   186  H   1.0    0.08    1.07    1.44   260.08718   108.58546   234.70441
   187  H   1.0    0.05    1.07    1.44   259.12834   111.62470   230.12510
   188  H   1.0    0.05    1.06    1.44   263.05956   113.01850   234.09805
   189  H   1.0    0.04    1.03    1.43   257.59005   114.79777   233.91203
   190  H   1.0    0.04    1.03    1.43   258.96648   112.89637   236.25219
   191  H   1.0    0.04    1.00    1.43   262.90708   117.17476   232.01811
   192  H   1.0    0.05    1.00    1.43   263.35792   114.81257   229.71855
   193  H   1.0    0.04    1.00    1.43   260.34632   116.18281   230.10949
   194  H   1.0    0.03    1.00    1.43   258.79882   117.12712   237.89185
   195  H   1.0    0.03    1.00    1.43   262.00589   116.45443   237.25200
   196  H   1.0    0.05    1.00    1.43   260.25635   118.42114   235.18933
   197  N   5.0   -0.13    3.49    2.07   263.19416   110.07771   228.13016
   198  C   4.0    0.04    4.47    4.49   265.22816   108.74649   226.88729
   199  C   4.0    0.14    3.39    3.07   267.08451   110.68208   225.79800
   200  O   6.0   -0.31    1.22    1.80   266.40097   112.50531   224.54763
   201  C   4.0   -0.03    4.24    4.08   264.21379   106.92665   224.89228
   202  C   4.0    0.25    3.13    3.03   262.76372   104.79103   226.32938
   203  O   6.0   -0.28    1.18    1.80   260.74312   105.38167   227.38308
   204  O   6.0   -0.29    1.16    1.80   263.79718   102.67090   226.35372
   205  H   1.0    0.08    1.07    1.44   261.82610   110.77085   227.00073
   206  H   1.0    0.06    1.08    1.44   266.19772   107.63964   228.34015
   207  H   1.0    0.06    1.02    1.43   262.94934   107.90494   223.58563
   208  H   1.0    0.05    1.02    1.43   265.77889   106.07818   223.85828
   209  N   5.0   -0.13    3.52    2.09   269.46892   110.21911   226.45958
   210  C   4.0    0.03    4.31    4.22   271.61912   111.75704   225.76022
   211  C   4.0    0.06    3.22    3.04   273.36960   110.12208   224.14555
   212  O   6.0   -0.30    1.15    1.80   273.26006   107.80649   224.26823
   213  C   4.0   -0.05    4.34    4.27   273.00026   112.67747   228.14076
   214  C   4.0   -0.02    4.19    3.99   271.22957   113.95845   230.04883
   215  C   4.0   -0.09    4.11    3.81   272.70715   114.61093   232.43719
   216  C   4.0   -0.08    4.11    3.82   270.03898   116.34485   228.94857
   217  H   1.0    0.08    1.07    1.44   269.86240   108.58289   227.37600
   218  H   1.0    0.05    1.06    1.44   270.90394   113.34520   224.64926
   219  H   1.0    0.04    1.03    1.43   273.90063   111.04018   229.02373
   220  H   1.0    0.03    1.03    1.43   274.48784   113.99120   227.58323
   221  H   1.0    0.05    1.05    1.44   269.71792   112.62377   230.53565
   222  H   1.0    0.03    1.00    1.43   271.44861   115.37972   233.86496
   223  H   1.0    0.03    1.00    1.43   273.63645   112.94180   233.19184
   224  H   1.0    0.03    1.00    1.43   274.13660   116.01142   231.98229
   225  H   1.0    0.04    1.00    1.43   268.97632   117.33968   230.39654
   226  H   1.0    0.04    1.00    1.43   271.49898   117.60206   228.23432
   227  H   1.0    0.05    1.00    1.43   268.74795   115.88462   227.41817
   228  N   5.0   -0.22    3.26    1.97   267.59294   120.53235   204.58249
   229  C   4.0    0.03    4.33    4.26   265.00783   121.39208   204.57003
   230  C   4.0    0.14    3.41    3.08   263.17185   119.38479   205.53278
   231  O   6.0   -0.32    1.24    1.80   261.35372   119.98814   206.84695
   232  C   4.0   -0.04    4.26    4.12   264.32408   122.26714   201.91517
   233  C   4.0    0.24    3.10    3.02   265.97985   124.58205   201.05112
   234  O   6.0   -0.32    1.16    1.80   266.54823   124.68850   198.78968
   235  O   6.0   -0.32    1.26    1.80   266.54787   126.17115   202.70451
   236  H   1.0    0.08    1.03    1.43   268.50122   120.42780   202.90034
   237  H   1.0    0.05    1.05    1.44   264.85095   123.00174   205.87931
   238  H   1.0    0.04    1.02    1.43   264.60709   120.72908   200.57172
   239  H   1.0    0.04    1.02    1.43   262.34015   122.83084   201.84945
   240  N   5.0   -0.16    3.49    2.07   263.68863   117.01208   204.84202
   241  C   4.0    0.04    4.47    4.49   262.13246   114.91518   205.60720
   242  C   4.0    0.15    3.45    3.09   262.56348   114.06173   208.34250
   243  O   6.0   -0.29    1.26    1.80   261.42744   112.22131   209.16907
   244  C   4.0    0.05    4.24    4.09   262.38897   112.61376   203.83049
   245  O   6.0   -0.26    2.11    1.84   260.22454   111.07967   204.04529
   246  C   4.0   -0.08    4.09    3.79   264.79703   111.11508   204.36675
   247  H   1.0    0.07    1.07    1.44   265.19394   116.63274   203.71643
   248  H   1.0    0.07    1.06    1.44   260.14469   115.52774   205.58608
   249  H   1.0    0.03    1.04    1.43   262.40891   113.29396   201.87163
   250  H   1.0    0.14    1.05    1.44   260.01722   110.70213   205.83028
   251  H   1.0    0.03    1.00    1.43   265.06144   109.69057   202.91316
   252  H   1.0    0.03    1.00    1.43   266.40858   112.38055   204.41224
   253  H   1.0    0.05    1.00    1.43   264.63792   110.17607   206.18939
   254  N   5.0   -0.14    3.54    2.11   264.17285   115.46594   209.68371
   255  C   4.0    0.03    4.42    4.41   264.48485   115.23313   212.38488
   256  C   4.0    0.15    3.46    3.10   263.28400   117.52974   213.66247
   257  O   6.0   -0.31    1.30    1.80   261.93862   117.31454   215.54516
   258  C   4.0   -0.05    4.35    4.29   267.27855   114.96024   213.06282
   259  C   4.0   -0.02    4.19    3.99   268.44579   112.56702   211.91835
   260  C   4.0   -0.09    4.10    3.81   271.31823   112.74766   212.08538
   261  C   4.0   -0.07    4.10    3.79   267.48443   110.18158   213.22618
   262  H   1.0    0.08    1.09    1.44   265.34344   116.69184   208.80011
   263  H   1.0    0.07    1.06    1.44   263.40510   113.57665   213.00388
   264  H   1.0    0.03    1.03    1.43   268.26857   116.61545   212.32942
   265  H   1.0    0.04    1.03    1.43   267.45908   114.91892   215.11660
   266  H   1.0    0.04    1.06    1.44   267.91803   112.48466   209.92090
   267  H   1.0    0.03    1.00    1.43   272.18916   111.03191   211.36837
   268  H   1.0    0.03    1.00    1.43   271.97262   114.32721   210.94973
   269  H   1.0    0.03    1.00    1.43   271.88794   113.03030   214.03789
   270  H   1.0    0.03    1.00    1.43   268.37876   108.51689   212.42035
   271  H   1.0    0.04    1.00    1.43   267.88716   110.24368   215.24181
   272  H   1.0    0.06    1.00    1.43   265.44944   109.96604   213.00256
   273  N   5.0   -0.14    3.49    2.07   263.73912   119.76507   212.57858
   274  C   4.0    0.03    4.44    4.44   262.45570   122.02327   213.44972
   275  C   4.0    0.16    3.55    3.14   259.63797   121.43491   213.79875
   276  O   6.0   -0.32    1.29    1.80   258.49155   122.03665   215.72294
   277  C   4.0   -0.05    4.25    4.10   262.75658   124.22709   211.59336
   278  C   4.0   -0.05    4.19    3.97   261.52854   126.61605   212.68942
   279  C   4.0   -0.01    4.17    3.94   260.83507   128.62997   210.72544
   280  N   5.0   -0.15    3.39    2.02   262.99994   130.05728   209.85606
   281  C   4.0    0.09    3.34    3.06   264.09264   130.00787   207.59108
   282  N   5.0   -0.19    3.25    1.97   263.15049   128.72395   205.64072
   283  N   5.0   -0.18    3.25    1.97   266.14921   131.41754   207.26216
   284  H   1.0    0.07    1.06    1.44   264.94888   119.89203   211.09644
   285  H   1.0    0.04    1.05    1.44   263.18371   122.55842   215.32106
   286  H   1.0    0.04    1.02    1.43   264.76485   124.52791   211.23942
   287  H   1.0    0.05    1.03    1.43   261.84985   123.68781   209.82132
   288  H   1.0    0.05    1.04    1.43   259.78969   126.07086   213.65242
   289  H   1.0    0.04    1.03    1.43   262.77883   127.44539   214.10306
   290  H   1.0    0.04    1.03    1.43   259.87128   127.73492   209.14189
   291  H   1.0    0.03    1.03    1.43   259.51652   129.95817   211.59716
   292  H   1.0    0.07    1.07    1.44   263.86266   131.16291   211.16752
   293  H   1.0    0.08    1.04    1.43   261.66624   127.57056   205.93524
   294  H   1.0    0.12    1.08    1.44   264.36962   128.13451   204.25079
   295  H   1.0    0.08    1.03    1.43   266.75777   132.50202   208.72095
   296  H   1.0    0.09    1.03    1.43   266.93403   131.59058   205.53239
   297  N   5.0   -0.14    3.52    2.09   258.53230   120.40225   211.78146
   298  C   4.0    0.03    4.38    4.35   255.90809   119.62958   211.76031
   299  C   4.0    0.17    3.48    3.11   255.08931   118.47620   214.26974
   300  O   6.0   -0.32    1.26    1.80   253.10089   119.07234   215.30070
   301  C   4.0    0.03    4.16    3.92   255.56011   117.63607   209.64430
   302  O   6.0   -0.23    2.08    1.84   257.43189   115.75801   209.71189
   303  H   1.0    0.11    1.09    1.44   259.55638   119.90635   210.23067
   304  H   1.0    0.04    1.05    1.44   254.67718   121.25818   211.39000
   305  H   1.0    0.04    1.01    1.43   253.65566   116.83954   209.76445
   306  H   1.0    0.05    1.01    1.43   255.79591   118.59261   207.82552
   307  H   1.0    0.16    1.06    1.44   256.98148   114.38033   210.85551
   308  N   5.0   -0.12    3.61    2.17   256.62672   116.68732   215.13683
   309  C   4.0    0.04    4.45    4.47   255.98406   115.09710   217.25200
   310  C   4.0    0.16    3.46    3.10   255.98411   116.62711   219.68431
   311  O   6.0   -0.32    1.29    1.80   254.34394   116.34052   221.30028
   312  C   4.0   -0.03    4.27    4.15   257.86801   112.93503   217.43596
   313  C   4.0    0.26    3.10    3.02   257.92502   111.27784   214.96446
   314  O   6.0   -0.30    1.26    1.80   256.48431   111.92096   213.21422
   315  O   6.0   -0.29    1.16    1.80   259.41986   109.47675   214.99800
   316  H   1.0    0.11    1.10    1.44   258.23052   116.25357   214.20538
   317  H   1.0    0.06    1.05    1.44   254.07380   114.33180   216.96769
   318  H   1.0    0.06    1.03    1.43   259.77561   113.66587   217.73071
   319  H   1.0    0.05    1.02    1.43   257.41250   111.69111   219.01734
   320  N   5.0   -0.14    3.55    2.11   257.88176   118.25942   219.90298
   321  C   4.0    0.03    4.43    4.43   258.15558   119.90545   222.07208
   322  C   4.0    0.16    3.46    3.10   255.85938   121.65632   222.27254
   323  O   6.0   -0.31    1.27    1.80   254.76502   122.00190   224.28812
   324  C   4.0   -0.04    4.36    4.30   260.60427   121.40322   221.85188
   325  C   4.0   -0.02    4.18    3.97   262.97377   119.73657   221.96806
   326  C   4.0   -0.08    4.11    3.82   265.29071   121.32185   221.31010
   327  C   4.0   -0.08    4.10    3.81   263.31739   118.51562   224.55742
   328  H   1.0    0.11    1.09    1.44   259.15365   118.40785   218.48417
   329  H   1.0    0.05    1.05    1.44   258.15005   118.74798   223.79417
   330  H   1.0    0.06    1.03    1.43   260.55274   122.40665   220.04941
   331  H   1.0    0.05    1.03    1.43   260.65218   122.82413   223.34618
   332  H   1.0    0.05    1.05    1.44   262.79124   118.22691   220.55986
   333  H   1.0    0.04    1.00    1.43   266.98378   120.16494   221.38671
   334  H   1.0    0.04    1.00    1.43   265.10949   122.10191   219.41969
   335  H   1.0    0.04    1.00    1.43   265.48987   122.87582   222.64089
   336  H   1.0    0.05    1.00    1.43   264.93842   117.25377   224.54302
   337  H   1.0    0.04    1.00    1.43   263.59549   119.95415   225.99877
   338  H   1.0    0.04    1.00    1.43   261.68273   117.38524   225.07824
   339  N   5.0   -0.13    3.52    2.09   255.08806   122.66697   220.10423
   340  C   4.0    0.04    4.35    4.29   252.85788   124.26245   220.01809
   341  C   4.0    0.16    3.49    3.11   250.59544   122.74881   221.00507
   342  O   6.0   -0.29    1.28    1.80   249.20529   123.52052   222.68843
   343  C   4.0   -0.07    4.11    3.83   252.40067   125.17090   217.32982
   344  H   1.0    0.11    1.10    1.44   256.11116   122.42124   218.50627
   345  H   1.0    0.06    1.05    1.44   253.13266   125.86765   221.30636
   346  H   1.0    0.04    1.00    1.43   250.68577   126.29439   217.26138
   347  H   1.0    0.05    1.00    1.43   253.98890   126.32411   216.72888
   348  H   1.0    0.06    1.00    1.43   252.22259   123.55572   216.07167
   349  N   5.0   -0.14    3.51    2.09   250.22498   120.53231   219.85746
   350  C   4.0    0.04    4.36    4.30   248.15181   118.90465   220.60295
   351  C   4.0    0.17    3.49    3.11   248.13101   118.53668   223.47321
   352  O   6.0   -0.31    1.29    1.80   246.15675   118.68020   224.68160
   353  C   4.0   -0.07    4.11    3.82   248.34258   116.36786   219.25826
   354  H   1.0    0.11    1.09    1.44   251.39465   119.92244   218.46756
   355  H   1.0    0.05    1.05    1.44   246.36385   119.84332   220.11514
   356  H   1.0    0.04    1.00    1.43   246.70349   115.21704   219.69869
   357  H   1.0    0.05    1.00    1.43   248.43924   116.67319   217.22955
   358  H   1.0    0.06    1.00    1.43   250.05218   115.39105   219.84998
   359  N   5.0   -0.14    3.52    2.09   250.34620   117.94230   224.50135
   360  C   4.0    0.04    4.50    4.54   250.65758   117.57614   227.19603
   361  C   4.0    0.16    3.55    3.14   249.53619   119.81706   228.62784
   362  O   6.0   -0.32    1.32    1.80   248.00516   119.48454   230.33586
   363  C   4.0   -0.02    4.28    4.15   253.45839   117.21280   227.86222
   364  C   4.0   -0.07    4.14    3.89   253.91246   117.60258   230.68035
   365  C   4.0   -0.07    4.11    3.82   254.36202   114.58932   227.06984
   366  H   1.0    0.11    1.11    1.45   251.90383   117.76920   223.40269
   367  H   1.0    0.05    1.05    1.44   249.58660   115.90106   227.79788
   368  H   1.0    0.06    1.07    1.44   254.52594   118.64258   226.81660
   369  H   1.0    0.04    1.00    1.43   255.89579   117.27613   231.10170
   370  H   1.0    0.05    1.01    1.43   253.44780   119.52050   231.24383
   371  H   1.0    0.04    1.00    1.43   252.78601   116.28798   231.78868
   372  H   1.0    0.04    1.00    1.43   256.40130   114.44517   227.30713
   373  H   1.0    0.05    1.00    1.43   253.51161   113.11965   228.22885
   374  H   1.0    0.06    1.01    1.43   253.94877   114.22385   225.09254
   375  N   5.0   -0.14    3.51    2.08   250.33410   122.10028   227.93598
   376  C   4.0    0.03    4.44    4.45   249.37560   124.32654   229.21641
   377  C   4.0    0.17    3.52    3.12   246.48442   124.23315   229.29883
   378  O   6.0   -0.30    1.30    1.80   245.32478   124.46314   231.29299
   379  C   4.0   -0.03    4.29    4.18   250.22171   126.76479   227.94049
   380  C   4.0   -0.03    4.22    4.05   253.07041   127.20420   228.16750
   381  C   4.0    0.15    3.23    3.04   253.66277   129.93670   227.51403
   382  O   6.0   -0.32    1.24    1.80   252.79306   131.68375   228.77670
   383  N   5.0   -0.18    3.21    1.96   255.07310   130.28935   225.46988
   384  H   1.0    0.11    1.08    1.44   251.60178   122.31560   226.52133
   385  H   1.0    0.05    1.05    1.44   250.03468   124.29708   231.18989
   386  H   1.0    0.07    1.03    1.43   249.68474   126.70962   225.95122
   387  H   1.0    0.06    1.03    1.43   249.23195   128.34322   228.83103
   388  H   1.0    0.04    1.03    1.43   253.66556   126.89060   230.12061
   389  H   1.0    0.06    1.03    1.43   254.12618   125.93134   226.94334
   390  H   1.0    0.12    1.09    1.44   256.16408   128.89228   224.66382
   391  H   1.0    0.11    1.03    1.43   255.64931   132.05170   225.01628
   392  N   5.0   -0.12    3.55    2.11   245.38289   123.85205   227.07642
   393  C   4.0    0.05    4.45    4.46   242.65688   123.90822   226.82059
   394  C   4.0    0.16    3.48    3.11   241.45561   121.92685   228.54175
   395  O   6.0   -0.32    1.31    1.80   239.43827   122.31025   229.64480
   396  C   4.0   -0.03    4.32    4.24   241.89733   123.34577   224.09216
   397  C   4.0    0.15    3.22    3.04   242.69758   125.44738   222.28729
   398  O   6.0   -0.28    1.22    1.80   244.32053   127.00482   222.77401
   399  N   5.0   -0.20    3.18    1.95   241.44802   125.42083   220.07833
   400  H   1.0    0.12    1.09    1.44   246.43778   123.86777   225.48088
   401  H   1.0    0.08    1.06    1.44   241.96770   125.78122   227.39984
   402  H   1.0    0.06    1.03    1.43   242.83424   121.59787   223.50774
   403  H   1.0    0.04    1.03    1.43   239.85550   123.09157   223.99480
   404  H   1.0    0.09    1.03    1.43   241.89870   126.71729   218.75749
   405  H   1.0    0.07    1.03    1.43   240.11842   124.11999   219.69316
   406  N   5.0   -0.13    3.53    2.10   242.66210   119.73344   228.65356
   407  C   4.0    0.04    4.43    4.43   241.74082   117.67341   230.19616
   408  C   4.0    0.15    3.47    3.10   241.83136   118.37729   233.00290
   409  O   6.0   -0.33    1.31    1.80   240.07160   117.81556   234.40889
   410  C   4.0   -0.04    4.27    4.13   243.21511   115.24961   229.64391
   411  C   4.0   -0.05    4.18    3.96   241.73491   112.93576   230.54330
   412  C   4.0   -0.02    4.20    4.00   243.22209   110.48093   230.16890
   413  N   5.0   -0.15    3.40    2.02   243.67578   109.90973   227.52332
   414  C   4.0    0.09    3.34    3.06   242.01374   108.87309   225.94461
   415  N   5.0   -0.20    3.24    1.97   242.67694   108.48414   223.54471
   416  N   5.0   -0.20    3.26    1.97   239.70496   108.24892   226.69700
   417  H   1.0    0.12    1.11    1.45   244.28775   119.47987   227.66788
   418  H   1.0    0.05    1.06    1.44   239.73441   117.38050   229.74283
   419  H   1.0    0.05    1.03    1.43   243.52495   115.16506   227.60687
   420  H   1.0    0.05    1.03    1.43   245.05866   115.35963   230.56343
   421  H   1.0    0.04    1.03    1.43   241.31214   113.14084   232.54783
   422  H   1.0    0.04    1.03    1.43   239.95232   112.85690   229.51373
   423  H   1.0    0.03    1.03    1.43   245.06257   110.65830   231.07682
   424  H   1.0    0.03    1.02    1.43   242.23018   108.90309   231.05764
   425  H   1.0    0.07    1.07    1.44   245.36215   110.44575   226.81386
   426  H   1.0    0.08    1.03    1.43   244.44873   108.83257   222.94166
   427  H   1.0    0.07    1.03    1.43   241.48023   107.62768   222.33810
   428  H   1.0    0.07    1.03    1.43   239.14420   108.53202   228.49231
   429  H   1.0    0.07    1.03    1.43   238.50876   107.38199   225.49604
   430  N   5.0   -0.14    3.50    2.08   243.87147   119.61584   233.79391
   431  C   4.0    0.04    4.44    4.44   243.95639   120.59069   236.35074
   432  C   4.0    0.16    3.51    3.12   241.77454   122.44043   236.77424
   433  O   6.0   -0.32    1.32    1.80   240.49017   122.34899   238.69773
   434  C   4.0   -0.04    4.33    4.25   246.44287   121.94946   236.94212
   435  C   4.0   -0.01    3.54    3.13   248.60551   120.21914   237.59625
   436  C   4.0   -0.03    3.47    3.10   250.87279   120.37084   236.28999
   437  C   4.0   -0.05    3.47    3.10   248.42572   118.53838   239.60766
   438  C   4.0   -0.04    3.38    3.07   252.91229   118.87543   236.95869
   439  C   4.0   -0.05    3.38    3.07   250.45195   117.02536   240.26953
   440  C   4.0   -0.04    3.37    3.07   252.70001   117.18438   238.94067
   441  H   1.0    0.12    1.10    1.44   245.32474   119.99383   232.60254
   442  H   1.0    0.05    1.06    1.44   243.65178   119.01774   237.66768
   443  H   1.0    0.06    1.04    1.43   246.93348   123.12836   235.32453
   444  H   1.0    0.04    1.04    1.43   246.10148   123.18458   238.56455
   445  H   1.0    0.05    1.03    1.43   251.05209   121.67329   234.72880
   446  H   1.0    0.04    1.03    1.43   246.69182   118.42346   240.67741
   447  H   1.0    0.05    1.03    1.43   254.66810   119.03351   235.93064
   448  H   1.0    0.04    1.03    1.43   250.29766   115.72199   241.83094
   449  H   1.0    0.04    1.03    1.43   254.27148   115.97863   239.43757
   450  N   5.0   -0.14    3.52    2.09   241.39740   124.15894   234.96687
   451  C   4.0    0.04    4.44    4.44   239.32011   125.93140   235.20619
   452  C   4.0    0.16    3.50    3.11   236.85575   124.47901   235.69356
   453  O   6.0   -0.33    1.30    1.80   235.31970   125.20414   237.27560
   454  C   4.0   -0.03    4.31    4.22   238.98553   127.51568   232.81307
   455  C   4.0    0.16    3.21    3.04   241.24551   129.17987   232.14053
   456  O   6.0   -0.29    1.21    1.80   242.21241   129.11155   230.04928
   457  N   5.0   -0.20    3.19    1.95   242.01722   130.76305   233.95860
   458  H   1.0    0.12    1.10    1.44   242.57762   124.28682   233.45657
   459  H   1.0    0.05    1.05    1.44   239.62786   127.13309   236.87111
   460  H   1.0    0.07    1.04    1.43   238.65291   126.25918   231.21186
   461  H   1.0    0.04    1.03    1.43   237.33730   128.73402   233.04938
   462  H   1.0    0.09    1.03    1.43   243.48767   131.91917   233.60117
   463  H   1.0    0.07    1.03    1.43   241.14129   130.87492   235.64141
   464  N   5.0   -0.13    3.54    2.10   236.52395   122.46613   234.22999
   465  C   4.0    0.04    4.38    4.34   234.26664   120.91263   234.36368
   466  C   4.0    0.15    3.46    3.10   234.02385   119.78790   237.01642
   467  O   6.0   -0.30    1.24    1.80   232.03564   119.91455   238.22059
   468  C   4.0    0.03    4.15    3.90   234.42984   118.81184   232.35349
   469  O   6.0   -0.26    2.04    1.83   234.48088   119.75647   229.87770
   470  H   1.0    0.11    1.11    1.44   237.76587   122.13397   232.79772
   471  H   1.0    0.05    1.05    1.44   232.59076   122.08608   234.01732
   472  H   1.0    0.06    1.02    1.43   236.10389   117.65739   232.75391
   473  H   1.0    0.04    1.02    1.43   232.74188   117.63212   232.48194
   474  H   1.0    0.14    1.04    1.44   235.99369   120.76328   229.62143
   475  N   5.0   -0.14    3.51    2.08   236.08940   118.67211   237.89938
   476  C   4.0    0.04    4.35    4.29   236.15867   117.57153   240.41454
   477  C   4.0    0.16    3.48    3.11   235.30186   119.52985   242.36405
   478  O   6.0   -0.28    1.24    1.80   233.57720   119.07199   243.84263
   479  C   4.0   -0.08    4.12    3.84   238.81248   116.63970   241.01266
   480  H   1.0    0.11    1.11    1.44   237.67864   118.52613   236.82139
   481  H   1.0    0.05    1.05    1.44   234.79905   116.00707   240.51444
   482  H   1.0    0.04    1.00    1.43   238.86063   115.85417   242.90922
   483  H   1.0    0.04    1.00    1.43   239.34225   115.18287   239.66965
   484  H   1.0    0.05    1.00    1.43   240.14381   118.19848   240.89853
   485  N   5.0   -0.14    3.52    2.09   236.58725   121.69390   242.33599
   486  C   4.0    0.03    4.51    4.54   236.04559   123.72715   244.08938
   487  C   4.0    0.16    3.53    3.13   233.22690   124.33608   244.04195
   488  O   6.0   -0.29    1.25    1.80   231.99139   124.56907   245.98490
   489  C   4.0   -0.02    4.34    4.27   237.62538   126.08540   243.44928
   490  C   4.0   -0.05    4.18    3.96   240.41727   125.62894   244.09874
   491  C   4.0   -0.08    4.14    3.89   236.59924   128.37636   244.87633
   492  C   4.0   -0.08    4.01    3.64   242.17734   127.48739   242.77508
   493  H   1.0    0.11    1.11    1.45   237.95260   121.99470   241.02132
   494  H   1.0    0.05    1.05    1.44   236.47374   123.10627   246.02493
   495  H   1.0    0.06    1.06    1.44   237.43948   126.41971   241.41604
   496  H   1.0    0.03    1.03    1.43   240.65326   125.77877   246.14147
   497  H   1.0    0.05    1.03    1.43   240.94742   123.71846   243.53822
   498  H   1.0    0.03    1.00    1.43   237.81998   130.00260   244.60447
   499  H   1.0    0.04    1.00    1.43   234.71480   128.87884   244.22818
   500  H   1.0    0.04    1.00    1.43   236.48939   127.97392   246.88964
   501  H   1.0    0.03    1.00    1.43   244.10693   127.26290   243.44257
   502  H   1.0    0.05    1.00    1.43   242.14510   127.16291   240.74618
   503  H   1.0    0.03    1.00    1.43   241.62139   129.43004   243.13574
   504  N   5.0   -0.13    3.49    2.07   232.22286   124.62430   241.74483
   505  C   4.0    0.04    4.36    4.32   229.58639   125.31331   241.44269
   506  C   4.0    0.09    3.28    3.05   227.92981   123.46672   242.91628
   507  O   6.0   -0.30    1.11    1.80   226.25653   124.16511   244.36462
   508  C   4.0    0.05    4.23    4.05   228.88201   125.32294   238.60403
   509  O   6.0   -0.27    2.12    1.84   230.26568   127.17724   237.29661
   510  C   4.0   -0.07    4.09    3.79   226.08002   125.88746   238.24624
   511  H   1.0    0.11    1.10    1.44   233.33813   124.53334   240.18778
   512  H   1.0    0.05    1.05    1.44   229.25775   127.20650   242.22964
   513  H   1.0    0.06    1.04    1.43   229.31655   123.43841   237.84277
   514  H   1.0    0.14    1.05    1.44   232.04307   126.72065   237.26796
   515  H   1.0    0.04    1.00    1.43   225.66399   125.98671   236.23955
   516  H   1.0    0.04    1.00    1.43   224.92982   124.42496   239.11028
   517  H   1.0    0.04    1.00    1.43   225.62442   127.69955   239.09663
   518  H   1.0    0.08    1.07    1.44   253.58687   120.25121   248.10761
   519  H   1.0    0.04    1.05    1.44   252.67924   125.72154   244.95672
   520  H   1.0    0.08    1.07    1.44   260.47384   123.58288   242.95082
   521  H   1.0    0.05    1.05    1.44   259.19381   129.54052   236.82234
   522  H   1.0    0.09    1.07    1.44   264.34501   124.03336   232.17477
   523  H   1.0    0.05    1.05    1.44   266.59853   132.69908   229.04002
   524  H   1.0    0.08    1.07    1.44   271.45178   129.95676   228.32111
   525  H   1.0    0.06    1.05    1.44   268.88495   133.71404   220.73014
   526  H   1.0    0.09    1.07    1.44   276.15534   130.06769   217.47301
   527  H   1.0    0.06    1.05    1.44   272.64407   132.78227   212.90997
   528  H   1.0    0.08    1.07    1.44   258.79554   107.21885   243.30821
   529  H   1.0    0.04    1.05    1.44   253.61104   107.90206   248.02360
   530  H   1.0    0.10    1.08    1.44   248.86371   109.75326   248.36704
   531  H   1.0    0.04    1.04    1.44   242.80402   108.78645   251.14924
   532  H   1.0    0.08    1.08    1.44   247.55532   108.09370   240.84538
   533  H   1.0    0.04    1.04    1.43   274.61418   110.93644   222.97984
   534  H   1.0    0.09    1.07    1.44   268.53505   121.57994   205.53515
   535  H   1.0    0.07    1.05    1.44   228.18649   121.60466   242.72156

  Z AO/shell   Hii/eV     exponent
  1     Wed Apr 25 08:07:45 CEST 2018   EN: 2.200 GM2: 0.406  GM3: 0.0800  RAES: 1.40
     1s    -10.707211    1.230000
  6     Wed Apr 25 08:07:45 CEST 2018   EN: 2.550 GM2: 0.538  GM3: 0.1500  RAES: 3.00
     2s    -13.970922    2.096432
     2p    -10.063292    1.800000
  7     Wed Apr 25 08:07:45 CEST 2018   EN: 3.040 GM2: 0.461  GM3:-0.0640  RAES: 1.90
     2s    -16.686243    2.339881
     2p    -12.523956    2.014332
  8     Wed Apr 25 08:07:45 CEST 2018   EN: 3.440 GM2: 0.452  GM3:-0.0517  RAES: 1.80
     2s    -20.229985    2.439742
     2p    -15.503117    2.137023
 no old-style atom pair restraining (fixing) potential

molecular fragmentation (1/2 indicates fragments):
111111111122222222222222222222222222222222222222222222222222222222222222
222222222222222222222222222222222222222222222222222222222222222222222222
222222222222222222222222222222222222222222222222222222222222222222222222
222222222222222222222222222222222222222222222222222222222222222222222222
222222222222222222222222222222222222222222222222222222222222222222222222
222222222222222222222222222222222222222222222222222222222222222222222222
222222222222222222222222222222222222222222222222222222222222222222222222
2222222222222112222222222222222
# atoms in fragment 1/2:    12   523
 fragment masses (1/2) :       73.09     3582.12
CMA distance (Bohr)    :  17.981
constraining FC (au)   :  0.0500
           ------------------------------------------------- 
          |        Self-Consistent Charge Iterations        |
           ------------------------------------------------- 

 Ncao       : 1303
 Nao        : 1303
 Nshell     : 791
 Nel        : 1456
 T(el)      :   500.0
 intcut     :    35.0
 scfconv/Eh :  0.100E-06
   qconv/e  :  0.100E-04
 intneglect :  0.100E-08
 broydamp   :      0.400
 iter      E             dE          RMSdq      gap      omega  full diag
   1   -836.0084258 -0.836008E+03  0.466E+00    3.32       0.0  T
   2   -838.2157512 -0.220733E+01  0.214E+00    1.86       1.0  T
   3   -838.3593291 -0.143578E+00  0.124E+00    1.84       1.0  T
   4   -838.4881663 -0.128837E+00  0.248E-01    1.19       1.0  T
   5   -838.4958109 -0.764456E-02  0.128E-01    1.33       1.0  T
   6   -838.4969556 -0.114468E-02  0.527E-02    1.29       1.0  T
   7   -838.4973137 -0.358149E-03  0.244E-02    1.26       1.0  T
   8   -838.4973652 -0.515307E-04  0.122E-02    1.24       1.0  T
   9   -838.4973864 -0.211256E-04  0.631E-03    1.23       1.0  T
  10   -838.4973916 -0.526236E-05  0.296E-03    1.23       1.5  T
  11   -838.4973931 -0.142818E-05  0.133E-03    1.23       3.2  T
  12   -838.4973933 -0.219065E-06  0.574E-04    1.23       7.5  T
  13   -838.4973933 -0.429366E-07  0.277E-04    1.23      15.6  T
  14   -838.4973933 -0.733462E-08  0.108E-04    1.23      40.2  T
  15   -838.4973933 -0.179011E-08  0.485E-05    1.23      89.1  T
  16   -838.4973933 -0.323439E-09  0.228E-05    1.23     189.6  T
speedup 13.60
cpu  time for SCC    1 m  6.7 s
wall time for SCC    0 m  4.9 s

   *** convergence criteria satisfied after 16 iterations ***

          eigenvalues
 #    :         716        717        718        719        720        721        722        723
 occ. :        2.000      2.000      2.000      2.000      2.000      2.000      2.000      2.000
 eps  :       -10.313    -10.142    -10.123    -10.115    -10.097    -10.079     -9.985     -9.952
 #    :         724        725        726        727        728        729        730        731
 occ. :        2.000      2.000      2.000      2.000      2.000      0.000      0.000      0.000
 eps  :        -9.925     -9.918     -9.812     -9.667     -9.521     -8.293     -7.998     -7.838
 #    :         732        733        734        735        736        737        738        739
 occ. :        0.000      0.000      0.000      0.000      0.000      0.000      0.000      0.000
 eps  :        -7.794     -7.788     -7.726     -7.554     -7.522     -7.484     -7.107     -6.789


   #   Z            q   n(s)   n(p)   n(d)      C6AA      α(0)
   1   7 N     -0.388  1.313  4.075  0.000    30.049     8.141
   2   6 C      0.044  1.050  2.906  0.000    19.851     6.347
   3   6 C      0.194  1.098  2.708  0.000    23.863     8.000
   4   8 O     -0.368  1.749  4.619  0.000    21.051     6.151
   5   6 C     -0.124  1.044  3.081  0.000    22.937     6.828
   6   1 H      0.177  0.823  0.000  0.000     1.231     1.738
   7   1 H      0.040  0.960  0.000  0.000     2.444     2.445
   8   1 H      0.055  0.945  0.000  0.000     2.254     2.348
   9   1 H      0.068  0.932  0.000  0.000     2.111     2.272
  10   1 H      0.068  0.932  0.000  0.000     2.107     2.270
  11   7 N     -0.383  1.307  4.076  0.000    29.900     8.121
  12   6 C     -0.009  1.045  2.964  0.000    20.820     6.511
  13   6 C      0.271  1.046  2.683  0.000    22.417     7.753
  14   8 O     -0.516  1.751  4.765  0.000    24.132     6.586
  15   1 H      0.162  0.838  0.000  0.000     1.320     1.800
  16   1 H      0.041  0.959  0.000  0.000     2.438     2.442
  17   1 H      0.052  0.948  0.000  0.000     2.298     2.371
  18   7 N     -0.183  1.253  3.930  0.000    24.965     7.421
  19   6 C      0.034  1.060  2.907  0.000    20.012     6.370
  20   6 C      0.212  1.087  2.701  0.000    23.504     7.940
  21   8 O     -0.375  1.747  4.629  0.000    21.190     6.172
  22   6 C     -0.026  1.069  2.956  0.000    20.999     6.518
  23   6 C     -0.065  1.050  3.014  0.000    21.744     6.639
  24   6 C     -0.119  1.038  3.082  0.000    22.839     6.814
  25   6 C     -0.118  1.038  3.080  0.000    22.831     6.814
  26   1 H      0.255  0.745  0.000  0.000     0.863     1.455
  27   1 H      0.052  0.948  0.000  0.000     2.299     2.371
  28   1 H      0.070  0.930  0.000  0.000     2.090     2.261
  29   1 H      0.030  0.970  0.000  0.000     2.586     2.515
  30   1 H      0.050  0.950  0.000  0.000     2.325     2.384
  31   1 H      0.072  0.928  0.000  0.000     2.066     2.248
  32   1 H      0.032  0.968  0.000  0.000     2.560     2.502
  33   1 H      0.048  0.952  0.000  0.000     2.343     2.394
  34   1 H      0.047  0.953  0.000  0.000     2.362     2.403
  35   1 H      0.054  0.946  0.000  0.000     2.272     2.357
  36   1 H      0.054  0.946  0.000  0.000     2.276     2.359
  37   7 N     -0.411  1.312  4.099  0.000    30.681     8.226
  38   6 C      0.053  1.050  2.897  0.000    19.700     6.322
  39   6 C      0.270  1.049  2.681  0.000    22.435     7.756
  40   8 O     -0.505  1.734  4.770  0.000    23.893     6.554
  41   6 C     -0.107  1.037  3.070  0.000    22.604     6.779
  42   1 H      0.188  0.812  0.000  0.000     1.168     1.693
  43   1 H      0.008  0.992  0.000  0.000     2.931     2.677
  44   1 H      0.033  0.967  0.000  0.000     2.540     2.492
  45   1 H      0.037  0.963  0.000  0.000     2.487     2.466
  46   1 H      0.057  0.943  0.000  0.000     2.239     2.340
  47   7 N     -0.183  1.253  3.929  0.000    24.955     7.419
  48   6 C      0.028  1.057  2.915  0.000    20.113     6.386
  49   6 C      0.203  1.085  2.712  0.000    23.678     7.969
  50   8 O     -0.364  1.750  4.614  0.000    20.981     6.141
  51   6 C     -0.063  1.051  3.013  0.000    21.706     6.632
  52   6 C     -0.093  1.055  3.038  0.000    22.268     6.717
  53   6 C      0.292  1.037  2.672  0.000    22.055     7.690
  54   8 O     -0.499  1.746  4.752  0.000    23.756     6.535
  55   7 N     -0.295  1.284  4.011  0.000    27.612     7.804
  56   1 H      0.241  0.759  0.000  0.000     0.921     1.503
  57   1 H      0.089  0.911  0.000  0.000     1.889     2.150
  58   1 H      0.077  0.923  0.000  0.000     2.015     2.220
  59   1 H      0.067  0.933  0.000  0.000     2.124     2.279
  60   1 H      0.064  0.936  0.000  0.000     2.154     2.295
  61   1 H      0.065  0.935  0.000  0.000     2.136     2.286
  62   1 H      0.234  0.766  0.000  0.000     0.948     1.525
  63   1 H      0.229  0.771  0.000  0.000     0.970     1.543
  64   7 N     -0.390  1.312  4.078  0.000    30.098     8.148
  65   6 C      0.020  1.066  2.914  0.000    20.258     6.411
  66   6 C      0.265  1.049  2.686  0.000    22.526     7.772
  67   8 O     -0.494  1.733  4.761  0.000    23.657     6.521
  68   6 C      0.120  1.044  2.835  0.000    18.711     6.176
  69   8 O     -0.464  1.715  4.749  0.000    22.122     6.349
  70   6 C     -0.122  1.040  3.082  0.000    22.894     6.823
  71   1 H      0.142  0.858  0.000  0.000     1.456     1.890
  72   1 H      0.049  0.951  0.000  0.000     2.331     2.387
  73   1 H      0.006  0.994  0.000  0.000     2.958     2.690
  74   1 H      0.313  0.687  0.000  0.000     0.682     1.298
  75   1 H      0.053  0.947  0.000  0.000     2.282     2.363
  76   1 H      0.046  0.954  0.000  0.000     2.373     2.409
  77   1 H      0.068  0.932  0.000  0.000     2.106     2.270
  78   7 N     -0.182  1.250  3.931  0.000    24.932     7.416
  79   6 C      0.037  1.057  2.906  0.000    19.957     6.362
  80   6 C      0.204  1.086  2.709  0.000    23.662     7.967
  81   8 O     -0.349  1.739  4.611  0.000    20.691     6.099
  82   6 C     -0.058  1.051  3.007  0.000    21.615     6.618
  83   6 C     -0.091  1.061  3.031  0.000    22.240     6.715
  84   6 C      0.370  1.026  2.604  0.000    20.727     7.450
  85   8 O     -0.604  1.760  4.844  0.000    26.223     6.866
  86   8 O     -0.631  1.775  4.856  0.000    26.887     6.952
  87   1 H      0.234  0.766  0.000  0.000     0.948     1.525
  88   1 H      0.067  0.933  0.000  0.000     2.122     2.278
  89   1 H      0.067  0.933  0.000  0.000     2.114     2.274
  90   1 H      0.055  0.945  0.000  0.000     2.260     2.351
  91   1 H      0.028  0.972  0.000  0.000     2.614     2.529
  92   1 H      0.039  0.961  0.000  0.000     2.456     2.451
  93   7 N     -0.406  1.313  4.092  0.000    30.532     8.206
  94   6 C      0.044  1.054  2.902  0.000    19.851     6.347
  95   6 C      0.199  1.096  2.706  0.000    23.768     7.984
  96   8 O     -0.388  1.755  4.633  0.000    21.449     6.209
  97   6 C     -0.068  1.060  3.008  0.000    21.797     6.645
  98   6 C     -0.010  1.055  2.954  0.000    20.717     6.474
  99   6 C     -0.109  1.042  3.067  0.000    22.637     6.783
 100   6 C     -0.116  1.041  3.076  0.000    22.783     6.806
 101   1 H      0.180  0.820  0.000  0.000     1.213     1.725
 102   1 H      0.046  0.954  0.000  0.000     2.372     2.408
 103   1 H      0.051  0.949  0.000  0.000     2.307     2.376
 104   1 H      0.042  0.958  0.000  0.000     2.423     2.434
 105   1 H      0.041  0.959  0.000  0.000     2.430     2.438
 106   1 H      0.033  0.967  0.000  0.000     2.538     2.491
 107   1 H      0.023  0.977  0.000  0.000     2.688     2.564
 108   1 H      0.040  0.960  0.000  0.000     2.448     2.447
 109   1 H      0.042  0.958  0.000  0.000     2.420     2.433
 110   1 H      0.044  0.956  0.000  0.000     2.390     2.418
 111   1 H      0.039  0.961  0.000  0.000     2.456     2.451
 112   7 N     -0.384  1.314  4.070  0.000    29.930     8.125
 113   6 C      0.042  1.058  2.900  0.000    19.878     6.350
 114   6 C      0.202  1.094  2.704  0.000    23.700     7.973
 115   8 O     -0.361  1.745  4.616  0.000    20.912     6.131
 116   6 C     -0.020  1.062  2.958  0.000    20.894     6.501
 117   6 C     -0.048  1.046  3.002  0.000    21.427     6.590
 118   6 C     -0.114  1.040  3.074  0.000    22.742     6.800
 119   6 C     -0.110  1.036  3.074  0.000    22.670     6.790
 120   1 H      0.152  0.848  0.000  0.000     1.389     1.846
 121   1 H      0.047  0.953  0.000  0.000     2.356     2.400
 122   1 H      0.048  0.952  0.000  0.000     2.340     2.392
 123   1 H      0.008  0.992  0.000  0.000     2.929     2.676
 124   1 H      0.030  0.970  0.000  0.000     2.593     2.518
 125   1 H      0.046  0.954  0.000  0.000     2.367     2.406
 126   1 H      0.037  0.963  0.000  0.000     2.492     2.469
 127   1 H      0.051  0.949  0.000  0.000     2.314     2.379
 128   1 H      0.034  0.966  0.000  0.000     2.529     2.487
 129   1 H      0.056  0.944  0.000  0.000     2.241     2.341
 130   1 H      0.033  0.967  0.000  0.000     2.547     2.496
 131   7 N     -0.383  1.312  4.071  0.000    29.916     8.123
 132   6 C      0.031  1.061  2.908  0.000    20.064     6.380
 133   6 C      0.202  1.087  2.711  0.000    23.696     7.972
 134   8 O     -0.384  1.756  4.628  0.000    21.356     6.196
 135   6 C     -0.017  1.064  2.953  0.000    20.841     6.493
 136   6 C     -0.111  1.038  3.073  0.000    22.677     6.790
 137   6 C     -0.113  1.037  3.077  0.000    22.720     6.797
 138   1 H      0.156  0.844  0.000  0.000     1.359     1.826
 139   1 H      0.070  0.930  0.000  0.000     2.089     2.260
 140   1 H      0.040  0.960  0.000  0.000     2.452     2.449
 141   1 H      0.049  0.951  0.000  0.000     2.331     2.388
 142   1 H      0.039  0.961  0.000  0.000     2.468     2.457
 143   1 H      0.047  0.953  0.000  0.000     2.359     2.402
 144   1 H      0.051  0.949  0.000  0.000     2.310     2.377
 145   1 H      0.041  0.959  0.000  0.000     2.440     2.443
 146   1 H      0.035  0.965  0.000  0.000     2.518     2.481
 147   7 N     -0.406  1.334  4.072  0.000    30.538     8.207
 148   6 C      0.036  1.060  2.904  0.000    19.985     6.366
 149   6 C      0.287  1.045  2.668  0.000    22.145     7.707
 150   8 O     -0.482  1.737  4.745  0.000    23.381     6.483
 151   6 C     -0.025  1.067  2.958  0.000    20.986     6.516
 152   6 C     -0.068  1.052  3.016  0.000    21.805     6.648
 153   6 C     -0.105  1.036  3.069  0.000    22.572     6.775
 154   6 C     -0.112  1.037  3.075  0.000    22.696     6.794
 155   1 H      0.172  0.828  0.000  0.000     1.259     1.758
 156   1 H      0.025  0.975  0.000  0.000     2.652     2.547
 157   1 H      0.044  0.956  0.000  0.000     2.401     2.423
 158   1 H      0.047  0.953  0.000  0.000     2.358     2.401
 159   1 H      0.046  0.954  0.000  0.000     2.372     2.409
 160   1 H      0.056  0.944  0.000  0.000     2.246     2.343
 161   1 H      0.007  0.993  0.000  0.000     2.947     2.685
 162   1 H      0.033  0.967  0.000  0.000     2.541     2.493
 163   1 H      0.054  0.946  0.000  0.000     2.271     2.357
 164   1 H      0.041  0.959  0.000  0.000     2.433     2.439
 165   1 H      0.040  0.960  0.000  0.000     2.446     2.446
 166   7 N     -0.178  1.243  3.936  0.000    24.862     7.405
 167   6 C      0.048  1.049  2.903  0.000    19.770     6.330
 168   6 C      0.271  1.046  2.683  0.000    22.422     7.754
 169   8 O     -0.481  1.736  4.745  0.000    23.373     6.482
 170   6 C     -0.085  1.067  3.019  0.000    22.129     6.697
 171   6 C      0.373  1.021  2.606  0.000    20.682     7.442
 172   8 O     -0.621  1.768  4.853  0.000    26.636     6.920
 173   8 O     -0.637  1.768  4.869  0.000    27.044     6.972
 174   1 H      0.195  0.805  0.000  0.000     1.134     1.668
 175   1 H      0.056  0.944  0.000  0.000     2.252     2.347
 176   1 H      0.023  0.977  0.000  0.000     2.692     2.566
 177   1 H      0.002  0.998  0.000  0.000     3.021     2.718
 178   7 N     -0.175  1.244  3.931  0.000    24.794     7.395
 179   6 C      0.032  1.059  2.909  0.000    20.033     6.373
 180   6 C      0.283  1.044  2.673  0.000    22.203     7.717
 181   8 O     -0.503  1.744  4.759  0.000    23.843     6.547
 182   6 C     -0.017  1.066  2.951  0.000    20.850     6.494
 183   6 C     -0.054  1.046  3.007  0.000    21.535     6.607
 184   6 C     -0.110  1.037  3.072  0.000    22.650     6.786
 185   6 C     -0.107  1.036  3.070  0.000    22.596     6.779
 186   1 H      0.188  0.812  0.000  0.000     1.168     1.693
 187   1 H      0.055  0.945  0.000  0.000     2.254     2.348
 188   1 H      0.045  0.955  0.000  0.000     2.379     2.412
 189   1 H      0.034  0.966  0.000  0.000     2.529     2.487
 190   1 H      0.032  0.968  0.000  0.000     2.562     2.503
 191   1 H      0.070  0.930  0.000  0.000     2.085     2.258
 192   1 H      0.029  0.971  0.000  0.000     2.599     2.521
 193   1 H      0.035  0.965  0.000  0.000     2.519     2.482
 194   1 H      0.052  0.948  0.000  0.000     2.300     2.372
 195   1 H      0.047  0.953  0.000  0.000     2.356     2.401
 196   1 H      0.047  0.953  0.000  0.000     2.356     2.400
 197   7 N     -0.168  1.246  3.923  0.000    24.645     7.373
 198   6 C      0.043  1.055  2.901  0.000    19.844     6.341
 199   6 C      0.268  1.044  2.689  0.000    22.479     7.764
 200   8 O     -0.485  1.741  4.744  0.000    23.453     6.493
 201   6 C     -0.092  1.070  3.022  0.000    22.262     6.718
 202   6 C      0.374  1.022  2.604  0.000    20.657     7.438
 203   8 O     -0.646  1.776  4.870  0.000    27.282     7.003
 204   8 O     -0.637  1.770  4.867  0.000    27.048     6.973
 205   1 H      0.190  0.810  0.000  0.000     1.156     1.684
 206   1 H      0.050  0.950  0.000  0.000     2.316     2.380
 207   1 H      0.020  0.980  0.000  0.000     2.734     2.586
 208   1 H      0.034  0.966  0.000  0.000     2.535     2.490
 209   7 N     -0.157  1.237  3.920  0.000    24.389     7.335
 210   6 C      0.024  1.061  2.915  0.000    20.179     6.398
 211   6 C      0.195  1.088  2.718  0.000    23.847     7.998
 212   8 O     -0.368  1.763  4.605  0.000    21.047     6.151
 213   6 C     -0.077  1.064  3.013  0.000    21.964     6.671
 214   6 C     -0.007  1.055  2.952  0.000    20.663     6.466
 215   6 C     -0.122  1.044  3.078  0.000    22.888     6.821
 216   6 C     -0.114  1.039  3.075  0.000    22.735     6.798
 217   1 H      0.203  0.797  0.000  0.000     1.089     1.635
 218   1 H      0.100  0.900  0.000  0.000     1.781     2.087
 219   1 H      0.062  0.938  0.000  0.000     2.179     2.309
 220   1 H      0.085  0.915  0.000  0.000     1.927     2.171
 221   1 H      0.016  0.984  0.000  0.000     2.790     2.612
 222   1 H      0.048  0.952  0.000  0.000     2.347     2.396
 223   1 H      0.047  0.953  0.000  0.000     2.363     2.404
 224   1 H      0.062  0.938  0.000  0.000     2.175     2.306
 225   1 H      0.042  0.958  0.000  0.000     2.417     2.431
 226   1 H      0.057  0.943  0.000  0.000     2.229     2.335
 227   1 H      0.024  0.976  0.000  0.000     2.677     2.559
 228   7 N     -0.396  1.302  4.093  0.000    30.255     8.169
 229   6 C      0.036  1.054  2.909  0.000    19.975     6.366
 230   6 C      0.256  1.052  2.691  0.000    22.690     7.800
 231   8 O     -0.498  1.741  4.757  0.000    23.734     6.532
 232   6 C     -0.100  1.074  3.026  0.000    22.411     6.740
 233   6 C      0.374  1.022  2.604  0.000    20.666     7.439
 234   8 O     -0.620  1.775  4.844  0.000    26.608     6.916
 235   8 O     -0.610  1.751  4.859  0.000    26.376     6.886
 236   1 H      0.156  0.844  0.000  0.000     1.363     1.829
 237   1 H      0.050  0.950  0.000  0.000     2.326     2.385
 238   1 H      0.025  0.975  0.000  0.000     2.651     2.546
 239   1 H      0.030  0.970  0.000  0.000     2.592     2.518
 240   7 N     -0.176  1.241  3.935  0.000    24.800     7.396
 241   6 C      0.001  1.066  2.933  0.000    20.571     6.458
 242   6 C      0.287  1.036  2.677  0.000    22.135     7.704
 243   8 O     -0.488  1.765  4.724  0.000    23.529     6.504
 244   6 C      0.112  1.047  2.841  0.000    18.841     6.197
 245   8 O     -0.472  1.716  4.756  0.000    22.299     6.375
 246   6 C     -0.137  1.044  3.093  0.000    23.188     6.867
 247   1 H      0.219  0.781  0.000  0.000     1.015     1.579
 248   1 H      0.098  0.902  0.000  0.000     1.805     2.101
 249   1 H      0.064  0.936  0.000  0.000     2.151     2.294
 250   1 H      0.323  0.677  0.000  0.000     0.656     1.273
 251   1 H      0.076  0.924  0.000  0.000     2.020     2.223
 252   1 H      0.057  0.943  0.000  0.000     2.232     2.336
 253   1 H      0.044  0.956  0.000  0.000     2.396     2.421
 254   7 N     -0.185  1.237  3.947  0.000    24.999     7.426
 255   6 C      0.026  1.057  2.917  0.000    20.134     6.389
 256   6 C      0.270  1.047  2.684  0.000    22.448     7.759
 257   8 O     -0.507  1.755  4.751  0.000    23.930     6.559
 258   6 C     -0.078  1.061  3.017  0.000    21.982     6.674
 259   6 C     -0.010  1.056  2.954  0.000    20.717     6.474
 260   6 C     -0.126  1.045  3.081  0.000    22.962     6.832
 261   6 C     -0.106  1.037  3.069  0.000    22.576     6.775
 262   1 H      0.207  0.793  0.000  0.000     1.071     1.621
 263   1 H      0.064  0.936  0.000  0.000     2.147     2.292
 264   1 H      0.066  0.934  0.000  0.000     2.135     2.285
 265   1 H      0.053  0.947  0.000  0.000     2.279     2.361
 266   1 H      0.040  0.960  0.000  0.000     2.453     2.449
 267   1 H      0.057  0.943  0.000  0.000     2.238     2.339
 268   1 H      0.060  0.940  0.000  0.000     2.203     2.321
 269   1 H      0.047  0.953  0.000  0.000     2.352     2.398
 270   1 H      0.049  0.951  0.000  0.000     2.334     2.389
 271   1 H      0.028  0.972  0.000  0.000     2.617     2.530
 272   1 H      0.017  0.983  0.000  0.000     2.782     2.609
 273   7 N     -0.172  1.242  3.930  0.000    24.718     7.384
 274   6 C      0.020  1.063  2.917  0.000    20.234     6.404
 275   6 C      0.282  1.041  2.677  0.000    22.218     7.719
 276   8 O     -0.497  1.742  4.755  0.000    23.720     6.530
 277   6 C     -0.089  1.060  3.029  0.000    22.194     6.707
 278   6 C     -0.080  1.051  3.029  0.000    22.033     6.683
 279   6 C     -0.026  1.052  2.974  0.000    21.119     6.558
 280   7 N     -0.143  1.209  3.934  0.000    24.100     7.291
 281   6 C      0.235  1.019  2.746  0.000    23.079     7.865
 282   7 N     -0.258  1.257  4.001  0.000    26.709     7.676
 283   7 N     -0.254  1.240  4.015  0.000    26.612     7.662
 284   1 H      0.213  0.787  0.000  0.000     1.041     1.598
 285   1 H      0.072  0.928  0.000  0.000     2.064     2.247
 286   1 H      0.079  0.921  0.000  0.000     1.985     2.203
 287   1 H      0.076  0.924  0.000  0.000     2.017     2.221
 288   1 H      0.057  0.943  0.000  0.000     2.239     2.340
 289   1 H      0.068  0.932  0.000  0.000     2.104     2.268
 290   1 H      0.088  0.912  0.000  0.000     1.903     2.157
 291   1 H      0.098  0.902  0.000  0.000     1.803     2.100
 292   1 H      0.234  0.766  0.000  0.000     0.949     1.526
 293   1 H      0.216  0.784  0.000  0.000     1.026     1.586
 294   1 H      0.253  0.747  0.000  0.000     0.871     1.462
 295   1 H      0.250  0.750  0.000  0.000     0.882     1.471
 296   1 H      0.256  0.744  0.000  0.000     0.860     1.453
 297   7 N     -0.176  1.243  3.933  0.000    24.804     7.397
 298   6 C      0.006  1.066  2.928  0.000    20.488     6.446
 299   6 C      0.280  1.037  2.683  0.000    22.257     7.726
 300   8 O     -0.489  1.728  4.760  0.000    23.538     6.505
 301   6 C      0.071  1.040  2.889  0.000    19.607     6.343
 302   8 O     -0.471  1.708  4.762  0.000    22.269     6.370
 303   1 H      0.235  0.765  0.000  0.000     0.944     1.522
 304   1 H      0.092  0.908  0.000  0.000     1.857     2.131
 305   1 H      0.047  0.953  0.000  0.000     2.361     2.403
 306   1 H      0.087  0.913  0.000  0.000     1.905     2.159
 307   1 H      0.314  0.686  0.000  0.000     0.682     1.297
 308   7 N     -0.167  1.238  3.929  0.000    24.613     7.368
 309   6 C      0.048  1.051  2.901  0.000    19.763     6.329
 310   6 C      0.270  1.044  2.686  0.000    22.439     7.757
 311   8 O     -0.498  1.729  4.769  0.000    23.736     6.532
 312   6 C     -0.094  1.068  3.026  0.000    22.295     6.722
 313   6 C      0.378  1.020  2.603  0.000    20.606     7.428
 314   8 O     -0.616  1.755  4.861  0.000    26.507     6.903
 315   8 O     -0.623  1.774  4.848  0.000    26.680     6.925
 316   1 H      0.201  0.799  0.000  0.000     1.100     1.643
 317   1 H      0.059  0.941  0.000  0.000     2.206     2.323
 318   1 H      0.031  0.969  0.000  0.000     2.577     2.511
 319   1 H      0.019  0.981  0.000  0.000     2.754     2.595
 320   7 N     -0.180  1.248  3.932  0.000    24.898     7.411
 321   6 C      0.038  1.056  2.905  0.000    19.931     6.357
 322   6 C      0.282  1.041  2.677  0.000    22.218     7.719
 323   8 O     -0.498  1.734  4.764  0.000    23.750     6.534
 324   6 C     -0.064  1.054  3.010  0.000    21.725     6.634
 325   6 C     -0.006  1.055  2.951  0.000    20.650     6.464
 326   6 C     -0.107  1.041  3.067  0.000    22.599     6.778
 327   6 C     -0.104  1.037  3.067  0.000    22.540     6.769
 328   1 H      0.216  0.784  0.000  0.000     1.030     1.589
 329   1 H      0.051  0.949  0.000  0.000     2.304     2.374
 330   1 H      0.054  0.946  0.000  0.000     2.267     2.355
 331   1 H      0.056  0.944  0.000  0.000     2.252     2.347
 332   1 H      0.024  0.976  0.000  0.000     2.669     2.555
 333   1 H      0.051  0.949  0.000  0.000     2.306     2.374
 334   1 H      0.039  0.961  0.000  0.000     2.463     2.454
 335   1 H      0.041  0.959  0.000  0.000     2.438     2.442
 336   1 H      0.049  0.951  0.000  0.000     2.338     2.391
 337   1 H      0.039  0.961  0.000  0.000     2.460     2.453
 338   1 H      0.016  0.984  0.000  0.000     2.796     2.615
 339   7 N     -0.184  1.251  3.933  0.000    24.980     7.423
 340   6 C      0.033  1.056  2.911  0.000    20.023     6.371
 341   6 C      0.278  1.043  2.680  0.000    22.305     7.734
 342   8 O     -0.486  1.736  4.751  0.000    23.485     6.497
 343   6 C     -0.138  1.044  3.094  0.000    23.210     6.869
 344   1 H      0.223  0.777  0.000  0.000     0.996     1.563
 345   1 H      0.064  0.936  0.000  0.000     2.152     2.294
 346   1 H      0.082  0.918  0.000  0.000     1.956     2.187
 347   1 H      0.072  0.928  0.000  0.000     2.063     2.246
 348   1 H      0.073  0.927  0.000  0.000     2.052     2.240
 349   7 N     -0.187  1.249  3.938  0.000    25.050     7.433
 350   6 C      0.025  1.060  2.915  0.000    20.156     6.392
 351   6 C      0.275  1.043  2.682  0.000    22.346     7.741
 352   8 O     -0.481  1.720  4.761  0.000    23.358     6.480
 353   6 C     -0.135  1.043  3.092  0.000    23.156     6.861
 354   1 H      0.217  0.783  0.000  0.000     1.025     1.586
 355   1 H      0.081  0.919  0.000  0.000     1.968     2.194
 356   1 H      0.089  0.911  0.000  0.000     1.885     2.147
 357   1 H      0.074  0.926  0.000  0.000     2.042     2.235
 358   1 H      0.050  0.950  0.000  0.000     2.317     2.380
 359   7 N     -0.183  1.248  3.935  0.000    24.964     7.421
 360   6 C      0.022  1.064  2.913  0.000    20.201     6.399
 361   6 C      0.280  1.041  2.680  0.000    22.269     7.728
 362   8 O     -0.477  1.720  4.756  0.000    23.272     6.468
 363   6 C     -0.016  1.060  2.956  0.000    20.820     6.490
 364   6 C     -0.105  1.037  3.068  0.000    22.551     6.771
 365   6 C     -0.107  1.037  3.070  0.000    22.604     6.779
 366   1 H      0.213  0.787  0.000  0.000     1.040     1.598
 367   1 H      0.073  0.927  0.000  0.000     2.048     2.238
 368   1 H      0.045  0.955  0.000  0.000     2.387     2.416
 369   1 H      0.038  0.962  0.000  0.000     2.479     2.462
 370   1 H      0.041  0.959  0.000  0.000     2.439     2.442
 371   1 H      0.050  0.950  0.000  0.000     2.314     2.379
 372   1 H      0.013  0.987  0.000  0.000     2.844     2.637
 373   1 H      0.054  0.946  0.000  0.000     2.266     2.354
 374   1 H      0.046  0.954  0.000  0.000     2.371     2.408
 375   7 N     -0.178  1.246  3.932  0.000    24.844     7.403
 376   6 C      0.035  1.059  2.906  0.000    19.985     6.365
 377   6 C      0.280  1.039  2.680  0.000    22.253     7.725
 378   8 O     -0.480  1.721  4.759  0.000    23.344     6.478
 379   6 C     -0.063  1.050  3.013  0.000    21.702     6.631
 380   6 C     -0.085  1.054  3.030  0.000    22.107     6.693
 381   6 C      0.288  1.038  2.673  0.000    22.116     7.700
 382   8 O     -0.505  1.732  4.773  0.000    23.888     6.553
 383   7 N     -0.295  1.292  4.002  0.000    27.596     7.802
 384   1 H      0.213  0.787  0.000  0.000     1.040     1.598
 385   1 H      0.058  0.942  0.000  0.000     2.226     2.333
 386   1 H      0.062  0.938  0.000  0.000     2.174     2.306
 387   1 H      0.072  0.928  0.000  0.000     2.068     2.249
 388   1 H      0.053  0.947  0.000  0.000     2.285     2.364
 389   1 H      0.045  0.955  0.000  0.000     2.377     2.411
 390   1 H      0.227  0.773  0.000  0.000     0.980     1.551
 391   1 H      0.211  0.789  0.000  0.000     1.049     1.605
 392   7 N     -0.167  1.244  3.924  0.000    24.618     7.369
 393   6 C      0.029  1.056  2.916  0.000    20.093     6.382
 394   6 C      0.272  1.044  2.684  0.000    22.412     7.753
 395   8 O     -0.501  1.725  4.775  0.000    23.800     6.541
 396   6 C     -0.118  1.065  3.053  0.000    22.751     6.789
 397   6 C      0.291  1.033  2.676  0.000    22.070     7.692
 398   8 O     -0.491  1.759  4.733  0.000    23.596     6.513
 399   7 N     -0.296  1.267  4.029  0.000    27.632     7.807
 400   1 H      0.221  0.779  0.000  0.000     1.007     1.572
 401   1 H      0.096  0.904  0.000  0.000     1.819     2.109
 402   1 H      0.094  0.906  0.000  0.000     1.842     2.123
 403   1 H      0.096  0.904  0.000  0.000     1.823     2.111
 404   1 H      0.236  0.764  0.000  0.000     0.940     1.519
 405   1 H      0.240  0.760  0.000  0.000     0.922     1.504
 406   7 N     -0.168  1.246  3.923  0.000    24.636     7.372
 407   6 C      0.011  1.065  2.924  0.000    20.394     6.430
 408   6 C      0.267  1.043  2.690  0.000    22.502     7.768
 409   8 O     -0.482  1.729  4.753  0.000    23.387     6.484
 410   6 C     -0.085  1.056  3.029  0.000    22.114     6.695
 411   6 C     -0.092  1.055  3.036  0.000    22.245     6.715
 412   6 C     -0.028  1.052  2.975  0.000    21.147     6.562
 413   7 N     -0.141  1.206  3.936  0.000    24.055     7.284
 414   6 C      0.232  1.018  2.750  0.000    23.139     7.876
 415   7 N     -0.260  1.233  4.027  0.000    26.734     7.679
 416   7 N     -0.239  1.223  4.015  0.000    26.240     7.608
 417   1 H      0.227  0.773  0.000  0.000     0.980     1.551
 418   1 H      0.095  0.905  0.000  0.000     1.827     2.114
 419   1 H      0.076  0.924  0.000  0.000     2.019     2.222
 420   1 H      0.055  0.945  0.000  0.000     2.253     2.347
 421   1 H      0.081  0.919  0.000  0.000     1.968     2.194
 422   1 H      0.087  0.913  0.000  0.000     1.909     2.160
 423   1 H      0.075  0.925  0.000  0.000     2.030     2.228
 424   1 H      0.095  0.905  0.000  0.000     1.833     2.117
 425   1 H      0.212  0.788  0.000  0.000     1.049     1.604
 426   1 H      0.232  0.768  0.000  0.000     0.955     1.531
 427   1 H      0.263  0.737  0.000  0.000     0.836     1.432
 428   1 H      0.254  0.746  0.000  0.000     0.869     1.460
 429   1 H      0.264  0.736  0.000  0.000     0.831     1.428
 430   7 N     -0.177  1.248  3.929  0.000    24.832     7.401
 431   6 C      0.020  1.062  2.919  0.000    20.246     6.406
 432   6 C      0.272  1.043  2.684  0.000    22.400     7.751
 433   8 O     -0.476  1.729  4.747  0.000    23.261     6.466
 434   6 C     -0.081  1.055  3.026  0.000    22.034     6.681
 435   6 C      0.015  1.079  2.906  0.000    27.670     8.628
 436   6 C     -0.032  1.078  2.953  0.000    28.791     8.799
 437   6 C     -0.042  1.078  2.963  0.000    29.034     8.836
 438   6 C     -0.031  1.078  2.952  0.000    28.771     8.796
 439   6 C     -0.030  1.078  2.952  0.000    28.759     8.794
 440   6 C     -0.031  1.076  2.954  0.000    28.766     8.795
 441   1 H      0.229  0.771  0.000  0.000     0.972     1.544
 442   1 H      0.089  0.911  0.000  0.000     1.891     2.150
 443   1 H      0.071  0.929  0.000  0.000     2.075     2.253
 444   1 H      0.074  0.926  0.000  0.000     2.047     2.237
 445   1 H      0.019  0.981  0.000  0.000     2.742     2.589
 446   1 H      0.055  0.945  0.000  0.000     2.257     2.349
 447   1 H      0.017  0.983  0.000  0.000     2.776     2.605
 448   1 H      0.047  0.953  0.000  0.000     2.353     2.399
 449   1 H      0.019  0.981  0.000  0.000     2.755     2.595
 450   7 N     -0.187  1.248  3.939  0.000    25.063     7.435
 451   6 C      0.025  1.061  2.914  0.000    20.155     6.392
 452   6 C      0.279  1.040  2.681  0.000    22.283     7.730
 453   8 O     -0.496  1.733  4.763  0.000    23.696     6.526
 454   6 C     -0.118  1.064  3.054  0.000    22.743     6.788
 455   6 C      0.292  1.033  2.675  0.000    22.041     7.687
 456   8 O     -0.491  1.756  4.734  0.000    23.578     6.510
 457   7 N     -0.280  1.259  4.021  0.000    27.230     7.750
 458   1 H      0.229  0.771  0.000  0.000     0.970     1.543
 459   1 H      0.079  0.921  0.000  0.000     1.989     2.206
 460   1 H      0.091  0.909  0.000  0.000     1.872     2.140
 461   1 H      0.094  0.906  0.000  0.000     1.841     2.122
 462   1 H      0.234  0.766  0.000  0.000     0.949     1.526
 463   1 H      0.232  0.768  0.000  0.000     0.957     1.533
 464   7 N     -0.179  1.250  3.929  0.000    24.871     7.407
 465   6 C      0.007  1.069  2.925  0.000    20.469     6.442
 466   6 C      0.271  1.039  2.690  0.000    22.429     7.755
 467   8 O     -0.504  1.756  4.749  0.000    23.883     6.552
 468   6 C      0.059  1.041  2.900  0.000    19.795     6.374
 469   8 O     -0.461  1.709  4.751  0.000    22.060     6.340
 470   1 H      0.230  0.770  0.000  0.000     0.966     1.540
 471   1 H      0.079  0.921  0.000  0.000     1.991     2.207
 472   1 H      0.060  0.940  0.000  0.000     2.203     2.321
 473   1 H      0.072  0.928  0.000  0.000     2.066     2.248
 474   1 H      0.329  0.671  0.000  0.000     0.639     1.256
 475   7 N     -0.185  1.253  3.932  0.000    25.000     7.426
 476   6 C      0.024  1.061  2.916  0.000    20.181     6.397
 477   6 C      0.284  1.038  2.678  0.000    22.186     7.713
 478   8 O     -0.513  1.758  4.755  0.000    24.079     6.579
 479   6 C     -0.136  1.044  3.092  0.000    23.175     6.864
 480   1 H      0.239  0.761  0.000  0.000     0.926     1.507
 481   1 H      0.069  0.931  0.000  0.000     2.102     2.267
 482   1 H      0.066  0.934  0.000  0.000     2.129     2.282
 483   1 H      0.078  0.922  0.000  0.000     1.996     2.209
 484   1 H      0.071  0.929  0.000  0.000     2.072     2.251
 485   7 N     -0.195  1.251  3.944  0.000    25.232     7.460
 486   6 C      0.022  1.064  2.913  0.000    20.197     6.399
 487   6 C      0.290  1.039  2.671  0.000    22.076     7.694
 488   8 O     -0.503  1.752  4.751  0.000    23.855     6.548
 489   6 C     -0.027  1.068  2.959  0.000    21.013     6.520
 490   6 C     -0.069  1.052  3.017  0.000    21.821     6.650
 491   6 C     -0.115  1.039  3.076  0.000    22.761     6.803
 492   6 C     -0.112  1.038  3.074  0.000    22.704     6.795
 493   1 H      0.237  0.763  0.000  0.000     0.934     1.514
 494   1 H      0.062  0.938  0.000  0.000     2.181     2.310
 495   1 H      0.052  0.948  0.000  0.000     2.291     2.367
 496   1 H      0.049  0.951  0.000  0.000     2.329     2.386
 497   1 H      0.046  0.954  0.000  0.000     2.369     2.407
 498   1 H      0.067  0.933  0.000  0.000     2.118     2.276
 499   1 H      0.031  0.969  0.000  0.000     2.575     2.509
 500   1 H      0.045  0.955  0.000  0.000     2.390     2.417
 501   1 H      0.049  0.951  0.000  0.000     2.328     2.386
 502   1 H      0.032  0.968  0.000  0.000     2.562     2.503
 503   1 H      0.050  0.950  0.000  0.000     2.317     2.380
 504   7 N     -0.186  1.248  3.939  0.000    25.040     7.432
 505   6 C      0.023  1.065  2.912  0.000    20.201     6.400
 506   6 C      0.214  1.082  2.704  0.000    23.466     7.933
 507   8 O     -0.369  1.749  4.620  0.000    21.077     6.155
 508   6 C      0.118  1.045  2.837  0.000    18.751     6.183
 509   8 O     -0.463  1.709  4.754  0.000    22.119     6.349
 510   6 C     -0.129  1.042  3.087  0.000    23.035     6.844
 511   1 H      0.222  0.778  0.000  0.000     0.998     1.565
 512   1 H      0.078  0.922  0.000  0.000     1.999     2.211
 513   1 H      0.038  0.962  0.000  0.000     2.481     2.463
 514   1 H      0.327  0.673  0.000  0.000     0.645     1.262
 515   1 H      0.079  0.921  0.000  0.000     1.987     2.204
 516   1 H      0.047  0.953  0.000  0.000     2.358     2.401
 517   1 H      0.068  0.932  0.000  0.000     2.104     2.268
 518   1 H      0.175  0.825  0.000  0.000     1.240     1.744
 519   1 H      0.091  0.909  0.000  0.000     1.870     2.139
 520   1 H      0.188  0.812  0.000  0.000     1.169     1.693
 521   1 H      0.079  0.921  0.000  0.000     1.984     2.203
 522   1 H      0.170  0.830  0.000  0.000     1.271     1.766
 523   1 H      0.077  0.923  0.000  0.000     2.007     2.215
 524   1 H      0.195  0.805  0.000  0.000     1.133     1.668
 525   1 H      0.073  0.927  0.000  0.000     2.051     2.239
 526   1 H      0.174  0.826  0.000  0.000     1.249     1.751
 527   1 H      0.077  0.923  0.000  0.000     2.007     2.215
 528   1 H      0.175  0.825  0.000  0.000     1.242     1.746
 529   1 H      0.076  0.924  0.000  0.000     2.020     2.222
 530   1 H      0.179  0.821  0.000  0.000     1.222     1.731
 531   1 H      0.069  0.931  0.000  0.000     2.099     2.265
 532   1 H      0.191  0.809  0.000  0.000     1.150     1.680
 533   1 H      0.100  0.900  0.000  0.000     1.782     2.087
 534   1 H      0.187  0.813  0.000  0.000     1.176     1.699
 535   1 H      0.063  0.937  0.000  0.000     2.164     2.300

 Mol. C6AA /au·bohr⁶  :    2598058.244137
 Mol. C8AA /au·bohr⁸  :   57037066.968297
 Mol. α(0) /au        :       2400.690059

 
molecular dipole:
                 x           y           z       tot (Debye)
 q only:     -779.735    -334.402    -681.433
   full:     -775.657    -337.798    -684.130    2765.527
molecular quadrupole (traceless):
                xx          xy          yy          xz          yz          zz
 q only:  -106412.603 -130197.441  141436.782 -265008.434 -113783.931  -35024.179
  q+dip:  -103370.791 -130777.426  140228.006 -264572.393 -115413.185  -36857.215
   full:  -103368.458 -130778.886  140230.353 -264565.676 -115411.157  -36861.895
speedup 13.76
cpu  time for grad    1 m 13.0 s
wall time for grad    0 m  5.3 s

SCC energy    :    -838.5160003
rep           :       9.8557131
ES            :       2.9936863
AES           :      -0.1380248
AXC           :       0.2413713
disp          :      -0.7335728
XB            :       0.0000000
fix           :       0.0000000
Gborn         :       0.0000000
Gsasa         :       0.0000000
Ghb           :       0.0000000
Gshift        :       0.0000000
Gsolv         :      -0.8310516     -521.49
Etot ala COSMO:    -838.5160003
grad norm     :       0.6693362
total E       :    -828.5858255
atomizationE  :     149.8295185    94019.44
(atE without considering molecular charge,
 total energy contains solvation terms)
H-L gap (eV)  :          1.2289

------------------------------------------------------------------------
 * finished run on 2019/02/13 at 00:17:40.167     
------------------------------------------------------------------------
 total:
 * wall-time:     0 d,  0 h,  0 min,  5.919 sec
 *  cpu-time:     0 d,  0 h,  1 min, 21.738 sec
 * ratio c/w:    13.808 speedup
 SCF:
 * wall-time:     0 d,  0 h,  0 min,  5.616 sec
 *  cpu-time:     0 d,  0 h,  1 min, 17.521 sec
 * ratio c/w:    13.803 speedup

