      -----------------------------------------------------------      
     |                   =====================                   |     
     |                           x T B                           |     
     |                   =====================                   |     
     |                         S. Grimme                         |     
     |          Mulliken Center for Theoretical Chemistry        |     
     |                    University of Bonn                     |     
     |                 Version 6.0.1 (SAW181210)                 |     
      -----------------------------------------------------------      

   This program is distributed in the hope that it will be useful,
   but WITHOUT ANY WARRANTY; without even the implied warranty of
   MERCHANTABILITY or FITNESS FOR A PARTICULAR PURPOSE.
   
   FOR NON-COMMERCIAL, ACADEMIA USE ONLY.
   
   Cite this work as:
   S. Grimme, C. Bannwarth, P. Shushkov, J. Comput. Theory Chem., 2017,
   13, 1989-2009.
   C. Bannwarth, S. Ehlert and S. Grimme., ChemRxiv, 2018, preprint.
   http://doi.org/10.26434/chemrxiv.7246238.v1
   
   for sTDA-xTB:
   S. Grimme and C. Bannwarth, J. Chem. Phys., 2016, 145, 054103.
   
   in the mass-spec context:
   V. Asgeirsson, C. Bauer and S. Grimme, Chem. Sci., 2017, 8, 4879.
   
   if GBSA is used:
   P. Shushkov, F. März and S. Grimme, unpublished.
   
   for ANC optimizer:
   S. Grimme, unpublished.
   Rational Function algorithm used in ANCopt:
   F. Eckert, P. Pulay, H.-J. Werner, J. Comput. Chem., 1997, 18, 1473.
   
   with help from (in alphabetical order)
   C. Bannwarth, F. Bohle, G. Brandenburg, E. Caldeweyher, M. Checinski,
   S. Dohm, S. Ehlert, S. Ehrlich, F. März, H. Neugebauer, J. Pisarek,
   P. Pracht, P. Shushkov, and S. Spicher.
   
 * started run on 2019/03/07 at 11:37:45.587     
========================================================================
 # omp threads = 1
========================================================================
number of atoms            : 211
number of electrons        : 574
charge                     : 0
spin                       : .0
first test random number   : .2862
           ------------------------------------------------- 
          |                 G F N 2 - x T B                 |
          | Geometry, Frequencies, Noncovalent interactions |
          |            JCTC 2018 parametrisation            |
           ------------------------------------------------- 
 
      method parameters     
 k(s)        :  1.8500
 k(p)        :  2.2300
 k(d)        :  2.2300
 k(f)        :  2.0000
 kEN (H0ij)  : -2.0000
 D4 a1       :  0.5200
 D4 a2       :  5.0000
 D4 s6       :  1.0000
 D4 s8       :  2.7000
 D4 s9       :  5.0000
 alphaj      :  2.0000

 Solvent             : h2o
 Using internal parameter file: .param_gbsa2_h2o
 Gsolv ref. state (COSMO-RS): gsolv [1 M gas/solution]
 temperature (mdtemp)       :    298.150000000000     
 dielectric constant        :    80.2000000000000     
 rho                        :    1.00000000000000     
 mass                       :    18.0000000000000     
 surface tension            :    15.5689454083859     
 probe radius               :   0.975313790000000     
 vdW radii scaling          :    1.00000000000000     
 Gshift (Eh)                :   1.857443126794793E-003
 c1                         :    1.55243817000000     
 soset                      :   0.130326360000000     
 HB correction              :  T

            Z     q(EN)     CN     RAES       Cart. coordinates
     1  N   5.0   -0.22    3.22    1.96   215.02058   119.50060   296.57548
     2  C   4.0    0.02    4.34    4.27   214.20422   116.85309   296.51501
     3  C   4.0    0.15    3.42    3.08   216.20544   115.08620   297.70743
     4  O   6.0   -0.30    1.24    1.80   218.41264   115.07486   296.94587
     5  C   4.0   -0.05    4.45    4.47   213.63163   115.97059   293.80325
     6  C   4.0   -0.02    4.33    4.26   215.72922   115.28651   291.97589
     7  C   4.0   -0.09    4.27    4.13   214.66342   113.99394   289.74034
     8  C   4.0   -0.08    4.20    4.00   217.27691   117.65056   291.14819
     9  H   1.0    0.10    1.08    1.44   215.99568   119.93335   295.35094
    10  H   1.0    0.04    1.12    1.45   212.66409   116.75861   297.50523
    11  H   1.0    0.04    1.10    1.44   212.54504   114.50038   293.93931
    12  H   1.0    0.04    1.10    1.44   212.64519   117.29529   293.00957
    13  H   1.0    0.06    1.14    1.45   216.88007   114.15457   292.84327
    14  H   1.0    0.04    1.06    1.44   216.01646   113.56308   288.58005
    15  H   1.0    0.04    1.06    1.44   213.80359   112.46515   290.26946
    16  H   1.0    0.05    1.06    1.44   213.47100   115.10510   288.90130
    17  H   1.0    0.05    1.05    1.44   218.59783   117.14033   289.98412
    18  H   1.0    0.04    1.05    1.44   216.16575   118.85053   290.32238
    19  H   1.0    0.05    1.05    1.44   218.03280   118.43290   292.62217
    20  N   5.0   -0.16    3.47    2.06   215.42120   113.54796   299.54046
    21  C   4.0    0.03    4.52    4.57   217.08794   111.76028   300.82736
    22  C   4.0    0.14    3.51    3.12   215.93520   109.22805   301.31680
    23  O   6.0   -0.29    1.25    1.80   213.61840   108.87656   301.05413
    24  C   4.0   -0.05    4.38    4.34   218.07060   112.82042   303.31046
    25  C   4.0   -0.05    4.27    4.14   220.31748   114.70825   302.95331
    26  C   4.0   -0.02    4.33    4.25   221.47210   115.49249   305.46475
    27  N   5.0   -0.16    3.45    2.05   224.11205   116.19547   305.07547
    28  C   4.0    0.11    3.48    3.10   226.00177   115.13722   306.33780
    29  N   5.0   -0.24    3.31    1.99   225.51989   113.35143   308.09525
    30  N   5.0   -0.24    3.28    1.98   228.35637   115.87044   305.88994
    31  H   1.0    0.10    1.13    1.45   213.88674   113.51395   300.07714
    32  H   1.0    0.05    1.15    1.45   218.46933   111.51273   299.64817
    33  H   1.0    0.05    1.09    1.44   216.70243   113.67269   304.18352
    34  H   1.0    0.04    1.10    1.44   218.61295   111.43714   304.38383
    35  H   1.0    0.05    1.09    1.44   221.60627   113.93158   301.90640
    36  H   1.0    0.06    1.09    1.44   219.72788   116.19736   302.06135
    37  H   1.0    0.05    1.08    1.44   220.54236   116.90412   306.17340
    38  H   1.0    0.04    1.11    1.44   221.35683   114.11488   306.66851
    39  H   1.0    0.10    1.13    1.45   224.45598   117.34631   303.97943
    40  H   1.0    0.10    1.10    1.44   223.98733   112.89979   308.39572
    41  H   1.0    0.11    1.08    1.44   226.74444   112.66546   308.91350
    42  H   1.0    0.11    1.09    1.44   228.65117   117.02695   304.78634
    43  H   1.0    0.11    1.09    1.44   229.58847   115.19013   306.70252
    44  N   5.0   -0.18    3.63    2.19   217.56982   107.47816   302.04246
    45  C   4.0    0.04    4.54    4.59   216.86117   104.88546   302.56024
    46  C   4.0    0.16    3.44    3.09   215.49868   104.64357   305.10759
    47  O   6.0   -0.27    1.23    1.80   215.24923   102.56299   306.13371
    48  C   4.0   -0.02    4.40    4.38   219.17042   103.09967   302.57536
    49  C   4.0   -0.06    4.33    4.26   221.63840   104.53775   301.80057
    50  C   4.0   -0.07    4.18    3.95   218.55436   100.65436   301.06736
    51  C   4.0   -0.09    4.14    3.88   221.95587   105.15569   299.03590
    52  H   1.0    0.08    1.18    1.46   219.15341   107.77485   302.25033
    53  H   1.0    0.08    1.14    1.45   215.72922   104.39413   301.20531
    54  H   1.0    0.06    1.14    1.45   219.53324   102.52141   304.27611
    55  H   1.0    0.04    1.11    1.45   221.70643   106.10622   302.74733
    56  H   1.0    0.05    1.09    1.44   223.07648   103.53053   302.32970
    57  H   1.0    0.05    1.05    1.44   220.01134    99.54131   301.08437
    58  H   1.0    0.07    1.05    1.44   217.12762    99.80210   301.84026
    59  H   1.0    0.05    1.06    1.44   218.14051   101.09089   299.33637
    60  H   1.0    0.05    1.06    1.44   223.54135   106.04008   298.78457
    61  H   1.0    0.04    1.06    1.44   221.95965   103.60423   298.05892
    62  H   1.0    0.05    1.06    1.44   220.56881   106.21961   298.48410
    63  N   5.0   -0.15    3.52    2.09   214.66531   106.78841   306.13371
    64  C   4.0    0.05    4.38    4.35   213.40108   106.86400   308.56390
    65  C   4.0    0.11    3.19    3.03   210.65153   105.81331   308.48075
    66  O   6.0   -0.26    1.11    1.80   210.02981   104.11823   309.90372
    67  C   4.0   -0.04    4.35    4.30   213.46722   109.53796   309.73742
    68  C   4.0    0.16    3.30    3.05   212.13875   111.53163   308.15950
    69  O   6.0   -0.29    1.24    1.80   211.25057   111.03463   306.06190
    70  N   5.0   -0.24    3.23    1.96   211.86851   113.80875   309.18373
    71  H   1.0    0.11    1.17    1.46   214.82405   108.24350   305.42507
    72  H   1.0    0.07    1.13    1.45   214.35539   105.73773   309.65238
    73  H   1.0    0.05    1.09    1.44   212.69055   109.47938   311.39660
    74  H   1.0    0.04    1.09    1.44   215.21333   110.03874   309.97931
    75  H   1.0    0.12    1.09    1.44   211.06160   114.96904   308.38249
    76  H   1.0    0.11    1.09    1.44   212.49968   114.12055   310.64827
    77  N   5.0   -0.21    3.21    1.96   206.46201   108.47972   302.87394
    78  C   4.0    0.03    4.32    4.24   205.71368   109.17514   300.28690
    79  C   4.0    0.16    3.44    3.09   206.73035   107.40446   298.27623
    80  O   6.0   -0.29    1.24    1.80   205.26014   106.07410   297.06681
    81  C   4.0   -0.08    4.22    4.03   206.49980   111.90957   299.71054
    82  H   1.0    0.12    1.08    1.44   207.57884   109.46427   303.52778
    83  H   1.0    0.06    1.13    1.45   203.88820   109.02396   300.22643
    84  H   1.0    0.05    1.05    1.44   205.99714   112.34421   298.00222
    85  H   1.0    0.05    1.05    1.44   205.68155   113.04341   300.89539
    86  H   1.0    0.05    1.05    1.44   208.31961   112.07020   299.86927
    87  N   5.0   -0.16    3.48    2.07   209.21912   107.30620   297.96821
    88  C   4.0    0.04    4.51    4.56   210.35484   105.68481   296.05392
    89  C   4.0    0.15    3.45    3.10   211.26569   103.11101   296.90051
    90  O   6.0   -0.29    1.25    1.80   213.49935   102.84078   297.66018
    91  C   4.0   -0.05    4.42    4.41   212.54693   107.07565   294.78024
    92  C   4.0   -0.06    4.32    4.23   212.42031   107.19093   291.93431
    93  C   4.0   -0.06    4.29    4.18   210.12430   108.69704   291.01780
    94  C   4.0   -0.04    4.30    4.20   209.37975   107.77296   288.37596
    95  N   5.0   -0.17    4.15    3.29   208.56905   105.13301   288.31927
    96  H   1.0    0.12    1.14    1.45   210.28303   108.16413   298.84882
    97  H   1.0    0.05    1.16    1.46   208.96967   105.33143   294.90496
    98  H   1.0    0.05    1.10    1.44   212.61118   108.78774   295.43220
    99  H   1.0    0.06    1.11    1.45   214.11540   106.25929   295.26212
   100  H   1.0    0.04    1.09    1.44   213.95288   107.95815   291.28614
   101  H   1.0    0.05    1.10    1.44   212.34473   105.49017   291.25590
   102  H   1.0    0.05    1.09    1.44   208.72401   108.48539   292.17998
   103  H   1.0    0.04    1.08    1.44   210.51736   110.48661   290.97433
   104  H   1.0    0.05    1.09    1.44   208.02481   108.82743   287.73345
   105  H   1.0    0.04    1.09    1.44   210.80649   107.98461   287.24401
   106  H   1.0    0.07    1.09    1.44   207.48813   104.90436   287.05126
   107  H   1.0    0.07    1.09    1.44   209.90887   104.13902   288.10006
   108  H   1.0    0.07    1.10    1.44   207.81694   104.74562   289.77247
   109  N   5.0   -0.16    3.51    2.09   209.64998   101.20994   296.82681
   110  C   4.0    0.04    4.48    4.51   210.34540    98.60590   297.47877
   111  C   4.0    0.16    3.54    3.13   212.03481    97.62324   295.36417
   112  O   6.0   -0.28    1.25    1.80   213.94721    96.32122   295.85738
   113  C   4.0   -0.03    4.36    4.31   208.00591    96.89759   297.55814
   114  C   4.0    0.26    3.16    3.03   208.71645    94.07434   297.62617
   115  O   6.0   -0.25    1.17    1.80   208.25536    92.74019   295.74589
   116  O   6.0   -0.25    1.17    1.80   209.73312    93.21073   299.57448
   117  H   1.0    0.10    1.14    1.45   208.09284   101.38191   296.39218
   118  H   1.0    0.07    1.11    1.45   211.16554    98.59078   299.11716
   119  H   1.0    0.06    1.09    1.44   207.00058    97.30955   299.03401
   120  H   1.0    0.06    1.09    1.44   206.96090    97.22829   296.08982
   121  N   5.0   -0.16    3.51    2.09   211.33750    98.26575   293.01335
   122  C   4.0    0.04    4.45    4.46   212.70755    97.45695   290.73434
   123  C   4.0    0.15    3.47    3.10   215.19254    98.89125   290.46789
   124  O   6.0   -0.30    1.36    1.80   215.87662    99.70761   288.40431
   125  C   4.0   -0.03    4.37    4.32   211.05782    97.93127   288.36084
   126  C   4.0    0.25    3.13    3.03   211.02003    95.68816   286.54670
   127  O   6.0   -0.27    1.17    1.80   212.87007    95.34990   285.13130
   128  O   6.0   -0.25    1.17    1.80   209.08684    94.29544   286.54859
   129  H   1.0    0.09    1.14    1.45   210.04115    99.19360   292.69587
   130  H   1.0    0.07    1.12    1.45   213.07227    95.66738   290.88929
   131  H   1.0    0.05    1.09    1.44   209.34195    98.30921   288.88619
   132  H   1.0    0.06    1.10    1.44   211.68521    99.40903   287.47645
   133  N   5.0   -0.16    3.55    2.11   216.55881    99.22951   292.56548
   134  C   4.0    0.03    4.41    4.39   219.02113   100.49185   292.61272
   135  C   4.0    0.17    3.50    3.12   220.56503    99.77942   290.26757
   136  O   6.0   -0.31    1.34    1.80   221.56848   101.41970   289.00713
   137  C   4.0   -0.08    4.21    4.03   220.43653    99.72840   295.03724
   138  H   1.0    0.12    1.18    1.46   216.06749    98.71928   294.02813
   139  H   1.0    0.05    1.12    1.45   218.77735   102.30787   292.59950
   140  H   1.0    0.05    1.05    1.44   222.06926   100.55988   295.07882
   141  H   1.0    0.05    1.07    1.44   219.45765   100.23295   296.50178
   142  H   1.0    0.05    1.05    1.44   220.67464    97.91048   295.05992
   143  N   5.0   -0.16    3.55    2.11   220.56881    97.33789   289.65341
   144  C   4.0    0.03    4.42    4.41   221.88217    96.32122   287.47456
   145  C   4.0    0.17    3.49    3.11   221.02991    97.69883   285.07083
   146  O   6.0   -0.28    1.26    1.80   222.60972    98.64936   283.65731
   147  C   4.0   -0.08    4.23    4.05   221.36628    93.49230   287.23645
   148  H   1.0    0.10    1.14    1.45   219.78458    96.20784   290.52080
   149  H   1.0    0.05    1.12    1.45   223.68497    96.57444   287.69566
   150  H   1.0    0.06    1.06    1.44   222.25256    92.82901   285.77570
   151  H   1.0    0.05    1.05    1.44   221.95209    92.63437   288.74635
   152  H   1.0    0.06    1.06    1.44   219.56537    93.21262   287.03614
   153  N   5.0   -0.14    3.47    2.06   218.54681    97.89914   284.66454
   154  C   4.0    0.03    4.36    4.31   217.55659    99.18416   282.45167
   155  C   4.0    0.17    3.44    3.09   218.65830   101.81654   282.24569
   156  O   6.0   -0.26    1.22    1.80   219.74678   102.49496   280.28037
   157  H   1.0    0.13    1.14    1.45   217.41108    97.29821   285.65853
   158  H   1.0    0.07    1.09    1.44   217.95721    98.22229   280.94367
   159  H   1.0    0.06    1.09    1.44   215.72922    99.28242   282.55560
   160  N   5.0   -0.15    3.56    2.13   218.44476   103.26218   284.27714
   161  C   4.0    0.05    4.59    4.65   219.37073   105.83599   284.30171
   162  C   4.0    0.16    3.53    3.13   222.15807   105.91914   284.31872
   163  O   6.0   -0.26    1.25    1.80   223.30136   107.78430   283.48157
   164  C   4.0   -0.05    4.41    4.40   218.24823   107.35344   286.49946
   165  C   4.0   -0.05    4.35    4.29   215.56671   108.16602   286.03270
   166  C   4.0    0.15    3.36    3.07   215.32104   109.46616   283.50425
   167  O   6.0   -0.29    1.22    1.80   214.84861   108.25484   281.57862
   168  N   5.0   -0.24    3.24    1.97   215.54403   111.94170   283.48724
   169  H   1.0    0.12    1.14    1.45   217.76257   102.77841   285.66987
   170  H   1.0    0.08    1.16    1.46   218.81326   106.65235   282.75780
   171  H   1.0    0.05    1.09    1.44   218.31437   106.34055   288.02447
   172  H   1.0    0.05    1.10    1.44   219.28380   108.83877   286.79426
   173  H   1.0    0.05    1.09    1.44   214.45933   106.70527   286.08750
   174  H   1.0    0.03    1.10    1.44   215.02247   109.29986   287.36685
   175  H   1.0    0.10    1.10    1.44   215.87473   112.73727   284.86485
   176  H   1.0    0.12    1.09    1.44   215.35884   112.76373   282.09640
   177  N   5.0   -0.15    3.60    2.16   223.32781   103.94060   285.33917
   178  C   4.0    0.05    4.34    4.28   226.07358   103.76863   285.35429
   179  C   4.0    0.11    3.30    3.05   226.88806   103.93682   282.60663
   180  O   6.0   -0.25    1.11    1.80   228.63227   105.36923   281.95089
   181  C   4.0   -0.07    4.22    4.04   226.95987   101.27419   286.51269
   182  H   1.0    0.14    1.19    1.46   222.56436   102.68204   286.02892
   183  H   1.0    0.06    1.12    1.45   226.80869   105.10656   286.36718
   184  H   1.0    0.05    1.05    1.44   228.79101   101.20994   286.49946
   185  H   1.0    0.06    1.06    1.44   226.35893   101.15325   288.23990
   186  H   1.0    0.07    1.06    1.44   226.29279    99.87391   285.53570
   187  N   5.0   -0.23    3.23    1.96   207.14420   117.56741   279.86463
   188  C   4.0    0.03    4.34    4.28   207.40498   115.48493   281.67121
   189  C   4.0    0.08    3.20    3.04   208.28748   116.51483   284.24691
   190  O   6.0   -0.29    1.11    1.80   207.00814   116.11988   286.14986
   191  C   4.0   -0.03    4.42    4.41   209.20589   113.39490   280.66210
   192  C   4.0   -0.06    4.34    4.26   208.32339   112.48216   278.02782
   193  C   4.0   -0.08    4.26    4.11   209.27770   111.16124   282.44978
   194  C   4.0   -0.08    4.17    3.93   210.07327   110.64534   276.81273
   195  H   1.0    0.10    1.08    1.44   208.47646   117.84331   278.97646
   196  H   1.0    0.05    1.13    1.45   205.76470   114.69881   281.89231
   197  H   1.0    0.05    1.12    1.45   210.88586   114.11488   280.53549
   198  H   1.0    0.05    1.10    1.44   206.66988   111.70926   278.19034
   199  H   1.0    0.04    1.10    1.44   208.13064   113.93536   276.92800
   200  H   1.0    0.06    1.06    1.44   210.40965   109.88189   281.78460
   201  H   1.0    0.05    1.06    1.44   209.87485   111.71115   284.09195
   202  H   1.0    0.05    1.06    1.44   207.59395   110.45826   282.61796
   203  H   1.0    0.05    1.06    1.44   209.40620   110.15591   275.17622
   204  H   1.0    0.05    1.06    1.44   211.71923   111.42202   276.59352
   205  H   1.0    0.06    1.06    1.44   210.23579   109.16002   277.87475
   206  H   1.0    0.10    1.08    1.44   213.65841   120.51649   296.50460
   207  H   1.0    0.07    1.04    1.43   209.40178   106.53240   307.25923
   208  H   1.0    0.10    1.07    1.44   205.09910   108.52364   303.89036
   209  H   1.0    0.08    1.05    1.44   226.01867   102.88735   281.29749
   210  H   1.0    0.10    1.08    1.44   205.88099   117.22261   278.77929
   211  H   1.0    0.05    1.04    1.43   209.89493   117.50078   284.36977

  Z AO/shell   Hii/eV     exponent
  1     Wed Apr 25 08:07:45 CEST 2018   EN: 2.200 GM2: 0.406  GM3: 0.0800  RAES: 1.40
     1s    -10.707211    1.230000
  6     Wed Apr 25 08:07:45 CEST 2018   EN: 2.550 GM2: 0.538  GM3: 0.1500  RAES: 3.00
     2s    -13.970922    2.096432
     2p    -10.063292    1.800000
  7     Wed Apr 25 08:07:45 CEST 2018   EN: 3.040 GM2: 0.461  GM3:-0.0640  RAES: 1.90
     2s    -16.686243    2.339881
     2p    -12.523956    2.014332
  8     Wed Apr 25 08:07:45 CEST 2018   EN: 3.440 GM2: 0.452  GM3:-0.0517  RAES: 1.80
     2s    -20.229985    2.439742
     2p    -15.503117    2.137023
 no old-style atom pair restraining (fixing) potential

molecular fragmentation (1/2 indicates fragments):
111111111111111111111111111111111111111111111111111111111111111111111111
111122222222222222222222222222222222222222222222222222222222222222222222
2222222222222222222222222222222222222222222222222222222222222112222
# atoms in fragment 1/2:    78   133
 fragment masses (1/2) :      499.63      944.03
CMA distance (Bohr)    :  15.405
constraining FC (au)   :  0.0500
           ------------------------------------------------- 
          |        Self-Consistent Charge Iterations        |
           ------------------------------------------------- 

 Ncao       : 514
 Nao        : 514
 Nshell     : 312
 Nel        : 574
 T(el)      :   500.0
 intcut     :    35.0
 scfconv/Eh :  0.100E-06
   qconv/e  :  0.100E-04
 intneglect :  0.100E-08
 broydamp   :      0.400
 iter      E             dE          RMSdq      gap      omega  full diag
   1   -331.1257550 -0.331126E+03  0.471E+00    3.15       0.0  T
   2   -332.0310262 -0.905271E+00  0.216E+00    1.98       1.0  T
   3   -332.0838659 -0.528396E-01  0.128E+00    2.14       1.0  T
   4   -332.1318235 -0.479577E-01  0.258E-01    1.67       1.0  T
   5   -332.1361487 -0.432520E-02  0.118E-01    1.83       1.0  T
   6   -332.1365064 -0.357670E-03  0.520E-02    1.81       1.0  T
   7   -332.1366157 -0.109322E-03  0.186E-02    1.80       1.0  T
   8   -332.1366246 -0.883926E-05  0.877E-03    1.79       1.0  T
   9   -332.1366280 -0.341026E-05  0.307E-03    1.79       2.2  T
  10   -332.1366283 -0.274623E-06  0.128E-03    1.79       5.4  T
  11   -332.1366283 -0.686614E-07  0.505E-04    1.79      13.6  T
  12   -332.1366283 -0.739504E-08  0.200E-04    1.79      34.4  T
  13   -332.1366283 -0.161913E-08  0.891E-05    1.79      77.2  T
  14   -332.1366283 -0.284047E-09  0.381E-05    1.79     180.5  T
speedup  1.00
cpu  time for SCC    2.15 s
wall time for SCC    2.15 s

   *** convergence criteria satisfied after 14 iterations ***

          eigenvalues
 #    :         275        276        277        278        279        280        281        282
 occ. :        2.000      2.000      2.000      2.000      2.000      2.000      2.000      2.000
 eps  :       -10.870    -10.832    -10.787    -10.769    -10.768    -10.698    -10.304    -10.272
 #    :         283        284        285        286        287        288        289        290
 occ. :        2.000      2.000      2.000      2.000      2.000      0.000      0.000      0.000
 eps  :       -10.176    -10.080    -10.037     -9.983     -9.841     -8.053     -7.773     -7.664
 #    :         291        292        293        294        295        296        297        298
 occ. :        0.000      0.000      0.000      0.000      0.000      0.000      0.000      0.000
 eps  :        -6.946     -6.841     -6.786     -6.547     -6.438     -6.424     -6.306     -6.217


   #   Z            q   n(s)   n(p)   n(d)      C6AA      α(0)
   1   7 N     -0.417  1.285  4.132  0.000    30.852     8.249
   2   6 C      0.016  1.041  2.943  0.000    20.321     6.421
   3   6 C      0.262  1.054  2.684  0.000    22.587     7.782
   4   8 O     -0.479  1.750  4.729  0.000    23.322     6.475
   5   6 C     -0.105  1.013  3.092  0.000    22.475     6.746
   6   6 C     -0.029  1.027  3.001  0.000    21.049     6.525
   7   6 C     -0.162  0.977  3.185  0.000    23.671     6.931
   8   6 C     -0.151  0.979  3.172  0.000    23.464     6.904
   9   1 H      0.184  0.816  0.000  0.000     1.193     1.711
  10   1 H      0.054  0.946  0.000  0.000     2.271     2.356
  11   1 H      0.056  0.944  0.000  0.000     2.251     2.346
  12   1 H      0.063  0.937  0.000  0.000     2.158     2.297
  13   1 H      0.059  0.941  0.000  0.000     2.214     2.327
  14   1 H      0.052  0.948  0.000  0.000     2.295     2.369
  15   1 H      0.059  0.941  0.000  0.000     2.206     2.323
  16   1 H      0.059  0.941  0.000  0.000     2.205     2.322
  17   1 H      0.047  0.953  0.000  0.000     2.351     2.398
  18   1 H      0.048  0.952  0.000  0.000     2.345     2.395
  19   1 H      0.052  0.948  0.000  0.000     2.290     2.366
  20   7 N     -0.178  1.200  3.978  0.000    24.854     7.404
  21   6 C     -0.000  1.033  2.968  0.000    20.577     6.457
  22   6 C      0.253  1.040  2.707  0.000    22.742     7.810
  23   8 O     -0.502  1.763  4.739  0.000    23.829     6.545
  24   6 C     -0.109  1.016  3.093  0.000    22.575     6.762
  25   6 C     -0.113  1.016  3.097  0.000    22.646     6.774
  26   6 C     -0.050  1.013  3.037  0.000    21.527     6.616
  27   7 N     -0.144  1.182  3.962  0.000    24.120     7.294
  28   6 C      0.222  1.022  2.756  0.000    23.313     7.905
  29   7 N     -0.267  1.171  4.096  0.000    26.912     7.705
  30   7 N     -0.264  1.175  4.089  0.000    26.838     7.694
  31   1 H      0.204  0.796  0.000  0.000     1.083     1.630
  32   1 H      0.114  0.886  0.000  0.000     1.666     2.018
  33   1 H      0.083  0.917  0.000  0.000     1.947     2.182
  34   1 H      0.075  0.925  0.000  0.000     2.035     2.231
  35   1 H      0.094  0.906  0.000  0.000     1.840     2.121
  36   1 H      0.086  0.914  0.000  0.000     1.913     2.163
  37   1 H      0.111  0.889  0.000  0.000     1.688     2.032
  38   1 H      0.098  0.902  0.000  0.000     1.801     2.098
  39   1 H      0.242  0.758  0.000  0.000     0.916     1.499
  40   1 H      0.247  0.753  0.000  0.000     0.894     1.481
  41   1 H      0.252  0.748  0.000  0.000     0.876     1.466
  42   1 H      0.254  0.746  0.000  0.000     0.866     1.458
  43   1 H      0.257  0.743  0.000  0.000     0.855     1.449
  44   7 N     -0.191  1.206  3.986  0.000    25.148     7.448
  45   6 C      0.001  1.047  2.953  0.000    20.572     6.457
  46   6 C      0.268  1.045  2.686  0.000    22.467     7.762
  47   8 O     -0.512  1.771  4.741  0.000    24.055     6.576
  48   6 C     -0.042  1.048  2.994  0.000    21.285     6.562
  49   6 C     -0.103  1.013  3.091  0.000    22.467     6.747
  50   6 C     -0.148  0.981  3.166  0.000    23.391     6.894
  51   6 C     -0.166  0.976  3.190  0.000    23.759     6.947
  52   1 H      0.233  0.767  0.000  0.000     0.951     1.528
  53   1 H      0.108  0.892  0.000  0.000     1.711     2.045
  54   1 H      0.071  0.929  0.000  0.000     2.077     2.254
  55   1 H      0.069  0.931  0.000  0.000     2.091     2.261
  56   1 H      0.073  0.927  0.000  0.000     2.054     2.241
  57   1 H      0.065  0.935  0.000  0.000     2.144     2.289
  58   1 H      0.040  0.960  0.000  0.000     2.452     2.448
  59   1 H      0.062  0.938  0.000  0.000     2.179     2.308
  60   1 H      0.075  0.925  0.000  0.000     2.032     2.229
  61   1 H      0.058  0.942  0.000  0.000     2.225     2.332
  62   1 H      0.058  0.942  0.000  0.000     2.217     2.328
  63   7 N     -0.173  1.198  3.976  0.000    24.751     7.389
  64   6 C      0.019  1.039  2.942  0.000    20.259     6.410
  65   6 C      0.206  1.087  2.707  0.000    23.620     7.959
  66   8 O     -0.358  1.762  4.595  0.000    20.851     6.122
  67   6 C     -0.139  1.021  3.117  0.000    23.153     6.848
  68   6 C      0.275  1.036  2.689  0.000    22.348     7.740
  69   8 O     -0.500  1.760  4.740  0.000    23.786     6.539
  70   7 N     -0.297  1.197  4.099  0.000    27.647     7.809
  71   1 H      0.226  0.774  0.000  0.000     0.984     1.554
  72   1 H      0.108  0.892  0.000  0.000     1.709     2.044
  73   1 H      0.110  0.890  0.000  0.000     1.699     2.038
  74   1 H      0.130  0.870  0.000  0.000     1.538     1.939
  75   1 H      0.247  0.753  0.000  0.000     0.894     1.481
  76   1 H      0.245  0.755  0.000  0.000     0.901     1.487
  77   7 N     -0.427  1.291  4.136  0.000    31.138     8.288
  78   6 C      0.020  1.035  2.945  0.000    20.245     6.408
  79   6 C      0.266  1.048  2.686  0.000    22.515     7.770
  80   8 O     -0.518  1.754  4.764  0.000    24.197     6.595
  81   6 C     -0.162  0.982  3.179  0.000    23.671     6.934
  82   1 H      0.192  0.808  0.000  0.000     1.147     1.678
  83   1 H      0.061  0.939  0.000  0.000     2.189     2.314
  84   1 H      0.069  0.931  0.000  0.000     2.094     2.263
  85   1 H      0.072  0.928  0.000  0.000     2.067     2.248
  86   1 H      0.070  0.930  0.000  0.000     2.088     2.259
  87   7 N     -0.171  1.209  3.962  0.000    24.703     7.382
  88   6 C      0.001  1.033  2.966  0.000    20.556     6.455
  89   6 C      0.257  1.049  2.694  0.000    22.676     7.798
  90   8 O     -0.493  1.759  4.734  0.000    23.620     6.516
  91   6 C     -0.105  1.008  3.097  0.000    22.481     6.747
  92   6 C     -0.119  1.011  3.108  0.000    22.772     6.792
  93   6 C     -0.128  1.016  3.112  0.000    22.949     6.819
  94   6 C     -0.085  1.012  3.073  0.000    22.193     6.720
  95   7 N     -0.120  1.132  3.987  0.000    23.592     7.214
  96   1 H      0.232  0.768  0.000  0.000     0.956     1.531
  97   1 H      0.090  0.910  0.000  0.000     1.874     2.141
  98   1 H      0.094  0.906  0.000  0.000     1.845     2.124
  99   1 H      0.089  0.911  0.000  0.000     1.888     2.148
 100   1 H      0.096  0.904  0.000  0.000     1.819     2.109
 101   1 H      0.059  0.941  0.000  0.000     2.210     2.325
 102   1 H      0.095  0.905  0.000  0.000     1.828     2.114
 103   1 H      0.116  0.884  0.000  0.000     1.646     2.006
 104   1 H      0.142  0.858  0.000  0.000     1.444     1.879
 105   1 H      0.127  0.873  0.000  0.000     1.557     1.951
 106   1 H      0.296  0.704  0.000  0.000     0.724     1.332
 107   1 H      0.260  0.740  0.000  0.000     0.844     1.439
 108   1 H      0.279  0.721  0.000  0.000     0.779     1.382
 109   7 N     -0.200  1.218  3.982  0.000    25.353     7.478
 110   6 C      0.033  1.039  2.928  0.000    20.017     6.370
 111   6 C      0.278  1.048  2.674  0.000    22.294     7.732
 112   8 O     -0.511  1.766  4.746  0.000    24.039     6.574
 113   6 C     -0.120  1.021  3.100  0.000    22.785     6.793
 114   6 C      0.374  1.019  2.607  0.000    20.664     7.439
 115   8 O     -0.653  1.778  4.875  0.000    27.448     7.024
 116   8 O     -0.647  1.775  4.873  0.000    27.312     7.007
 117   1 H      0.220  0.780  0.000  0.000     1.011     1.575
 118   1 H      0.088  0.912  0.000  0.000     1.901     2.156
 119   1 H      0.064  0.936  0.000  0.000     2.153     2.294
 120   1 H      0.054  0.946  0.000  0.000     2.274     2.358
 121   7 N     -0.201  1.216  3.985  0.000    25.370     7.481
 122   6 C      0.029  1.039  2.932  0.000    20.092     6.383
 123   6 C      0.259  1.045  2.695  0.000    22.630     7.790
 124   8 O     -0.476  1.737  4.738  0.000    23.249     6.465
 125   6 C     -0.124  1.022  3.102  0.000    22.866     6.806
 126   6 C      0.367  1.020  2.614  0.000    20.785     7.461
 127   8 O     -0.634  1.768  4.866  0.000    26.968     6.963
 128   8 O     -0.665  1.791  4.874  0.000    27.774     7.066
 129   1 H      0.221  0.779  0.000  0.000     1.005     1.570
 130   1 H      0.061  0.939  0.000  0.000     2.182     2.310
 131   1 H      0.061  0.939  0.000  0.000     2.186     2.312
 132   1 H      0.083  0.917  0.000  0.000     1.950     2.183
 133   7 N     -0.192  1.216  3.976  0.000    25.174     7.452
 134   6 C      0.005  1.046  2.948  0.000    20.492     6.446
 135   6 C      0.275  1.039  2.686  0.000    22.349     7.741
 136   8 O     -0.464  1.730  4.734  0.000    23.007     6.431
 137   6 C     -0.169  0.986  3.183  0.000    23.818     6.955
 138   1 H      0.219  0.781  0.000  0.000     1.013     1.577
 139   1 H      0.112  0.888  0.000  0.000     1.676     2.025
 140   1 H      0.101  0.899  0.000  0.000     1.779     2.085
 141   1 H      0.093  0.907  0.000  0.000     1.848     2.126
 142   1 H      0.069  0.931  0.000  0.000     2.101     2.267
 143   7 N     -0.190  1.205  3.986  0.000    25.130     7.445
 144   6 C      0.011  1.040  2.950  0.000    20.401     6.431
 145   6 C      0.270  1.042  2.689  0.000    22.445     7.758
 146   8 O     -0.486  1.749  4.737  0.000    23.476     6.496
 147   6 C     -0.162  0.981  3.181  0.000    23.684     6.935
 148   1 H      0.206  0.794  0.000  0.000     1.075     1.624
 149   1 H      0.104  0.896  0.000  0.000     1.752     2.070
 150   1 H      0.085  0.915  0.000  0.000     1.927     2.170
 151   1 H      0.089  0.911  0.000  0.000     1.887     2.148
 152   1 H      0.059  0.941  0.000  0.000     2.205     2.322
 153   7 N     -0.170  1.202  3.968  0.000    24.673     7.377
 154   6 C     -0.039  1.005  3.034  0.000    21.328     6.584
 155   6 C      0.284  1.035  2.681  0.000    22.195     7.715
 156   8 O     -0.512  1.763  4.749  0.000    24.048     6.575
 157   1 H      0.217  0.783  0.000  0.000     1.024     1.585
 158   1 H      0.091  0.909  0.000  0.000     1.865     2.135
 159   1 H      0.098  0.902  0.000  0.000     1.799     2.097
 160   7 N     -0.181  1.201  3.980  0.000    24.927     7.415
 161   6 C      0.012  1.029  2.959  0.000    20.358     6.422
 162   6 C      0.273  1.036  2.691  0.000    22.392     7.750
 163   8 O     -0.523  1.757  4.765  0.000    24.289     6.608
 164   6 C     -0.097  1.009  3.088  0.000    22.331     6.725
 165   6 C     -0.141  1.013  3.128  0.000    23.188     6.853
 166   6 C      0.281  1.032  2.687  0.000    22.246     7.723
 167   8 O     -0.515  1.767  4.748  0.000    24.108     6.583
 168   7 N     -0.281  1.189  4.092  0.000    27.253     7.753
 169   1 H      0.226  0.774  0.000  0.000     0.982     1.552
 170   1 H      0.105  0.895  0.000  0.000     1.742     2.064
 171   1 H      0.091  0.909  0.000  0.000     1.864     2.135
 172   1 H      0.094  0.906  0.000  0.000     1.840     2.121
 173   1 H      0.089  0.911  0.000  0.000     1.883     2.146
 174   1 H      0.108  0.892  0.000  0.000     1.713     2.046
 175   1 H      0.236  0.764  0.000  0.000     0.938     1.517
 176   1 H      0.229  0.771  0.000  0.000     0.969     1.542
 177   7 N     -0.184  1.216  3.968  0.000    24.988     7.424
 178   6 C      0.026  1.034  2.940  0.000    20.138     6.389
 179   6 C      0.211  1.088  2.701  0.000    23.540     7.946
 180   8 O     -0.381  1.761  4.620  0.000    21.304     6.188
 181   6 C     -0.164  0.983  3.181  0.000    23.713     6.939
 182   1 H      0.242  0.758  0.000  0.000     0.916     1.499
 183   1 H      0.109  0.891  0.000  0.000     1.704     2.041
 184   1 H      0.085  0.915  0.000  0.000     1.923     2.168
 185   1 H      0.096  0.904  0.000  0.000     1.825     2.112
 186   1 H      0.081  0.919  0.000  0.000     1.973     2.196
 187   7 N     -0.416  1.288  4.128  0.000    30.833     8.247
 188   6 C      0.014  1.045  2.941  0.000    20.355     6.426
 189   6 C      0.197  1.094  2.709  0.000    23.801     7.989
 190   8 O     -0.369  1.760  4.609  0.000    21.066     6.154
 191   6 C     -0.045  1.048  2.997  0.000    21.334     6.569
 192   6 C     -0.081  1.000  3.080  0.000    22.027     6.680
 193   6 C     -0.165  0.978  3.187  0.000    23.738     6.943
 194   6 C     -0.144  0.971  3.173  0.000    23.309     6.880
 195   1 H      0.186  0.814  0.000  0.000     1.179     1.700
 196   1 H      0.076  0.924  0.000  0.000     2.019     2.222
 197   1 H      0.053  0.947  0.000  0.000     2.279     2.361
 198   1 H      0.050  0.950  0.000  0.000     2.322     2.383
 199   1 H      0.045  0.955  0.000  0.000     2.378     2.411
 200   1 H      0.069  0.931  0.000  0.000     2.094     2.262
 201   1 H      0.058  0.942  0.000  0.000     2.227     2.334
 202   1 H      0.063  0.937  0.000  0.000     2.164     2.300
 203   1 H      0.046  0.954  0.000  0.000     2.375     2.410
 204   1 H      0.048  0.952  0.000  0.000     2.346     2.395
 205   1 H      0.056  0.944  0.000  0.000     2.244     2.342
 206   1 H      0.180  0.820  0.000  0.000     1.212     1.724
 207   1 H      0.081  0.919  0.000  0.000     1.970     2.195
 208   1 H      0.174  0.826  0.000  0.000     1.246     1.748
 209   1 H      0.065  0.935  0.000  0.000     2.143     2.289
 210   1 H      0.181  0.819  0.000  0.000     1.208     1.722
 211   1 H      0.076  0.924  0.000  0.000     2.016     2.220

 Mol. C6AA /au·bohr⁶  :     395997.770420
 Mol. C8AA /au·bohr⁸  :    8742523.395398
 Mol. α(0) /au        :        935.657420

 
molecular dipole:
                 x           y           z       tot (Debye)
 q only:       12.153      34.939      18.539
   full:       10.279      34.155      19.136     102.887
molecular quadrupole (traceless):
                xx          xy          yy          xz          yz          zz
 q only:    -3820.229   13132.926    -866.386   11711.678   18549.650    4686.615
  q+dip:    -4726.719   12581.861    -794.647   11086.616   18304.229    5521.367
   full:    -4726.737   12581.146    -794.709   11086.236   18304.385    5521.446
speedup  1.00
cpu  time for grad    2.65 s
wall time for grad    2.65 s

SCC energy    :    -332.1431657
rep           :       6.9803404
ES            :       1.3619753
AES           :      -0.0367883
AXC           :       0.0447729
disp          :      -0.2489006
XB            :       0.0000000
fix           :       0.0000000
Gborn         :       0.0000000
Gsasa         :       0.0000000
Ghb           :       0.0000000
Gshift        :       0.0000000
Gsolv         :      -0.4432452     -278.14
Etot ala COSMO:    -332.1431657
grad norm     :       1.8909574
total E       :    -325.1446233
atomizationE  :      56.9364874    35728.19
(atE without considering molecular charge,
 total energy contains solvation terms)
H-L gap (eV)  :          1.7874

------------------------------------------------------------------------
 * finished run on 2019/03/07 at 11:37:48.678     
------------------------------------------------------------------------
 total:
 * wall-time:     0 d,  0 h,  0 min,  3.090 sec
 *  cpu-time:     0 d,  0 h,  0 min,  2.909 sec
 * ratio c/w:     0.942 speedup
 SCF:
 * wall-time:     0 d,  0 h,  0 min,  2.861 sec
 *  cpu-time:     0 d,  0 h,  0 min,  2.859 sec
 * ratio c/w:     1.000 speedup

