      -----------------------------------------------------------      
     |                   =====================                   |     
     |                           x T B                           |     
     |                   =====================                   |     
     |                         S. Grimme                         |     
     |          Mulliken Center for Theoretical Chemistry        |     
     |                    University of Bonn                     |     
     |                 Version 6.0.1 (SAW181210)                 |     
      -----------------------------------------------------------      

   This program is distributed in the hope that it will be useful,
   but WITHOUT ANY WARRANTY; without even the implied warranty of
   MERCHANTABILITY or FITNESS FOR A PARTICULAR PURPOSE.
   
   FOR NON-COMMERCIAL, ACADEMIA USE ONLY.
   
   Cite this work as:
   S. Grimme, C. Bannwarth, P. Shushkov, J. Comput. Theory Chem., 2017,
   13, 1989-2009.
   C. Bannwarth, S. Ehlert and S. Grimme., ChemRxiv, 2018, preprint.
   http://doi.org/10.26434/chemrxiv.7246238.v1
   
   for sTDA-xTB:
   S. Grimme and C. Bannwarth, J. Chem. Phys., 2016, 145, 054103.
   
   in the mass-spec context:
   V. Asgeirsson, C. Bauer and S. Grimme, Chem. Sci., 2017, 8, 4879.
   
   if GBSA is used:
   P. Shushkov, F. März and S. Grimme, unpublished.
   
   for ANC optimizer:
   S. Grimme, unpublished.
   Rational Function algorithm used in ANCopt:
   F. Eckert, P. Pulay, H.-J. Werner, J. Comput. Chem., 1997, 18, 1473.
   
   with help from (in alphabetical order)
   C. Bannwarth, F. Bohle, G. Brandenburg, E. Caldeweyher, M. Checinski,
   S. Dohm, S. Ehlert, S. Ehrlich, F. März, H. Neugebauer, J. Pisarek,
   P. Pracht, P. Shushkov, and S. Spicher.
   
 * started run on 2019/03/15 at 00:15:17.768     
========================================================================
 # omp threads = 1
========================================================================
number of atoms            : 414
number of electrons        : 1126
charge                     : -1
spin                       : .0
first test random number   : .6107
           ------------------------------------------------- 
          |                 G F N 2 - x T B                 |
          | Geometry, Frequencies, Noncovalent interactions |
          |            JCTC 2018 parametrisation            |
           ------------------------------------------------- 
 
      method parameters     
 k(s)        :  1.8500
 k(p)        :  2.2300
 k(d)        :  2.2300
 k(f)        :  2.0000
 kEN (H0ij)  : -2.0000
 D4 a1       :  0.5200
 D4 a2       :  5.0000
 D4 s6       :  1.0000
 D4 s8       :  2.7000
 D4 s9       :  5.0000
 alphaj      :  2.0000

 Solvent             : h2o
 Using internal parameter file: .param_gbsa2_h2o
 Gsolv ref. state (COSMO-RS): gsolv [1 M gas/solution]
 temperature (mdtemp)       :    298.150000000000     
 dielectric constant        :    80.2000000000000     
 rho                        :    1.00000000000000     
 mass                       :    18.0000000000000     
 surface tension            :    15.5689454083859     
 probe radius               :   0.975313790000000     
 vdW radii scaling          :    1.00000000000000     
 Gshift (Eh)                :   1.857443126794793E-003
 c1                         :    1.55243817000000     
 soset                      :   0.130326360000000     
 HB correction              :  T

            Z     q(EN)     CN     RAES       Cart. coordinates
     1  N   5.0   -0.22    3.29    1.98    41.67939    28.25575    28.69049
     2  C   4.0    0.02    4.44    4.44    39.36101    29.63299    28.92812
     3  C   4.0    0.14    3.51    3.12    38.79482    29.84687    31.70293
     4  O   6.0   -0.32    1.30    1.80    38.46176    31.90306    32.69006
     5  C   4.0   -0.05    4.42    4.42    37.29621    28.72130    27.20590
     6  C   4.0   -0.02    3.65    3.20    37.23119    29.90310    24.67792
     7  C   4.0   -0.05    3.58    3.16    38.15563    28.70624    22.56032
     8  C   4.0   -0.04    3.59    3.16    36.36702    32.33228    24.33297
     9  C   4.0   -0.05    3.48    3.11    38.23609    29.84475    20.29797
    10  C   4.0   -0.04    3.48    3.11    36.45038    33.47399    22.06309
    11  C   4.0   -0.04    3.49    3.11    37.38952    32.24086    20.03074
    12  H   1.0    0.08    1.07    1.44    41.42298    26.53300    28.43943
    13  H   1.0    0.05    1.14    1.45    39.55421    31.44912    28.27818
    14  H   1.0    0.03    1.09    1.44    37.47028    26.81610    27.00223
    15  H   1.0    0.04    1.08    1.44    35.58952    28.98551    28.06267
    16  H   1.0    0.04    1.08    1.44    38.78503    26.91658    22.77073
    17  H   1.0    0.04    1.08    1.44    35.66544    33.22999    25.86544
    18  H   1.0    0.04    1.07    1.44    38.93627    28.90161    18.78231
    19  H   1.0    0.05    1.07    1.44    35.80707    35.27102    21.87384
    20  H   1.0    0.05    1.07    1.44    37.45855    33.09873    18.31737
    21  N   5.0   -0.16    3.80    2.42    38.65633    27.76916    33.01583
    22  C   4.0    0.04    4.49    4.53    38.04176    27.76650    35.63835
    23  C   4.0    0.08    3.20    3.04    39.85233    28.59215    37.73304
    24  O   6.0   -0.30    1.12    1.80    39.12202    28.74686    39.91907
    25  C   4.0   -0.04    4.55    4.60    36.96397    25.19233    36.07849
    26  C   4.0   -0.03    4.45    4.47    35.78862    24.02764    33.75712
    27  C   4.0   -0.09    4.25    4.10    34.20031    21.81609    34.38882
    28  C   4.0   -0.08    4.40    4.39    34.26822    25.92947    32.38305
    29  H   1.0    0.07    1.18    1.46    38.85899    26.15862    32.33434
    30  H   1.0    0.07    1.15    1.45    36.89589    29.32555    35.83406
    31  H   1.0    0.04    1.08    1.44    38.35808    24.03811    36.76548
    32  H   1.0    0.05    1.08    1.44    35.64015    25.24485    37.48091
    33  H   1.0    0.03    1.13    1.45    37.23881    23.43669    32.60408
    34  H   1.0    0.03    1.04    1.43    33.42820    21.03431    32.81443
    35  H   1.0    0.03    1.04    1.43    35.20897    20.45518    35.28810
    36  H   1.0    0.05    1.05    1.44    32.76118    22.34784    35.54389
    37  H   1.0    0.03    1.04    1.43    33.50328    25.19909    30.78597
    38  H   1.0    0.06    1.05    1.44    32.84070    26.56102    33.49715
    39  H   1.0    0.05    1.14    1.45    35.32108    27.44810    31.87959
    40  N   5.0   -0.20    3.34    2.00    39.26208    41.97055    35.97001
    41  C   4.0    0.03    4.41    4.40    37.18533    43.70671    35.77240
    42  C   4.0    0.07    3.24    3.04    37.31861    45.83660    37.67490
    43  O   6.0   -0.29    1.15    1.80    37.90961    45.38699    39.81189
    44  C   4.0   -0.04    4.49    4.52    34.74625    42.34683    36.11129
    45  C   4.0   -0.03    3.97    3.57    34.73297    40.26892    34.37476
    46  C   4.0   -0.01    3.86    3.40    35.81920    38.03386    34.66647
    47  C   4.0    0.00    4.08    3.76    34.08556    40.44806    31.79376
    48  N   5.0   -0.12    3.63    2.19    35.92877    36.81417    32.55341
    49  C   4.0    0.03    4.06    3.73    34.88942    38.18612    30.68188
    50  C   4.0   -0.05    3.54    3.13    32.94491    42.21631    30.25760
    51  C   4.0   -0.06    3.53    3.13    34.52529    37.78389    28.14333
    52  C   4.0   -0.04    3.51    3.12    32.63520    41.75117    27.83223
    53  C   4.0   -0.05    3.52    3.12    33.42131    39.54537    26.78367
    54  H   1.0    0.09    1.12    1.45    38.78721    40.28383    36.13404
    55  H   1.0    0.03    1.11    1.45    37.32841    44.48256    34.00199
    56  H   1.0    0.05    1.08    1.44    34.56097    41.72257    37.92337
    57  H   1.0    0.03    1.08    1.44    33.23392    43.49576    35.80670
    58  H   1.0    0.05    1.06    1.44    36.46237    37.39087    36.34945
    59  H   1.0    0.10    1.12    1.45    36.63042    35.19619    32.30047
    60  H   1.0    0.05    1.08    1.44    32.36343    43.85372    31.04105
    61  H   1.0    0.05    1.08    1.44    35.11710    36.14039    27.38599
    62  H   1.0    0.05    1.08    1.44    31.79468    43.05859    26.71680
    63  H   1.0    0.05    1.08    1.44    33.15077    39.25111    24.91382
    64  N   5.0   -0.14    3.49    2.07    39.40136    38.99227    45.54950
    65  C   4.0    0.03    4.64    4.71    37.89768    37.09432    44.22806
    66  C   4.0    0.15    3.47    3.10    35.09956    37.57799    44.50728
    67  O   6.0   -0.30    1.28    1.80    34.27333    38.51452    46.39047
    68  C   4.0   -0.04    4.56    4.61    38.64459    34.68249    45.47071
    69  C   4.0   -0.04    4.48    4.51    38.97707    35.44434    48.07657
    70  C   4.0   -0.01    4.43    4.42    40.42613    37.82729    47.81864
    71  H   1.0    0.04    1.10    1.44    38.23024    37.11462    42.31590
    72  H   1.0    0.04    1.07    1.44    37.32879    33.28411    45.23808
    73  H   1.0    0.04    1.07    1.44    40.27216    33.93254    44.73407
    74  H   1.0    0.05    1.08    1.44    37.26953    35.71263    48.95804
    75  H   1.0    0.03    1.07    1.44    39.86222    34.10053    49.15439
    76  H   1.0    0.04    1.06    1.44    40.27215    38.98784    49.36293
    77  H   1.0    0.03    1.06    1.44    42.33443    37.50601    47.66721
    78  N   5.0   -0.16    3.50    2.08    33.62851    36.90344    42.58353
    79  C   4.0    0.04    4.51    4.56    30.95675    37.20358    42.60151
    80  C   4.0    0.15    3.55    3.14    29.58767    34.85345    41.71263
    81  O   6.0   -0.30    1.30    1.80    28.69881    33.35138    43.23744
    82  C   4.0    0.03    4.32    4.24    30.07970    39.45864    41.12520
    83  O   6.0   -0.27    2.13    1.84    27.47601    39.43476    40.86787
    84  H   1.0    0.08    1.11    1.45    34.25049    36.19655    41.09953
    85  H   1.0    0.07    1.13    1.45    30.47957    37.49268    44.46222
    86  H   1.0    0.05    1.05    1.44    30.66637    41.09046    41.98009
    87  H   1.0    0.03    1.08    1.44    30.95995    39.46788    39.40596
    88  H   1.0    0.12    1.06    1.44    27.04383    40.39617    39.52401
    89  N   5.0   -0.10    3.74    2.33    29.43589    34.47396    39.21352
    90  C   4.0    0.04    4.74    4.80    28.14579    32.21296    38.31424
    91  C   4.0    0.17    3.49    3.11    29.60335    29.78217    38.86518
    92  O   6.0   -0.30    1.30    1.80    30.74953    28.74317    37.17133
    93  C   4.0   -0.04    4.56    4.61    27.92599    32.66363    35.55995
    94  C   4.0   -0.04    4.48    4.50    30.41600    33.81198    35.00532
    95  C   4.0   -0.02    4.52    4.57    30.72361    35.66146    37.09277
    96  H   1.0    0.07    1.10    1.44    26.44518    31.95228    39.21743
    97  H   1.0    0.05    1.07    1.44    27.55117    31.04724    34.55663
    98  H   1.0    0.04    1.08    1.44    26.45325    33.83921    35.10170
    99  H   1.0    0.06    1.07    1.44    31.82692    32.47525    34.99804
   100  H   1.0    0.04    1.06    1.44    30.51862    34.60768    33.24102
   101  H   1.0    0.04    1.07    1.44    32.57764    36.06134    37.49744
   102  H   1.0    0.04    1.07    1.44    29.95792    37.38964    36.64855
   103  N   5.0   -0.13    3.55    2.11    29.61301    28.86615    41.19613
   104  C   4.0    0.03    4.52    4.57    30.92640    26.60718    41.91572
   105  C   4.0    0.15    3.47    3.10    29.77216    24.26552    40.72672
   106  O   6.0   -0.27    1.28    1.80    27.96520    24.45153    39.35466
   107  C   4.0   -0.04    4.46    4.48    31.07662    26.30077    44.71388
   108  C   4.0   -0.03    4.39    4.36    32.76482    28.08040    46.01797
   109  C   4.0    0.16    3.29    3.05    32.89506    27.78798    48.84138
   110  O   6.0   -0.30    1.27    1.80    31.53937    26.20118    49.84909
   111  N   5.0   -0.21    3.28    1.98    34.36927    29.16896    49.98299
   112  H   1.0    0.11    1.14    1.45    28.73592    29.63039    42.51707
   113  H   1.0    0.05    1.12    1.45    32.71342    26.78385    41.17929
   114  H   1.0    0.06    1.08    1.44    29.29807    26.46308    45.45318
   115  H   1.0    0.05    1.09    1.44    31.61573    24.49553    45.14746
   116  H   1.0    0.04    1.08    1.44    34.54174    27.91611    45.28065
   117  H   1.0    0.05    1.08    1.44    32.22245    29.88545    45.59328
   118  H   1.0    0.08    1.07    1.44    35.42247    30.40172    49.21426
   119  H   1.0    0.10    1.07    1.44    34.58710    29.13433    51.76380
   120  N   5.0   -0.17    3.52    2.09    30.80666    22.03629    41.30233
   121  C   4.0    0.03    4.57    4.63    29.89611    19.64771    40.35894
   122  C   4.0    0.16    3.50    3.11    27.17021    19.02802    41.06249
   123  O   6.0   -0.31    1.30    1.80    25.98985    17.45697    39.91334
   124  C   4.0   -0.03    4.39    4.36    31.57703    17.37930    41.01110
   125  C   4.0   -0.07    4.33    4.25    30.32907    14.96497    40.34282
   126  C   4.0   -0.09    4.25    4.09    34.07608    17.55274    39.74924
   127  H   1.0    0.08    1.11    1.45    32.19511    21.87976    42.37101
   128  H   1.0    0.05    1.12    1.45    29.92734    19.90209    38.43507
   129  H   1.0    0.04    1.11    1.45    31.84707    17.41712    42.93552
   130  H   1.0    0.03    1.04    1.43    31.40990    13.45541    40.82294
   131  H   1.0    0.06    1.07    1.44    28.63503    14.77398    41.22664
   132  H   1.0    0.04    1.05    1.44    30.00884    14.88609    38.45127
   133  H   1.0    0.03    1.04    1.43    35.20801    16.07391    40.22025
   134  H   1.0    0.03    1.04    1.44    33.85966    17.53707    37.84265
   135  H   1.0    0.04    1.04    1.43    35.00021    19.16777    40.22066
   136  N   5.0   -0.13    3.54    2.10    26.18184    20.28706    42.99748
   137  C   4.0    0.04    4.57    4.63    23.66097    19.93518    43.92127
   138  C   4.0    0.15    3.45    3.10    21.91868    22.21431    43.53452
   139  O   6.0   -0.27    1.24    1.80    20.05170    22.14527    42.23122
   140  C   4.0    0.05    4.36    4.31    23.62259    19.11976    46.66025
   141  O   6.0   -0.27    2.17    1.85    25.25813    17.03769    46.94337
   142  C   4.0   -0.08    4.21    4.03    21.02798    18.52975    47.54775
   143  H   1.0    0.09    1.12    1.45    27.08490    21.51061    43.88039
   144  H   1.0    0.07    1.13    1.45    22.93530    18.49798    42.83547
   145  H   1.0    0.04    1.10    1.44    24.27409    20.62228    47.71146
   146  H   1.0    0.12    1.06    1.44    25.27525    16.57936    48.58774
   147  H   1.0    0.04    1.04    1.43    21.01784    18.03784    49.40350
   148  H   1.0    0.05    1.04    1.43    19.84418    20.02493    47.33195
   149  H   1.0    0.05    1.04    1.43    20.30161    17.06068    46.54614
   150  N   5.0   -0.15    3.57    2.13    22.60008    24.27361    44.78827
   151  C   4.0    0.03    4.59    4.65    21.31584    26.66346    44.68455
   152  C   4.0    0.18    3.54    3.13    21.13103    27.58372    41.95191
   153  O   6.0   -0.26    1.35    1.80    23.01003    28.42310    40.94681
   154  C   4.0   -0.02    4.44    4.44    22.65281    28.66670    46.25776
   155  C   4.0   -0.08    4.26    4.11    20.91787    30.74073    46.89839
   156  C   4.0   -0.08    4.30    4.20    23.87302    27.55535    48.52680
   157  H   1.0    0.08    1.15    1.45    24.01700    24.30966    45.82652
   158  H   1.0    0.04    1.11    1.44    19.53895    26.36979    45.40655
   159  H   1.0    0.07    1.13    1.45    24.07088    29.41932    45.16455
   160  H   1.0    0.05    1.04    1.43    21.80996    32.10950    47.90441
   161  H   1.0    0.06    1.04    1.43    20.18638    31.55625    45.32112
   162  H   1.0    0.04    1.05    1.44    19.46128    30.08307    47.95587
   163  H   1.0    0.05    1.04    1.43    24.81154    28.88691    49.54389
   164  H   1.0    0.04    1.04    1.43    22.55698    26.75727    49.67057
   165  H   1.0    0.04    1.05    1.44    25.14337    26.19652    48.05151
   166  N   5.0   -0.13    3.50    2.08    18.93982    27.45163    40.74956
   167  C   4.0    0.04    4.50    4.53    18.59885    28.32027    38.18532
   168  C   4.0    0.16    3.52    3.12    19.70089    30.96918    37.91690
   169  O   6.0   -0.27    1.36    1.80    20.59426    32.04931    39.72700
   170  C   4.0   -0.05    4.43    4.43    15.89763    28.31143    37.32693
   171  C   4.0   -0.04    4.38    4.35    15.49549    28.71437    34.59522
   172  C   4.0   -0.01    4.38    4.34    12.84268    28.97285    33.74424
   173  N   5.0   -0.13    3.58    2.14    12.49329    28.77404    31.05806
   174  C   4.0    0.11    3.46    3.10    10.34747    28.97965    29.74296
   175  N   5.0   -0.19    3.47    2.06     8.40863    29.41808    30.91451
   176  N   5.0   -0.18    3.43    2.03    10.35968    28.75836    27.45880
   177  H   1.0    0.09    1.11    1.44    17.48032    26.79084    41.47882
   178  H   1.0    0.08    1.11    1.45    19.58481    27.09915    37.03876
   179  H   1.0    0.05    1.09    1.44    15.06607    26.64619    37.83988
   180  H   1.0    0.05    1.08    1.44    14.93359    29.66662    38.30606
   181  H   1.0    0.05    1.14    1.45    16.47621    30.28187    34.05330
   182  H   1.0    0.08    1.08    1.44    16.33259    27.26763    33.62234
   183  H   1.0    0.04    1.13    1.45    11.76203    27.64360    34.62804
   184  H   1.0    0.04    1.09    1.44    12.12840    30.65831    34.35567
   185  H   1.0    0.11    1.13    1.45    13.96891    28.43291    30.14665
   186  H   1.0    0.08    1.07    1.44     8.26676    29.60871    32.71438
   187  H   1.0    0.08    1.07    1.44     6.78299    29.60348    30.15591
   188  H   1.0    0.10    1.07    1.44    11.81532    28.40575    26.42181
   189  H   1.0    0.08    1.07    1.44     8.89585    28.88800    26.40751
   190  N   5.0   -0.15    3.56    2.13    19.59602    32.09734    35.67878
   191  C   4.0    0.04    4.52    4.56    20.53063    34.60402    35.19415
   192  C   4.0    0.15    3.57    3.15    18.63607    36.61712    35.99535
   193  O   6.0   -0.29    1.37    1.80    16.46930    36.44317    35.18447
   194  C   4.0   -0.04    4.46    4.47    21.15806    34.96739    32.46775
   195  C   4.0   -0.02    3.67    3.21    22.58179    37.29106    31.80830
   196  C   4.0   -0.05    3.64    3.19    24.92093    37.80302    32.80136
   197  C   4.0   -0.03    3.65    3.20    21.74753    38.96910    30.02689
   198  C   4.0   -0.05    3.52    3.12    26.29015    39.77416    32.05909
   199  C   4.0   -0.04    3.52    3.13    23.12842    40.93561    29.29084
   200  C   4.0   -0.04    3.53    3.13    25.41016    41.35276    30.29231
   201  H   1.0    0.09    1.15    1.45    18.90144    31.31905    34.26357
   202  H   1.0    0.05    1.12    1.45    22.13137    34.82333    36.26073
   203  H   1.0    0.05    1.08    1.44    22.14551    33.43261    31.83348
   204  H   1.0    0.05    1.09    1.44    19.51132    34.93303    31.46017
   205  H   1.0    0.04    1.09    1.44    25.57734    36.61179    34.13413
   206  H   1.0    0.05    1.12    1.45    20.02509    38.65214    29.28620
   207  H   1.0    0.05    1.08    1.44    28.01526    40.08187    32.83048
   208  H   1.0    0.05    1.08    1.44    22.44784    42.13006    27.95672
   209  H   1.0    0.05    1.07    1.44    26.45964    42.84950    29.72395
   210  N   5.0   -0.09    3.70    2.26    19.37416    38.50619    37.52214
   211  C   4.0    0.04    4.71    4.77    17.61701    40.50026    38.29578
   212  C   4.0    0.17    3.50    3.12    15.60082    41.01203    36.30851
   213  O   6.0   -0.28    1.35    1.80    16.07906    40.80342    34.08940
   214  C   4.0   -0.04    4.52    4.57    19.32736    42.66467    38.85305
   215  C   4.0   -0.04    4.46    4.48    21.51129    41.42588    39.97168
   216  C   4.0   -0.01    4.50    4.53    21.90831    39.20268    38.32684
   217  H   1.0    0.05    1.11    1.44    16.58846    40.00954    39.87097
   218  H   1.0    0.06    1.07    1.44    19.79031    43.63506    37.24031
   219  H   1.0    0.06    1.07    1.44    18.52091    44.00263    39.99711
   220  H   1.0    0.04    1.08    1.44    23.05263    42.58591    40.08039
   221  H   1.0    0.05    1.07    1.44    21.16711    40.92081    41.81119
   222  H   1.0    0.04    1.07    1.44    23.05617    39.60946    36.81480
   223  H   1.0    0.05    1.06    1.44    22.81225    37.74023    39.22354
   224  N   5.0   -0.15    3.53    2.10    13.33111    41.74227    37.11822
   225  C   4.0    0.04    4.49    4.52    11.18652    42.15967    35.49969
   226  C   4.0    0.16    3.42    3.08    10.68643    44.70941    34.22787
   227  O   6.0   -0.29    1.25    1.80     9.27504    44.81621    32.42001
   228  C   4.0   -0.03    4.38    4.35     8.80542    41.27898    36.77090
   229  C   4.0    0.25    3.17    3.03     8.44537    42.35248    39.40929
   230  O   6.0   -0.30    1.25    1.80    10.19140    42.01397    40.96491
   231  O   6.0   -0.28    1.17    1.80     6.46622    43.51825    39.88975
   232  H   1.0    0.11    1.16    1.46    12.96600    42.01018    38.81995
   233  H   1.0    0.07    1.14    1.45    11.73296    41.11980    33.95202
   234  H   1.0    0.06    1.08    1.44     7.26551    41.73768    35.69972
   235  H   1.0    0.05    1.07    1.44     8.77549    39.35301    36.87775
   236  N   5.0   -0.13    3.47    2.06    11.79746    46.75460    35.14647
   237  C   4.0    0.04    4.47    4.49    11.46691    49.26667    34.14836
   238  C   4.0    0.16    3.45    3.09    13.83285    50.44759    32.98220
   239  O   6.0   -0.26    1.29    1.80    14.13741    50.59201    30.73124
   240  C   4.0    0.03    4.28    4.16    10.30864    51.04250    36.04834
   241  O   6.0   -0.25    2.08    1.84     7.68856    50.94947    36.08775
   242  H   1.0    0.10    1.11    1.45    12.87485    46.69131    36.53600
   243  H   1.0    0.08    1.13    1.45    10.22735    49.00006    32.67751
   244  H   1.0    0.05    1.06    1.44    11.02664    50.62812    37.79802
   245  H   1.0    0.04    1.06    1.44    10.91109    52.84894    35.69323
   246  H   1.0    0.13    1.06    1.44     7.10737    52.03391    37.27016
   247  N   5.0   -0.14    3.56    2.12    15.47676    51.35453    34.63961
   248  C   4.0    0.04    4.39    4.37    17.84169    52.54469    34.03158
   249  C   4.0    0.10    3.27    3.05    19.32777    51.21171    31.95032
   250  O   6.0   -0.25    1.21    1.80    18.52855    49.42079    30.84018
   251  C   4.0   -0.04    4.37    4.33    19.46634    52.84025    36.33185
   252  C   4.0    0.25    3.16    3.03    20.23584    50.33145    37.51726
   253  O   6.0   -0.30    1.19    1.80    18.53036    48.99624    38.44372
   254  O   6.0   -0.31    1.20    1.80    22.50586    49.73919    37.47925
   255  H   1.0    0.09    1.13    1.45    15.20912    51.23718    36.37374
   256  H   1.0    0.04    1.11    1.45    17.31845    54.26246    33.28795
   257  H   1.0    0.04    1.07    1.44    21.05937    53.84176    35.90091
   258  H   1.0    0.04    1.07    1.44    18.55934    53.91143    37.65739
   259  N   5.0   -0.22    3.24    1.97    27.73418    51.56871    30.91306
   260  C   4.0    0.03    4.30    4.19    30.18552    50.83459    31.88821
   261  C   4.0    0.07    3.22    3.04    32.16644    50.71741    29.82635
   262  O   6.0   -0.30    1.14    1.80    31.70121    49.71585    27.82495
   263  C   4.0   -0.05    4.37    4.33    30.06895    48.36616    33.32270
   264  C   4.0   -0.05    4.32    4.24    28.66844    48.44003    35.77220
   265  C   4.0   -0.05    4.32    4.23    27.66732    45.97369    36.64676
   266  C   4.0   -0.03    4.30    4.19    26.45086    46.04492    39.18408
   267  N   5.0   -0.14    4.16    3.33    28.09158    46.67791    41.15220
   268  H   1.0    0.09    1.06    1.44    27.66230    53.23811    30.36585
   269  H   1.0    0.03    1.11    1.44    30.70454    52.20579    33.16070
   270  H   1.0    0.05    1.08    1.44    29.24354    47.03863    32.18725
   271  H   1.0    0.03    1.07    1.44    31.85760    47.70104    33.62443
   272  H   1.0    0.04    1.08    1.44    29.81311    49.17099    37.14043
   273  H   1.0    0.06    1.08    1.44    27.21789    49.71048    35.63703
   274  H   1.0    0.05    1.07    1.44    26.44111    45.29313    35.30777
   275  H   1.0    0.03    1.08    1.44    29.10853    44.68346    36.67100
   276  H   1.0    0.07    1.10    1.44    24.96184    47.29703    39.12399
   277  H   1.0    0.04    1.08    1.44    25.59784    44.34059    39.55907
   278  H   1.0    0.06    1.07    1.44    27.39423    46.41712    42.80702
   279  H   1.0    0.06    1.07    1.44    29.62515    45.71982    41.10259
   280  H   1.0    0.06    1.07    1.44    28.59270    48.41866    41.10251
   281  N   5.0   -0.22    3.22    1.96    17.26151    42.48367    26.01909
   282  C   4.0    0.03    4.33    4.26    17.03776    39.81328    26.36912
   283  C   4.0    0.07    3.22    3.04    16.55724    38.35770    23.92148
   284  O   6.0   -0.30    1.12    1.80    17.53867    36.30234    23.54418
   285  C   4.0   -0.04    4.41    4.40    15.37657    39.03786    28.53467
   286  C   4.0   -0.04    4.40    4.38    15.16490    36.28842    29.03235
   287  C   4.0   -0.01    4.37    4.34    12.82744    35.16820    27.99363
   288  N   5.0   -0.14    3.60    2.16    10.65082    36.01965    29.33095
   289  C   4.0    0.10    3.48    3.11    10.26728    35.72748    31.82931
   290  N   5.0   -0.17    3.59    2.15    11.79654    34.61622    33.02125
   291  N   5.0   -0.19    3.45    2.05     8.35188    36.57816    32.77921
   292  H   1.0    0.11    1.07    1.44    16.22722    43.41875    27.09209
   293  H   1.0    0.04    1.17    1.46    18.80514    39.22588    26.88868
   294  H   1.0    0.07    1.09    1.44    15.96602    39.93881    30.14447
   295  H   1.0    0.05    1.09    1.44    13.60405    39.72588    28.21558
   296  H   1.0    0.05    1.08    1.44    16.72708    35.39199    28.32577
   297  H   1.0    0.06    1.11    1.45    15.24383    35.94642    30.93505
   298  H   1.0    0.05    1.07    1.44    12.69727    35.58895    26.10766
   299  H   1.0    0.05    1.07    1.44    12.90013    33.23448    28.04312
   300  H   1.0    0.08    1.11    1.45     9.42387    36.88373    28.40040
   301  H   1.0    0.09    1.10    1.44    13.37053    33.90684    32.39769
   302  H   1.0    0.09    1.08    1.44    11.71610    34.31557    34.80718
   303  H   1.0    0.08    1.06    1.44     7.03212    37.50569    31.93651
   304  H   1.0    0.08    1.08    1.44     7.95348    36.44211    34.53566
   305  N   5.0   -0.22    3.26    1.97    23.22305    37.81799    20.03758
   306  C   4.0    0.03    4.43    4.43    25.07550    36.31615    21.31813
   307  C   4.0    0.15    3.55    3.14    24.71273    33.48633    21.07267
   308  O   6.0   -0.30    1.28    1.80    26.46631    32.01787    21.22478
   309  C   4.0   -0.04    4.47    4.49    25.30779    36.90349    24.07670
   310  C   4.0   -0.00    3.78    3.31    26.37998    34.82890    25.62063
   311  C   4.0   -0.03    3.64    3.19    24.86425    33.16510    26.87445
   312  C   4.0   -0.03    3.64    3.19    28.91894    34.37949    25.70379
   313  C   4.0   -0.04    3.53    3.13    25.84918    31.19439    28.10521
   314  C   4.0   -0.04    3.52    3.12    29.88093    32.40799    26.93466
   315  C   4.0   -0.04    3.54    3.13    28.33599    30.81548    28.13302
   316  H   1.0    0.09    1.07    1.44    22.36698    38.94020    21.08864
   317  H   1.0    0.04    1.11    1.45    26.72476    36.75350    20.39548
   318  H   1.0    0.04    1.08    1.44    26.37304    38.49217    24.32561
   319  H   1.0    0.05    1.08    1.44    23.56092    37.36730    24.75506
   320  H   1.0    0.05    1.08    1.44    22.98194    33.45293    26.84727
   321  H   1.0    0.05    1.08    1.44    30.06702    35.59356    24.79237
   322  H   1.0    0.06    1.08    1.44    24.65833    29.99643    29.01131
   323  H   1.0    0.05    1.08    1.44    31.77422    32.12997    26.95162
   324  H   1.0    0.04    1.08    1.44    29.07282    29.31260    29.06731
   325  N   5.0   -0.15    3.57    2.13    22.36136    32.71091    20.80997
   326  C   4.0    0.04    4.44    4.45    21.67866    30.12837    20.52569
   327  C   4.0    0.09    3.25    3.04    21.16243    29.65441    17.75545
   328  O   6.0   -0.28    1.15    1.80    19.20103    28.77133    17.02808
   329  C   4.0   -0.03    4.41    4.40    19.52279    29.40921    22.22013
   330  C   4.0   -0.03    4.30    4.20    20.24575    28.97043    24.88686
   331  C   4.0    0.26    3.14    3.03    18.12644    28.35464    26.69531
   332  O   6.0   -0.28    1.19    1.80    16.48322    26.82889    25.97418
   333  O   6.0   -0.29    1.18    1.80    18.09755    29.41332    28.80635
   334  H   1.0    0.10    1.12    1.45    20.98172    33.80036    20.78549
   335  H   1.0    0.06    1.12    1.45    23.15368    28.99876    21.09100
   336  H   1.0    0.06    1.08    1.44    18.17558    30.79446    22.13829
   337  H   1.0    0.08    1.08    1.44    18.63867    27.83459    21.52342
   338  H   1.0    0.06    1.08    1.44    21.54278    27.53831    24.96545
   339  H   1.0    0.05    1.09    1.44    21.18876    30.51834    25.55013
   340  N   5.0   -0.19    3.35    2.00    26.55160    21.35926    20.33701
   341  C   4.0    0.03    4.34    4.28    25.35752    20.47086    22.59422
   342  C   4.0    0.09    3.22    3.04    22.51420    20.48271    22.08411
   343  O   6.0   -0.27    1.16    1.80    21.67188    21.97469    20.57584
   344  C   4.0   -0.04    4.50    4.54    26.14607    22.07934    24.78831
   345  C   4.0   -0.03    4.38    4.34    28.98019    22.25374    25.02408
   346  C   4.0   -0.09    4.24    4.09    29.85688    24.39141    26.62085
   347  C   4.0   -0.09    4.28    4.16    29.95472    19.81315    25.93489
   348  H   1.0    0.09    1.09    1.44    27.71666    22.65199    20.60033
   349  H   1.0    0.03    1.10    1.44    25.91850    18.66033    23.01691
   350  H   1.0    0.06    1.07    1.44    25.36351    23.83931    24.60886
   351  H   1.0    0.06    1.07    1.44    25.39594    21.39922    26.44033
   352  H   1.0    0.04    1.14    1.45    29.69739    22.60339    23.25473
   353  H   1.0    0.03    1.04    1.43    31.77163    24.47515    26.70731
   354  H   1.0    0.05    1.04    1.43    29.22533    26.07922    25.95419
   355  H   1.0    0.04    1.08    1.44    29.20418    24.19734    28.40829
   356  H   1.0    0.03    1.04    1.44    31.86280    19.83517    26.06803
   357  H   1.0    0.04    1.05    1.44    29.24456    19.43179    27.67365
   358  H   1.0    0.04    1.05    1.44    29.45728    18.38091    24.76075
   359  N   5.0   -0.21    3.21    1.96    13.34103    19.00296    31.91691
   360  C   4.0    0.04    4.34    4.27    13.57951    20.98342    33.76051
   361  C   4.0    0.08    3.24    3.04    14.58744    20.22501    36.38146
   362  O   6.0   -0.27    1.12    1.80    16.18777    21.44430    37.44419
   363  C   4.0    0.05    4.31    4.22    11.17355    22.56783    33.97928
   364  O   6.0   -0.26    2.20    1.86    10.91366    24.08937    31.80535
   365  C   4.0   -0.08    4.29    4.17    11.13287    24.12367    36.33445
   366  H   1.0    0.09    1.06    1.44    11.77225    18.20726    31.91966
   367  H   1.0    0.08    1.12    1.45    15.00574    22.09588    33.05283
   368  H   1.0    0.03    1.09    1.44     9.68083    21.32885    34.10857
   369  H   1.0    0.12    1.06    1.44     9.28254    24.08641    31.30640
   370  H   1.0    0.04    1.04    1.43     9.50326    25.12641    36.49070
   371  H   1.0    0.05    1.05    1.44    11.30782    23.04080    37.90882
   372  H   1.0    0.05    1.09    1.44    12.59214    25.36338    36.32897
   373  N   5.0   -0.13    3.47    2.06    22.63777    14.46618    34.03189
   374  C   4.0    0.03    4.57    4.63    24.64377    16.31084    33.56419
   375  C   4.0    0.16    3.37    3.07    23.78909    18.93018    32.58401
   376  O   6.0   -0.26    1.28    1.80    22.23188    19.11552    30.96148
   377  C   4.0   -0.05    4.52    4.56    26.38777    14.91156    31.83077
   378  C   4.0   -0.06    4.43    4.43    26.02622    12.22597    32.53076
   379  C   4.0   -0.01    4.48    4.50    23.26141    12.12814    32.73584
   380  H   1.0    0.05    1.12    1.45    25.46864    16.81561    35.24799
   381  H   1.0    0.04    1.07    1.44    25.92856    15.24428    29.97636
   382  H   1.0    0.03    1.06    1.44    28.22149    15.50779    31.97987
   383  H   1.0    0.03    1.06    1.44    26.76610    10.96687    31.25786
   384  H   1.0    0.03    1.07    1.44    26.90966    11.76668    34.19628
   385  H   1.0    0.04    1.06    1.44    22.40919    12.01825    30.99649
   386  H   1.0    0.03    1.06    1.44    22.61332    10.56626    33.67823
   387  N   5.0   -0.15    3.46    2.05    24.96878    20.88843    33.65646
   388  C   4.0    0.04    4.37    4.33    24.62724    23.56174    33.15285
   389  C   4.0    0.26    3.24    3.04    22.27588    24.37337    31.67256
   390  O   6.0   -0.28    1.18    1.80    20.80946    25.89871    32.72613
   391  C   4.0   -0.07    4.26    4.11    26.91549    24.65656    31.99529
   392  O   6.0   -0.26    1.22    1.80    21.95595    23.52873    29.52484
   393  H   1.0    0.09    1.11    1.45    26.18259    20.62749    34.89896
   394  H   1.0    0.07    1.12    1.45    24.27000    24.30374    34.91045
   395  H   1.0    0.05    1.04    1.43    26.69023    26.52521    31.61121
   396  H   1.0    0.05    1.04    1.43    28.44307    24.47292    33.14043
   397  H   1.0    0.04    1.07    1.44    27.30124    23.76493    30.34354
   398  H   1.0    0.09    1.08    1.44    42.55919    28.85011    27.36186
   399  H   1.0    0.05    1.04    1.44    41.64819    29.01017    37.31926
   400  H   1.0    0.09    1.08    1.44    40.22798    42.07960    34.57441
   401  H   1.0    0.04    1.05    1.44    36.91456    47.60458    37.14380
   402  H   1.0    0.09    1.10    1.44    40.40350    39.79831    44.43658
   403  H   1.0    0.05    1.05    1.44    21.04547    51.83489    31.46843
   404  H   1.0    0.11    1.08    1.44    27.33292    50.58369    29.58592
   405  H   1.0    0.04    1.05    1.44    33.87514    51.47163    30.11373
   406  H   1.0    0.10    1.08    1.44    18.86679    42.96228    26.31331
   407  H   1.0    0.05    1.05    1.44    15.42334    39.08544    22.59645
   408  H   1.0    0.09    1.08    1.44    23.97937    38.74042    18.82528
   409  H   1.0    0.06    1.05    1.44    22.47482    30.07870    16.46367
   410  H   1.0    0.09    1.08    1.44    27.38713    20.07742    19.59449
   411  H   1.0    0.06    1.04    1.43    21.38618    19.26897    22.99267
   412  H   1.0    0.11    1.08    1.44    13.57407    19.64587    30.35969
   413  H   1.0    0.05    1.05    1.44    13.91225    18.68522    37.24415
   414  H   1.0    0.09    1.15    1.45    22.66220    14.00353    35.66833

  Z AO/shell   Hii/eV     exponent
  1     Wed Apr 25 08:07:45 CEST 2018   EN: 2.200 GM2: 0.406  GM3: 0.0800  RAES: 1.40
     1s    -10.707211    1.230000
  6     Wed Apr 25 08:07:45 CEST 2018   EN: 2.550 GM2: 0.538  GM3: 0.1500  RAES: 3.00
     2s    -13.970922    2.096432
     2p    -10.063292    1.800000
  7     Wed Apr 25 08:07:45 CEST 2018   EN: 3.040 GM2: 0.461  GM3:-0.0640  RAES: 1.90
     2s    -16.686243    2.339881
     2p    -12.523956    2.014332
  8     Wed Apr 25 08:07:45 CEST 2018   EN: 3.440 GM2: 0.452  GM3:-0.0517  RAES: 1.80
     2s    -20.229985    2.439742
     2p    -15.503117    2.137023
 no old-style atom pair restraining (fixing) potential

molecular fragmentation (1/2 indicates fragments):
111111111111111111111111111111111111111222222222222222222222222222222222
222222222222222222222222222222222222222222222222222222222222222222222222
222222222222222222222222222222222222222222222222222222222222222222222222
222222222222222222222222222222222222222222222222222222222222222222222222
222222222222222222222222222222222222222222222222222222222222222222222222
222222222222222222222222222222222222211222222222222222
# atoms in fragment 1/2:    41   373
 fragment masses (1/2) :      262.35     2586.99
CMA distance (Bohr)    :  15.885
constraining FC (au)   :  0.0500
           ------------------------------------------------- 
          |        Self-Consistent Charge Iterations        |
           ------------------------------------------------- 

 Ncao       : 1020
 Nao        : 1020
 Nshell     : 616
 Nel        : 1126
 T(el)      :   500.0
 intcut     :    35.0
 scfconv/Eh :  0.100E-06
   qconv/e  :  0.100E-04
 intneglect :  0.100E-08
 broydamp   :      0.400
 iter      E             dE          RMSdq      gap      omega  full diag
   1   -644.7101478 -0.644710E+03  0.460E+00    2.97       0.0  T
   2   -646.2101429 -0.150000E+01  0.218E+00    1.62       1.0  T
   3   -646.2890120 -0.788691E-01  0.118E+00    1.69       1.0  T
   4   -646.3663000 -0.772880E-01  0.244E-01    0.99       1.0  T
   5   -646.3723054 -0.600536E-02  0.116E-01    1.16       1.0  T
   6   -646.3730454 -0.740005E-03  0.485E-02    1.19       1.0  T
   7   -646.3733055 -0.260149E-03  0.212E-02    1.19       1.0  T
   8   -646.3733464 -0.408978E-04  0.104E-02    1.19       1.0  T
   9   -646.3733570 -0.105435E-04  0.479E-03    1.18       1.0  T
  10   -646.3733592 -0.222796E-05  0.230E-03    1.18       2.1  T
  11   -646.3733598 -0.596365E-06  0.107E-03    1.17       4.6  T
  12   -646.3733599 -0.114066E-06  0.505E-04    1.17       9.7  T
  13   -646.3733600 -0.276315E-07  0.251E-04    1.17      19.6  T
  14   -646.3733600 -0.635589E-08  0.102E-04    1.17      48.1  T
  15   -646.3733600 -0.116290E-08  0.410E-05    1.17     120.0  T
  16   -646.3733600 -0.164960E-09  0.197E-05    1.17     248.9  T
speedup  1.00
cpu  time for SCC    6.73 s
wall time for SCC    6.73 s

   *** convergence criteria satisfied after 16 iterations ***

          eigenvalues
 #    :         551        552        553        554        555        556        557        558
 occ. :        2.000      2.000      2.000      2.000      2.000      2.000      2.000      2.000
 eps  :        -9.969     -9.947     -9.943     -9.896     -9.883     -9.815     -9.791     -9.784
 #    :         559        560        561        562        563        564        565        566
 occ. :        2.000      2.000      2.000      2.000      2.000      0.000      0.000      0.000
 eps  :        -9.714     -9.464     -9.431     -9.257     -9.212     -8.040     -7.650     -7.647
 #    :         567        568        569        570        571        572        573        574
 occ. :        0.000      0.000      0.000      0.000      0.000      0.000      0.000      0.000
 eps  :        -7.598     -7.556     -7.382     -7.330     -7.324     -6.371     -6.315     -6.252


   #   Z            q   n(s)   n(p)   n(d)      C6AA      α(0)
   1   7 N     -0.407  1.305  4.102  0.000    30.562     8.211
   2   6 C      0.024  1.031  2.945  0.000    20.172     6.395
   3   6 C      0.269  1.038  2.693  0.000    22.462     7.762
   4   8 O     -0.509  1.737  4.772  0.000    23.974     6.565
   5   6 C     -0.084  1.019  3.066  0.000    22.090     6.688
   6   6 C      0.000  1.075  2.925  0.000    28.020     8.683
   7   6 C     -0.050  1.060  2.990  0.000    29.230     8.868
   8   6 C     -0.049  1.061  2.988  0.000    29.212     8.865
   9   6 C     -0.039  1.058  2.981  0.000    28.960     8.826
  10   6 C     -0.035  1.058  2.977  0.000    28.874     8.813
  11   6 C     -0.042  1.059  2.982  0.000    29.031     8.838
  12   1 H      0.177  0.823  0.000  0.000     1.230     1.737
  13   1 H      0.066  0.934  0.000  0.000     2.124     2.279
  14   1 H      0.051  0.949  0.000  0.000     2.301     2.372
  15   1 H      0.047  0.953  0.000  0.000     2.356     2.400
  16   1 H      0.043  0.957  0.000  0.000     2.407     2.426
  17   1 H      0.038  0.962  0.000  0.000     2.473     2.459
  18   1 H      0.045  0.955  0.000  0.000     2.387     2.416
  19   1 H      0.040  0.960  0.000  0.000     2.452     2.449
  20   1 H      0.041  0.959  0.000  0.000     2.434     2.440
  21   7 N     -0.163  1.215  3.948  0.000    24.523     7.355
  22   6 C      0.019  1.032  2.949  0.000    20.243     6.404
  23   6 C      0.199  1.084  2.717  0.000    23.764     7.983
  24   8 O     -0.364  1.752  4.612  0.000    20.972     6.140
  25   6 C     -0.086  1.022  3.064  0.000    22.104     6.687
  26   6 C     -0.017  1.032  2.984  0.000    20.831     6.490
  27   6 C     -0.130  0.995  3.135  0.000    23.015     6.834
  28   6 C     -0.153  0.995  3.158  0.000    23.466     6.900
  29   1 H      0.222  0.778  0.000  0.000     1.001     1.567
  30   1 H      0.112  0.888  0.000  0.000     1.680     2.027
  31   1 H      0.070  0.930  0.000  0.000     2.090     2.260
  32   1 H      0.067  0.933  0.000  0.000     2.124     2.279
  33   1 H      0.048  0.952  0.000  0.000     2.348     2.396
  34   1 H      0.048  0.952  0.000  0.000     2.343     2.393
  35   1 H      0.061  0.939  0.000  0.000     2.188     2.313
  36   1 H      0.032  0.968  0.000  0.000     2.553     2.498
  37   1 H      0.040  0.960  0.000  0.000     2.450     2.447
  38   1 H      0.051  0.949  0.000  0.000     2.309     2.376
  39   1 H      0.057  0.943  0.000  0.000     2.234     2.337
  40   7 N     -0.402  1.288  4.114  0.000    30.421     8.192
  41   6 C      0.040  1.031  2.929  0.000    19.880     6.345
  42   6 C      0.194  1.081  2.725  0.000    23.857     8.000
  43   8 O     -0.351  1.742  4.609  0.000    20.731     6.104
  44   6 C     -0.075  1.010  3.065  0.000    21.897     6.657
  45   6 C     -0.057  1.044  3.013  0.000    28.988     8.792
  46   6 C     -0.006  1.030  2.977  0.000    27.814     8.617
  47   6 C     -0.036  1.067  2.969  0.000    27.999     8.587
  48   7 N     -0.089  1.196  3.893  0.000    22.962     7.117
  49   6 C      0.030  1.052  2.919  0.000    26.654     8.398
  50   6 C     -0.048  1.053  2.996  0.000    29.201     8.863
  51   6 C     -0.059  1.049  3.010  0.000    29.463     8.903
  52   6 C     -0.049  1.049  2.999  0.000    29.205     8.864
  53   6 C     -0.042  1.048  2.994  0.000    29.033     8.838
  54   1 H      0.175  0.825  0.000  0.000     1.241     1.745
  55   1 H      0.044  0.956  0.000  0.000     2.398     2.422
  56   1 H      0.058  0.942  0.000  0.000     2.224     2.332
  57   1 H      0.065  0.935  0.000  0.000     2.142     2.289
  58   1 H      0.034  0.966  0.000  0.000     2.526     2.485
  59   1 H      0.194  0.806  0.000  0.000     1.139     1.671
  60   1 H      0.045  0.955  0.000  0.000     2.388     2.416
  61   1 H      0.031  0.969  0.000  0.000     2.565     2.504
  62   1 H      0.031  0.969  0.000  0.000     2.565     2.504
  63   1 H      0.025  0.975  0.000  0.000     2.654     2.547
  64   7 N     -0.286  1.270  4.016  0.000    27.362     7.769
  65   6 C      0.021  1.040  2.939  0.000    20.169     6.385
  66   6 C      0.276  1.038  2.686  0.000    22.340     7.740
  67   8 O     -0.450  1.728  4.722  0.000    22.709     6.389
  68   6 C     -0.064  1.011  3.052  0.000    21.659     6.615
  69   6 C     -0.071  1.009  3.061  0.000    21.794     6.636
  70   6 C      0.007  1.013  2.979  0.000    20.429     6.430
  71   1 H      0.030  0.970  0.000  0.000     2.588     2.516
  72   1 H      0.029  0.971  0.000  0.000     2.593     2.518
  73   1 H      0.056  0.944  0.000  0.000     2.249     2.345
  74   1 H      0.054  0.946  0.000  0.000     2.272     2.357
  75   1 H      0.048  0.952  0.000  0.000     2.341     2.393
  76   1 H      0.048  0.952  0.000  0.000     2.348     2.396
  77   1 H      0.029  0.971  0.000  0.000     2.593     2.518
  78   7 N     -0.200  1.217  3.983  0.000    25.350     7.478
  79   6 C      0.008  1.036  2.956  0.000    20.440     6.436
  80   6 C      0.263  1.040  2.697  0.000    22.563     7.779
  81   8 O     -0.500  1.753  4.747  0.000    23.776     6.537
  82   6 C      0.054  1.006  2.940  0.000    19.826     6.369
  83   8 O     -0.476  1.700  4.776  0.000    22.376     6.386
  84   1 H      0.186  0.814  0.000  0.000     1.180     1.701
  85   1 H      0.108  0.892  0.000  0.000     1.710     2.045
  86   1 H      0.065  0.935  0.000  0.000     2.140     2.287
  87   1 H      0.048  0.952  0.000  0.000     2.349     2.397
  88   1 H      0.333  0.667  0.000  0.000     0.628     1.245
  89   7 N     -0.091  1.237  3.854  0.000    23.018     7.126
  90   6 C      0.029  1.039  2.932  0.000    20.029     6.362
  91   6 C      0.280  1.040  2.680  0.000    22.261     7.726
  92   8 O     -0.487  1.733  4.754  0.000    23.494     6.499
  93   6 C     -0.058  1.009  3.050  0.000    21.572     6.603
  94   6 C     -0.072  1.012  3.060  0.000    21.812     6.639
  95   6 C     -0.017  1.026  2.992  0.000    20.875     6.503
  96   1 H      0.060  0.940  0.000  0.000     2.202     2.321
  97   1 H      0.036  0.964  0.000  0.000     2.500     2.472
  98   1 H      0.052  0.948  0.000  0.000     2.293     2.368
  99   1 H      0.069  0.931  0.000  0.000     2.096     2.264
 100   1 H      0.066  0.934  0.000  0.000     2.124     2.279
 101   1 H      0.072  0.928  0.000  0.000     2.062     2.246
 102   1 H      0.085  0.915  0.000  0.000     1.925     2.170
 103   7 N     -0.176  1.217  3.959  0.000    24.816     7.399
 104   6 C      0.021  1.036  2.943  0.000    20.217     6.400
 105   6 C      0.279  1.034  2.687  0.000    22.278     7.729
 106   8 O     -0.493  1.761  4.732  0.000    23.627     6.517
 107   6 C     -0.075  1.012  3.064  0.000    21.917     6.661
 108   6 C     -0.115  1.021  3.093  0.000    22.661     6.773
 109   6 C      0.300  1.009  2.691  0.000    21.909     7.664
 110   8 O     -0.544  1.749  4.795  0.000    24.788     6.675
 111   7 N     -0.248  1.212  4.036  0.000    26.458     7.639
 112   1 H      0.217  0.783  0.000  0.000     1.021     1.583
 113   1 H      0.086  0.914  0.000  0.000     1.922     2.168
 114   1 H      0.058  0.942  0.000  0.000     2.227     2.334
 115   1 H      0.071  0.929  0.000  0.000     2.074     2.252
 116   1 H      0.079  0.921  0.000  0.000     1.989     2.205
 117   1 H      0.073  0.927  0.000  0.000     2.052     2.240
 118   1 H      0.225  0.775  0.000  0.000     0.986     1.556
 119   1 H      0.252  0.748  0.000  0.000     0.875     1.465
 120   7 N     -0.211  1.226  3.985  0.000    25.591     7.513
 121   6 C      0.015  1.046  2.938  0.000    20.317     6.417
 122   6 C      0.287  1.034  2.679  0.000    22.137     7.705
 123   8 O     -0.481  1.739  4.742  0.000    23.358     6.480
 124   6 C     -0.019  1.036  2.983  0.000    20.876     6.497
 125   6 C     -0.136  0.996  3.141  0.000    23.145     6.853
 126   6 C     -0.147  1.000  3.147  0.000    23.357     6.885
 127   1 H      0.219  0.781  0.000  0.000     1.012     1.576
 128   1 H      0.069  0.931  0.000  0.000     2.098     2.265
 129   1 H      0.060  0.940  0.000  0.000     2.194     2.316
 130   1 H      0.071  0.929  0.000  0.000     2.076     2.253
 131   1 H      0.054  0.946  0.000  0.000     2.267     2.354
 132   1 H      0.050  0.950  0.000  0.000     2.322     2.383
 133   1 H      0.078  0.922  0.000  0.000     2.001     2.212
 134   1 H      0.057  0.943  0.000  0.000     2.234     2.337
 135   1 H      0.057  0.943  0.000  0.000     2.236     2.338
 136   7 N     -0.181  1.215  3.967  0.000    24.927     7.415
 137   6 C      0.007  1.043  2.950  0.000    20.455     6.438
 138   6 C      0.269  1.037  2.693  0.000    22.448     7.759
 139   8 O     -0.480  1.748  4.732  0.000    23.346     6.478
 140   6 C      0.113  1.024  2.863  0.000    18.805     6.187
 141   8 O     -0.495  1.709  4.786  0.000    22.779     6.443
 142   6 C     -0.155  1.000  3.155  0.000    23.534     6.913
 143   1 H      0.191  0.809  0.000  0.000     1.155     1.683
 144   1 H      0.090  0.910  0.000  0.000     1.880     2.144
 145   1 H      0.033  0.967  0.000  0.000     2.543     2.494
 146   1 H      0.357  0.643  0.000  0.000     0.571     1.187
 147   1 H      0.085  0.915  0.000  0.000     1.929     2.172
 148   1 H      0.054  0.946  0.000  0.000     2.276     2.359
 149   1 H      0.067  0.933  0.000  0.000     2.122     2.278
 150   7 N     -0.193  1.222  3.971  0.000    25.185     7.453
 151   6 C      0.016  1.048  2.936  0.000    20.306     6.414
 152   6 C      0.292  1.032  2.676  0.000    22.042     7.688
 153   8 O     -0.492  1.746  4.746  0.000    23.602     6.514
 154   6 C     -0.017  1.029  2.988  0.000    20.829     6.490
 155   6 C     -0.142  0.996  3.146  0.000    23.263     6.871
 156   6 C     -0.144  0.999  3.144  0.000    23.292     6.876
 157   1 H      0.210  0.790  0.000  0.000     1.055     1.609
 158   1 H      0.064  0.936  0.000  0.000     2.157     2.297
 159   1 H      0.055  0.945  0.000  0.000     2.257     2.349
 160   1 H      0.074  0.926  0.000  0.000     2.038     2.232
 161   1 H      0.045  0.955  0.000  0.000     2.378     2.411
 162   1 H      0.061  0.939  0.000  0.000     2.182     2.310
 163   1 H      0.079  0.921  0.000  0.000     1.991     2.206
 164   1 H      0.068  0.932  0.000  0.000     2.111     2.272
 165   1 H      0.041  0.959  0.000  0.000     2.431     2.438
 166   7 N     -0.184  1.223  3.961  0.000    24.989     7.424
 167   6 C      0.033  1.032  2.934  0.000    20.009     6.368
 168   6 C      0.283  1.037  2.680  0.000    22.199     7.716
 169   8 O     -0.480  1.731  4.749  0.000    23.355     6.479
 170   6 C     -0.090  1.018  3.072  0.000    22.189     6.703
 171   6 C     -0.089  1.008  3.081  0.000    22.189     6.704
 172   6 C     -0.045  1.015  3.031  0.000    21.449     6.605
 173   7 N     -0.179  1.182  3.997  0.000    24.876     7.408
 174   6 C      0.259  0.972  2.768  0.000    22.629     7.788
 175   7 N     -0.240  1.176  4.064  0.000    26.253     7.610
 176   7 N     -0.233  1.181  4.052  0.000    26.096     7.587
 177   1 H      0.214  0.786  0.000  0.000     1.037     1.595
 178   1 H      0.064  0.936  0.000  0.000     2.156     2.296
 179   1 H      0.073  0.927  0.000  0.000     2.053     2.241
 180   1 H      0.067  0.933  0.000  0.000     2.118     2.276
 181   1 H      0.067  0.933  0.000  0.000     2.122     2.278
 182   1 H      0.063  0.937  0.000  0.000     2.162     2.299
 183   1 H      0.108  0.892  0.000  0.000     1.710     2.045
 184   1 H      0.071  0.929  0.000  0.000     2.073     2.252
 185   1 H      0.199  0.801  0.000  0.000     1.109     1.650
 186   1 H      0.248  0.752  0.000  0.000     0.890     1.477
 187   1 H      0.275  0.725  0.000  0.000     0.793     1.395
 188   1 H      0.226  0.774  0.000  0.000     0.985     1.554
 189   1 H      0.280  0.720  0.000  0.000     0.777     1.381
 190   7 N     -0.206  1.229  3.978  0.000    25.488     7.498
 191   6 C      0.039  1.030  2.931  0.000    19.914     6.353
 192   6 C      0.259  1.046  2.696  0.000    22.646     7.793
 193   8 O     -0.497  1.735  4.762  0.000    23.717     6.529
 194   6 C     -0.075  1.014  3.062  0.000    21.915     6.660
 195   6 C      0.004  1.074  2.922  0.000    27.931     8.669
 196   6 C     -0.060  1.058  3.002  0.000    29.486     8.907
 197   6 C     -0.057  1.062  2.995  0.000    29.401     8.895
 198   6 C     -0.041  1.052  2.989  0.000    29.025     8.837
 199   6 C     -0.035  1.050  2.984  0.000    28.862     8.812
 200   6 C     -0.041  1.055  2.986  0.000    29.013     8.836
 201   1 H      0.211  0.789  0.000  0.000     1.053     1.607
 202   1 H      0.060  0.940  0.000  0.000     2.200     2.319
 203   1 H      0.048  0.952  0.000  0.000     2.345     2.395
 204   1 H      0.059  0.941  0.000  0.000     2.207     2.323
 205   1 H      0.045  0.955  0.000  0.000     2.385     2.415
 206   1 H      0.058  0.942  0.000  0.000     2.219     2.329
 207   1 H      0.067  0.933  0.000  0.000     2.123     2.278
 208   1 H      0.039  0.961  0.000  0.000     2.460     2.453
 209   1 H      0.060  0.940  0.000  0.000     2.203     2.321
 210   7 N     -0.082  1.234  3.848  0.000    22.841     7.098
 211   6 C      0.018  1.046  2.936  0.000    20.231     6.395
 212   6 C      0.283  1.035  2.682  0.000    22.209     7.717
 213   8 O     -0.472  1.727  4.746  0.000    23.173     6.454
 214   6 C     -0.068  1.010  3.057  0.000    21.737     6.628
 215   6 C     -0.088  1.015  3.073  0.000    22.114     6.685
 216   6 C     -0.022  1.020  3.002  0.000    20.950     6.513
 217   1 H      0.060  0.940  0.000  0.000     2.198     2.318
 218   1 H      0.065  0.935  0.000  0.000     2.146     2.291
 219   1 H      0.068  0.932  0.000  0.000     2.111     2.272
 220   1 H      0.090  0.910  0.000  0.000     1.883     2.146
 221   1 H      0.078  0.922  0.000  0.000     1.995     2.209
 222   1 H      0.071  0.929  0.000  0.000     2.076     2.253
 223   1 H      0.077  0.923  0.000  0.000     2.007     2.215
 224   7 N     -0.212  1.229  3.983  0.000    25.615     7.517
 225   6 C      0.024  1.037  2.940  0.000    20.176     6.395
 226   6 C      0.277  1.042  2.681  0.000    22.319     7.736
 227   8 O     -0.478  1.734  4.745  0.000    23.307     6.473
 228   6 C     -0.117  1.035  3.082  0.000    22.718     6.783
 229   6 C      0.374  1.015  2.611  0.000    20.661     7.439
 230   8 O     -0.647  1.770  4.877  0.000    27.313     7.007
 231   8 O     -0.638  1.775  4.863  0.000    27.070     6.976
 232   1 H      0.211  0.789  0.000  0.000     1.050     1.605
 233   1 H      0.094  0.906  0.000  0.000     1.844     2.123
 234   1 H      0.064  0.936  0.000  0.000     2.151     2.294
 235   1 H      0.062  0.938  0.000  0.000     2.170     2.303
 236   7 N     -0.181  1.219  3.962  0.000    24.926     7.415
 237   6 C      0.002  1.043  2.955  0.000    20.545     6.453
 238   6 C      0.276  1.033  2.691  0.000    22.327     7.738
 239   8 O     -0.460  1.737  4.723  0.000    22.905     6.417
 240   6 C      0.076  1.001  2.922  0.000    19.476     6.314
 241   8 O     -0.490  1.700  4.791  0.000    22.685     6.430
 242   1 H      0.188  0.812  0.000  0.000     1.171     1.695
 243   1 H      0.109  0.891  0.000  0.000     1.702     2.040
 244   1 H      0.034  0.966  0.000  0.000     2.525     2.485
 245   1 H      0.046  0.954  0.000  0.000     2.367     2.406
 246   1 H      0.358  0.642  0.000  0.000     0.568     1.184
 247   7 N     -0.178  1.215  3.963  0.000    24.847     7.403
 248   6 C      0.032  1.040  2.928  0.000    20.037     6.373
 249   6 C      0.208  1.073  2.719  0.000    23.590     7.954
 250   8 O     -0.355  1.745  4.610  0.000    20.800     6.115
 251   6 C     -0.121  1.034  3.087  0.000    22.804     6.796
 252   6 C      0.363  1.018  2.619  0.000    20.846     7.472
 253   8 O     -0.652  1.777  4.875  0.000    27.432     7.022
 254   8 O     -0.601  1.745  4.856  0.000    26.144     6.855
 255   1 H      0.207  0.793  0.000  0.000     1.069     1.619
 256   1 H      0.095  0.905  0.000  0.000     1.830     2.115
 257   1 H      0.071  0.929  0.000  0.000     2.071     2.250
 258   1 H      0.057  0.943  0.000  0.000     2.233     2.337
 259   7 N     -0.381  1.299  4.082  0.000    29.845     8.114
 260   6 C      0.027  1.038  2.935  0.000    20.124     6.389
 261   6 C      0.194  1.085  2.721  0.000    23.863     8.000
 262   8 O     -0.382  1.756  4.626  0.000    21.316     6.190
 263   6 C     -0.076  1.019  3.057  0.000    21.938     6.665
 264   6 C     -0.099  1.016  3.084  0.000    22.379     6.732
 265   6 C     -0.098  1.015  3.083  0.000    22.355     6.729
 266   6 C     -0.070  1.008  3.062  0.000    21.899     6.674
 267   7 N     -0.119  1.168  3.951  0.000    23.576     7.212
 268   1 H      0.166  0.834  0.000  0.000     1.294     1.782
 269   1 H      0.070  0.930  0.000  0.000     2.084     2.257
 270   1 H      0.061  0.939  0.000  0.000     2.181     2.309
 271   1 H      0.056  0.944  0.000  0.000     2.243     2.342
 272   1 H      0.068  0.932  0.000  0.000     2.110     2.271
 273   1 H      0.084  0.916  0.000  0.000     1.942     2.179
 274   1 H      0.078  0.922  0.000  0.000     1.997     2.210
 275   1 H      0.070  0.930  0.000  0.000     2.083     2.257
 276   1 H      0.141  0.859  0.000  0.000     1.453     1.885
 277   1 H      0.094  0.906  0.000  0.000     1.841     2.122
 278   1 H      0.297  0.703  0.000  0.000     0.722     1.331
 279   1 H      0.281  0.719  0.000  0.000     0.773     1.377
 280   1 H      0.294  0.706  0.000  0.000     0.732     1.340
 281   7 N     -0.397  1.290  4.107  0.000    30.302     8.176
 282   6 C      0.024  1.033  2.943  0.000    20.176     6.397
 283   6 C      0.191  1.091  2.718  0.000    23.915     8.009
 284   8 O     -0.389  1.762  4.627  0.000    21.454     6.210
 285   6 C     -0.092  1.021  3.071  0.000    22.229     6.709
 286   6 C     -0.093  1.011  3.081  0.000    22.248     6.712
 287   6 C     -0.029  1.015  3.014  0.000    21.142     6.555
 288   7 N     -0.202  1.187  4.015  0.000    25.386     7.483
 289   6 C      0.262  0.967  2.771  0.000    22.580     7.780
 290   7 N     -0.206  1.170  4.036  0.000    25.472     7.496
 291   7 N     -0.235  1.178  4.057  0.000    26.149     7.595
 292   1 H      0.177  0.823  0.000  0.000     1.233     1.739
 293   1 H      0.069  0.931  0.000  0.000     2.096     2.264
 294   1 H      0.084  0.916  0.000  0.000     1.935     2.175
 295   1 H      0.068  0.932  0.000  0.000     2.106     2.269
 296   1 H      0.050  0.950  0.000  0.000     2.314     2.379
 297   1 H      0.074  0.926  0.000  0.000     2.040     2.234
 298   1 H      0.090  0.910  0.000  0.000     1.879     2.143
 299   1 H      0.064  0.936  0.000  0.000     2.147     2.291
 300   1 H      0.238  0.762  0.000  0.000     0.930     1.511
 301   1 H      0.236  0.764  0.000  0.000     0.939     1.518
 302   1 H      0.239  0.761  0.000  0.000     0.925     1.507
 303   1 H      0.263  0.737  0.000  0.000     0.836     1.432
 304   1 H      0.243  0.757  0.000  0.000     0.910     1.494
 305   7 N     -0.413  1.300  4.113  0.000    30.735     8.234
 306   6 C      0.033  1.032  2.935  0.000    20.023     6.371
 307   6 C      0.276  1.038  2.685  0.000    22.325     7.738
 308   8 O     -0.507  1.746  4.761  0.000    23.933     6.559
 309   6 C     -0.080  1.019  3.061  0.000    21.998     6.672
 310   6 C      0.012  1.072  2.916  0.000    27.728     8.638
 311   6 C     -0.038  1.053  2.985  0.000    28.946     8.825
 312   6 C     -0.040  1.056  2.984  0.000    28.979     8.830
 313   6 C     -0.024  1.046  2.979  0.000    28.606     8.773
 314   6 C     -0.035  1.051  2.984  0.000    28.873     8.814
 315   6 C     -0.039  1.048  2.991  0.000    28.952     8.826
 316   1 H      0.173  0.827  0.000  0.000     1.253     1.754
 317   1 H      0.058  0.942  0.000  0.000     2.222     2.331
 318   1 H      0.069  0.931  0.000  0.000     2.095     2.263
 319   1 H      0.050  0.950  0.000  0.000     2.321     2.382
 320   1 H      0.020  0.980  0.000  0.000     2.738     2.587
 321   1 H      0.058  0.942  0.000  0.000     2.225     2.332
 322   1 H     -0.007  1.007  0.000  0.000     3.183     2.790
 323   1 H      0.054  0.946  0.000  0.000     2.269     2.355
 324   1 H      0.027  0.973  0.000  0.000     2.633     2.537
 325   7 N     -0.171  1.216  3.954  0.000    24.689     7.380
 326   6 C      0.026  1.033  2.941  0.000    20.123     6.386
 327   6 C      0.202  1.081  2.717  0.000    23.707     7.974
 328   8 O     -0.349  1.740  4.609  0.000    20.682     6.097
 329   6 C     -0.061  1.011  3.050  0.000    21.657     6.623
 330   6 C     -0.083  1.021  3.063  0.000    22.077     6.687
 331   6 C      0.371  1.022  2.607  0.000    20.714     7.448
 332   8 O     -0.656  1.762  4.894  0.000    27.526     7.034
 333   8 O     -0.642  1.762  4.880  0.000    27.181     6.990
 334   1 H      0.221  0.779  0.000  0.000     1.006     1.571
 335   1 H      0.087  0.913  0.000  0.000     1.912     2.162
 336   1 H      0.056  0.944  0.000  0.000     2.250     2.346
 337   1 H      0.059  0.941  0.000  0.000     2.213     2.326
 338   1 H     -0.001  1.001  0.000  0.000     3.066     2.738
 339   1 H      0.030  0.970  0.000  0.000     2.590     2.516
 340   7 N     -0.401  1.299  4.102  0.000    30.395     8.188
 341   6 C      0.043  1.033  2.924  0.000    19.861     6.346
 342   6 C      0.203  1.083  2.714  0.000    23.689     7.971
 343   8 O     -0.359  1.745  4.613  0.000    20.871     6.125
 344   6 C     -0.055  1.016  3.039  0.000    21.533     6.602
 345   6 C     -0.010  1.027  2.983  0.000    20.718     6.473
 346   6 C     -0.137  0.997  3.140  0.000    23.157     6.856
 347   6 C     -0.132  0.994  3.137  0.000    23.042     6.837
 348   1 H      0.177  0.823  0.000  0.000     1.229     1.736
 349   1 H      0.046  0.954  0.000  0.000     2.376     2.410
 350   1 H      0.020  0.980  0.000  0.000     2.735     2.586
 351   1 H      0.032  0.968  0.000  0.000     2.558     2.501
 352   1 H      0.047  0.953  0.000  0.000     2.351     2.398
 353   1 H      0.059  0.941  0.000  0.000     2.211     2.325
 354   1 H      0.033  0.967  0.000  0.000     2.548     2.496
 355   1 H      0.049  0.951  0.000  0.000     2.331     2.388
 356   1 H      0.065  0.935  0.000  0.000     2.135     2.285
 357   1 H      0.033  0.967  0.000  0.000     2.547     2.496
 358   1 H      0.049  0.951  0.000  0.000     2.336     2.390
 359   7 N     -0.413  1.311  4.103  0.000    30.745     8.235
 360   6 C      0.024  1.040  2.936  0.000    20.178     6.397
 361   6 C      0.199  1.085  2.716  0.000    23.754     7.981
 362   8 O     -0.369  1.760  4.609  0.000    21.077     6.155
 363   6 C      0.108  1.029  2.863  0.000    18.893     6.203
 364   8 O     -0.494  1.713  4.781  0.000    22.762     6.441
 365   6 C     -0.170  1.006  3.164  0.000    23.848     6.960
 366   1 H      0.193  0.807  0.000  0.000     1.142     1.674
 367   1 H      0.057  0.943  0.000  0.000     2.235     2.338
 368   1 H      0.051  0.949  0.000  0.000     2.304     2.374
 369   1 H      0.353  0.647  0.000  0.000     0.582     1.198
 370   1 H      0.088  0.912  0.000  0.000     1.896     2.153
 371   1 H      0.053  0.947  0.000  0.000     2.278     2.360
 372   1 H      0.072  0.928  0.000  0.000     2.058     2.243
 373   7 N     -0.316  1.339  3.977  0.000    28.127     7.877
 374   6 C      0.025  1.045  2.930  0.000    20.114     6.380
 375   6 C      0.282  1.039  2.679  0.000    22.231     7.720
 376   8 O     -0.489  1.748  4.741  0.000    23.532     6.504
 377   6 C     -0.058  1.016  3.042  0.000    21.546     6.597
 378   6 C     -0.070  1.014  3.056  0.000    21.792     6.638
 379   6 C      0.008  1.011  2.981  0.000    20.403     6.425
 380   1 H      0.027  0.973  0.000  0.000     2.627     2.535
 381   1 H      0.038  0.962  0.000  0.000     2.479     2.462
 382   1 H      0.039  0.961  0.000  0.000     2.465     2.455
 383   1 H      0.055  0.945  0.000  0.000     2.261     2.351
 384   1 H      0.049  0.951  0.000  0.000     2.327     2.385
 385   1 H      0.040  0.960  0.000  0.000     2.447     2.446
 386   1 H      0.046  0.954  0.000  0.000     2.371     2.408
 387   7 N     -0.225  1.241  3.984  0.000    25.915     7.561
 388   6 C      0.039  1.037  2.924  0.000    19.928     6.357
 389   6 C      0.376  1.016  2.608  0.000    20.632     7.434
 390   8 O     -0.659  1.767  4.892  0.000    27.616     7.046
 391   6 C     -0.112  0.993  3.119  0.000    22.674     6.784
 392   8 O     -0.620  1.767  4.854  0.000    26.623     6.918
 393   1 H      0.188  0.812  0.000  0.000     1.168     1.693
 394   1 H      0.013  0.987  0.000  0.000     2.839     2.635
 395   1 H      0.031  0.969  0.000  0.000     2.573     2.508
 396   1 H      0.054  0.946  0.000  0.000     2.267     2.354
 397   1 H      0.065  0.935  0.000  0.000     2.138     2.286
 398   1 H      0.189  0.811  0.000  0.000     1.163     1.689
 399   1 H      0.084  0.916  0.000  0.000     1.941     2.178
 400   1 H      0.173  0.827  0.000  0.000     1.257     1.756
 401   1 H      0.066  0.934  0.000  0.000     2.132     2.283
 402   1 H      0.172  0.828  0.000  0.000     1.260     1.758
 403   1 H      0.080  0.920  0.000  0.000     1.979     2.200
 404   1 H      0.174  0.826  0.000  0.000     1.247     1.749
 405   1 H      0.059  0.941  0.000  0.000     2.207     2.323
 406   1 H      0.177  0.823  0.000  0.000     1.234     1.740
 407   1 H      0.079  0.921  0.000  0.000     1.993     2.207
 408   1 H      0.196  0.804  0.000  0.000     1.128     1.664
 409   1 H      0.076  0.924  0.000  0.000     2.020     2.223
 410   1 H      0.189  0.811  0.000  0.000     1.162     1.689
 411   1 H      0.046  0.954  0.000  0.000     2.373     2.409
 412   1 H      0.184  0.816  0.000  0.000     1.189     1.708
 413   1 H      0.076  0.924  0.000  0.000     2.025     2.225
 414   1 H      0.179  0.821  0.000  0.000     1.221     1.731

 Mol. C6AA /au·bohr⁶  :    1613943.259036
 Mol. C8AA /au·bohr⁸  :   36110585.852774
 Mol. α(0) /au        :       1910.479074

 
molecular dipole:
                 x           y           z       tot (Debye)
 q only:      -12.914     -28.125     -26.421
   full:      -11.590     -28.435     -26.504     103.102
molecular quadrupole (traceless):
                xx          xy          yy          xz          yz          zz
 q only:      913.308    -241.890    -581.883    -224.792   -1149.455    -331.425
  q+dip:      983.678    -198.115    -602.411    -209.217   -1185.881    -381.268
   full:      986.323    -197.056    -601.078    -211.207   -1184.851    -385.245
speedup  1.00
cpu  time for grad    8.73 s
wall time for grad    8.73 s

SCC energy    :    -646.3894199
rep           :      11.3446552
ES            :       2.2136015
AES           :      -0.0608805
AXC           :       0.1343492
disp          :      -0.5505486
XB            :       0.0000000
fix           :       0.0000000
Gborn         :       0.0000000
Gsasa         :       0.0000000
Ghb           :       0.0000000
Gshift        :       0.0000000
Gsolv         :      -0.6279398     -394.04
Etot ala COSMO:    -646.3894199
grad norm     :       1.2161079
total E       :    -634.9858793
atomizationE  :     116.6437018    73195.03
(atE without considering molecular charge,
 total energy contains solvation terms)
H-L gap (eV)  :          1.1727

------------------------------------------------------------------------
 * finished run on 2019/03/15 at 00:15:27.282     
------------------------------------------------------------------------
 total:
 * wall-time:     0 d,  0 h,  0 min,  9.513 sec
 *  cpu-time:     0 d,  0 h,  0 min,  9.384 sec
 * ratio c/w:     0.986 speedup
 SCF:
 * wall-time:     0 d,  0 h,  0 min,  9.221 sec
 *  cpu-time:     0 d,  0 h,  0 min,  9.220 sec
 * ratio c/w:     1.000 speedup

