      -----------------------------------------------------------      
     |                   =====================                   |     
     |                           x T B                           |     
     |                   =====================                   |     
     |                         S. Grimme                         |     
     |          Mulliken Center for Theoretical Chemistry        |     
     |                    University of Bonn                     |     
     |                Version 6.1 RC1 (SAW190329)                |     
      -----------------------------------------------------------      

   This program is distributed in the hope that it will be useful,
   but WITHOUT ANY WARRANTY; without even the implied warranty of
   MERCHANTABILITY or FITNESS FOR A PARTICULAR PURPOSE.
   
   FOR NON-COMMERCIAL, ACADEMIA USE ONLY.
   
   Cite this work as:
   S. Grimme, C. Bannwarth, P. Shushkov, J. Comput. Theory Chem., 2017,
   13, 1989-2009. DOI: 10.1021/acs.jctc.7b00118
   C. Bannwarth, S. Ehlert and S. Grimme., J. Comput. Theory Chem., 2019,
   just accepted. DOI: 10.1021/acs.jctc.8b01176
   
   for sTDA-xTB:
   S. Grimme and C. Bannwarth, J. Chem. Phys., 2016, 145, 054103.
   DOI: 10.1063/1.4959605
   
   in the mass-spec context:
   V. Asgeirsson, C. Bauer and S. Grimme, Chem. Sci., 2017, 8, 4879.
   DOI: 10.1039/c7sc00601b
   
   for metadynamics refer to:
   S. Grimme, ChemRxiv, Preprint. DOI: 10.26434/chemrxiv.7660532.v1
   
   with help from (in alphabetical order)
   C. Bannwarth, F. Bohle, G. Brandenburg, E. Caldeweyher, M. Checinski,
   S. Dohm, S. Ehlert, S. Ehrlich, F. März, H. Neugebauer, J. Pisarek,
   P. Pracht, P. Shushkov, and S. Spicher.
   
 * started run on 2019/05/31 at 06:33:43.918     

           -------------------------------------------------
          |                Calculation Setup                |
           -------------------------------------------------

          program call               : /home/lum/qr/xtb-190329/bin/xtb xtb_tmp.xyz --chrg 1 --grad --gfn 2 --etemp 500 --acc 0.1 --gbsa h2o --parallel 2
          hostname                   : cu39
          coordinate file            : xtb_tmp.xyz
          omp threads                :                     2
          number of atoms            :                   433
          number of electrons        :                  1114
          charge                     :                     1
          spin                       :                   0.0
          first test random number   :      0.56845983691471


molecular fragmentation (1/2 indicates fragments):
111111111111111111111111111111222222222222222222222222222222222222222222
222222222222222222222222222222222222222222222222222222222222222222222222
222222222222222222222222222222222222222222222222222222222222222222222222
222222222222222222222222222222222222222222222222222222222222222222222222
222222222222222222222222222222222222222222222222222222222222222222222222
222222222222222222222222222222222222222222222222222222222112222222222222
2
# atoms in fragment 1/2:    32   401
 fragment masses (1/2) :      202.25     2584.29
CMA distance (Bohr)    :  20.097
constraining FC (au)   :  0.0500

########################################################################
# WARNING! Please study the warnings concerning your input carefully
#  - XTBPATH is not set, using XTBHOME instead
#  - Process number higher than OMP_NUM_THREADS, I hope you know what you are doing.
########################################################################

           ------------------------------------------------- 
          |                 G F N 2 - x T B                 |
          | Geometry, Frequencies, Noncovalent interactions |
          |            JCTC 2018 parametrisation            |
           ------------------------------------------------- 
 
             k(s)              :                1.8500
             k(p)              :                2.2300
             k(d)              :                2.2300
             k(f)              :                2.0000
             kEN (H0ij)        :               -2.0000
             D4 a1             :                0.5200
             D4 a2             :                5.0000
             D4 s6             :                1.0000
             D4 s8             :                2.7000
             D4 s9             :                5.0000
             alphaj            :                2.0000

  Z AO/shell   Hii/eV     exponent
  1     Wed Apr 25 08:07:45 CEST 2018   EN: 2.200 GM2: 0.406  GM3: 0.0800  RAES: 1.40
     1s    -10.707211    1.230000
  6     Wed Apr 25 08:07:45 CEST 2018   EN: 2.550 GM2: 0.538  GM3: 0.1500  RAES: 3.00
     2s    -13.970922    2.096432
     2p    -10.063292    1.800000
  7     Wed Apr 25 08:07:45 CEST 2018   EN: 3.040 GM2: 0.461  GM3:-0.0640  RAES: 1.90
     2s    -16.686243    2.339881
     2p    -12.523956    2.014332
  8     Wed Apr 25 08:07:45 CEST 2018   EN: 3.440 GM2: 0.452  GM3:-0.0517  RAES: 1.80
     2s    -20.229985    2.439742
     2p    -15.503117    2.137023
 16     Tue Apr 24 11:44:34 CEST 2018   EN: 2.580 GM2: 0.340  GM3:-0.0502  RAES: 3.10
     3s    -20.029654    1.981333
     3p    -11.377694    2.025643
     3d     -0.420282    1.702555

 Solvent             : h2o
 Using internal parameter file: .param_gbsa2_h2o
 Gsolv ref. state (COSMO-RS): gsolv [1 M gas/solution]
 temperature (mdtemp)       :    298.150000000000     
 dielectric constant        :    80.2000000000000     
 rho                        :    1.00000000000000     
 mass                       :    18.0000000000000     
 surface tension            :    15.5689454083859     
 probe radius               :   0.975313790000000     
 vdW radii scaling          :    1.00000000000000     
 Gshift (Eh)                :   1.857443126794793E-003
 c1                         :    1.55243817000000     
 soset                      :   0.130326360000000     
 HB correction              :  T
 Number of grid points      :          230

            Z     q(EN)     CN     RAES       Cart. coordinates
     1  N   5.0   -0.71    3.00    1.93    59.95553    50.87684    95.65561
     2  C   4.0    0.07    3.98    3.59    57.59069    50.07062    96.76331
     3  C   4.0    0.28    3.01    3.02    56.11946    52.24139    97.97409
     4  O   6.0   -0.45    1.00    1.80    53.81469    52.30097    98.00462
     5  C   4.0   -0.14    3.99    3.60    58.05509    48.11504    98.86805
     6  C   4.0   -0.10    3.97    3.58    59.48989    45.74150    97.99754
     7  C   4.0   -0.22    3.98    3.59    59.51099    43.82472   100.16092
     8  C   4.0   -0.22    3.98    3.59    58.32474    44.52373    95.65352
     9  H   1.0    0.26    1.00    1.43    61.43061    51.06165    96.85271
    10  H   1.0    0.12    0.99    1.43    56.42283    49.27596    95.25733
    11  H   1.0    0.12    0.99    1.43    59.13498    49.03212   100.37419
    12  H   1.0    0.11    0.99    1.43    56.22677    47.57959    99.66578
    13  H   1.0    0.11    0.99    1.43    61.44348    46.25825    97.54015
    14  H   1.0    0.11    0.99    1.43    60.74285    42.24895    99.69593
    15  H   1.0    0.10    0.99    1.43    60.17295    44.67428   101.91103
    16  H   1.0    0.11    0.99    1.43    57.61317    43.09120   100.47221
    17  H   1.0    0.11    0.99    1.43    59.42128    42.86252    95.14341
    18  H   1.0    0.12    0.99    1.43    56.38281    43.94411    96.01862
    19  H   1.0    0.11    0.99    1.43    58.35240    45.80074    94.04450
    20  N   5.0   -0.46    3.01    1.93    57.56779    53.99906    99.10288
    21  C   4.0    0.08    3.99    3.59    56.65036    55.61691   101.10631
    22  C   4.0    0.07    3.00    3.02    56.00265    58.31014   100.25170
    23  O   6.0   -0.41    1.00    1.80    54.61384    59.66112   101.49948
    24  C   4.0   -0.02    3.98    3.59    58.70131    55.68310   103.17169
    25  O   6.0   -0.50    1.99    1.82    59.59138    53.19173   103.49689
    26  H   1.0    0.26    1.00    1.43    59.44764    53.68380    99.13837
    27  H   1.0    0.14    0.99    1.43    54.90904    54.78583   101.86486
    28  H   1.0    0.12    0.99    1.43    60.25344    56.91948   102.55081
    29  H   1.0    0.11    0.99    1.43    57.88374    56.44804   104.90671
    30  H   1.0    0.26    0.99    1.43    60.54758    53.06671   105.04350
    31  N   5.0   -0.70    3.00    1.93    43.13675    28.40120   101.60719
    32  C   4.0    0.07    3.99    3.60    42.03515    30.05310   103.48143
    33  C   4.0    0.27    3.02    3.02    43.83505    30.16345   105.73095
    34  O   6.0   -0.41    1.00    1.80    44.92619    28.26639   106.47589
    35  C   4.0   -0.15    3.98    3.59    39.48306    28.99991   104.40673
    36  C   4.0   -0.17    3.98    3.59    37.69069    31.12597   105.16812
    37  C   4.0   -0.16    3.98    3.59    35.36744    30.10445   106.54624
    38  C   4.0   -0.05    3.98    3.59    33.40143    32.18880   106.85216
    39  N   5.0   -0.73    3.98    2.82    31.33905    31.36523   108.57185
    40  H   1.0    0.29    1.00    1.43    43.82271    26.75096   102.28241
    41  H   1.0    0.12    0.99    1.43    41.81411    31.91025   102.60867
    42  H   1.0    0.10    0.99    1.43    38.66050    27.88370   102.88051
    43  H   1.0    0.13    0.99    1.43    39.83669    27.73136   105.99577
    44  H   1.0    0.12    0.99    1.43    38.69471    32.46210   106.37405
    45  H   1.0    0.10    0.99    1.43    37.11600    32.12738   103.46201
    46  H   1.0    0.11    0.99    1.43    34.59304    28.53073   105.46431
    47  H   1.0    0.12    0.99    1.43    35.96570    29.39253   108.38506
    48  H   1.0    0.13    0.99    1.43    34.25874    33.89222   107.63674
    49  H   1.0    0.11    0.99    1.43    32.59379    32.65433   105.01605
    50  H   1.0    0.26    1.00    1.43    30.08395    32.82921   108.83533
    51  H   1.0    0.24    1.00    1.43    30.40977    29.81982   107.83111
    52  H   1.0    0.25    1.00    1.43    32.08224    30.87246   110.30226
    53  N   5.0   -0.50    3.01    1.93    43.91413    32.39115   106.92638
    54  C   4.0    0.08    4.00    3.62    45.42821    32.66522   109.19158
    55  C   4.0    0.26    3.01    3.02    44.23439    34.80500   110.71840
    56  O   6.0   -0.46    1.00    1.80    43.93760    36.94596   109.91529
    57  C   4.0   -0.07    3.98    3.58    48.27733    33.03440   108.63278
    58  C   4.0   -0.16    3.98    3.59    49.64850    33.71996   111.09238
    59  C   4.0   -0.20    3.98    3.59    48.70854    34.98985   106.56160
    60  C   4.0   -0.23    3.98    3.58    52.48548    33.23621   110.97812
    61  H   1.0    0.28    1.00    1.43    43.31420    33.99942   106.06903
    62  H   1.0    0.13    0.99    1.43    45.24371    30.87368   110.22071
    63  H   1.0    0.13    0.99    1.43    48.97383    31.20515   107.95251
    64  H   1.0    0.12    0.99    1.43    49.29724    35.70848   111.51901
    65  H   1.0    0.12    0.99    1.43    48.86683    32.58999   112.63278
    66  H   1.0    0.10    0.99    1.43    50.71054    35.16787   106.14101
    67  H   1.0    0.13    0.99    1.43    47.77533    34.42996   104.81528
    68  H   1.0    0.12    0.99    1.43    47.98452    36.82086   107.14346
    69  H   1.0    0.11    0.99    1.43    53.36987    33.76849   112.75482
    70  H   1.0    0.11    0.99    1.43    52.85442    31.24128   110.64146
    71  H   1.0    0.10    0.99    1.43    53.36456    34.31823   109.46979
    72  N   5.0   -0.48    3.01    1.93    43.42436    34.06370   113.00260
    73  C   4.0    0.08    3.99    3.60    41.90899    35.62042   114.65437
    74  C   4.0    0.06    3.00    3.02    42.79915    35.33775   117.38067
    75  O   6.0   -0.41    1.00    1.80    42.99755    33.23076   118.34643
    76  C   4.0    0.05    3.98    3.58    39.09647    34.77233   114.50131
    77  O   6.0   -0.46    1.99    1.82    38.77247    32.28391   115.38316
    78  C   4.0   -0.19    3.98    3.59    38.16080    34.84214   111.76355
    79  H   1.0    0.26    1.00    1.43    43.63628    32.25282   113.56458
    80  H   1.0    0.14    0.99    1.43    42.09411    37.58304   114.05408
    81  H   1.0    0.12    0.99    1.43    38.00867    36.09744   115.69009
    82  H   1.0    0.31    0.99    1.43    39.81086    32.01334   116.87047
    83  H   1.0    0.12    0.99    1.43    36.13262    35.13644   111.72236
    84  H   1.0    0.12    0.99    1.43    39.08820    36.34070   110.71326
    85  H   1.0    0.13    0.99    1.43    38.61412    33.03849   110.89195
    86  N   5.0   -0.70    3.00    1.93    39.88982    45.67562   119.40284
    87  C   4.0    0.07    3.99    3.60    41.29934    46.25263   117.12394
    88  C   4.0    0.28    3.02    3.02    40.97032    44.01187   115.33092
    89  O   6.0   -0.44    1.00    1.80    41.68644    41.88485   115.92987
    90  C   4.0   -0.08    3.98    3.59    44.14242    46.54214   117.70789
    91  C   4.0   -0.16    3.98    3.58    44.67184    48.61258   119.66483
    92  C   4.0   -0.22    3.98    3.59    45.55033    47.05486   115.24356
    93  C   4.0   -0.22    3.98    3.58    47.15565    48.13089   121.05351
    94  H   1.0    0.28    1.00    1.43    40.41892    44.05443   120.28973
    95  H   1.0    0.13    0.99    1.43    40.54441    47.98299   116.28785
    96  H   1.0    0.13    0.99    1.43    44.77434    44.72903   118.48539
    97  H   1.0    0.11    0.99    1.43    44.72412    50.45260   118.71925
    98  H   1.0    0.10    0.99    1.43    43.13664    48.66596   121.04627
    99  H   1.0    0.10    0.99    1.43    47.53416    47.42328   115.61179
   100  H   1.0    0.12    0.99    1.43    45.41404    45.45180   113.96494
   101  H   1.0    0.11    0.99    1.43    44.75994    48.70825   114.30786
   102  H   1.0    0.12    0.99    1.43    47.61905    49.74296   122.23789
   103  H   1.0    0.11    0.99    1.43    46.98957    46.45186   122.23109
   104  H   1.0    0.11    0.99    1.43    48.69144    47.85591   119.71525
   105  N   5.0   -0.50    3.01    1.93    39.85214    44.47842   113.12506
   106  C   4.0    0.07    4.00    3.62    39.36894    42.43930   111.35873
   107  C   4.0    0.26    3.00    3.02    40.18402    43.24712   108.70243
   108  O   6.0   -0.45    1.00    1.80    39.77633    45.35747   107.85499
   109  C   4.0   -0.13    3.98    3.59    36.58259    41.55942   111.57746
   110  C   4.0   -0.12    3.98    3.59    35.07940    41.46697   109.10302
   111  C   4.0    0.26    3.00    3.02    32.60139    40.13622   109.70582
   112  O   6.0   -0.44    1.00    1.80    32.29596    37.87302   109.39289
   113  N   5.0   -0.66    3.00    1.93    30.82000    41.61774   110.72412
   114  H   1.0    0.29    1.00    1.43    39.32686    46.26178   112.65481
   115  H   1.0    0.13    0.99    1.43    40.60831    40.89296   111.95001
   116  H   1.0    0.11    0.99    1.43    36.57233    39.67532   112.40887
   117  H   1.0    0.13    0.99    1.43    35.63447    42.82427   112.90394
   118  H   1.0    0.11    0.99    1.43    34.72820    43.36729   108.39242
   119  H   1.0    0.12    0.99    1.43    36.11046    40.38696   107.68142
   120  H   1.0    0.25    1.00    1.43    31.09628    43.47870   111.00116
   121  H   1.0    0.28    1.00    1.43    29.16921    40.84781   111.28319
   122  N   5.0   -0.50    3.01    1.93    41.35540    41.40266   107.42979
   123  C   4.0    0.08    3.99    3.61    42.52444    41.70195   104.97425
   124  C   4.0    0.27    3.02    3.02    41.75986    39.42285   103.35766
   125  O   6.0   -0.46    1.00    1.80    42.14607    37.24320   104.03755
   126  C   4.0   -0.08    3.98    3.59    45.43570    41.70152   105.22250
   127  C   4.0   -0.15    3.98    3.58    46.37070    43.86382   106.90497
   128  C   4.0   -0.22    3.98    3.59    46.64234    41.79171   102.60502
   129  C   4.0   -0.24    3.98    3.58    49.09468    43.48237   107.77564
   130  H   1.0    0.28    1.00    1.43    41.86774    39.77952   108.31464
   131  H   1.0    0.15    0.99    1.43    41.84290    43.46137   104.13545
   132  H   1.0    0.13    0.99    1.43    45.93143    39.91463   106.13735
   133  H   1.0    0.10    0.99    1.43    46.19171    45.64682   105.88486
   134  H   1.0    0.13    0.99    1.43    45.16954    43.98583   108.57915
   135  H   1.0    0.10    0.99    1.43    48.68550    41.84972   102.76714
   136  H   1.0    0.13    0.99    1.43    46.15220    40.11493   101.52434
   137  H   1.0    0.12    0.99    1.43    46.00002    43.44064   101.56306
   138  H   1.0    0.10    0.99    1.43    49.62288    44.95130   109.11380
   139  H   1.0    0.10    0.99    1.43    49.28755    41.66267   108.71766
   140  H   1.0    0.10    0.99    1.43    50.40130    43.54134   106.19252
   141  N   5.0   -0.50    3.01    1.93    40.62912    40.00575   101.17343
   142  C   4.0    0.08    4.00    3.62    40.16003    38.10780    99.26422
   143  C   4.0    0.26    3.01    3.02    41.71273    38.81085    96.92750
   144  O   6.0   -0.43    1.00    1.80    41.76035    40.96294    96.08899
   145  C   4.0   -0.09    3.98    3.58    37.33640    37.82500    98.59782
   146  C   4.0   -0.23    3.98    3.59    36.97351    35.34474    97.16914
   147  C   4.0   -0.22    3.98    3.59    35.73310    37.87155   100.99586
   148  H   1.0    0.29    1.00    1.43    40.45170    41.83908   100.64895
   149  H   1.0    0.13    0.99    1.43    40.85068    36.32345   100.05149
   150  H   1.0    0.12    0.99    1.43    36.78553    39.40501    97.38210
   151  H   1.0    0.10    0.99    1.43    34.98666    35.04675    96.76430
   152  H   1.0    0.12    0.99    1.43    38.01261    35.36151    95.39778
   153  H   1.0    0.10    0.99    1.43    37.66930    33.77123    98.29363
   154  H   1.0    0.09    0.99    1.43    33.75689    37.60249   100.51377
   155  H   1.0    0.11    0.99    1.43    36.33519    36.37575   102.26706
   156  H   1.0    0.12    0.99    1.43    35.93763    39.66742   101.97325
   157  N   5.0   -0.49    3.02    1.93    42.93947    36.84388    95.90292
   158  C   4.0    0.07    3.98    3.59    44.87429    37.04726    93.96673
   159  C   4.0    0.07    3.00    3.02    44.15116    35.09135    91.94059
   160  O   6.0   -0.40    1.00    1.80    44.87028    32.89373    92.12011
   161  C   4.0   -0.08    3.99    3.60    47.43340    36.39591    95.19156
   162  C   4.0    0.27    3.00    3.02    49.72870    37.66266    94.03493
   163  O   6.0   -0.42    1.00    1.80    51.17915    38.92931    95.31116
   164  N   5.0   -0.64    3.00    1.93    50.02167    37.34267    91.53997
   165  H   1.0    0.23    1.00    1.43    42.92865    35.15964    96.81801
   166  H   1.0    0.16    0.99    1.43    44.83742    38.97777    93.22357
   167  H   1.0    0.12    0.99    1.43    47.39721    36.94532    97.17903
   168  H   1.0    0.14    0.99    1.43    47.70604    34.34761    95.11713
   169  H   1.0    0.31    1.00    1.43    51.49238    38.19804    90.66819
   170  H   1.0    0.28    1.00    1.43    48.96458    36.08954    90.58536
   171  N   5.0   -0.70    3.01    1.93    41.07564    42.17722    84.00435
   172  C   4.0    0.08    3.99    3.60    39.23671    42.99734    85.84733
   173  C   4.0    0.28    3.01    3.02    40.61501    43.21294    88.37814
   174  O   6.0   -0.41    1.00    1.80    41.53940    41.37150    89.43164
   175  C   4.0   -0.09    3.98    3.59    37.12704    41.00725    86.07643
   176  C   4.0   -0.22    3.98    3.59    35.21417    41.82284    88.06932
   177  C   4.0   -0.23    3.98    3.59    35.86162    40.52242    83.53405
   178  H   1.0    0.28    1.00    1.43    41.88198    40.47460    84.40055
   179  H   1.0    0.12    0.99    1.43    38.48491    44.83260    85.26240
   180  H   1.0    0.13    0.99    1.43    38.05238    39.27157    86.71285
   181  H   1.0    0.11    0.99    1.43    33.67275    40.46936    88.17256
   182  H   1.0    0.12    0.99    1.43    36.10773    41.93094    89.91675
   183  H   1.0    0.10    0.99    1.43    34.44153    43.67330    87.62361
   184  H   1.0    0.11    0.99    1.43    34.48639    39.01196    83.73042
   185  H   1.0    0.10    0.99    1.43    34.89570    42.21747    82.89214
   186  H   1.0    0.10    0.99    1.43    37.25559    39.97659    82.12755
   187  N   5.0   -0.48    3.01    1.93    40.75085    45.56816    89.26533
   188  C   4.0    0.08    4.00    3.62    41.82015    46.19694    91.69324
   189  C   4.0    0.27    3.01    3.02    39.76782    47.46533    93.26932
   190  O   6.0   -0.46    1.00    1.80    38.67198    49.34746    92.50393
   191  C   4.0   -0.12    3.99    3.60    44.04135    48.05665    91.37493
   192  C   4.0   -0.03    3.03    3.02    46.34267    46.61387    90.57476
   193  C   4.0   -0.09    3.04    3.02    47.64384    45.18554    92.35530
   194  C   4.0   -0.08    3.03    3.02    47.13788    46.53775    88.08370
   195  C   4.0   -0.06    3.03    3.02    49.60155    43.61813    91.65753
   196  C   4.0   -0.09    3.03    3.02    49.11649    44.98717    87.36430
   197  C   4.0    0.11    3.03    3.02    50.29762    43.43736    89.12434
   198  O   6.0   -0.47    1.99    1.83    52.11093    41.73630    88.48016
   199  H   1.0    0.27    1.00    1.43    39.91822    47.00890    88.31618
   200  H   1.0    0.15    0.99    1.43    42.47079    44.44429    92.57719
   201  H   1.0    0.12    0.99    1.43    43.50803    49.46629    89.97226
   202  H   1.0    0.11    0.99    1.43    44.38005    49.02175    93.16490
   203  H   1.0    0.12    0.99    1.43    47.09278    45.28380    94.31873
   204  H   1.0    0.12    1.00    1.43    46.20342    47.69643    86.69074
   205  H   1.0    0.16    1.00    1.43    50.59343    42.52105    93.05711
   206  H   1.0    0.12    1.00    1.43    49.76269    45.00971    85.43406
   207  H   1.0    0.25    0.99    1.43    52.32311    41.64354    86.64767
   208  N   5.0   -0.49    3.01    1.93    39.33842    46.38037    95.50793
   209  C   4.0    0.07    3.99    3.61    37.63050    47.42516    97.38148
   210  C   4.0    0.27    3.01    3.02    39.02410    47.37275    99.91389
   211  O   6.0   -0.46    1.00    1.80    39.98887    45.42576   100.71783
   212  C   4.0   -0.13    3.98    3.59    35.18558    45.87306    97.58742
   213  C   4.0   -0.10    3.97    3.58    33.36013    46.90843    99.59233
   214  C   4.0   -0.22    3.98    3.59    32.31389    49.49437    98.84628
   215  C   4.0   -0.23    3.98    3.59    31.17132    45.06525   100.00209
   216  H   1.0    0.28    1.00    1.43    40.19959    44.72338    95.94672
   217  H   1.0    0.14    0.99    1.43    37.20966    49.36357    96.80882
   218  H   1.0    0.11    0.99    1.43    34.26366    45.85927    95.74107
   219  H   1.0    0.11    0.99    1.43    35.71213    43.93706    98.07862
   220  H   1.0    0.13    0.99    1.43    34.39639    47.09694   101.37812
   221  H   1.0    0.10    0.99    1.43    30.99609    50.16686   100.27220
   222  H   1.0    0.12    0.99    1.43    33.80509    50.89518    98.67978
   223  H   1.0    0.12    0.99    1.43    31.31532    49.39515    97.04923
   224  H   1.0    0.10    0.99    1.43    30.03487    45.64665   101.61220
   225  H   1.0    0.10    0.99    1.43    29.95401    45.05059    98.34644
   226  H   1.0    0.10    0.99    1.43    31.85839    43.16210   100.35323
   227  N   5.0   -0.49    3.01    1.93    39.13751    49.57654   101.12222
   228  C   4.0    0.07    3.99    3.60    40.40133    49.92289   103.53737
   229  C   4.0    0.27    3.02    3.02    38.67434    51.59291   105.14399
   230  O   6.0   -0.47    1.00    1.80    37.87981    53.60325   104.30451
   231  C   4.0   -0.13    3.98    3.59    42.95784    51.22549   103.01999
   232  C   4.0   -0.16    3.97    3.58    44.63396    51.57627   105.35538
   233  C   4.0   -0.15    3.98    3.58    46.57872    53.71711   105.07383
   234  C   4.0   -0.06    3.97    3.58    49.01738    53.14609   103.62256
   235  N   5.0   -0.72    3.98    2.81    48.66672    52.79429   100.84255
   236  H   1.0    0.28    1.00    1.43    38.39274    51.16800   100.35100
   237  H   1.0    0.15    0.99    1.43    40.65379    48.08077   104.43245
   238  H   1.0    0.12    0.99    1.43    43.89451    50.05707   101.60130
   239  H   1.0    0.12    0.99    1.43    42.50267    53.07019   102.21443
   240  H   1.0    0.13    0.99    1.43    43.42150    52.06849   106.95275
   241  H   1.0    0.10    0.99    1.43    45.56646    49.80806   105.85302
   242  H   1.0    0.11    0.99    1.43    45.61596    55.35550   104.27950
   243  H   1.0    0.11    0.99    1.43    47.16419    54.26697   106.97433
   244  H   1.0    0.12    0.99    1.43    50.28942    54.74558   103.89901
   245  H   1.0    0.11    0.99    1.43    49.91011    51.45863   104.39703
   246  H   1.0    0.28    0.99    1.43    50.39857    52.62680    99.91390
   247  H   1.0    0.24    1.00    1.43    47.64030    51.17995   100.49254
   248  H   1.0    0.24    1.00    1.43    47.70566    54.30795   100.08466
   249  N   5.0   -0.49    3.01    1.93    38.07838    50.72673   107.44026
   250  C   4.0    0.08    4.00    3.62    36.69174    52.31343   109.18253
   251  C   4.0    0.26    3.02    3.02    37.64948    51.92147   111.85201
   252  O   6.0   -0.46    1.00    1.80    38.64039    49.93305   112.53550
   253  C   4.0   -0.13    3.98    3.59    33.80544    51.94123   109.00916
   254  C   4.0   -0.09    3.97    3.58    32.76238    49.47088   110.13392
   255  C   4.0   -0.21    3.98    3.59    31.84463    49.88358   112.84376
   256  C   4.0   -0.23    3.98    3.59    30.57885    48.50341   108.49385
   257  H   1.0    0.29    1.00    1.43    38.74144    49.04246   108.07532
   258  H   1.0    0.15    0.99    1.43    37.07124    54.28112   108.65522
   259  H   1.0    0.12    0.99    1.43    32.93801    53.56016   109.94834
   260  H   1.0    0.12    0.99    1.43    33.34758    52.05351   107.00052
   261  H   1.0    0.13    0.99    1.43    34.28575    48.06976   110.15607
   262  H   1.0    0.11    0.99    1.43    31.21862    48.11981   113.69708
   263  H   1.0    0.13    0.99    1.43    33.33353    50.66771   114.02550
   264  H   1.0    0.11    0.99    1.43    30.26898    51.20492   112.85856
   265  H   1.0    0.10    0.99    1.43    29.42591    47.15589   109.53125
   266  H   1.0    0.11    0.99    1.43    29.36703    50.07409   107.95866
   267  H   1.0    0.10    0.99    1.43    31.28555    47.61963   106.77942
   268  N   5.0   -0.49    3.01    1.93    37.27896    53.89101   113.38071
   269  C   4.0    0.06    3.99    3.61    37.83518    53.71717   116.03773
   270  C   4.0    0.06    3.00    3.02    35.98533    55.27992   117.58534
   271  O   6.0   -0.42    1.00    1.80    35.05692    57.25186   116.79195
   272  C   4.0   -0.13    3.98    3.59    40.55684    54.57084   116.64519
   273  C   4.0   -0.09    3.97    3.58    41.08876    57.30665   115.93372
   274  C   4.0    0.31    2.99    3.02    43.86730    58.00379   116.65379
   275  O   6.0   -0.36    1.00    1.80    44.22708    58.74488   118.86038
   276  O   6.0   -0.37    1.00    1.80    45.50059    57.72287   114.98402
   277  H   1.0    0.29    1.00    1.43    36.46157    55.49291   112.72361
   278  H   1.0    0.12    0.99    1.43    37.66945    51.72683   116.57076
   279  H   1.0    0.11    0.99    1.43    40.88744    54.31387   118.66549
   280  H   1.0    0.13    0.99    1.43    41.86564    53.35315   115.61081
   281  H   1.0    0.13    0.99    1.43    40.85948    57.57764   113.90000
   282  H   1.0    0.14    0.99    1.43    39.81753    58.58200   116.94708
   283  N   5.0   -0.69    3.00    1.93    34.25474    61.77461   113.55252
   284  C   4.0    0.07    3.98    3.59    35.28279    62.29398   111.06320
   285  C   4.0    0.28    3.01    3.02    34.79768    60.00419   109.35840
   286  O   6.0   -0.46    1.00    1.80    35.05616    57.85536   110.18266
   287  C   4.0   -0.13    3.98    3.59    38.16962    62.68664   111.22871
   288  C   4.0   -0.11    3.98    3.58    39.44738    62.81976   108.65936
   289  C   4.0    0.32    2.99    3.02    42.36742    63.13640   108.84850
   290  O   6.0   -0.46    1.00    1.80    43.59614    61.88598   107.24928
   291  O   6.0   -0.36    1.00    1.80    43.25197    64.64225   110.40165
   292  H   1.0    0.33    1.00    1.43    34.58006    60.02119   114.26438
   293  H   1.0    0.12    0.99    1.43    34.36265    63.99659   110.33789
   294  H   1.0    0.13    0.99    1.43    38.57326    64.41187   112.29140
   295  H   1.0    0.13    0.99    1.43    38.96552    61.10826   112.30153
   296  H   1.0    0.14    0.99    1.43    39.09162    61.10435   107.57091
   297  H   1.0    0.12    0.99    1.43    38.74910    64.45471   107.60360
   298  N   5.0   -0.50    3.01    1.93    34.19568    60.48731   106.95263
   299  C   4.0    0.08    3.99    3.61    34.11682    58.57746   104.98989
   300  C   4.0    0.26    3.01    3.02    35.27482    59.74667   102.61916
   301  O   6.0   -0.43    1.00    1.80    34.94113    61.97512   102.07498
   302  C   4.0   -0.08    3.98    3.58    31.39432    57.62919   104.47136
   303  C   4.0   -0.20    3.98    3.59    29.59394    59.83186   104.00081
   304  C   4.0   -0.22    3.98    3.59    31.36374    55.77985   102.25519
   305  H   1.0    0.25    1.00    1.43    34.04834    62.28088   106.31256
   306  H   1.0    0.14    0.99    1.43    35.25539    56.96842   105.60789
   307  H   1.0    0.12    0.99    1.43    30.77968    56.63081   106.17919
   308  H   1.0    0.11    0.99    1.43    27.74438    59.11274   103.47400
   309  H   1.0    0.13    0.99    1.43    29.40077    60.98184   105.69300
   310  H   1.0    0.14    0.99    1.43    30.28409    61.01821   102.47064
   311  H   1.0    0.11    0.99    1.43    29.52676    54.86930   102.10800
   312  H   1.0    0.13    0.99    1.43    31.69402    56.75186   100.47342
   313  H   1.0    0.11    0.99    1.43    32.79514    54.32343   102.48778
   314  N   5.0   -0.49    3.01    1.93    36.66896    58.16321   101.24236
   315  C   4.0    0.07    3.99    3.61    37.68004    58.80882    98.78688
   316  C   4.0    0.26    3.01    3.02    37.68011    56.40460    97.18078
   317  O   6.0   -0.45    1.00    1.80    37.79598    54.29375    98.11664
   318  C   4.0   -0.14    3.98    3.59    40.34132    59.99795    98.93304
   319  C   4.0   -0.15    3.98    3.58    42.03710    58.70732   100.87640
   320  C   4.0   -0.15    3.98    3.58    44.71569    59.80037   100.88675
   321  C   4.0   -0.04    3.98    3.58    44.76009    62.65519   101.38010
   322  N   5.0   -0.72    3.98    2.80    46.56008    63.28846   103.44125
   323  H   1.0    0.29    1.00    1.43    36.97541    56.36260   101.83747
   324  H   1.0    0.13    0.99    1.43    36.39862    60.19368    97.93234
   325  H   1.0    0.11    0.99    1.43    41.20749    59.90164    97.06506
   326  H   1.0    0.12    0.99    1.43    40.09249    61.97760    99.43126
   327  H   1.0    0.14    0.99    1.43    41.22111    58.92824   102.75993
   328  H   1.0    0.12    0.99    1.43    42.09064    56.69355   100.44041
   329  H   1.0    0.12    0.99    1.43    45.73842    58.88433   102.41924
   330  H   1.0    0.10    0.99    1.43    45.65047    59.38980    99.09710
   331  H   1.0    0.11    0.99    1.43    45.28961    63.67061    99.66925
   332  H   1.0    0.13    0.99    1.43    42.90986    63.31551   102.00652
   333  H   1.0    0.26    1.00    1.43    46.86016    65.19875   103.50171
   334  H   1.0    0.32    0.99    1.43    45.67979    62.74245   105.18565
   335  H   1.0    0.26    1.00    1.43    48.26770    62.38393   103.25923
   336  N   5.0   -0.49    3.01    1.93    37.61564    56.83141    94.69545
   337  C   4.0    0.08    3.99    3.61    37.35922    54.84204    92.83789
   338  C   4.0    0.26    3.01    3.02    38.15181    55.88635    90.26808
   339  O   6.0   -0.43    1.00    1.80    37.85619    58.11689    89.74119
   340  C   4.0   -0.18    3.99    3.60    34.59955    53.97751    92.60411
   341  H   1.0    0.26    1.00    1.43    37.42419    58.60026    93.99036
   342  H   1.0    0.16    0.99    1.43    38.50855    53.22948    93.41140
   343  H   1.0    0.12    0.99    1.43    34.47879    52.34159    91.37127
   344  H   1.0    0.13    0.99    1.43    33.86595    53.45294    94.44812
   345  H   1.0    0.13    0.99    1.43    33.42751    55.49541    91.86631
   346  N   5.0   -0.48    3.01    1.93    39.10697    54.16058    88.67617
   347  C   4.0    0.07    3.99    3.60    39.38954    54.61088    85.99547
   348  C   4.0    0.05    3.00    3.02    38.41859    52.27239    84.59157
   349  O   6.0   -0.44    1.00    1.80    38.36906    50.19001    85.58920
   350  C   4.0   -0.08    3.98    3.58    42.14741    55.17694    85.17341
   351  C   4.0   -0.20    3.98    3.59    43.09145    57.62541    86.37226
   352  C   4.0   -0.21    3.98    3.59    43.91695    52.99572    85.81976
   353  H   1.0    0.28    1.00    1.43    39.12663    52.32576    89.23516
   354  H   1.0    0.13    0.99    1.43    38.23558    56.26846    85.52529
   355  H   1.0    0.10    0.99    1.43    42.10486    55.42283    83.11761
   356  H   1.0    0.10    0.99    1.43    44.97862    58.07075    85.68720
   357  H   1.0    0.12    0.99    1.43    41.83000    59.19064    85.94389
   358  H   1.0    0.13    0.99    1.43    43.17229    57.43892    88.41697
   359  H   1.0    0.10    0.99    1.43    45.78231    53.34437    85.03456
   360  H   1.0    0.11    0.99    1.43    44.10884    52.84954    87.85850
   361  H   1.0    0.12    0.99    1.43    43.19252    51.22072    85.07817
   362  N   5.0   -0.72    3.00    1.93    22.80095    47.70582    88.40829
   363  C   4.0    0.07    3.99    3.60    25.39175    47.35785    89.21887
   364  C   4.0    0.27    3.01    3.02    26.42282    49.81355    90.38125
   365  O   6.0   -0.42    1.00    1.80    27.54974    49.83566    92.39816
   366  C   4.0   -0.09    3.98    3.59    27.03595    46.50337    86.99802
   367  C   4.0   -0.22    3.99    3.60    29.80907    46.41356    87.76407
   368  C   4.0   -0.22    3.98    3.59    26.21103    43.90630    86.05974
   369  H   1.0    0.25    1.00    1.43    22.45384    47.66965    86.53117
   370  H   1.0    0.10    0.99    1.43    25.43911    45.92199    90.71409
   371  H   1.0    0.11    0.99    1.43    26.80147    47.87375    85.46239
   372  H   1.0    0.10    0.99    1.43    30.92033    45.95051    86.10455
   373  H   1.0    0.13    0.99    1.43    30.42430    48.22707    88.50070
   374  H   1.0    0.11    0.99    1.43    30.11697    44.97603    89.20146
   375  H   1.0    0.10    0.99    1.43    27.34625    43.38415    84.43259
   376  H   1.0    0.12    0.99    1.43    26.48717    42.47843    87.51429
   377  H   1.0    0.11    0.99    1.43    24.23009    43.88295    85.50532
   378  N   5.0   -0.49    3.01    1.93    25.97699    51.86326    88.97670
   379  C   4.0    0.07    3.99    3.61    26.89049    54.35231    89.67140
   380  C   4.0    0.10    3.00    3.02    26.34603    54.85493    92.46827
   381  O   6.0   -0.41    1.00    1.80    27.97401    55.60541    93.91804
   382  C   4.0   -0.10    3.98    3.59    25.67738    56.39752    88.00274
   383  C   4.0   -0.21    3.98    3.59    26.27782    59.02634    89.03188
   384  C   4.0   -0.22    3.98    3.59    26.62328    56.15762    85.28628
   385  H   1.0    0.24    1.00    1.43    25.07876    51.67603    87.29836
   386  H   1.0    0.13    0.99    1.43    28.95811    54.42258    89.46737
   387  H   1.0    0.12    0.99    1.43    23.63076    56.10632    88.04107
   388  H   1.0    0.11    0.99    1.43    25.46293    60.45306    87.80122
   389  H   1.0    0.12    0.99    1.43    25.50693    59.26487    90.92080
   390  H   1.0    0.12    0.99    1.43    28.31262    59.30894    89.11932
   391  H   1.0    0.11    0.99    1.43    25.77286    57.61747    84.11958
   392  H   1.0    0.11    0.99    1.43    28.66455    56.38273    85.22041
   393  H   1.0    0.10    0.99    1.43    26.14463    54.32971    84.48236
   394  N   5.0   -0.68    3.00    1.93    23.43409    50.61659    96.75843
   395  C   4.0    0.00    3.98    3.58    24.23886    48.39259    98.12242
   396  C   4.0    0.04    3.00    3.02    22.26429    47.70372   100.12243
   397  O   6.0   -0.40    1.00    1.80    22.14479    48.77680   102.15302
   398  H   1.0    0.27    1.00    1.43    22.65101    50.29402    95.04318
   399  H   1.0    0.10    0.99    1.43    24.52727    46.85802    96.78046
   400  H   1.0    0.13    0.99    1.43    26.00839    48.83074    99.09491
   401  N   5.0   -0.69    3.00    1.93    21.18532    36.14364    94.11450
   402  C   4.0    0.07    3.98    3.59    23.25632    37.60126    93.04258
   403  C   4.0    0.09    3.00    3.02    24.70986    35.83125    91.27277
   404  O   6.0   -0.39    1.00    1.80    24.29552    35.82828    88.99695
   405  C   4.0   -0.16    4.00    3.63    24.76589    38.92856    95.12644
   406  C   4.0   -0.15    3.98    3.58    26.26488    41.15549    94.09878
   407  S   6.0   -0.16    2.01    3.10    28.91784    40.19949    92.13367
   408  C   4.0   -0.22    3.98    3.58    31.33503    39.95207    94.57845
   409  H   1.0    0.26    1.00    1.43    21.51192    35.11754    95.72186
   410  H   1.0    0.13    0.99    1.43    22.36618    39.01058    91.80619
   411  H   1.0    0.10    0.99    1.43    23.42051    39.62063    96.53641
   412  H   1.0    0.10    0.99    1.43    26.00480    37.60857    96.10967
   413  H   1.0    0.10    0.99    1.43    25.04630    42.30189    92.89702
   414  H   1.0    0.10    0.99    1.43    27.00494    42.30722    95.63741
   415  H   1.0    0.10    0.99    1.43    33.03060    39.30778    93.62741
   416  H   1.0    0.09    0.99    1.43    31.64673    41.79633    95.42157
   417  H   1.0    0.10    0.99    1.43    30.74812    38.59617    96.00260
   418  H   1.0    0.29    1.00    1.43    60.44586    49.74902    94.48081
   419  H   1.0    0.15    1.00    1.43    56.72350    58.98989    98.64254
   420  H   1.0    0.29    1.00    1.43    41.96227    27.99828   100.44494
   421  H   1.0    0.14    1.00    1.43    43.22706    36.87123   118.39871
   422  H   1.0    0.29    1.00    1.43    40.08825    46.93589   120.52752
   423  H   1.0    0.14    1.00    1.43    43.08869    35.60758    90.46556
   424  H   1.0    0.29    1.00    1.43    40.32959    42.03439    82.48265
   425  H   1.0    0.13    1.00    1.43    35.48457    54.71057   119.31628
   426  H   1.0    0.31    1.00    1.43    34.91717    62.86331   114.67879
   427  H   1.0    0.12    1.00    1.43    37.80355    52.42666    82.81140
   428  H   1.0    0.29    1.00    1.43    21.82933    46.47624    89.06910
   429  H   1.0    0.14    1.00    1.43    24.61069    54.56853    93.15938
   430  H   1.0    0.32    1.00    1.43    22.26389    51.44896    97.66967
   431  H   1.0    0.13    1.00    1.43    21.01368    46.32873    99.78121
   432  H   1.0    0.29    1.00    1.43    19.90614    37.18844    94.52031
   433  H   1.0    0.13    1.00    1.43    26.01606    34.65876    91.97288

           ------------------------------------------------- 
          |        Self-Consistent Charge Iterations        |
           ------------------------------------------------- 

          ...................................................
          :                      SETUP                      :
          :.................................................:
          :  # basis functions                1021          :
          :  # atomic orbitals                1020          :
          :  # shells                          628          :
          :  # electrons                      1114          :
          :  max. iterations                   250          :
          :  Hamiltonian                  GFN2-xTB          :
          :  restarted?                      false          :
          :  GBSA solvation                   true          :
          :  PC potential                    false          :
          :  electronic temp.          500.0000000     K    :
          :  accuracy                    0.1000000          :
          :  -> integral cutoff          0.3500000E+02      :
          :  -> integral neglect         0.1000000E-08      :
          :  -> SCF convergence          0.1000000E-06 Eh   :
          :  -> wf. convergence          0.1000000E-04 e    :
          :  Broyden damping             0.4000000          :
          ...................................................

 iter      E             dE          RMSdq      gap      omega  full diag
   1   -633.2226626 -0.633223E+03  0.408E+00    2.01       0.0  T
   2   -634.9439025 -0.172124E+01  0.208E+00    1.47       1.0  T
   3   -635.0075417 -0.636392E-01  0.115E+00    1.67       1.0  T
   4   -635.0331997 -0.256580E-01  0.290E-01    1.10       1.0  T
   5   -635.0502679 -0.170682E-01  0.118E-01    1.29       1.0  T
   6   -635.0509420 -0.674111E-03  0.535E-02    1.36       1.0  T
   7   -635.0510345 -0.925445E-04  0.230E-02    1.40       1.0  T
   8   -635.0511016 -0.670588E-04  0.102E-02    1.40       1.0  T
   9   -635.0511085 -0.695374E-05  0.525E-03    1.39       1.0  T
  10   -635.0511114 -0.284311E-05  0.237E-03    1.39       2.0  T
  11   -635.0511118 -0.451883E-06  0.112E-03    1.39       4.3  T
  12   -635.0511119 -0.105450E-06  0.554E-04    1.39       8.7  T
  13   -635.0511120 -0.329243E-07  0.268E-04    1.39      18.0  T
  14   -635.0511120 -0.558657E-08  0.116E-04    1.39      41.4  T
  15   -635.0511120 -0.168939E-08  0.450E-05    1.39     106.7  T
  16   -635.0511120 -0.209070E-09  0.203E-05    1.39     236.7  T

   *** convergence criteria satisfied after 16 iterations ***

         #    Occupation            Energy/Eh            Energy/eV
      -------------------------------------------------------------
         1        2.0000           -0.7469578             -20.3258
       ...           ...                  ...                  ...
       551        2.0000           -0.3680109             -10.0141
       552        2.0000           -0.3630319              -9.8786
       553        2.0000           -0.3612649              -9.8305
       554        2.0000           -0.3611353              -9.8270
       555        2.0000           -0.3603362              -9.8052
       556        2.0000           -0.3598452              -9.7919
       557        2.0000           -0.3577543              -9.7350 (HOMO)
       558        0.0000           -0.3065646              -8.3420 (LUMO)
       559                         -0.3026591              -8.2358
       560                         -0.3017490              -8.2110
       561                         -0.2933328              -7.9820
       562                         -0.2926781              -7.9642
       ...                                ...                  ...
      1020                          0.6782152              18.4552
      -------------------------------------------------------------
                  HL-Gap            0.0511897 Eh            1.3929 eV
             Fermi-level           -0.3318249 Eh           -9.0294 eV

 SCC (total)                   0 d,  0 h,  0 min,  9.378 sec
 SCC setup                      ...        0 min,  0.150 sec (  1.604%)
 Dispersion                     ...        0 min,  0.061 sec (  0.649%)
 integral evaluation            ...        0 min,  0.448 sec (  4.772%)
 zeroth order Hamiltonian       ...        0 min,  0.018 sec (  0.191%)
 iterations                     ...        0 min,  7.618 sec ( 81.239%)
 molecular gradient             ...        0 min,  1.056 sec ( 11.257%)
 printout                       ...        0 min,  0.027 sec (  0.287%)

         :::::::::::::::::::::::::::::::::::::::::::::::::::::
         ::                     SUMMARY                     ::
         :::::::::::::::::::::::::::::::::::::::::::::::::::::
         :: total energy             -627.254158196799 Eh   ::
         :: total w/o Gsasa/hb       -627.173652481165 Eh   ::
         :: gradient norm               0.630549800711 Eh/α ::
         :: HOMO-LUMO gap               1.392941495161 eV   ::
         ::.................................................::
         :: SCC energy               -635.072664152297 Eh   ::
         :: -> isotropic ES             1.795497854059 Eh   ::
         :: -> anisotropic ES          -0.063419159181 Eh   ::
         :: -> anisotropic XC           0.229834246440 Eh   ::
         :: -> dispersion              -0.506163111062 Eh   ::
         :: -> Gsolv                   -0.474889666735 Eh   ::
         ::    -> Gborn                -0.394383951101 Eh   ::
         ::    -> Gsasa                -0.023409625422 Eh   ::
         ::    -> Ghb                  -0.058953533339 Eh   ::
         ::    -> Gshift                0.001857443127 Eh   ::
         :: repulsion energy            7.772970637210 Eh   ::
         :: add. restraining            0.000000000000 Eh   ::
         :::::::::::::::::::::::::::::::::::::::::::::::::::::

           -------------------------------------------------
          |                Property Printout                |
           -------------------------------------------------

    * Orbital Energies and Occupations

         #    Occupation            Energy/Eh            Energy/eV
      -------------------------------------------------------------
         1        2.0000           -0.7469578             -20.3258
       ...           ...                  ...                  ...
       545        2.0000           -0.3789509             -10.3118
       546        2.0000           -0.3765835             -10.2474
       547        2.0000           -0.3740085             -10.1773
       548        2.0000           -0.3710803             -10.0976
       549        2.0000           -0.3696087             -10.0576
       550        2.0000           -0.3689749             -10.0403
       551        2.0000           -0.3680109             -10.0141
       552        2.0000           -0.3630319              -9.8786
       553        2.0000           -0.3612649              -9.8305
       554        2.0000           -0.3611353              -9.8270
       555        2.0000           -0.3603362              -9.8052
       556        2.0000           -0.3598452              -9.7919
       557        2.0000           -0.3577543              -9.7350 (HOMO)
       558        0.0000           -0.3065646              -8.3420 (LUMO)
       559                         -0.3026591              -8.2358
       560                         -0.3017490              -8.2110
       561                         -0.2933328              -7.9820
       562                         -0.2926781              -7.9642
       563                         -0.2862547              -7.7894
       564                         -0.2812373              -7.6529
       565                         -0.2738128              -7.4508
       566                         -0.2349238              -6.3926
       567                         -0.2331013              -6.3430
       568                         -0.2295971              -6.2477
       ...                                ...                  ...
      1020                          0.6782152              18.4552
      -------------------------------------------------------------
                  HL-Gap            0.0511897 Eh            1.3929 eV
             Fermi-level           -0.3318249 Eh           -9.0294 eV

   #   Z        covCN         q      C6AA      α(0)
   1   7 N      2.634    -0.391    30.122     8.151
   2   6 C      3.786     0.023    20.203     6.402
   3   6 C      2.757     0.267    22.499     7.767
   4   8 O      0.858    -0.475    23.233     6.462
   5   6 C      3.812    -0.078    21.974     6.672
   6   6 C      3.848    -0.006    20.658     6.465
   7   6 C      3.758    -0.115    22.753     6.801
   8   6 C      3.755    -0.112    22.694     6.793
   9   1 H      0.860     0.155     1.370     1.833
  10   1 H      0.924     0.063     2.162     2.300
  11   1 H      0.924     0.045     2.386     2.416
  12   1 H      0.924     0.050     2.321     2.382
  13   1 H      0.924     0.025     2.653     2.547
  14   1 H      0.925     0.032     2.552     2.498
  15   1 H      0.925     0.038     2.482     2.464
  16   1 H      0.925     0.044     2.401     2.423
  17   1 H      0.925     0.033     2.544     2.494
  18   1 H      0.925     0.046     2.371     2.408
  19   1 H      0.925     0.034     2.524     2.485
  20   7 N      2.692    -0.165    24.563     7.361
  21   6 C      3.788     0.016    20.314     6.419
  22   6 C      2.763     0.194    23.860     7.999
  23   8 O      0.856    -0.346    20.630     6.090
  24   6 C      3.679     0.075    19.537     6.331
  25   8 O      1.656    -0.472    22.303     6.375
  26   1 H      0.860     0.214     1.037     1.595
  27   1 H      0.924     0.111     1.692     2.034
  28   1 H      0.923     0.039     2.458     2.452
  29   1 H      0.924     0.056     2.250     2.346
  30   1 H      0.805     0.346     0.598     1.214
  31   7 N      2.639    -0.398    30.329     8.179
  32   6 C      3.788     0.025    20.159     6.395
  33   6 C      2.766     0.277    22.307     7.735
  34   8 O      0.858    -0.501    23.805     6.542
  35   6 C      3.807    -0.076    21.944     6.669
  36   6 C      3.805    -0.077    21.976     6.674
  37   6 C      3.803    -0.093    22.266     6.718
  38   6 C      3.733    -0.054    21.643     6.640
  39   7 N      3.483    -0.144    24.105     7.292
  40   1 H      0.860     0.154     1.372     1.835
  41   1 H      0.924     0.048     2.351     2.398
  42   1 H      0.924     0.053     2.279     2.361
  43   1 H      0.924     0.039     2.464     2.455
  44   1 H      0.924     0.048     2.341     2.393
  45   1 H      0.925     0.059     2.210     2.325
  46   1 H      0.924     0.078     2.002     2.213
  47   1 H      0.924     0.070     2.087     2.259
  48   1 H      0.924     0.123     1.593     1.974
  49   1 H      0.925     0.122     1.599     1.977
  50   1 H      0.859     0.301     0.710     1.320
  51   1 H      0.859     0.299     0.717     1.327
  52   1 H      0.859     0.291     0.740     1.347
  53   7 N      2.693    -0.180    24.908     7.412
  54   6 C      3.805     0.017    20.279     6.411
  55   6 C      2.757     0.274    22.365     7.744
  56   8 O      0.858    -0.460    22.922     6.419
  57   6 C      3.850    -0.018    20.863     6.497
  58   6 C      3.803    -0.060    21.646     6.624
  59   6 C      3.754    -0.112    22.696     6.793
  60   6 C      3.751    -0.110    22.666     6.789
  61   1 H      0.860     0.227     0.979     1.550
  62   1 H      0.924     0.057     2.229     2.335
  63   1 H      0.924     0.046     2.372     2.409
  64   1 H      0.924     0.035     2.520     2.482
  65   1 H      0.924     0.026     2.647     2.544
  66   1 H      0.925     0.047     2.359     2.402
  67   1 H      0.925     0.043     2.414     2.429
  68   1 H      0.925     0.052     2.298     2.370
  69   1 H      0.925     0.039     2.462     2.454
  70   1 H      0.925     0.039     2.464     2.454
  71   1 H      0.925     0.045     2.383     2.414
  72   7 N      2.693    -0.163    24.517     7.354
  73   6 C      3.789     0.010    20.429     6.437
  74   6 C      2.768     0.199    23.760     7.983
  75   8 O      0.856    -0.364    20.984     6.142
  76   6 C      3.726     0.120    18.714     6.177
  77   8 O      1.656    -0.461    22.067     6.341
  78   6 C      3.753    -0.137    23.197     6.868
  79   1 H      0.860     0.208     1.067     1.618
  80   1 H      0.924     0.093     1.847     2.125
  81   1 H      0.923     0.027     2.632     2.537
  82   1 H      0.804     0.323     0.656     1.273
  83   1 H      0.925     0.090     1.883     2.146
  84   1 H      0.925     0.056     2.243     2.342
  85   1 H      0.925     0.082     1.958     2.188
  86   7 N      2.638    -0.390    30.103     8.149
  87   6 C      3.789     0.026    20.155     6.394
  88   6 C      2.765     0.274    22.373     7.746
  89   8 O      0.859    -0.503    23.847     6.547
  90   6 C      3.856    -0.024    20.964     6.512
  91   6 C      3.801    -0.054    21.536     6.607
  92   6 C      3.756    -0.108    22.627     6.782
  93   6 C      3.752    -0.106    22.596     6.779
  94   1 H      0.860     0.163     1.314     1.796
  95   1 H      0.924     0.036     2.498     2.472
  96   1 H      0.924     0.042     2.425     2.435
  97   1 H      0.924     0.016     2.798     2.616
  98   1 H      0.924     0.025     2.658     2.550
  99   1 H      0.925     0.045     2.382     2.413
 100   1 H      0.925     0.038     2.480     2.463
 101   1 H      0.925     0.029     2.595     2.519
 102   1 H      0.925     0.030     2.591     2.517
 103   1 H      0.925     0.044     2.400     2.423
 104   1 H      0.925     0.041     2.430     2.438
 105   7 N      2.690    -0.176    24.812     7.398
 106   6 C      3.800     0.013    20.367     6.426
 107   6 C      2.751     0.272    22.395     7.749
 108   8 O      0.858    -0.476    23.262     6.466
 109   6 C      3.808    -0.073    21.898     6.662
 110   6 C      3.805    -0.101    22.421     6.741
 111   6 C      2.750     0.284    22.195     7.714
 112   8 O      0.859    -0.470    23.122     6.447
 113   7 N      2.639    -0.277    27.165     7.741
 114   1 H      0.860     0.220     1.010     1.575
 115   1 H      0.924     0.071     2.070     2.250
 116   1 H      0.925     0.069     2.102     2.267
 117   1 H      0.924     0.060     2.198     2.318
 118   1 H      0.925     0.062     2.180     2.309
 119   1 H      0.924     0.071     2.079     2.255
 120   1 H      0.860     0.202     1.094     1.638
 121   1 H      0.860     0.235     0.945     1.523
 122   7 N      2.694    -0.170    24.684     7.379
 123   6 C      3.795     0.004    20.513     6.449
 124   6 C      2.761     0.271    22.425     7.755
 125   8 O      0.858    -0.479    23.332     6.476
 126   6 C      3.855    -0.023    20.952     6.510
 127   6 C      3.802    -0.059    21.630     6.621
 128   6 C      3.755    -0.118    22.812     6.810
 129   6 C      3.751    -0.112    22.701     6.795
 130   1 H      0.860     0.221     1.005     1.571
 131   1 H      0.924     0.088     1.900     2.156
 132   1 H      0.924     0.054     2.268     2.355
 133   1 H      0.924     0.047     2.356     2.400
 134   1 H      0.924     0.019     2.746     2.591
 135   1 H      0.925     0.063     2.166     2.302
 136   1 H      0.925     0.027     2.629     2.536
 137   1 H      0.925     0.055     2.264     2.353
 138   1 H      0.925     0.038     2.481     2.463
 139   1 H      0.925     0.031     2.567     2.506
 140   1 H      0.925     0.053     2.285     2.364
 141   7 N      2.692    -0.169    24.655     7.375
 142   6 C      3.805     0.008    20.435     6.435
 143   6 C      2.754     0.271    22.424     7.754
 144   8 O      0.858    -0.458    22.871     6.412
 145   6 C      3.851    -0.019    20.872     6.498
 146   6 C      3.757    -0.127    22.999     6.837
 147   6 C      3.756    -0.126    22.966     6.833
 148   1 H      0.860     0.230     0.967     1.540
 149   1 H      0.924     0.074     2.043     2.236
 150   1 H      0.924     0.043     2.413     2.429
 151   1 H      0.925     0.066     2.125     2.280
 152   1 H      0.925     0.032     2.556     2.500
 153   1 H      0.925     0.055     2.262     2.352
 154   1 H      0.925     0.063     2.160     2.298
 155   1 H      0.925     0.061     2.186     2.312
 156   1 H      0.925     0.045     2.382     2.414
 157   7 N      2.698    -0.167    24.621     7.369
 158   6 C      3.786     0.027    20.142     6.392
 159   6 C      2.769     0.198    23.775     7.986
 160   8 O      0.856    -0.346    20.633     6.090
 161   6 C      3.809    -0.112    22.635     6.772
 162   6 C      2.742     0.291    22.065     7.691
 163   8 O      0.859    -0.486    23.468     6.495
 164   7 N      2.638    -0.280    27.223     7.749
 165   1 H      0.860     0.212     1.046     1.602
 166   1 H      0.924     0.099     1.795     2.095
 167   1 H      0.924     0.081     1.967     2.193
 168   1 H      0.924     0.094     1.845     2.124
 169   1 H      0.860     0.235     0.944     1.522
 170   1 H      0.861     0.209     1.061     1.614
 171   7 N      2.640    -0.390    30.103     8.149
 172   6 C      3.792     0.025    20.166     6.395
 173   6 C      2.760     0.274    22.362     7.744
 174   8 O      0.858    -0.495    23.664     6.522
 175   6 C      3.855    -0.018    20.860     6.496
 176   6 C      3.756    -0.113    22.710     6.795
 177   6 C      3.755    -0.112    22.697     6.793
 178   1 H      0.860     0.154     1.374     1.836
 179   1 H      0.924     0.039     2.462     2.454
 180   1 H      0.924     0.032     2.553     2.499
 181   1 H      0.925     0.048     2.350     2.397
 182   1 H      0.925     0.028     2.616     2.529
 183   1 H      0.925     0.042     2.427     2.436
 184   1 H      0.925     0.043     2.406     2.426
 185   1 H      0.925     0.039     2.467     2.456
 186   1 H      0.925     0.036     2.497     2.471
 187   7 N      2.695    -0.169    24.654     7.374
 188   6 C      3.801     0.015    20.324     6.419
 189   6 C      2.759     0.266    22.517     7.771
 190   8 O      0.858    -0.478    23.303     6.472
 191   6 C      3.814    -0.079    22.004     6.677
 192   6 C      2.973     0.002    27.977     8.676
 193   6 C      2.928    -0.045    29.113     8.849
 194   6 C      2.924    -0.041    29.028     8.835
 195   6 C      2.919    -0.064    29.589     8.920
 196   6 C      2.920    -0.076    29.894     8.966
 197   6 C      2.846     0.141    24.932     8.183
 198   8 O      1.658    -0.439    21.610     6.275
 199   1 H      0.860     0.208     1.068     1.619
 200   1 H      0.924     0.082     1.963     2.191
 201   1 H      0.925     0.067     2.122     2.278
 202   1 H      0.924     0.068     2.106     2.269
 203   1 H      0.926     0.049     2.327     2.386
 204   1 H      0.926     0.044     2.396     2.421
 205   1 H      0.926     0.057     2.233     2.337
 206   1 H      0.926     0.037     2.489     2.467
 207   1 H      0.803     0.344     0.602     1.219
 208   7 N      2.693    -0.172    24.718     7.384
 209   6 C      3.795     0.011    20.394     6.431
 210   6 C      2.758     0.268    22.467     7.762
 211   8 O      0.859    -0.476    23.254     6.465
 212   6 C      3.807    -0.072    21.870     6.657
 213   6 C      3.849    -0.011    20.736     6.477
 214   6 C      3.756    -0.116    22.767     6.803
 215   6 C      3.756    -0.118    22.811     6.810
 216   1 H      0.860     0.221     1.007     1.572
 217   1 H      0.924     0.082     1.956     2.187
 218   1 H      0.924     0.054     2.275     2.359
 219   1 H      0.924     0.057     2.240     2.341
 220   1 H      0.924     0.026     2.651     2.546
 221   1 H      0.925     0.037     2.488     2.467
 222   1 H      0.925     0.033     2.539     2.492
 223   1 H      0.925     0.048     2.343     2.394
 224   1 H      0.925     0.042     2.418     2.432
 225   1 H      0.925     0.040     2.445     2.445
 226   1 H      0.925     0.053     2.282     2.362
 227   7 N      2.696    -0.166    24.589     7.365
 228   6 C      3.792     0.008    20.455     6.441
 229   6 C      2.764     0.270    22.445     7.759
 230   8 O      0.859    -0.486    23.484     6.497
 231   6 C      3.804    -0.088    22.177     6.704
 232   6 C      3.798    -0.073    21.894     6.662
 233   6 C      3.799    -0.092    22.262     6.718
 234   6 C      3.728    -0.052    21.612     6.637
 235   7 N      3.480    -0.136    23.932     7.266
 236   1 H      0.860     0.225     0.987     1.556
 237   1 H      0.924     0.090     1.876     2.142
 238   1 H      0.924     0.073     2.056     2.242
 239   1 H      0.924     0.074     2.045     2.236
 240   1 H      0.924     0.028     2.620     2.531
 241   1 H      0.925     0.064     2.151     2.293
 242   1 H      0.925     0.078     2.003     2.213
 243   1 H      0.924     0.072     2.063     2.246
 244   1 H      0.924     0.115     1.655     2.012
 245   1 H      0.925     0.122     1.594     1.975
 246   1 H      0.858     0.301     0.709     1.320
 247   1 H      0.859     0.286     0.758     1.364
 248   1 H      0.859     0.288     0.749     1.356
 249   7 N      2.689    -0.172    24.729     7.386
 250   6 C      3.803     0.024    20.176     6.395
 251   6 C      2.762     0.273    22.385     7.748
 252   8 O      0.858    -0.485    23.453     6.493
 253   6 C      3.805    -0.074    21.911     6.664
 254   6 C      3.847    -0.014    20.798     6.487
 255   6 C      3.755    -0.112    22.695     6.793
 256   6 C      3.756    -0.122    22.890     6.822
 257   1 H      0.860     0.229     0.969     1.542
 258   1 H      0.924     0.069     2.096     2.264
 259   1 H      0.924     0.051     2.310     2.377
 260   1 H      0.924     0.066     2.131     2.283
 261   1 H      0.924     0.042     2.422     2.434
 262   1 H      0.925     0.049     2.328     2.386
 263   1 H      0.925     0.014     2.823     2.628
 264   1 H      0.925     0.039     2.465     2.455
 265   1 H      0.925     0.054     2.268     2.355
 266   1 H      0.925     0.044     2.396     2.421
 267   1 H      0.925     0.050     2.316     2.380
 268   7 N      2.692    -0.171    24.710     7.383
 269   6 C      3.797     0.036    19.978     6.364
 270   6 C      2.768     0.196    23.816     7.992
 271   8 O      0.856    -0.365    20.992     6.143
 272   6 C      3.806    -0.038    21.243     6.561
 273   6 C      3.797    -0.076    21.963     6.673
 274   6 C      2.684     0.373    20.685     7.443
 275   8 O      0.856    -0.651    27.407     7.019
 276   8 O      0.856    -0.635    26.997     6.966
 277   1 H      0.860     0.218     1.019     1.581
 278   1 H      0.924     0.088     1.902     2.157
 279   1 H      0.924     0.039     2.461     2.453
 280   1 H      0.924     0.054     2.266     2.354
 281   1 H      0.924     0.013     2.846     2.638
 282   1 H      0.924     0.003     3.013     2.715
 283   7 N      2.636    -0.397    30.278     8.172
 284   6 C      3.784     0.035    20.008     6.371
 285   6 C      2.756     0.276    22.335     7.739
 286   8 O      0.859    -0.492    23.599     6.513
 287   6 C      3.806    -0.040    21.280     6.567
 288   6 C      3.798    -0.091    22.240     6.715
 289   6 C      2.684     0.366    20.791     7.462
 290   8 O      0.858    -0.592    25.916     6.825
 291   8 O      0.856    -0.631    26.902     6.954
 292   1 H      0.860     0.172     1.263     1.761
 293   1 H      0.924     0.030     2.581     2.512
 294   1 H      0.924     0.018     2.765     2.600
 295   1 H      0.924     0.005     2.967     2.694
 296   1 H      0.924     0.022     2.710     2.575
 297   1 H      0.924     0.026     2.637     2.539
 298   7 N      2.691    -0.171    24.697     7.381
 299   6 C      3.797     0.014    20.346     6.423
 300   6 C      2.758     0.274    22.365     7.744
 301   8 O      0.858    -0.503    23.841     6.547
 302   6 C      3.850    -0.013    20.777     6.483
 303   6 C      3.755    -0.117    22.787     6.807
 304   6 C      3.755    -0.118    22.823     6.812
 305   1 H      0.860     0.200     1.103     1.646
 306   1 H      0.924     0.075     2.027     2.226
 307   1 H      0.924     0.044     2.401     2.423
 308   1 H      0.925     0.054     2.272     2.357
 309   1 H      0.925     0.034     2.526     2.485
 310   1 H      0.925     0.046     2.366     2.406
 311   1 H      0.925     0.059     2.210     2.325
 312   1 H      0.925     0.042     2.426     2.436
 313   1 H      0.925     0.052     2.301     2.372
 314   7 N      2.693    -0.168    24.643     7.373
 315   6 C      3.796     0.014    20.340     6.422
 316   6 C      2.757     0.269    22.453     7.759
 317   8 O      0.858    -0.470    23.123     6.447
 318   6 C      3.803    -0.084    22.095     6.692
 319   6 C      3.801    -0.072    21.881     6.660
 320   6 C      3.802    -0.098    22.371     6.734
 321   6 C      3.730    -0.037    21.333     6.593
 322   7 N      3.478    -0.173    24.737     7.387
 323   1 H      0.860     0.233     0.951     1.527
 324   1 H      0.924     0.062     2.177     2.307
 325   1 H      0.924     0.074     2.041     2.234
 326   1 H      0.925     0.057     2.229     2.335
 327   1 H      0.924     0.043     2.415     2.430
 328   1 H      0.924     0.065     2.139     2.287
 329   1 H      0.925     0.084     1.937     2.177
 330   1 H      0.924     0.097     1.813     2.105
 331   1 H      0.925     0.112     1.677     2.025
 332   1 H      0.924     0.087     1.904     2.158
 333   1 H      0.859     0.270     0.811     1.410
 334   1 H      0.855     0.296     0.725     1.334
 335   1 H      0.859     0.287     0.753     1.360
 336   7 N      2.693    -0.164    24.541     7.357
 337   6 C      3.795     0.011    20.401     6.432
 338   6 C      2.761     0.271    22.427     7.755
 339   8 O      0.858    -0.482    23.394     6.485
 340   6 C      3.758    -0.111    22.682     6.790
 341   1 H      0.860     0.208     1.065     1.617
 342   1 H      0.924     0.104     1.750     2.069
 343   1 H      0.925     0.060     2.194     2.316
 344   1 H      0.925     0.063     2.159     2.298
 345   1 H      0.925     0.046     2.372     2.409
 346   7 N      2.691    -0.162    24.496     7.351
 347   6 C      3.791     0.019    20.263     6.411
 348   6 C      2.768     0.197    23.795     7.989
 349   8 O      0.856    -0.361    20.919     6.132
 350   6 C      3.850    -0.013    20.773     6.483
 351   6 C      3.755    -0.119    22.839     6.814
 352   6 C      3.755    -0.120    22.855     6.817
 353   1 H      0.860     0.219     1.015     1.578
 354   1 H      0.924     0.088     1.897     2.154
 355   1 H      0.924     0.050     2.320     2.382
 356   1 H      0.925     0.059     2.217     2.328
 357   1 H      0.925     0.047     2.356     2.401
 358   1 H      0.925     0.055     2.259     2.350
 359   1 H      0.925     0.059     2.210     2.325
 360   1 H      0.925     0.060     2.200     2.320
 361   1 H      0.925     0.038     2.474     2.460
 362   7 N      2.636    -0.397    30.289     8.174
 363   6 C      3.792     0.028    20.110     6.386
 364   6 C      2.754     0.268    22.478     7.764
 365   8 O      0.858    -0.474    23.221     6.461
 366   6 C      3.854    -0.017    20.848     6.494
 367   6 C      3.758    -0.112    22.696     6.792
 368   6 C      3.757    -0.109    22.634     6.783
 369   1 H      0.860     0.161     1.331     1.807
 370   1 H      0.924     0.039     2.469     2.457
 371   1 H      0.924     0.031     2.576     2.510
 372   1 H      0.925     0.044     2.393     2.419
 373   1 H      0.925     0.031     2.576     2.510
 374   1 H      0.925     0.053     2.280     2.362
 375   1 H      0.925     0.045     2.380     2.412
 376   1 H      0.925     0.042     2.419     2.432
 377   1 H      0.925     0.036     2.502     2.473
 378   7 N      2.691    -0.171    24.706     7.382
 379   6 C      3.795     0.024    20.177     6.396
 380   6 C      2.765     0.214    23.472     7.934
 381   8 O      0.856    -0.364    20.968     6.139
 382   6 C      3.853    -0.020    20.897     6.502
 383   6 C      3.756    -0.118    22.810     6.810
 384   6 C      3.756    -0.124    22.926     6.827
 385   1 H      0.860     0.209     1.059     1.612
 386   1 H      0.923     0.071     2.070     2.250
 387   1 H      0.924     0.056     2.248     2.345
 388   1 H      0.925     0.059     2.206     2.322
 389   1 H      0.925     0.036     2.509     2.477
 390   1 H      0.925     0.050     2.321     2.382
 391   1 H      0.925     0.060     2.195     2.317
 392   1 H      0.925     0.054     2.274     2.358
 393   1 H      0.925     0.048     2.346     2.395
 394   7 N      2.634    -0.354    29.134     8.016
 395   6 C      3.731    -0.007    20.799     6.510
 396   6 C      2.763     0.197    23.802     7.990
 397   8 O      0.856    -0.378    21.254     6.181
 398   1 H      0.860     0.159     1.343     1.815
 399   1 H      0.925     0.061     2.189     2.314
 400   1 H      0.924     0.080     1.982     2.202
 401   7 N      2.637    -0.392    30.142     8.154
 402   6 C      3.783     0.039    19.937     6.360
 403   6 C      2.766     0.210    23.556     7.948
 404   8 O      0.856    -0.381    21.296     6.187
 405   6 C      3.827    -0.077    21.948     6.666
 406   6 C      3.796    -0.010    20.756     6.487
 407  16 S      1.965    -0.233   151.041    20.685
 408   6 C      3.744    -0.064    21.806     6.662
 409   1 H      0.859     0.170     1.273     1.768
 410   1 H      0.923     0.054     2.269     2.356
 411   1 H      0.924     0.058     2.220     2.330
 412   1 H      0.925     0.061     2.182     2.310
 413   1 H      0.925     0.038     2.473     2.459
 414   1 H      0.925     0.060     2.194     2.316
 415   1 H      0.926     0.068     2.112     2.272
 416   1 H      0.925     0.067     2.121     2.277
 417   1 H      0.925     0.069     2.102     2.267
 418   1 H      0.862     0.178     1.227     1.735
 419   1 H      0.930     0.091     1.865     2.135
 420   1 H      0.862     0.187     1.176     1.698
 421   1 H      0.930     0.081     1.970     2.195
 422   1 H      0.862     0.173     1.253     1.753
 423   1 H      0.930     0.086     1.915     2.164
 424   1 H      0.862     0.183     1.195     1.713
 425   1 H      0.930     0.086     1.919     2.166
 426   1 H      0.862     0.168     1.285     1.776
 427   1 H      0.930     0.079     1.985     2.203
 428   1 H      0.862     0.180     1.216     1.727
 429   1 H      0.930     0.068     2.110     2.271
 430   1 H      0.862     0.177     1.231     1.738
 431   1 H      0.930     0.066     2.129     2.281
 432   1 H      0.862     0.187     1.173     1.696
 433   1 H      0.930     0.074     2.046     2.237

 Mol. C6AA /au·bohr⁶  :    1606762.808390
 Mol. C8AA /au·bohr⁸  :   35430059.031574
 Mol. α(0) /au        :       1892.136229


Wiberg/Mayer (AO) data.
largest (>0.10) Wiberg bond orders for each atom
          total WBO             WBO to atom ...
     1  N   2.998        C    2 1.018    H    9 0.954    H  418 0.953
     2  C   3.981        N    1 1.018    C    5 0.961    H   10 0.958    C    3 0.948
     3  C   3.944        O    4 1.632    N   20 1.282    C    2 0.948
     4  O   1.957        C    3 1.632    N   20 0.185
     5  C   3.992        C    6 0.991    H   12 0.974    H   11 0.973    C    2 0.961
     6  C   3.996        C    8 1.010    C    7 1.006    C    5 0.991    H   13 0.969
     7  C   3.994        C    6 1.006    H   14 0.987    H   15 0.986    H   16 0.986
     8  C   3.995        C    6 1.010    H   17 0.986    H   18 0.986    H   19 0.982
     9  H   0.976        N    1 0.954
    10  H   0.996        C    2 0.958
    11  H   0.998        C    5 0.973
    12  H   0.998        C    5 0.974
    13  H   0.999        C    6 0.969
    14  H   0.998        C    7 0.987
    15  H   0.999        C    7 0.986
    16  H   0.998        C    7 0.986
    17  H   0.999        C    8 0.986
    18  H   0.998        C    8 0.986
    19  H   0.999        C    8 0.982
    20  N   3.455        C    3 1.282    C   21 0.993    H   26 0.916    O    4 0.185
    21  C   3.971        N   20 0.993    C   22 0.973    C   24 0.956    H   27 0.935
    22  C   3.900        O   23 1.915    C   21 0.973    H  419 0.950
    23  O   2.054        C   22 1.915
    24  C   3.959        O   25 1.005    H   29 0.970    H   28 0.968    C   21 0.956
    25  O   1.932        C   24 1.005    H   30 0.865
    26  H   0.954        N   20 0.916
    27  H   0.988        C   21 0.935
    28  H   0.998        C   24 0.968
    29  H   0.996        C   24 0.970
    30  H   0.880        O   25 0.865
    31  N   2.990        C   32 1.019    H   40 0.957    H  420 0.950
    32  C   3.982        N   31 1.019    C   35 0.960    H   41 0.959    C   33 0.947
    33  C   3.940        O   34 1.639    N   53 1.285    C   32 0.947
    34  O   1.951        C   33 1.639    N   53 0.190
    35  C   3.992        C   36 1.008    H   43 0.976    H   42 0.970    C   32 0.960
    36  C   3.993        C   35 1.008    C   37 1.003    H   44 0.973    H   45 0.972
    37  C   3.988        C   38 1.011    C   36 1.003    H   46 0.972    H   47 0.971
    38  C   3.909        C   37 1.011    H   49 0.963    H   48 0.959    N   39 0.955
    39  N   3.666        C   38 0.955    H   52 0.899    H   51 0.897    H   50 0.896
    40  H   0.976        N   31 0.957
    41  H   0.998        C   32 0.959
    42  H   0.997        C   35 0.970
    43  H   0.998        C   35 0.976
    44  H   0.998        C   36 0.973
    45  H   0.997        C   36 0.972
    46  H   0.994        C   37 0.972
    47  H   0.995        C   37 0.971
    48  H   0.985        C   38 0.959
    49  H   0.985        C   38 0.963
    50  H   0.909        N   39 0.896
    51  H   0.911        N   39 0.897
    52  H   0.915        N   39 0.899
    53  N   3.453        C   33 1.285    C   54 0.983    H   61 0.902    O   34 0.190
    54  C   3.970        N   53 0.983    H   62 0.956    C   57 0.951    C   55 0.942
    55  C   3.949        O   56 1.640    N   72 1.286    C   54 0.942
    56  O   1.986        C   55 1.640    N   72 0.198
    57  C   3.988        C   59 1.013    C   58 0.995    H   63 0.965    C   54 0.951
    58  C   3.997        C   60 1.019    C   57 0.995    H   65 0.977    H   64 0.976
    59  C   3.993        C   57 1.013    H   67 0.984    H   66 0.981    H   68 0.975
    60  C   3.995        C   58 1.019    H   70 0.987    H   69 0.986    H   71 0.985
    61  H   0.948        N   53 0.902
    62  H   0.997        C   54 0.956
    63  H   0.997        C   57 0.965
    64  H   0.999        C   58 0.976
    65  H   0.999        C   58 0.977
    66  H   0.997        C   59 0.981
    67  H   0.998        C   59 0.984
    68  H   0.997        C   59 0.975
    69  H   0.998        C   60 0.986
    70  H   0.998        C   60 0.987
    71  H   0.998        C   60 0.985
    72  N   3.472        C   55 1.286    C   73 0.983    H   79 0.922    O   56 0.198
    73  C   3.964        C   74 0.989    N   72 0.983    H   80 0.949    C   76 0.914
    74  C   3.896        O   75 1.875    C   73 0.989    H  421 0.955
    75  O   2.049        C   74 1.875
    76  C   3.953        O   77 1.009    C   78 0.994    H   81 0.958    C   73 0.914
    77  O   1.958        C   76 1.009    H   82 0.857
    78  C   3.982        C   76 0.994    H   84 0.980    H   85 0.978    H   83 0.976
    79  H   0.957        N   72 0.922
    80  H   0.991        C   73 0.949
    81  H   0.999        C   76 0.958
    82  H   0.896        O   77 0.857
    83  H   0.992        C   78 0.976
    84  H   0.997        C   78 0.980
    85  H   0.993        C   78 0.978
    86  N   2.997        C   87 1.012    H   94 0.956    H  422 0.946
    87  C   3.983        N   86 1.012    H   95 0.959    C   90 0.958    C   88 0.946
    88  C   3.948        O   89 1.614    N  105 1.319    C   87 0.946
    89  O   1.929        C   88 1.614    N  105 0.196
    90  C   3.993        C   92 1.010    C   91 0.996    H   96 0.965    C   87 0.958
    91  C   3.997        C   93 1.018    C   90 0.996    H   97 0.978    H   98 0.967
    92  C   3.997        C   90 1.010    H  101 0.986    H  100 0.984    H   99 0.983
    93  C   3.996        C   91 1.018    H  102 0.988    H  103 0.988    H  104 0.985
    94  H   0.973        N   86 0.956
    95  H   0.999        C   87 0.959
    96  H   0.998        C   90 0.965
    97  H   1.000        C   91 0.978
    98  H   0.999        C   91 0.967
    99  H   0.998        C   92 0.983
   100  H   0.999        C   92 0.984
   101  H   0.999        C   92 0.986
   102  H   0.999        C   93 0.988
   103  H   0.998        C   93 0.988
   104  H   0.998        C   93 0.985
   105  N   3.480        C   88 1.319    C  106 0.980    H  114 0.900    O   89 0.196
   106  C   3.958        N  105 0.980    C  109 0.957    H  115 0.949    C  107 0.938
   107  C   3.953        O  108 1.621    N  122 1.314    C  106 0.938
   108  O   1.976        C  107 1.621    N  122 0.202
   109  C   3.986        C  110 0.990    H  117 0.973    H  116 0.971    C  106 0.957
   110  C   3.992        C  109 0.990    H  119 0.970    H  118 0.969    C  111 0.964
   111  C   3.949        O  112 1.647    N  113 1.309    C  110 0.964
   112  O   1.951        C  111 1.647    N  113 0.201
   113  N   3.405        C  111 1.309    H  120 0.935    H  121 0.923    O  112 0.201
   114  H   0.952        N  105 0.900
   115  H   0.995        C  106 0.949
   116  H   0.995        C  109 0.971
   117  H   0.996        C  109 0.973
   118  H   0.996        C  110 0.969
   119  H   0.995        C  110 0.970
   120  H   0.959        N  113 0.935
   121  H   0.945        N  113 0.923
   122  N   3.485        C  107 1.314    C  123 0.978    H  130 0.900    O  108 0.202
   123  C   3.956        N  122 0.978    C  126 0.952    H  131 0.950    C  124 0.936
   124  C   3.951        O  125 1.624    N  141 1.312    C  123 0.936
   125  O   1.962        C  124 1.624    N  141 0.199
   126  C   3.988        C  128 1.008    C  127 0.996    H  132 0.954    C  123 0.952
   127  C   3.995        C  129 1.018    C  126 0.996    H  134 0.975    H  133 0.971
   128  C   3.993        C  126 1.008    H  137 0.985    H  136 0.984    H  135 0.979
   129  C   3.994        C  127 1.018    H  139 0.987    H  138 0.987    H  140 0.984
   130  H   0.951        N  122 0.900
   131  H   0.992        C  123 0.950
   132  H   0.997        C  126 0.954
   133  H   0.997        C  127 0.971
   134  H   1.000        C  127 0.975
   135  H   0.995        C  128 0.979
   136  H   0.999        C  128 0.984
   137  H   0.997        C  128 0.985
   138  H   0.998        C  129 0.987
   139  H   0.999        C  129 0.987
   140  H   0.997        C  129 0.984
   141  N   3.481        C  124 1.312    C  142 0.985    H  148 0.888    O  125 0.199
   142  C   3.960        N  141 0.985    C  145 0.951    H  149 0.950    C  143 0.932
   143  C   3.944        O  144 1.656    N  157 1.274    C  142 0.932
   144  O   1.996        C  143 1.656    N  157 0.191
   145  C   3.986        C  146 1.008    C  147 1.007    H  150 0.965    C  142 0.951
   146  C   3.991        C  145 1.008    H  152 0.986    H  153 0.983    H  151 0.982
   147  C   3.990        C  145 1.007    H  156 0.984    H  154 0.982    H  155 0.981
   148  H   0.947        N  141 0.888
   149  H   0.994        C  142 0.950
   150  H   0.998        C  145 0.965
   151  H   0.995        C  146 0.982
   152  H   0.999        C  146 0.986
   153  H   0.997        C  146 0.983
   154  H   0.995        C  147 0.982
   155  H   0.996        C  147 0.981
   156  H   0.998        C  147 0.984
   157  N   3.464        C  143 1.274    C  158 0.967    H  165 0.922    O  144 0.191
   158  C   3.964        C  161 0.972    N  157 0.967    C  159 0.962    H  166 0.952
   159  C   3.898        O  160 1.912    C  158 0.962    H  423 0.953
   160  O   2.055        C  159 1.912
   161  C   3.986        C  158 0.972    C  162 0.969    H  167 0.969    H  168 0.948
   162  C   3.949        O  163 1.645    N  164 1.307    C  161 0.969
   163  O   1.958        C  162 1.645    N  164 0.202
   164  N   3.400        C  162 1.307    H  170 0.936    H  169 0.914    O  163 0.202
   165  H   0.955        N  157 0.922
   166  H   0.990        C  158 0.952
   167  H   0.993        C  161 0.969
   168  H   0.991        C  161 0.948
   169  H   0.945        N  164 0.914
   170  H   0.956        N  164 0.936
   171  N   2.996        C  172 1.012    H  178 0.959    H  424 0.946
   172  C   3.983        N  171 1.012    H  179 0.961    C  175 0.960    C  173 0.941
   173  C   3.946        O  174 1.633    N  187 1.301    C  172 0.941
   174  O   1.945        C  173 1.633    N  187 0.196
   175  C   3.994        C  177 1.009    C  176 1.009    H  180 0.966    C  172 0.960
   176  C   3.996        C  175 1.009    H  182 0.985    H  181 0.984    H  183 0.983
   177  C   3.996        C  175 1.009    H  185 0.987    H  184 0.984    H  186 0.979
   178  H   0.976        N  171 0.959
   179  H   0.998        C  172 0.961
   180  H   0.999        C  175 0.966
   181  H   0.998        C  176 0.984
   182  H   0.999        C  176 0.985
   183  H   0.998        C  176 0.983
   184  H   0.998        C  177 0.984
   185  H   0.998        C  177 0.987
   186  H   0.999        C  177 0.979
   187  N   3.478        C  173 1.301    C  188 0.982    H  199 0.917    O  174 0.196
   188  C   3.961        N  187 0.982    H  200 0.953    C  191 0.952    C  189 0.934
   189  C   3.950        O  190 1.623    N  208 1.310    C  188 0.934
   190  O   1.965        C  189 1.623    N  208 0.200
   191  C   3.988        C  192 1.011    H  202 0.965    H  201 0.964    C  188 0.952
   192  C   3.987        C  194 1.419    C  193 1.393    C  191 1.011
   193  C   3.990        C  195 1.469    C  192 1.393    H  203 0.967    C  196 0.105
   194  C   3.990        C  196 1.441    C  192 1.419    H  204 0.967    C  195 0.106
   195  C   3.988        C  193 1.469    C  197 1.358    H  205 0.962    C  194 0.106
   196  C   3.987        C  194 1.441    C  197 1.382    H  206 0.967    C  193 0.105
   197  C   3.935        C  196 1.382    C  195 1.358    O  198 1.063
   198  O   2.091        C  197 1.063    H  207 0.860
   199  H   0.957        N  187 0.917
   200  H   0.993        C  188 0.953
   201  H   0.995        C  191 0.964
   202  H   0.994        C  191 0.965
   203  H   0.998        C  193 0.967
   204  H   0.998        C  194 0.967
   205  H   0.996        C  195 0.962
   206  H   0.998        C  196 0.967
   207  H   0.881        O  198 0.860
   208  N   3.481        C  189 1.310    C  209 0.978    H  216 0.906    O  190 0.200
   209  C   3.960        N  208 0.978    C  212 0.969    H  217 0.952    C  210 0.936
   210  C   3.950        O  211 1.607    N  227 1.326    C  209 0.936
   211  O   1.972        C  210 1.607    N  227 0.200
   212  C   3.988        C  213 0.994    H  218 0.972    H  219 0.970    C  209 0.969
   213  C   3.995        C  214 1.010    C  215 1.007    C  212 0.994    H  220 0.967
   214  C   3.994        C  213 1.010    H  223 0.984    H  221 0.984    H  222 0.981
   215  C   3.994        C  213 1.007    H  224 0.986    H  226 0.984    H  225 0.983
   216  H   0.951        N  208 0.906
   217  H   0.993        C  209 0.952
   218  H   0.996        C  212 0.972
   219  H   0.997        C  212 0.970
   220  H   0.999        C  213 0.967
   221  H   0.998        C  214 0.984
   222  H   0.999        C  214 0.981
   223  H   0.998        C  214 0.984
   224  H   0.998        C  215 0.986
   225  H   0.998        C  215 0.983
   226  H   0.997        C  215 0.984
   227  N   3.493        C  210 1.326    C  228 0.977    H  236 0.900    O  211 0.200
   228  C   3.959        N  227 0.977    C  231 0.966    H  237 0.951    C  229 0.941
   229  C   3.943        O  230 1.613    N  249 1.316    C  228 0.941
   230  O   1.966        C  229 1.613    N  249 0.198
   231  C   3.985        C  232 1.006    H  238 0.967    C  228 0.966    H  239 0.964
   232  C   3.990        C  231 1.006    C  233 1.003    H  240 0.975    H  241 0.969
   233  C   3.984        C  234 1.013    C  232 1.003    H  243 0.965    H  242 0.961
   234  C   3.920        C  233 1.013    H  244 0.965    H  245 0.963    N  235 0.957
   235  N   3.668        C  234 0.957    H  248 0.900    H  247 0.897    H  246 0.875
   236  H   0.949        N  227 0.900
   237  H   0.991        C  228 0.951
   238  H   0.994        C  231 0.967
   239  H   0.994        C  231 0.964
   240  H   0.999        C  232 0.975
   241  H   0.995        C  232 0.969
   242  H   0.994        C  233 0.961
   243  H   0.994        C  233 0.965
   244  H   0.987        C  234 0.965
   245  H   0.985        C  234 0.963
   246  H   0.909        N  235 0.875
   247  H   0.918        N  235 0.897
   248  H   0.917        N  235 0.900
   249  N   3.484        C  229 1.316    C  250 0.991    H  257 0.895    O  230 0.198
   250  C   3.969        N  249 0.991    C  253 0.956    C  251 0.955    H  258 0.940
   251  C   3.944        O  252 1.604    N  268 1.304    C  250 0.955
   252  O   1.954        C  251 1.604    N  268 0.191
   253  C   3.983        C  254 0.994    H  259 0.971    H  260 0.968    C  250 0.956
   254  C   3.994        C  255 1.011    C  256 1.007    C  253 0.994    H  261 0.967
   255  C   3.995        C  254 1.011    H  264 0.986    H  262 0.984    H  263 0.984
   256  C   3.993        C  254 1.007    H  267 0.986    H  266 0.986    H  265 0.981
   257  H   0.947        N  249 0.895
   258  H   0.995        C  250 0.940
   259  H   0.997        C  253 0.971
   260  H   0.995        C  253 0.968
   261  H   0.998        C  254 0.967
   262  H   0.998        C  255 0.984
   263  H   1.000        C  255 0.984
   264  H   0.998        C  255 0.986
   265  H   0.997        C  256 0.981
   266  H   0.998        C  256 0.986
   267  H   0.997        C  256 0.986
   268  N   3.480        C  251 1.304    C  269 0.996    H  277 0.897    O  252 0.191
   269  C   3.976        N  268 0.996    C  270 0.994    H  278 0.943    C  272 0.933
   270  C   3.899        O  271 1.877    C  269 0.994    H  425 0.952
   271  O   2.055        C  270 1.877
   272  C   3.991        C  273 1.008    H  279 0.975    H  280 0.968    C  269 0.933
   273  C   3.990        C  272 1.008    H  282 0.978    H  281 0.975    C  274 0.902
   274  C   3.934        O  276 1.510    O  275 1.500    C  273 0.902
   275  O   1.794        C  274 1.500    O  276 0.219
   276  O   1.800        C  274 1.510    O  275 0.219
   277  H   0.952        N  268 0.897
   278  H   0.992        C  269 0.943
   279  H   0.998        C  272 0.975
   280  H   0.997        C  272 0.968
   281  H   1.000        C  273 0.975
   282  H   1.000        C  273 0.978
   283  N   2.988        C  284 1.020    H  426 0.957    H  292 0.935
   284  C   3.986        N  283 1.020    H  293 0.962    C  287 0.959    C  285 0.948
   285  C   3.947        O  286 1.607    N  298 1.314    C  284 0.948
   286  O   1.957        C  285 1.607    N  298 0.191
   287  C   3.993        C  288 1.007    H  294 0.974    H  295 0.974    C  284 0.959
   288  C   3.990        C  287 1.007    H  296 0.977    H  297 0.966    C  289 0.918
   289  C   3.934        O  291 1.546    O  290 1.435    C  288 0.918
   290  O   1.843        C  289 1.435    O  291 0.208
   291  O   1.834        C  289 1.546    O  290 0.208
   292  H   0.971        N  283 0.935
   293  H   0.999        C  284 0.962
   294  H   0.999        C  287 0.974
   295  H   1.000        C  287 0.974
   296  H   1.000        C  288 0.977
   297  H   0.999        C  288 0.966
   298  N   3.478        C  285 1.314    C  299 0.974    H  305 0.921    O  286 0.191
   299  C   3.953        N  298 0.974    H  306 0.948    C  302 0.947    C  300 0.943
   300  C   3.954        O  301 1.617    N  314 1.324    C  299 0.943
   301  O   1.944        C  300 1.617    N  314 0.201
   302  C   3.989        C  303 1.011    C  304 1.008    H  307 0.966    C  299 0.947
   303  C   3.995        C  302 1.011    H  309 0.986    H  310 0.984    H  308 0.984
   304  C   3.992        C  302 1.008    H  312 0.986    H  311 0.983    H  313 0.981
   305  H   0.959        N  298 0.921
   306  H   0.994        C  299 0.948
   307  H   0.998        C  302 0.966
   308  H   0.997        C  303 0.984
   309  H   0.999        C  303 0.986
   310  H   0.998        C  303 0.984
   311  H   0.996        C  304 0.983
   312  H   0.998        C  304 0.986
   313  H   0.997        C  304 0.981
   314  N   3.485        C  300 1.324    C  315 0.985    H  323 0.890    O  301 0.201
   315  C   3.962        N  314 0.985    C  318 0.959    H  324 0.953    C  316 0.942
   316  C   3.954        O  317 1.623    N  336 1.314    C  315 0.942
   317  O   1.974        C  316 1.623    N  336 0.199
   318  C   3.985        C  319 1.009    H  326 0.971    H  325 0.970    C  315 0.959
   319  C   3.992        C  318 1.009    C  320 1.007    H  327 0.976    H  328 0.966
   320  C   3.984        C  319 1.007    C  321 1.004    H  330 0.972    H  329 0.961
   321  C   3.917        C  320 1.004    H  331 0.969    H  332 0.967    N  322 0.956
   322  N   3.641        C  321 0.956    H  333 0.913    H  335 0.902    H  334 0.797
   323  H   0.946        N  314 0.890
   324  H   0.996        C  315 0.953
   325  H   0.994        C  318 0.970
   326  H   0.996        C  318 0.971
   327  H   0.998        C  319 0.976
   328  H   0.996        C  319 0.966
   329  H   0.993        C  320 0.961
   330  H   0.991        C  320 0.972
   331  H   0.987        C  321 0.969
   332  H   0.992        C  321 0.967
   333  H   0.927        N  322 0.913
   334  H   0.912        N  322 0.797
   335  H   0.918        N  322 0.902
   336  N   3.483        C  316 1.314    C  337 0.982    H  341 0.917    O  317 0.199
   337  C   3.960        N  336 0.982    C  340 0.974    C  338 0.946    H  342 0.939
   338  C   3.952        O  339 1.641    N  346 1.295    C  337 0.946
   339  O   1.967        C  338 1.641    N  346 0.196
   340  C   3.988        H  345 0.986    H  343 0.982    H  344 0.978    C  337 0.974
   341  H   0.956        N  336 0.917
   342  H   0.989        C  337 0.939
   343  H   0.996        C  340 0.982
   344  H   0.995        C  340 0.978
   345  H   0.998        C  340 0.986
   346  N   3.467        C  338 1.295    C  347 0.991    H  353 0.908    O  339 0.196
   347  C   3.967        N  346 0.991    C  348 0.991    H  354 0.939    C  350 0.925
   348  C   3.901        O  349 1.885    C  347 0.991    H  427 0.953
   349  O   2.054        C  348 1.885
   350  C   3.984        C  352 1.010    C  351 1.006    H  355 0.965    C  347 0.925
   351  C   3.991        C  350 1.006    H  357 0.985    H  358 0.984    H  356 0.981
   352  C   3.992        C  350 1.010    H  361 0.984    H  359 0.983    H  360 0.978
   353  H   0.952        N  346 0.908
   354  H   0.992        C  347 0.939
   355  H   0.997        C  350 0.965
   356  H   0.995        C  351 0.981
   357  H   0.998        C  351 0.985
   358  H   0.997        C  351 0.984
   359  H   0.996        C  352 0.983
   360  H   0.996        C  352 0.978
   361  H   0.999        C  352 0.984
   362  N   2.994        C  363 1.012    H  428 0.957    H  369 0.953
   363  C   3.983        N  362 1.012    C  366 0.967    H  370 0.960    C  364 0.930
   364  C   3.943        O  365 1.647    N  378 1.289    C  363 0.930
   365  O   1.985        C  364 1.647    N  378 0.197
   366  C   3.995        C  368 1.008    C  367 1.008    C  363 0.967    H  371 0.964
   367  C   3.995        C  366 1.008    H  373 0.984    H  372 0.984    H  374 0.983
   368  C   3.994        C  366 1.008    H  375 0.984    H  376 0.984    H  377 0.983
   369  H   0.974        N  362 0.953
   370  H   0.998        C  363 0.960
   371  H   0.999        C  366 0.964
   372  H   0.998        C  367 0.984
   373  H   0.999        C  367 0.984
   374  H   0.997        C  367 0.983
   375  H   0.997        C  368 0.984
   376  H   0.998        C  368 0.984
   377  H   0.999        C  368 0.983
   378  N   3.461        C  364 1.289    C  379 0.977    H  385 0.916    O  365 0.197
   379  C   3.967        N  378 0.977    C  380 0.970    C  382 0.956    H  386 0.949
   380  C   3.904        O  381 1.896    C  379 0.970    H  429 0.953
   381  O   2.043        C  380 1.896
   382  C   3.988        C  383 1.008    C  384 1.008    H  387 0.965    C  379 0.956
   383  C   3.993        C  382 1.008    H  390 0.985    H  388 0.983    H  389 0.982
   384  C   3.992        C  382 1.008    H  392 0.985    H  391 0.981    H  393 0.980
   385  H   0.956        N  378 0.916
   386  H   0.995        C  379 0.949
   387  H   0.997        C  382 0.965
   388  H   0.996        C  383 0.983
   389  H   0.999        C  383 0.982
   390  H   0.997        C  383 0.985
   391  H   0.995        C  384 0.981
   392  H   0.997        C  384 0.985
   393  H   0.998        C  384 0.980
   394  N   3.039        C  395 1.006    H  398 0.961    H  430 0.955
   395  C   3.980        N  394 1.006    C  396 0.978    H  399 0.975    H  400 0.957
   396  C   3.895        O  397 1.894    C  395 0.978    H  431 0.954
   397  O   2.037        C  396 1.894
   398  H   0.975        N  394 0.961
   399  H   0.996        C  395 0.975
   400  H   0.994        C  395 0.957
   401  N   3.001        C  402 0.999    H  409 0.954    H  432 0.951
   402  C   3.981        N  401 0.999    C  405 0.981    C  403 0.968    H  410 0.961
   403  C   3.892        O  404 1.896    C  402 0.968    H  433 0.953
   404  O   2.035        C  403 1.896
   405  C   3.993        C  406 1.013    C  402 0.981    H  412 0.972    H  411 0.965
   406  C   3.981        C  405 1.013    S  407 0.989    H  414 0.969    H  413 0.969
   407  S   2.112        C  408 1.008    C  406 0.989
   408  C   3.970        S  407 1.008    H  417 0.981    H  415 0.979    H  416 0.978
   409  H   0.971        N  401 0.954
   410  H   0.997        C  402 0.961
   411  H   0.996        C  405 0.965
   412  H   0.996        C  405 0.972
   413  H   0.999        C  406 0.969
   414  H   0.996        C  406 0.969
   415  H   0.995        C  408 0.979
   416  H   0.995        C  408 0.978
   417  H   0.995        C  408 0.981
   418  H   0.968        N    1 0.953
   419  H   0.992        C   22 0.950
   420  H   0.965        N   31 0.950
   421  H   0.993        C   74 0.955
   422  H   0.969        N   86 0.946
   423  H   0.993        C  159 0.953
   424  H   0.966        N  171 0.946
   425  H   0.992        C  270 0.952
   426  H   0.971        N  283 0.957
   427  H   0.993        C  348 0.953
   428  H   0.968        N  362 0.957
   429  H   0.995        C  380 0.953
   430  H   0.969        N  394 0.955
   431  H   0.996        C  396 0.954
   432  H   0.965        N  401 0.951
   433  H   0.995        C  403 0.953
 
molecular dipole:
                 x           y           z       tot (Debye)
 q only:       37.849      28.364      81.664
   full:       37.423      28.900      83.018     242.841
molecular quadrupole (traceless):
                xx          xy          yy          xz          yz          zz
 q only:    -1599.336    1876.570   -3436.103    4384.853    2351.829    5035.440
  q+dip:    -1796.659    1862.854   -3534.131    4426.008    2555.696    5330.790
   full:    -1786.158    1868.667   -3542.141    4425.238    2558.931    5328.299


           -------------------------------------------------
          | TOTAL ENERGY             -627.254158196799 Eh   |
          | GRADIENT NORM               0.630549800711 Eh/α |
          | HOMO-LUMO GAP               1.392941495161 eV   |
           -------------------------------------------------

------------------------------------------------------------------------
 * finished run on 2019/05/31 at 06:33:53.754     
------------------------------------------------------------------------
 total:
 * wall-time:     0 d,  0 h,  0 min,  9.835 sec
 *  cpu-time:     0 d,  0 h,  0 min, 19.036 sec
 * ratio c/w:     1.936 speedup
 SCF:
 * wall-time:     0 d,  0 h,  0 min,  9.380 sec
 *  cpu-time:     0 d,  0 h,  0 min, 18.268 sec
 * ratio c/w:     1.948 speedup

