      -----------------------------------------------------------      
     |                   =====================                   |     
     |                           x T B                           |     
     |                   =====================                   |     
     |                         S. Grimme                         |     
     |          Mulliken Center for Theoretical Chemistry        |     
     |                    University of Bonn                     |     
     |                 Version 6.0.1 (SAW181210)                 |     
      -----------------------------------------------------------      

   This program is distributed in the hope that it will be useful,
   but WITHOUT ANY WARRANTY; without even the implied warranty of
   MERCHANTABILITY or FITNESS FOR A PARTICULAR PURPOSE.
   
   FOR NON-COMMERCIAL, ACADEMIA USE ONLY.
   
   Cite this work as:
   S. Grimme, C. Bannwarth, P. Shushkov, J. Comput. Theory Chem., 2017,
   13, 1989-2009.
   C. Bannwarth, S. Ehlert and S. Grimme., ChemRxiv, 2018, preprint.
   http://doi.org/10.26434/chemrxiv.7246238.v1
   
   for sTDA-xTB:
   S. Grimme and C. Bannwarth, J. Chem. Phys., 2016, 145, 054103.
   
   in the mass-spec context:
   V. Asgeirsson, C. Bauer and S. Grimme, Chem. Sci., 2017, 8, 4879.
   
   if GBSA is used:
   P. Shushkov, F. März and S. Grimme, unpublished.
   
   for ANC optimizer:
   S. Grimme, unpublished.
   Rational Function algorithm used in ANCopt:
   F. Eckert, P. Pulay, H.-J. Werner, J. Comput. Chem., 1997, 18, 1473.
   
   with help from (in alphabetical order)
   C. Bannwarth, F. Bohle, G. Brandenburg, E. Caldeweyher, M. Checinski,
   S. Dohm, S. Ehlert, S. Ehrlich, F. März, H. Neugebauer, J. Pisarek,
   P. Pracht, P. Shushkov, and S. Spicher.
   
 * started run on 2019/03/14 at 15:08:20.150     
========================================================================
 # omp threads = 1
========================================================================
number of atoms            : 512
number of electrons        : 1314
charge                     : 0
spin                       : .0
first test random number   : .8211
           ------------------------------------------------- 
          |                 G F N 2 - x T B                 |
          | Geometry, Frequencies, Noncovalent interactions |
          |            JCTC 2018 parametrisation            |
           ------------------------------------------------- 
 
      method parameters     
 k(s)        :  1.8500
 k(p)        :  2.2300
 k(d)        :  2.2300
 k(f)        :  2.0000
 kEN (H0ij)  : -2.0000
 D4 a1       :  0.5200
 D4 a2       :  5.0000
 D4 s6       :  1.0000
 D4 s8       :  2.7000
 D4 s9       :  5.0000
 alphaj      :  2.0000

 Solvent             : h2o
 Using internal parameter file: .param_gbsa2_h2o
 Gsolv ref. state (COSMO-RS): gsolv [1 M gas/solution]
 temperature (mdtemp)       :    298.150000000000     
 dielectric constant        :    80.2000000000000     
 rho                        :    1.00000000000000     
 mass                       :    18.0000000000000     
 surface tension            :    15.5689454083859     
 probe radius               :   0.975313790000000     
 vdW radii scaling          :    1.00000000000000     
 Gshift (Eh)                :   1.857443126794793E-003
 c1                         :    1.55243817000000     
 soset                      :   0.130326360000000     
 HB correction              :  T

            Z     q(EN)     CN     RAES       Cart. coordinates
     1  N   5.0   -0.22    3.23    1.96    64.96326    46.59051    83.67651
     2  C   4.0    0.02    4.40    4.38    63.29151    47.35564    81.63238
     3  C   4.0    0.14    3.45    3.09    64.70045    49.19865    79.90270
     4  O   6.0   -0.33    1.26    1.80    64.98909    48.80600    77.63877
     5  C   4.0   -0.03    4.26    4.12    60.82159    48.47554    82.67544
     6  C   4.0   -0.08    4.14    3.87    59.28449    49.62631    80.52443
     7  C   4.0   -0.08    4.12    3.84    59.27988    46.40894    83.96956
     8  H   1.0    0.08    1.03    1.43    64.33479    46.80444    85.46764
     9  H   1.0    0.04    1.05    1.44    62.85384    45.70429    80.44683
    10  H   1.0    0.04    1.05    1.44    61.28777    49.95575    84.04723
    11  H   1.0    0.03    1.00    1.43    57.47986    50.32290    81.21417
    12  H   1.0    0.04    1.00    1.43    60.29707    51.18134    79.64761
    13  H   1.0    0.04    1.00    1.43    58.91148    48.20132    79.09131
    14  H   1.0    0.04    1.00    1.43    57.49481    47.17858    84.62966
    15  H   1.0    0.04    1.00    1.43    58.86385    44.91103    82.62617
    16  H   1.0    0.04    1.00    1.43    60.28337    45.62535    85.57706
    17  N   5.0   -0.15    3.47    2.06    65.59272    51.27399    81.04740
    18  C   4.0    0.04    4.44    4.45    66.71402    53.29208    79.60302
    19  C   4.0    0.15    3.40    3.08    69.46520    52.80919    78.75859
    20  O   6.0   -0.31    1.28    1.80    70.65437    54.54340    77.80451
    21  C   4.0   -0.03    4.31    4.22    66.60414    55.84137    80.96378
    22  C   4.0    0.17    3.27    3.05    66.98194    57.93826    79.01069
    23  O   6.0   -0.30    1.21    1.80    65.74278    57.99135    77.06479
    24  N   5.0   -0.18    3.18    1.95    68.62888    59.75370    79.62751
    25  H   1.0    0.07    1.06    1.44    65.34167    51.57013    82.91623
    26  H   1.0    0.06    1.06    1.44    65.61633    53.45559    77.83313
    27  H   1.0    0.04    1.02    1.43    64.74987    56.14572    81.82457
    28  H   1.0    0.04    1.03    1.43    68.04441    55.89067    82.42927
    29  H   1.0    0.10    1.03    1.43    68.88759    61.18736    78.39765
    30  H   1.0    0.08    1.03    1.43    69.77212    59.62703    81.13538
    31  N   5.0   -0.14    3.48    2.07    70.33885    50.43890    78.97830
    32  C   4.0    0.03    4.48    4.51    72.70095    49.60042    77.86409
    33  C   4.0    0.14    3.52    3.12    72.25145    47.68116    75.76016
    34  O   6.0   -0.33    1.32    1.80    73.80929    47.38134    74.06230
    35  C   4.0   -0.02    4.26    4.11    74.58495    48.44497    79.76996
    36  C   4.0   -0.08    4.15    3.89    73.81101    45.77853    80.54118
    37  C   4.0   -0.07    4.12    3.83    77.24906    48.38178    78.66270
    38  H   1.0    0.08    1.08    1.44    69.54028    49.32000    80.30421
    39  H   1.0    0.06    1.07    1.44    73.57095    51.26488    76.99590
    40  H   1.0    0.04    1.05    1.44    74.55069    49.66585    81.43823
    41  H   1.0    0.04    1.00    1.43    74.83743    45.24153    82.23569
    42  H   1.0    0.04    1.00    1.43    71.79625    45.69518    80.89288
    43  H   1.0    0.04    1.00    1.43    74.24941    44.41382    79.06592
    44  H   1.0    0.04    1.00    1.43    78.54292    47.53648    80.01447
    45  H   1.0    0.05    1.00    1.43    77.29112    47.23513    76.95650
    46  H   1.0    0.04    1.00    1.43    77.91082    50.26629    78.19354
    47  N   5.0   -0.15    3.54    2.10    70.10020    46.37039    75.85959
    48  C   4.0    0.03    4.53    4.58    69.35573    44.70792    73.82015
    49  C   4.0    0.15    3.49    3.11    68.40141    46.36183    71.65288
    50  O   6.0   -0.32    1.34    1.80    69.31762    46.19470    69.52732
    51  C   4.0   -0.03    4.33    4.26    67.43369    42.72996    74.70762
    52  C   4.0   -0.05    4.20    4.01    68.72285    40.96479    76.60434
    53  C   4.0   -0.08    4.14    3.88    66.45343    41.27129    72.42530
    54  C   4.0   -0.08    4.01    3.64    66.87830    39.21707    77.95201
    55  H   1.0    0.09    1.08    1.44    68.87456    46.60624    77.30524
    56  H   1.0    0.05    1.06    1.44    71.04854    43.73593    73.11195
    57  H   1.0    0.04    1.05    1.44    65.87213    43.71818    75.63839
    58  H   1.0    0.04    1.03    1.43    70.14300    39.85251    75.60407
    59  H   1.0    0.04    1.03    1.43    69.67426    42.11784    78.02039
    60  H   1.0    0.03    1.00    1.43    65.06190    39.87285    72.98358
    61  H   1.0    0.04    1.01    1.43    65.58797    42.54740    71.07414
    62  H   1.0    0.04    1.00    1.43    68.00795    40.30120    71.49203
    63  H   1.0    0.04    1.00    1.43    67.89245    38.04817    79.30102
    64  H   1.0    0.04    1.00    1.43    65.48399    40.34552    78.95316
    65  H   1.0    0.04    1.00    1.43    65.90192    37.97541    76.64259
    66  N   5.0   -0.15    3.49    2.07    66.65307    48.07970    72.24214
    67  C   4.0    0.03    4.51    4.55    65.69876    49.82985    70.36025
    68  C   4.0    0.15    3.64    3.19    67.83566    50.95782    68.78855
    69  O   6.0   -0.33    1.38    1.80    67.73324    50.77868    66.46844
    70  C   4.0   -0.02    4.34    4.28    64.06266    51.91344    71.55057
    71  C   4.0   -0.05    4.20    3.99    61.71075    50.76492    72.78756
    72  C   4.0   -0.08    4.15    3.91    63.31276    53.82895    69.52940
    73  C   4.0   -0.08    4.02    3.66    60.22555    52.70257    74.31129
    74  H   1.0    0.10    1.09    1.44    65.96640    48.24642    74.02397
    75  H   1.0    0.05    1.06    1.44    64.53210    48.80180    68.97578
    76  H   1.0    0.05    1.05    1.44    65.19399    52.86643    72.99527
    77  H   1.0    0.03    1.03    1.43    60.49339    49.96661    71.32750
    78  H   1.0    0.05    1.03    1.43    62.27456    49.24793    74.06088
    79  H   1.0    0.04    1.00    1.43    62.20648    55.33556    70.37054
    80  H   1.0    0.05    1.01    1.43    64.97217    54.66052    68.65708
    81  H   1.0    0.04    1.00    1.43    62.18992    52.92561    68.06268
    82  H   1.0    0.04    1.00    1.43    58.70578    51.76797    75.32480
    83  H   1.0    0.05    1.00    1.43    61.46028    53.64266    75.66038
    84  H   1.0    0.04    1.00    1.43    59.39660    54.13253    73.09835
    85  N   5.0   -0.10    3.68    2.25    69.71473    52.25502    69.87740
    86  C   4.0    0.03    4.63    4.70    71.51495    53.47955    68.20216
    87  C   4.0    0.16    3.52    3.12    72.68320    51.54477    66.43872
    88  O   6.0   -0.33    1.35    1.80    73.14145    52.06267    64.23344
    89  C   4.0   -0.05    4.31    4.21    73.54453    54.68084    69.87643
    90  C   4.0   -0.04    4.24    4.07    73.18767    53.45250    72.46983
    91  C   4.0    0.00    4.35    4.29    70.50149    52.36992    72.49691
    92  H   1.0    0.05    1.05    1.44    70.56660    54.87499    67.00172
    93  H   1.0    0.04    1.03    1.43    75.40805    54.29606    69.08742
    94  H   1.0    0.04    1.02    1.43    73.30576    56.72147    69.97176
    95  H   1.0    0.05    1.02    1.43    74.56314    51.94166    72.73824
    96  H   1.0    0.06    1.03    1.43    73.36076    54.82679    73.98774
    97  H   1.0    0.06    1.07    1.44    70.47905    50.49686    73.34597
    98  H   1.0    0.06    1.02    1.43    69.24923    53.57308    73.60859
    99  N   5.0   -0.14    3.57    2.13    73.30728    49.34392    67.49774
   100  C   4.0    0.04    4.51    4.55    74.46900    47.34741    66.05616
   101  C   4.0    0.16    3.45    3.10    72.78886    46.44187    63.89307
   102  O   6.0   -0.33    1.36    1.80    73.77291    45.78942    61.88492
   103  C   4.0   -0.04    4.12    3.85    75.10886    45.10232    67.73607
   104  S   6.0   -0.06    2.42    3.10    77.71900    45.87357    69.87114
   105  H   1.0    0.10    1.08    1.44    72.84691    48.96940    69.30898
   106  H   1.0    0.05    1.06    1.44    76.21397    48.08044    65.19270
   107  H   1.0    0.06    1.07    1.44    73.47677    44.54418    68.85245
   108  H   1.0    0.04    1.07    1.44    75.70354    43.52207    66.55972
   109  H   1.0    0.08    1.03    1.43    76.24975    46.70316    71.72425
   110  N   5.0   -0.13    3.52    2.09    70.32113    46.36785    64.30676
   111  C   4.0    0.03    4.42    4.41    68.54507    45.54314    62.38568
   112  C   4.0    0.15    3.45    3.10    68.32758    47.55292    60.31607
   113  O   6.0   -0.32    1.29    1.80    68.33487    47.00139    58.05920
   114  C   4.0   -0.05    4.36    4.30    65.92434    45.05600    63.50958
   115  C   4.0   -0.02    4.18    3.96    65.84529    42.96610    65.51764
   116  C   4.0   -0.08    4.11    3.82    63.14656    42.77534    66.53246
   117  C   4.0   -0.08    4.10    3.81    66.70429    40.41668    64.48360
   118  H   1.0    0.12    1.11    1.45    69.64367    46.73514    66.06494
   119  H   1.0    0.05    1.05    1.44    69.27261    43.82299    61.48537
   120  H   1.0    0.05    1.03    1.43    65.24198    46.81020    64.35671
   121  H   1.0    0.04    1.03    1.43    64.65444    44.54884    61.96311
   122  H   1.0    0.06    1.06    1.44    67.11382    43.50246    67.05631
   123  H   1.0    0.03    1.00    1.43    62.97466    41.23300    67.87646
   124  H   1.0    0.04    1.00    1.43    62.59257    44.52163    67.46543
   125  H   1.0    0.04    1.00    1.43    61.84059    42.41861    64.98774
   126  H   1.0    0.04    1.00    1.43    66.51986    38.97397    65.93308
   127  H   1.0    0.04    1.00    1.43    65.55759    39.86115    62.87169
   128  H   1.0    0.04    1.00    1.43    68.67269    40.47394    63.89998
   129  N   5.0   -0.14    3.54    2.10    68.10550    49.91669    61.14763
   130  C   4.0    0.03    4.43    4.44    67.85691    52.00620    59.40163
   131  C   4.0    0.15    3.46    3.10    70.30017    52.34474    57.90326
   132  O   6.0   -0.33    1.32    1.80    70.26579    53.01307    55.68968
   133  C   4.0   -0.05    4.37    4.33    67.29920    54.51353    60.72405
   134  C   4.0   -0.02    4.19    3.97    65.09957    54.48977    62.60379
   135  C   4.0   -0.08    4.11    3.83    65.02889    57.06392    63.90847
   136  C   4.0   -0.08    4.11    3.82    62.60651    53.91544    61.29366
   137  H   1.0    0.11    1.11    1.45    68.08155    50.27749    63.02971
   138  H   1.0    0.05    1.05    1.44    66.37805    51.56305    58.01598
   139  H   1.0    0.05    1.03    1.43    69.00957    55.10127    61.71600
   140  H   1.0    0.04    1.03    1.43    66.89166    55.89093    59.24177
   141  H   1.0    0.06    1.07    1.44    65.44534    53.04657    64.03335
   142  H   1.0    0.03    1.00    1.43    63.38145    57.22281    65.12134
   143  H   1.0    0.04    1.00    1.43    66.71492    57.30919    65.05827
   144  H   1.0    0.03    1.00    1.43    64.97461    58.57495    62.51763
   145  H   1.0    0.04    1.00    1.43    61.05516    53.93768    62.63972
   146  H   1.0    0.03    1.00    1.43    62.24783    55.32375    59.84687
   147  H   1.0    0.04    1.00    1.43    62.66131    52.06256    60.41139
   148  N   5.0   -0.14    3.57    2.13    72.40846    51.88924    59.19922
   149  C   4.0    0.03    4.43    4.42    74.92525    51.93744    58.13088
   150  C   4.0    0.16    3.56    3.14    75.25152    49.68406    56.38301
   151  O   6.0   -0.33    1.40    1.80    76.33906    49.86700    54.34366
   152  C   4.0   -0.03    4.37    4.33    76.85856    51.79939    60.27493
   153  C   4.0   -0.01    3.58    3.16    79.44999    50.94989    59.51068
   154  C   4.0   -0.04    3.47    3.10    80.81253    49.37176    61.10373
   155  C   4.0   -0.04    3.56    3.14    80.58994    51.81368    57.31752
   156  C   4.0   -0.04    3.39    3.08    83.30896    48.82033    60.59629
   157  C   4.0   -0.05    3.40    3.08    83.10808    51.30511    56.82067
   158  C   4.0   -0.05    3.41    3.08    84.48301    49.86201    58.49931
   159  H   1.0    0.12    1.15    1.45    72.33641    51.65195    61.10112
   160  H   1.0    0.04    1.05    1.44    75.17495    53.64486    56.98640
   161  H   1.0    0.04    1.03    1.43    76.98959    53.65829    61.17145
   162  H   1.0    0.06    1.05    1.44    76.14362    50.47876    61.67824
   163  H   1.0    0.05    1.03    1.43    79.92714    48.58562    62.76623
   164  H   1.0    0.05    1.04    1.43    79.49555    52.90404    55.99059
   165  H   1.0    0.06    1.04    1.43    84.34513    47.59566    61.84746
   166  H   1.0    0.04    1.03    1.43    83.98719    52.07033    55.15070
   167  H   1.0    0.05    1.03    1.43    86.47111    49.55894    58.17120
   168  N   5.0   -0.13    3.57    2.13    74.22947    47.52504    57.14884
   169  C   4.0    0.04    4.43    4.43    74.15655    45.44242    55.39765
   170  C   4.0    0.16    3.50    3.11    72.56011    46.19783    53.11848
   171  O   6.0   -0.32    1.35    1.80    73.01289    45.30832    51.02729
   172  C   4.0    0.04    4.15    3.91    73.07899    43.02192    56.56777
   173  O   6.0   -0.25    2.04    1.83    74.63836    41.94996    58.40791
   174  H   1.0    0.12    1.12    1.45    73.57909    47.26842    58.93461
   175  H   1.0    0.06    1.05    1.44    76.07435    45.04337    54.70305
   176  H   1.0    0.06    1.01    1.43    71.19231    43.45124    57.31380
   177  H   1.0    0.05    1.02    1.43    72.92399    41.63081    55.04968
   178  H   1.0    0.15    1.06    1.44    74.69261    43.08230    59.85409
   179  N   5.0   -0.13    3.55    2.11    70.74653    47.90194    53.50709
   180  C   4.0    0.04    4.45    4.47    69.36908    48.92016    51.38126
   181  C   4.0    0.16    3.46    3.10    71.01924    50.80350    49.94402
   182  O   6.0   -0.33    1.36    1.80    70.84868    50.96372    47.64348
   183  C   4.0   -0.03    4.33    4.26    66.89180    50.20985    52.17700
   184  C   4.0   -0.02    3.57    3.15    64.90269    49.80178    50.19962
   185  C   4.0   -0.04    3.48    3.11    64.74936    51.35088    48.09313
   186  C   4.0   -0.04    3.47    3.10    63.23422    47.79039    50.44521
   187  C   4.0   -0.05    3.40    3.08    62.86814    50.97086    46.31634
   188  C   4.0   -0.04    3.37    3.07    61.36328    47.40113    48.66465
   189  C   4.0   -0.04    3.38    3.07    61.15209    49.02311    46.62315
   190  H   1.0    0.12    1.11    1.45    70.01173    48.17666    55.25938
   191  H   1.0    0.06    1.06    1.44    68.96075    47.38161    50.04287
   192  H   1.0    0.05    1.04    1.43    66.25516    49.37606    53.95167
   193  H   1.0    0.05    1.04    1.43    67.24771    52.21889    52.46984
   194  H   1.0    0.05    1.03    1.43    66.10810    52.85480    47.84828
   195  H   1.0    0.05    1.03    1.43    63.41257    46.53677    52.04822
   196  H   1.0    0.05    1.03    1.43    62.71780    52.22632    44.71325
   197  H   1.0    0.05    1.03    1.43    60.06267    45.84469    48.87138
   198  H   1.0    0.05    1.03    1.43    59.65005    48.77574    45.26838
   199  N   5.0   -0.13    3.52    2.09    72.61681    52.22397    51.28138
   200  C   4.0    0.04    4.44    4.44    74.27022    54.00375    50.04246
   201  C   4.0    0.15    3.48    3.11    76.39814    52.70204    48.60856
   202  O   6.0   -0.34    1.36    1.80    77.33358    53.81079    46.80112
   203  C   4.0   -0.05    4.39    4.37    75.62657    55.80839    51.84474
   204  C   4.0   -0.02    4.17    3.94    73.94387    57.62885    53.32516
   205  C   4.0   -0.08    4.11    3.83    75.55576    59.00912    55.28114
   206  C   4.0   -0.08    4.11    3.83    72.71006    59.54790    51.56559
   207  H   1.0    0.12    1.12    1.45    72.40567    52.35139    53.18469
   208  H   1.0    0.05    1.06    1.44    73.19494    55.08305    48.63193
   209  H   1.0    0.05    1.03    1.43    76.73622    54.64632    53.13433
   210  H   1.0    0.04    1.04    1.43    76.92998    56.91342    50.68200
   211  H   1.0    0.06    1.06    1.44    72.45827    56.55957    54.28292
   212  H   1.0    0.04    1.00    1.43    74.38039    60.28019    56.38022
   213  H   1.0    0.03    1.00    1.43    76.47912    57.70602    56.57415
   214  H   1.0    0.03    1.00    1.43    77.01059    60.10824    54.32939
   215  H   1.0    0.04    1.00    1.43    71.56321    60.86297    52.64601
   216  H   1.0    0.04    1.00    1.43    74.14912    60.60948    50.55266
   217  H   1.0    0.04    1.00    1.43    71.50295    58.61876    50.19027
   218  N   5.0   -0.14    3.51    2.08    77.22374    50.47679    49.45714
   219  C   4.0    0.03    4.48    4.51    79.09831    49.05140    48.05991
   220  C   4.0    0.16    3.52    3.12    77.75935    47.35327    46.16781
   221  O   6.0   -0.28    1.31    1.80    78.48126    47.23289    43.97727
   222  C   4.0    0.05    4.23    4.07    80.93696    47.43308    49.63499
   223  O   6.0   -0.24    2.12    1.84    79.71291    45.39686    50.82860
   224  C   4.0   -0.07    4.08    3.77    82.45410    49.04658    51.46654
   225  H   1.0    0.12    1.14    1.45    76.67169    49.88283    51.20104
   226  H   1.0    0.05    1.07    1.44    80.23463    50.36314    46.94405
   227  H   1.0    0.05    1.05    1.44    82.23128    46.57305    48.27407
   228  H   1.0    0.13    1.03    1.43    78.21313    46.02114    51.65376
   229  H   1.0    0.05    1.00    1.43    83.68938    47.84560    52.58403
   230  H   1.0    0.03    1.00    1.43    83.59803    50.37937    50.40668
   231  H   1.0    0.05    1.01    1.43    81.18193    50.03967    52.72397
   232  N   5.0   -0.13    3.50    2.08    75.77195    46.08815    47.02271
   233  C   4.0    0.03    4.28    4.15    74.14537    44.65716    45.36696
   234  C   4.0    0.17    3.46    3.10    73.65771    46.32409    43.09010
   235  O   6.0   -0.27    1.24    1.80    74.14015    45.59929    40.94605
   236  H   1.0    0.12    1.14    1.45    75.24992    46.07902    48.86225
   237  H   1.0    0.06    1.02    1.43    75.02208    42.89773    44.71604
   238  H   1.0    0.05    1.03    1.43    72.43031    44.20905    46.41019
   239  N   5.0   -0.14    3.55    2.11    72.86362    48.65706    43.57781
   240  C   4.0    0.04    4.45    4.47    72.54892    50.46708    41.56700
   241  C   4.0    0.16    3.51    3.12    75.08618    51.41150    40.63322
   242  O   6.0   -0.28    1.34    1.80    75.38876    51.72505    38.34585
   243  C   4.0   -0.04    4.33    4.26    70.82302    52.63027    42.34213
   244  C   4.0   -0.02    4.17    3.94    67.97623    51.99757    42.25147
   245  C   4.0   -0.07    4.13    3.86    66.76798    53.17123    39.91864
   246  C   4.0   -0.06    4.13    3.86    67.25214    49.20574    42.32573
   247  H   1.0    0.12    1.13    1.45    72.23194    49.21166    45.30570
   248  H   1.0    0.07    1.07    1.44    71.70705    49.55490    39.90188
   249  H   1.0    0.06    1.04    1.43    71.36443    53.21509    44.23472
   250  H   1.0    0.04    1.04    1.43    71.17633    54.19570    41.04899
   251  H   1.0    0.04    1.06    1.44    67.11597    52.88639    43.89811
   252  H   1.0    0.05    1.00    1.43    64.72813    53.05434    40.09568
   253  H   1.0    0.04    1.01    1.43    67.32157    55.13350    39.74650
   254  H   1.0    0.06    1.00    1.43    67.31917    52.21717    38.18046
   255  H   1.0    0.05    1.01    1.43    65.20723    49.07780    42.46415
   256  H   1.0    0.05    1.00    1.43    67.77543    48.26611    40.57514
   257  H   1.0    0.05    1.00    1.43    68.06494    48.20710    43.92155
   258  N   5.0   -0.12    3.48    2.07    77.06238    51.79399    42.17154
   259  C   4.0    0.05    4.48    4.50    79.33565    52.66803    40.88038
   260  C   4.0    0.11    3.33    3.06    80.07259    50.83259    38.74936
   261  O   6.0   -0.27    1.11    1.80    81.17345    51.58407    36.84535
   262  C   4.0   -0.02    4.26    4.11    81.50483    53.16380    42.74995
   263  C   4.0   -0.07    4.14    3.88    83.30626    50.93071    42.96025
   264  C   4.0   -0.07    4.12    3.84    82.92117    55.53435    41.95069
   265  H   1.0    0.12    1.14    1.45    76.89599    52.31461    44.00419
   266  H   1.0    0.06    1.07    1.44    78.85037    54.43946    39.91160
   267  H   1.0    0.06    1.08    1.44    80.63865    53.51962    44.58356
   268  H   1.0    0.04    1.00    1.43    84.76787    51.33063    44.34550
   269  H   1.0    0.06    1.01    1.43    82.31024    49.22617    43.50389
   270  H   1.0    0.06    1.01    1.43    84.19337    50.56924    41.14369
   271  H   1.0    0.04    1.00    1.43    84.56314    55.84860    43.13786
   272  H   1.0    0.06    1.00    1.43    83.54047    55.35367    40.00740
   273  H   1.0    0.04    1.00    1.43    81.68767    57.16645    42.06745
   274  N   5.0   -0.21    3.22    1.96    83.48722    67.63412    45.07524
   275  C   4.0    0.03    4.31    4.22    82.43661    65.74809    46.75281
   276  C   4.0    0.08    3.24    3.04    84.55464    64.64126    48.36026
   277  O   6.0   -0.32    1.19    1.80    84.42037    64.73165    50.69018
   278  C   4.0   -0.03    4.25    4.10    80.98262    63.66257    45.34944
   279  C   4.0   -0.08    4.12    3.84    79.89483    61.78193    47.25100
   280  C   4.0   -0.08    4.12    3.83    78.89602    64.81665    43.73026
   281  H   1.0    0.08    1.02    1.43    83.45238    67.32795    43.19057
   282  H   1.0    0.05    1.06    1.44    81.17640    66.71893    48.08398
   283  H   1.0    0.04    1.06    1.44    82.31360    62.67041    44.12394
   284  H   1.0    0.04    1.00    1.43    78.72902    60.39354    46.28480
   285  H   1.0    0.04    1.00    1.43    81.40204    60.78532    48.22853
   286  H   1.0    0.04    1.00    1.43    78.74357    62.74849    48.65433
   287  H   1.0    0.04    1.00    1.43    77.86535    63.34096    42.74437
   288  H   1.0    0.04    1.00    1.43    77.56584    65.84634    44.90442
   289  H   1.0    0.04    1.00    1.43    79.68471    66.12303    42.35780
   290  N   5.0   -0.21    3.26    1.97    84.15838    65.03357    55.90518
   291  C   4.0    0.03    4.25    4.11    83.81091    62.55064    56.99036
   292  C   4.0    0.08    3.22    3.04    85.85991    62.15324    58.96363
   293  O   6.0   -0.33    1.18    1.80    85.37427    61.54571    61.14726
   294  C   4.0   -0.04    4.39    4.36    83.95651    60.65356    54.81522
   295  C   4.0   -0.03    4.16    3.93    83.51160    57.86557    55.49281
   296  C   4.0   -0.08    4.15    3.90    81.74468    57.63491    57.75363
   297  C   4.0   -0.08    4.11    3.83    82.49485    56.57528    53.11232
   298  H   1.0    0.12    1.09    1.44    84.29348    65.06287    54.00103
   299  H   1.0    0.04    1.05    1.44    81.97391    62.45289    57.94118
   300  H   1.0    0.05    1.04    1.43    82.51275    61.23051    53.45776
   301  H   1.0    0.05    1.03    1.43    85.79138    60.87016    53.90684
   302  H   1.0    0.04    1.05    1.44    85.30612    56.98458    56.02614
   303  H   1.0    0.04    1.04    1.43    81.26505    55.68319    58.12748
   304  H   1.0    0.05    1.01    1.43    82.68233    58.36362    59.42146
   305  H   1.0    0.04    1.01    1.43    80.02759    58.70420    57.45232
   306  H   1.0    0.04    1.01    1.43    81.77442    54.70064    53.47488
   307  H   1.0    0.04    1.00    1.43    80.94502    57.67259    52.33331
   308  H   1.0    0.04    1.00    1.43    83.99662    56.42600    51.71957
   309  N   5.0   -0.21    3.21    1.96    85.42489    61.31673    66.48764
   310  C   4.0    0.03    4.23    4.06    86.38825    59.11179    67.78315
   311  C   4.0    0.08    3.22    3.04    88.39137    59.86752    69.70803
   312  O   6.0   -0.28    1.11    1.80    88.40235    58.93303    71.83872
   313  C   4.0   -0.04    4.35    4.29    87.53384    57.17250    65.97634
   314  C   4.0   -0.02    4.18    3.97    85.67209    56.10916    64.02969
   315  C   4.0   -0.08    4.11    3.83    87.05247    54.26254    62.30048
   316  C   4.0   -0.08    4.11    3.82    83.43084    54.79834    65.27699
   317  H   1.0    0.12    1.07    1.44    85.69554    61.47976    64.59789
   318  H   1.0    0.05    1.05    1.44    84.84149    58.25530    68.86772
   319  H   1.0    0.05    1.03    1.43    89.10990    58.06809    64.99298
   320  H   1.0    0.05    1.03    1.43    88.27884    55.62064    67.11605
   321  H   1.0    0.06    1.06    1.44    84.97252    57.67685    62.88622
   322  H   1.0    0.04    1.01    1.43    85.76656    53.54718    60.87035
   323  H   1.0    0.04    1.00    1.43    88.63547    55.17934    61.36809
   324  H   1.0    0.04    1.00    1.43    87.76351    52.66969    63.38437
   325  H   1.0    0.04    1.00    1.43    82.27321    53.88034    63.85082
   326  H   1.0    0.04    1.00    1.43    84.07617    53.36803    66.60351
   327  H   1.0    0.04    1.00    1.43    82.25885    56.15014    66.28176
   328  N   5.0   -0.21    3.22    1.96    91.20185    37.32769    68.77836
   329  C   4.0    0.03    4.23    4.07    89.30505    38.02743    66.92833
   330  C   4.0    0.08    3.27    3.05    89.97400    40.64541    65.93730
   331  O   6.0   -0.31    1.23    1.80    90.56137    40.87159    63.69253
   332  C   4.0   -0.04    4.30    4.21    86.67657    37.77696    68.08222
   333  C   4.0   -0.02    3.54    3.13    84.55336    39.25835    66.88822
   334  C   4.0   -0.04    3.48    3.11    82.30445    39.43274    68.24023
   335  C   4.0   -0.03    3.50    3.12    84.71591    40.48557    64.57372
   336  C   4.0   -0.04    3.43    3.09    80.35463    40.93673    67.38292
   337  C   4.0   -0.04    3.38    3.07    82.79426    42.06874    63.75520
   338  C   4.0   -0.04    3.39    3.08    80.63185    42.33640    65.18872
   339  H   1.0    0.08    1.02    1.43    90.72533    37.36041    70.63683
   340  H   1.0    0.05    1.06    1.44    89.52607    36.77283    65.28527
   341  H   1.0    0.04    1.03    1.43    86.21069    35.76560    68.07491
   342  H   1.0    0.04    1.04    1.43    86.79759    38.37594    70.05573
   343  H   1.0    0.05    1.03    1.43    82.06805    38.37507    69.97190
   344  H   1.0    0.07    1.05    1.44    86.33765    40.19278    63.38634
   345  H   1.0    0.05    1.05    1.44    78.64838    41.02698    68.48901
   346  H   1.0    0.05    1.03    1.43    82.95551    43.11933    62.01035
   347  H   1.0    0.05    1.03    1.43    79.18562    43.61933    64.54133
   348  N   5.0   -0.20    3.25    1.97    91.10205    41.80717    58.76194
   349  C   4.0    0.04    4.20    3.99    89.67610    43.51115    57.18807
   350  C   4.0    0.08    3.19    3.04    91.39519    45.61100    56.20338
   351  O   6.0   -0.33    1.26    1.80    91.07369    46.40767    54.04539
   352  C   4.0    0.03    4.15    3.90    87.37328    44.44406    58.67867
   353  O   6.0   -0.25    2.07    1.83    88.04384    45.68814    60.91426
   354  H   1.0    0.13    1.10    1.44    90.78464    41.84265    60.65123
   355  H   1.0    0.05    1.05    1.44    88.99057    42.52682    55.48997
   356  H   1.0    0.04    1.02    1.43    86.17526    45.61636    57.46260
   357  H   1.0    0.05    1.02    1.43    86.29573    42.77932    59.25271
   358  H   1.0    0.11    1.02    1.43    88.66732    47.37026    60.56969
   359  N   5.0   -0.20    3.22    1.96    93.37228    46.89822    49.60522
   360  C   4.0    0.03    4.26    4.11    93.51324    49.31920    48.32714
   361  C   4.0    0.09    3.21    3.04    96.08664    49.48299    47.01738
   362  O   6.0   -0.28    1.11    1.80    96.20887    49.93645    44.73870
   363  C   4.0    0.06    4.18    3.97    92.86072    51.68630    49.88908
   364  O   6.0   -0.25    2.09    1.84    94.70472    52.41073    51.65018
   365  C   4.0   -0.07    4.07    3.74    90.25405    51.44582    51.13601
   366  H   1.0    0.13    1.10    1.44    92.75086    46.76328    51.41851
   367  H   1.0    0.05    1.07    1.44    92.15909    49.29296    46.76774
   368  H   1.0    0.05    1.04    1.43    92.79744    53.23935    48.50597
   369  H   1.0    0.12    1.02    1.43    95.53719    50.92520    52.36693
   370  H   1.0    0.05    1.00    1.43    89.92154    53.09020    52.32288
   371  H   1.0    0.04    1.00    1.43    88.78952    51.33234    49.70502
   372  H   1.0    0.07    1.02    1.43    90.19041    49.77838    52.32223
   373  N   5.0   -0.22    3.20    1.96    49.16925    63.27462    76.26481
   374  C   4.0    0.03    4.29    4.18    50.85883    61.42703    75.17358
   375  C   4.0    0.07    3.20    3.04    49.80769    60.41965    72.68863
   376  O   6.0   -0.33    1.25    1.80    51.24682    60.10339    70.89478
   377  C   4.0   -0.05    4.31    4.21    51.47911    59.30834    77.04897
   378  C   4.0   -0.04    4.05    3.70    54.26513    58.57583    76.94331
   379  S   6.0   -0.04    2.56    3.10    56.40708    61.26253    77.25443
   380  C   4.0   -0.07    3.88    3.43    55.57494    62.38870    80.40197
   381  H   1.0    0.08    1.02    1.43    48.62586    63.03285    78.09049
   382  H   1.0    0.05    1.11    1.45    52.63892    62.37559    74.65189
   383  H   1.0    0.04    1.04    1.43    51.01789    59.98500    78.94001
   384  H   1.0    0.04    1.03    1.43    50.33929    57.62796    76.67848
   385  H   1.0    0.03    1.06    1.44    54.72110    57.23026    78.43251
   386  H   1.0    0.04    1.07    1.44    54.76034    57.75324    75.11867
   387  H   1.0    0.04    1.05    1.44    56.83252    63.96228    80.77795
   388  H   1.0    0.04    1.04    1.43    53.62478    63.02204    80.41259
   389  H   1.0    0.04    1.04    1.43    55.88741    60.89077    81.76651
   390  N   5.0   -0.22    3.22    1.96    52.24722    61.54687    66.18564
   391  C   4.0    0.03    4.24    4.07    53.05362    59.33144    64.81649
   392  C   4.0    0.07    3.24    3.04    51.81827    59.19925    62.22767
   393  O   6.0   -0.33    1.24    1.80    52.97031    58.16752    60.48644
   394  C   4.0   -0.04    4.34    4.28    52.41366    56.85199    66.16722
   395  C   4.0   -0.04    4.05    3.71    54.39331    56.11081    68.11302
   396  S   6.0   -0.06    2.46    3.10    53.77744    53.05244    69.56826
   397  C   4.0   -0.07    3.88    3.44    51.14757    53.89222    71.60941
   398  H   1.0    0.12    1.11    1.45    51.67824    61.27909    68.00061
   399  H   1.0    0.04    1.05    1.44    55.10444    59.46707    64.49020
   400  H   1.0    0.05    1.03    1.43    50.55457    57.06471    67.02447
   401  H   1.0    0.05    1.04    1.43    52.29768    55.36021    64.74369
   402  H   1.0    0.04    1.08    1.44    56.21554    55.86606    67.18991
   403  H   1.0    0.06    1.07    1.44    54.53839    57.51168    69.61243
   404  H   1.0    0.04    1.04    1.43    50.88023    52.34745    72.92708
   405  H   1.0    0.05    1.05    1.44    51.64052    55.62083    72.59127
   406  H   1.0    0.04    1.04    1.43    49.45739    54.14790    70.47624
   407  N   5.0   -0.21    3.24    1.96    54.23627    64.06788    57.96238
   408  C   4.0    0.03    4.41    4.40    56.67468    62.97049    57.40035
   409  C   4.0    0.15    3.50    3.11    56.40284    60.86508    55.46396
   410  O   6.0   -0.33    1.32    1.80    57.87124    60.72906    53.66895
   411  C   4.0   -0.02    4.27    4.15    57.94840    62.03256    59.84554
   412  C   4.0   -0.07    4.15    3.89    59.89376    59.98149    59.29393
   413  C   4.0   -0.08    4.11    3.82    59.19763    64.24954    61.20522
   414  H   1.0    0.08    1.03    1.43    53.77434    64.05101    59.82347
   415  H   1.0    0.04    1.06    1.44    57.90789    64.39616    56.52284
   416  H   1.0    0.05    1.06    1.44    56.47196    61.23759    61.04467
   417  H   1.0    0.03    1.00    1.43    60.76702    59.38097    61.05120
   418  H   1.0    0.04    1.01    1.43    59.04433    58.33250    58.41133
   419  H   1.0    0.04    1.00    1.43    61.32588    60.69880    58.00773
   420  H   1.0    0.04    1.00    1.43    60.11490    63.62356    62.93214
   421  H   1.0    0.04    1.00    1.43    60.61525    65.09554    59.98098
   422  H   1.0    0.04    1.00    1.43    57.80974    65.67379    61.70480
   423  N   5.0   -0.15    3.50    2.07    54.49919    59.25293    55.81102
   424  C   4.0    0.04    4.39    4.36    54.20593    57.19021    54.03156
   425  C   4.0    0.09    3.27    3.05    53.28885    58.31242    51.56114
   426  O   6.0   -0.30    1.14    1.80    54.28977    57.77888    49.53906
   427  C   4.0   -0.04    4.31    4.22    52.43381    55.10220    54.91357
   428  C   4.0   -0.04    4.05    3.71    53.59635    53.46696    56.97214
   429  S   6.0   -0.05    2.48    3.10    56.05759    51.35205    55.77990
   430  C   4.0   -0.07    3.88    3.44    58.86946    53.28101    56.19753
   431  H   1.0    0.11    1.14    1.45    53.62848    59.10386    57.52711
   432  H   1.0    0.05    1.08    1.44    56.08013    56.40322    53.65235
   433  H   1.0    0.05    1.03    1.43    50.66650    55.92574    55.58386
   434  H   1.0    0.05    1.04    1.43    51.99799    53.90336    53.28954
   435  H   1.0    0.06    1.07    1.44    54.40638    54.60585    58.47940
   436  H   1.0    0.04    1.08    1.44    52.15960    52.21265    57.74052
   437  H   1.0    0.04    1.05    1.44    60.44730    51.99253    56.41418
   438  H   1.0    0.04    1.04    1.43    59.18498    54.46905    54.55905
   439  H   1.0    0.04    1.04    1.43    58.64486    54.40808    57.89209
   440  N   5.0   -0.20    3.24    1.97    59.02006    60.53013    48.60082
   441  C   4.0    0.03    4.31    4.21    60.58833    58.69313    47.34080
   442  C   4.0    0.08    3.25    3.04    59.21756    57.63716    45.02438
   443  O   6.0   -0.33    1.20    1.80    60.41905    56.73720    43.24746
   444  C   4.0   -0.02    4.27    4.13    61.51474    56.50653    49.00639
   445  C   4.0   -0.08    4.11    3.82    62.65433    57.49907    51.45766
   446  C   4.0   -0.07    4.15    3.90    59.41545    54.59313    49.47470
   447  H   1.0    0.13    1.07    1.44    58.19420    60.16948    50.28934
   448  H   1.0    0.04    1.05    1.44    62.25154    59.71801    46.62463
   449  H   1.0    0.04    1.07    1.44    62.99866    55.60377    47.89457
   450  H   1.0    0.04    1.00    1.43    63.39339    55.96376    52.60560
   451  H   1.0    0.04    1.00    1.43    64.20270    58.77688    51.02725
   452  H   1.0    0.06    1.01    1.43    61.22820    58.50540    52.53496
   453  H   1.0    0.04    1.00    1.43    60.02481    53.12647    50.77492
   454  H   1.0    0.06    1.01    1.43    57.74948    55.52878    50.21324
   455  H   1.0    0.05    1.01    1.43    58.89742    53.67331    47.71438
   456  N   5.0   -0.20    3.28    1.98    59.50445    62.53510    39.78140
   457  C   4.0    0.03    4.33    4.26    62.00478    62.03113    38.80338
   458  C   4.0    0.15    3.47    3.10    61.77857    59.74533    37.05707
   459  O   6.0   -0.29    1.25    1.80    62.37344    59.83596    34.83065
   460  C   4.0   -0.05    4.41    4.39    63.72847    61.64026    41.08554
   461  C   4.0   -0.02    4.22    4.04    66.00266    59.94426    40.62891
   462  C   4.0   -0.07    4.16    3.92    67.64633    61.15626    38.61915
   463  C   4.0   -0.08    4.12    3.83    67.54401    59.67494    43.04994
   464  H   1.0    0.08    1.04    1.43    59.33063    62.54424    41.68481
   465  H   1.0    0.05    1.05    1.44    62.61882    63.60090    37.59324
   466  H   1.0    0.04    1.04    1.43    64.41012    63.47631    41.66806
   467  H   1.0    0.05    1.04    1.43    62.60543    60.87538    42.62687
   468  H   1.0    0.05    1.06    1.44    65.33350    58.09838    40.00719
   469  H   1.0    0.04    1.01    1.43    69.41038    60.15701    38.40213
   470  H   1.0    0.06    1.00    1.43    66.65377    61.22794    36.82330
   471  H   1.0    0.04    1.01    1.43    68.11139    63.03556    39.25021
   472  H   1.0    0.04    1.00    1.43    69.25729    58.61290    42.66496
   473  H   1.0    0.04    1.00    1.43    68.08561    61.53794    43.72099
   474  H   1.0    0.04    1.00    1.43    66.49999    58.71198    44.53236
   475  N   5.0   -0.15    3.49    2.07    60.72929    57.69368    38.10055
   476  C   4.0    0.05    4.35    4.30    60.49567    55.38823    36.65029
   477  C   4.0    0.10    3.23    3.04    58.95135    55.82590    34.23110
   478  O   6.0   -0.26    1.11    1.80    59.33139    54.56227    32.31518
   479  C   4.0   -0.03    4.30    4.20    59.32680    53.29973    38.27434
   480  C   4.0    0.16    3.22    3.04    60.18667    50.71350    37.33315
   481  O   6.0   -0.29    1.22    1.80    62.35409    50.33253    36.66079
   482  N   5.0   -0.18    3.17    1.95    58.43674    48.87861    37.42035
   483  H   1.0    0.11    1.12    1.45    60.59848    57.52557    40.01517
   484  H   1.0    0.07    1.06    1.44    62.38067    54.72430    36.06546
   485  H   1.0    0.06    1.04    1.43    60.07893    53.53643    40.18705
   486  H   1.0    0.05    1.03    1.43    57.27762    53.46020    38.32292
   487  H   1.0    0.10    1.03    1.43    58.91880    47.14908    36.77452
   488  H   1.0    0.08    1.03    1.43    56.61035    49.24197    37.78010
   489  H   1.0    0.09    1.07    1.44    65.32308    44.93507    83.52617
   490  H   1.0    0.08    1.05    1.44    79.65703    48.99521    38.89908
   491  H   1.0    0.09    1.07    1.44    82.65497    69.10310    45.28029
   492  H   1.0    0.05    1.04    1.43    86.05227    63.84228    47.52972
   493  H   1.0    0.10    1.07    1.44    82.83830    66.02333    56.31788
   494  H   1.0    0.06    1.05    1.44    87.67678    62.38681    58.49942
   495  H   1.0    0.10    1.07    1.44    83.73735    61.39787    66.68305
   496  H   1.0    0.06    1.04    1.44    89.71514    61.13458    69.24622
   497  H   1.0    0.09    1.07    1.44    91.71397    35.73161    68.49057
   498  H   1.0    0.05    1.04    1.43    89.93129    42.13498    67.09938
   499  H   1.0    0.10    1.07    1.44    90.78606    40.20299    58.29362
   500  H   1.0    0.06    1.04    1.43    92.75564    46.31514    57.30991
   501  H   1.0    0.10    1.07    1.44    92.32111    45.86721    48.75397
   502  H   1.0    0.06    1.04    1.43    97.67168    49.22155    48.01254
   503  H   1.0    0.09    1.07    1.44    49.90187    64.80890    76.22233
   504  H   1.0    0.05    1.04    1.43    47.96634    60.02446    72.53264
   505  H   1.0    0.09    1.07    1.44    53.52768    62.66354    66.26340
   506  H   1.0    0.05    1.04    1.43    50.10104    59.94167    61.96116
   507  H   1.0    0.09    1.07    1.44    54.21529    65.69243    57.45941
   508  H   1.0    0.06    1.05    1.44    51.83459    59.51913    51.55370
   509  H   1.0    0.09    1.08    1.44    59.92918    61.93278    48.91486
   510  H   1.0    0.07    1.04    1.44    57.32986    57.67447    44.94505
   511  H   1.0    0.09    1.07    1.44    58.98736    64.06760    39.25545
   512  H   1.0    0.06    1.04    1.44    57.60989    57.15639    34.19421

  Z AO/shell   Hii/eV     exponent
  1     Wed Apr 25 08:07:45 CEST 2018   EN: 2.200 GM2: 0.406  GM3: 0.0800  RAES: 1.40
     1s    -10.707211    1.230000
  6     Wed Apr 25 08:07:45 CEST 2018   EN: 2.550 GM2: 0.538  GM3: 0.1500  RAES: 3.00
     2s    -13.970922    2.096432
     2p    -10.063292    1.800000
  7     Wed Apr 25 08:07:45 CEST 2018   EN: 3.040 GM2: 0.461  GM3:-0.0640  RAES: 1.90
     2s    -16.686243    2.339881
     2p    -12.523956    2.014332
  8     Wed Apr 25 08:07:45 CEST 2018   EN: 3.440 GM2: 0.452  GM3:-0.0517  RAES: 1.80
     2s    -20.229985    2.439742
     2p    -15.503117    2.137023
 16     Tue Apr 24 11:44:34 CEST 2018   EN: 2.580 GM2: 0.340  GM3:-0.0502  RAES: 3.10
     3s    -20.029654    1.981333
     3p    -11.377694    2.025643
     3d     -0.420282    1.702555
 no old-style atom pair restraining (fixing) potential

molecular fragmentation (1/2 indicates fragments):
111111111111111111111111111111111111111111111111111111111111111111111111
111111111111111111111111111111111111111111111111111111111111111111111111
111111111111111111111111111111111111111111111111111111111111111111111111
111111111111111111111111111111111111111111111111111111111222222222222222
222222222222222222222222222222222222222222222222222222222222222222222222
222222222222222222222222222222222222222222222222222222222222222222222222
222222222222222222222222222222222222222222222222222222221122222222222222
22222222
# atoms in fragment 1/2:   275   237
 fragment masses (1/2) :     1832.31     1502.09
CMA distance (Bohr)    :   7.452
constraining FC (au)   :  0.0500
           ------------------------------------------------- 
          |        Self-Consistent Charge Iterations        |
           ------------------------------------------------- 

 Ncao       : 1226
 Nao        : 1222
 Nshell     : 746
 Nel        : 1314
 T(el)      :   500.0
 intcut     :    35.0
 scfconv/Eh :  0.100E-06
   qconv/e  :  0.100E-04
 intneglect :  0.100E-08
 broydamp   :      0.400
 iter      E             dE          RMSdq      gap      omega  full diag
   1   -742.7504837 -0.742750E+03  0.435E+00    2.73       0.0  T
   2   -744.3139936 -0.156351E+01  0.206E+00    1.60       1.0  T
   3   -744.4030659 -0.890723E-01  0.118E+00    1.83       1.0  T
   4   -744.5270399 -0.123974E+00  0.221E-01    1.26       1.0  T
   5   -744.5322753 -0.523538E-02  0.104E-01    1.43       1.0  T
   6   -744.5334167 -0.114143E-02  0.420E-02    1.41       1.0  T
   7   -744.5336518 -0.235089E-03  0.179E-02    1.39       1.0  T
   8   -744.5336846 -0.328022E-04  0.828E-03    1.39       1.0  T
   9   -744.5336933 -0.868715E-05  0.384E-03    1.39       1.1  T
  10   -744.5336948 -0.149455E-05  0.157E-03    1.39       2.8  T
  11   -744.5336950 -0.168054E-06  0.790E-04    1.39       5.6  T
  12   -744.5336950 -0.363611E-07  0.378E-04    1.39      11.7  T
  13   -744.5336950 -0.223339E-07  0.184E-04    1.39      24.0  T
  14   -744.5336950 -0.241062E-08  0.891E-05    1.39      49.6  T
  15   -744.5336950 -0.752721E-09  0.375E-05    1.39     118.0  T
speedup  1.00
cpu  time for SCC   11.24 s
wall time for SCC   11.24 s

   *** convergence criteria satisfied after 15 iterations ***

          eigenvalues
 #    :         645        646        647        648        649        650        651        652
 occ. :        2.000      2.000      2.000      2.000      2.000      2.000      2.000      2.000
 eps  :       -10.091    -10.058    -10.057    -10.018     -9.926     -9.832     -9.827     -9.780
 #    :         653        654        655        656        657        658        659        660
 occ. :        2.000      2.000      2.000      2.000      2.000      0.000      0.000      0.000
 eps  :        -9.639     -9.634     -9.603     -9.564     -9.529     -8.138     -8.093     -7.939
 #    :         661        662        663        664        665        666        667        668
 occ. :        0.000      0.000      0.000      0.000      0.000      0.000      0.000      0.000
 eps  :        -7.839     -7.782     -7.751     -7.743     -7.684     -7.667     -7.589     -7.521


   #   Z            q   n(s)   n(p)   n(d)      C6AA      α(0)
   1   7 N     -0.395  1.311  4.084  0.000    30.221     8.165
   2   6 C      0.024  1.064  2.912  0.000    20.181     6.398
   3   6 C      0.265  1.052  2.683  0.000    22.531     7.773
   4   8 O     -0.489  1.736  4.753  0.000    23.540     6.505
   5   6 C     -0.021  1.065  2.956  0.000    20.912     6.504
   6   6 C     -0.117  1.040  3.077  0.000    22.792     6.807
   7   6 C     -0.114  1.039  3.075  0.000    22.735     6.798
   8   1 H      0.166  0.834  0.000  0.000     1.296     1.783
   9   1 H      0.041  0.959  0.000  0.000     2.434     2.440
  10   1 H      0.041  0.959  0.000  0.000     2.439     2.442
  11   1 H      0.048  0.952  0.000  0.000     2.344     2.394
  12   1 H      0.039  0.961  0.000  0.000     2.460     2.453
  13   1 H      0.044  0.956  0.000  0.000     2.395     2.420
  14   1 H      0.047  0.953  0.000  0.000     2.359     2.402
  15   1 H      0.045  0.955  0.000  0.000     2.390     2.417
  16   1 H      0.042  0.958  0.000  0.000     2.419     2.432
  17   7 N     -0.177  1.243  3.934  0.000    24.837     7.402
  18   6 C      0.026  1.058  2.916  0.000    20.138     6.389
  19   6 C      0.268  1.045  2.687  0.000    22.472     7.762
  20   8 O     -0.466  1.749  4.717  0.000    23.040     6.435
  21   6 C     -0.106  1.062  3.044  0.000    22.515     6.755
  22   6 C      0.300  1.032  2.668  0.000    21.915     7.665
  23   8 O     -0.497  1.749  4.748  0.000    23.710     6.528
  24   7 N     -0.283  1.265  4.019  0.000    27.310     7.761
  25   1 H      0.222  0.778  0.000  0.000     1.003     1.568
  26   1 H      0.092  0.908  0.000  0.000     1.864     2.135
  27   1 H      0.091  0.909  0.000  0.000     1.866     2.136
  28   1 H      0.072  0.928  0.000  0.000     2.068     2.249
  29   1 H      0.233  0.767  0.000  0.000     0.953     1.529
  30   1 H      0.230  0.770  0.000  0.000     0.965     1.539
  31   7 N     -0.184  1.241  3.943  0.000    24.981     7.423
  32   6 C      0.004  1.066  2.930  0.000    20.522     6.451
  33   6 C      0.274  1.044  2.682  0.000    22.369     7.745
  34   8 O     -0.489  1.739  4.750  0.000    23.538     6.505
  35   6 C     -0.020  1.064  2.956  0.000    20.893     6.501
  36   6 C     -0.123  1.040  3.083  0.000    22.904     6.824
  37   6 C     -0.122  1.040  3.082  0.000    22.893     6.822
  38   1 H      0.204  0.796  0.000  0.000     1.085     1.632
  39   1 H      0.096  0.904  0.000  0.000     1.819     2.109
  40   1 H      0.059  0.941  0.000  0.000     2.214     2.327
  41   1 H      0.062  0.938  0.000  0.000     2.171     2.304
  42   1 H      0.041  0.959  0.000  0.000     2.429     2.437
  43   1 H      0.046  0.954  0.000  0.000     2.368     2.407
  44   1 H      0.057  0.943  0.000  0.000     2.233     2.337
  45   1 H      0.054  0.946  0.000  0.000     2.275     2.359
  46   1 H      0.047  0.953  0.000  0.000     2.361     2.403
  47   7 N     -0.176  1.241  3.935  0.000    24.821     7.399
  48   6 C      0.016  1.066  2.918  0.000    20.300     6.414
  49   6 C      0.272  1.044  2.684  0.000    22.412     7.753
  50   8 O     -0.492  1.738  4.754  0.000    23.604     6.514
  51   6 C     -0.027  1.067  2.961  0.000    21.025     6.522
  52   6 C     -0.065  1.051  3.015  0.000    21.747     6.639
  53   6 C     -0.119  1.037  3.081  0.000    22.825     6.812
  54   6 C     -0.113  1.037  3.076  0.000    22.717     6.797
  55   1 H      0.208  0.792  0.000  0.000     1.065     1.617
  56   1 H      0.081  0.919  0.000  0.000     1.964     2.192
  57   1 H      0.054  0.946  0.000  0.000     2.276     2.359
  58   1 H      0.044  0.956  0.000  0.000     2.391     2.418
  59   1 H      0.042  0.958  0.000  0.000     2.419     2.432
  60   1 H      0.060  0.940  0.000  0.000     2.197     2.318
  61   1 H      0.045  0.955  0.000  0.000     2.379     2.412
  62   1 H      0.046  0.954  0.000  0.000     2.372     2.408
  63   1 H      0.046  0.954  0.000  0.000     2.370     2.407
  64   1 H      0.040  0.960  0.000  0.000     2.448     2.447
  65   1 H      0.045  0.955  0.000  0.000     2.388     2.417
  66   7 N     -0.183  1.251  3.931  0.000    24.956     7.419
  67   6 C      0.024  1.064  2.912  0.000    20.173     6.395
  68   6 C      0.267  1.047  2.686  0.000    22.492     7.767
  69   8 O     -0.499  1.736  4.763  0.000    23.766     6.536
  70   6 C     -0.022  1.065  2.957  0.000    20.924     6.506
  71   6 C     -0.068  1.051  3.017  0.000    21.796     6.646
  72   6 C     -0.116  1.037  3.078  0.000    22.773     6.804
  73   6 C     -0.105  1.036  3.069  0.000    22.568     6.775
  74   1 H      0.234  0.766  0.000  0.000     0.949     1.526
  75   1 H      0.070  0.930  0.000  0.000     2.081     2.256
  76   1 H      0.041  0.959  0.000  0.000     2.433     2.439
  77   1 H      0.048  0.952  0.000  0.000     2.346     2.395
  78   1 H      0.051  0.949  0.000  0.000     2.302     2.373
  79   1 H      0.061  0.939  0.000  0.000     2.183     2.310
  80   1 H      0.039  0.961  0.000  0.000     2.462     2.454
  81   1 H      0.049  0.951  0.000  0.000     2.331     2.388
  82   1 H      0.047  0.953  0.000  0.000     2.352     2.398
  83   1 H      0.034  0.966  0.000  0.000     2.533     2.489
  84   1 H      0.043  0.957  0.000  0.000     2.406     2.425
  85   7 N     -0.096  1.236  3.859  0.000    23.110     7.140
  86   6 C      0.023  1.063  2.914  0.000    20.162     6.388
  87   6 C      0.280  1.040  2.680  0.000    22.263     7.727
  88   8 O     -0.485  1.732  4.753  0.000    23.452     6.493
  89   6 C     -0.076  1.055  3.021  0.000    21.933     6.665
  90   6 C     -0.076  1.052  3.024  0.000    21.928     6.664
  91   6 C      0.002  1.045  2.953  0.000    20.604     6.472
  92   1 H      0.075  0.925  0.000  0.000     2.034     2.230
  93   1 H      0.066  0.934  0.000  0.000     2.126     2.280
  94   1 H      0.079  0.921  0.000  0.000     1.991     2.207
  95   1 H      0.064  0.936  0.000  0.000     2.153     2.295
  96   1 H      0.086  0.914  0.000  0.000     1.921     2.168
  97   1 H      0.041  0.959  0.000  0.000     2.436     2.441
  98   1 H      0.068  0.932  0.000  0.000     2.110     2.271
  99   7 N     -0.169  1.235  3.933  0.000    24.646     7.373
 100   6 C      0.035  1.055  2.910  0.000    19.961     6.357
 101   6 C      0.265  1.044  2.690  0.000    22.521     7.771
 102   8 O     -0.509  1.737  4.772  0.000    23.983     6.566
 103   6 C     -0.017  1.064  2.953  0.000    20.883     6.506
 104  16 S     -0.313  1.939  4.341  0.034   154.668    20.932
 105   1 H      0.213  0.787  0.000  0.000     1.040     1.598
 106   1 H      0.073  0.927  0.000  0.000     2.055     2.242
 107   1 H      0.076  0.924  0.000  0.000     2.022     2.224
 108   1 H      0.065  0.935  0.000  0.000     2.140     2.288
 109   1 H      0.223  0.777  0.000  0.000     0.987     1.554
 110   7 N     -0.173  1.251  3.922  0.000    24.749     7.389
 111   6 C      0.022  1.061  2.917  0.000    20.201     6.400
 112   6 C      0.267  1.044  2.689  0.000    22.487     7.766
 113   8 O     -0.503  1.746  4.757  0.000    23.856     6.549
 114   6 C     -0.077  1.060  3.017  0.000    21.957     6.670
 115   6 C     -0.016  1.057  2.959  0.000    20.820     6.490
 116   6 C     -0.118  1.042  3.076  0.000    22.812     6.809
 117   6 C     -0.118  1.040  3.079  0.000    22.822     6.812
 118   1 H      0.244  0.756  0.000  0.000     0.905     1.490
 119   1 H      0.073  0.927  0.000  0.000     2.055     2.242
 120   1 H      0.060  0.940  0.000  0.000     2.197     2.318
 121   1 H      0.060  0.940  0.000  0.000     2.202     2.321
 122   1 H      0.047  0.953  0.000  0.000     2.352     2.398
 123   1 H      0.054  0.946  0.000  0.000     2.275     2.359
 124   1 H      0.038  0.962  0.000  0.000     2.478     2.461
 125   1 H      0.047  0.953  0.000  0.000     2.364     2.404
 126   1 H      0.051  0.949  0.000  0.000     2.309     2.376
 127   1 H      0.042  0.958  0.000  0.000     2.418     2.432
 128   1 H      0.031  0.969  0.000  0.000     2.573     2.508
 129   7 N     -0.184  1.250  3.934  0.000    24.991     7.425
 130   6 C      0.022  1.059  2.919  0.000    20.203     6.400
 131   6 C      0.268  1.043  2.689  0.000    22.484     7.765
 132   8 O     -0.481  1.738  4.743  0.000    23.377     6.482
 133   6 C     -0.078  1.059  3.018  0.000    21.969     6.671
 134   6 C     -0.020  1.057  2.963  0.000    20.896     6.502
 135   6 C     -0.116  1.042  3.074  0.000    22.767     6.802
 136   6 C     -0.120  1.040  3.080  0.000    22.856     6.817
 137   1 H      0.242  0.758  0.000  0.000     0.917     1.500
 138   1 H      0.073  0.927  0.000  0.000     2.055     2.242
 139   1 H      0.053  0.947  0.000  0.000     2.288     2.366
 140   1 H      0.066  0.934  0.000  0.000     2.133     2.284
 141   1 H      0.057  0.943  0.000  0.000     2.238     2.340
 142   1 H      0.052  0.948  0.000  0.000     2.294     2.368
 143   1 H      0.032  0.968  0.000  0.000     2.552     2.498
 144   1 H      0.046  0.954  0.000  0.000     2.372     2.408
 145   1 H      0.049  0.951  0.000  0.000     2.335     2.389
 146   1 H      0.047  0.953  0.000  0.000     2.355     2.400
 147   1 H      0.035  0.965  0.000  0.000     2.515     2.480
 148   7 N     -0.201  1.253  3.948  0.000    25.369     7.481
 149   6 C      0.024  1.057  2.919  0.000    20.170     6.395
 150   6 C      0.275  1.042  2.683  0.000    22.356     7.744
 151   8 O     -0.498  1.731  4.766  0.000    23.734     6.532
 152   6 C     -0.079  1.054  3.025  0.000    22.001     6.676
 153   6 C      0.003  1.078  2.919  0.000    27.958     8.673
 154   6 C     -0.038  1.079  2.959  0.000    28.942     8.823
 155   6 C     -0.041  1.078  2.963  0.000    29.017     8.834
 156   6 C     -0.035  1.082  2.953  0.000    28.876     8.812
 157   6 C     -0.039  1.082  2.957  0.000    28.968     8.826
 158   6 C     -0.035  1.078  2.958  0.000    28.878     8.813
 159   1 H      0.239  0.761  0.000  0.000     0.926     1.507
 160   1 H      0.078  0.922  0.000  0.000     1.995     2.209
 161   1 H      0.081  0.919  0.000  0.000     1.967     2.193
 162   1 H      0.069  0.931  0.000  0.000     2.101     2.267
 163   1 H      0.031  0.969  0.000  0.000     2.579     2.511
 164   1 H      0.040  0.960  0.000  0.000     2.452     2.449
 165   1 H      0.061  0.939  0.000  0.000     2.183     2.310
 166   1 H      0.053  0.947  0.000  0.000     2.281     2.362
 167   1 H      0.036  0.964  0.000  0.000     2.508     2.476
 168   7 N     -0.187  1.249  3.938  0.000    25.052     7.434
 169   6 C      0.014  1.062  2.924  0.000    20.331     6.419
 170   6 C      0.267  1.044  2.689  0.000    22.500     7.768
 171   8 O     -0.497  1.741  4.756  0.000    23.716     6.529
 172   6 C      0.076  1.033  2.891  0.000    19.525     6.329
 173   8 O     -0.465  1.715  4.750  0.000    22.152     6.354
 174   1 H      0.233  0.767  0.000  0.000     0.954     1.530
 175   1 H      0.077  0.923  0.000  0.000     2.013     2.219
 176   1 H      0.044  0.956  0.000  0.000     2.391     2.418
 177   1 H      0.062  0.938  0.000  0.000     2.172     2.305
 178   1 H      0.339  0.661  0.000  0.000     0.615     1.232
 179   7 N     -0.188  1.255  3.933  0.000    25.075     7.437
 180   6 C      0.033  1.060  2.907  0.000    20.016     6.369
 181   6 C      0.271  1.044  2.685  0.000    22.414     7.753
 182   8 O     -0.489  1.739  4.750  0.000    23.542     6.505
 183   6 C     -0.073  1.054  3.018  0.000    21.881     6.658
 184   6 C      0.009  1.078  2.913  0.000    27.814     8.651
 185   6 C     -0.031  1.078  2.952  0.000    28.768     8.796
 186   6 C     -0.042  1.081  2.962  0.000    29.049     8.839
 187   6 C     -0.025  1.079  2.946  0.000    28.632     8.775
 188   6 C     -0.032  1.080  2.952  0.000    28.803     8.801
 189   6 C     -0.034  1.079  2.955  0.000    28.844     8.807
 190   1 H      0.231  0.769  0.000  0.000     0.963     1.537
 191   1 H      0.064  0.936  0.000  0.000     2.151     2.294
 192   1 H      0.064  0.936  0.000  0.000     2.149     2.292
 193   1 H      0.069  0.931  0.000  0.000     2.096     2.264
 194   1 H      0.032  0.968  0.000  0.000     2.553     2.499
 195   1 H      0.039  0.961  0.000  0.000     2.465     2.455
 196   1 H      0.035  0.965  0.000  0.000     2.522     2.483
 197   1 H      0.046  0.954  0.000  0.000     2.373     2.409
 198   1 H      0.039  0.961  0.000  0.000     2.456     2.451
 199   7 N     -0.191  1.254  3.938  0.000    25.154     7.449
 200   6 C      0.030  1.055  2.916  0.000    20.075     6.379
 201   6 C      0.271  1.046  2.683  0.000    22.425     7.756
 202   8 O     -0.490  1.738  4.751  0.000    23.553     6.507
 203   6 C     -0.071  1.058  3.013  0.000    21.845     6.651
 204   6 C     -0.016  1.056  2.961  0.000    20.833     6.492
 205   6 C     -0.117  1.043  3.074  0.000    22.792     6.806
 206   6 C     -0.118  1.040  3.077  0.000    22.803     6.808
 207   1 H      0.236  0.764  0.000  0.000     0.941     1.520
 208   1 H      0.070  0.930  0.000  0.000     2.084     2.258
 209   1 H      0.052  0.948  0.000  0.000     2.300     2.372
 210   1 H      0.063  0.937  0.000  0.000     2.161     2.299
 211   1 H      0.046  0.954  0.000  0.000     2.370     2.407
 212   1 H      0.051  0.949  0.000  0.000     2.305     2.374
 213   1 H      0.043  0.957  0.000  0.000     2.415     2.430
 214   1 H      0.046  0.954  0.000  0.000     2.376     2.411
 215   1 H      0.050  0.950  0.000  0.000     2.314     2.379
 216   1 H      0.044  0.956  0.000  0.000     2.400     2.423
 217   1 H      0.032  0.968  0.000  0.000     2.552     2.498
 218   7 N     -0.199  1.252  3.947  0.000    25.333     7.475
 219   6 C     -0.001  1.064  2.936  0.000    20.594     6.461
 220   6 C      0.275  1.035  2.690  0.000    22.357     7.743
 221   8 O     -0.497  1.756  4.741  0.000    23.727     6.531
 222   6 C      0.111  1.043  2.845  0.000    18.845     6.197
 223   8 O     -0.465  1.718  4.747  0.000    22.155     6.354
 224   6 C     -0.138  1.044  3.094  0.000    23.215     6.871
 225   1 H      0.239  0.761  0.000  0.000     0.929     1.510
 226   1 H      0.089  0.911  0.000  0.000     1.887     2.148
 227   1 H      0.051  0.949  0.000  0.000     2.305     2.374
 228   1 H      0.306  0.694  0.000  0.000     0.702     1.316
 229   1 H      0.069  0.931  0.000  0.000     2.093     2.262
 230   1 H      0.060  0.940  0.000  0.000     2.200     2.319
 231   1 H      0.069  0.931  0.000  0.000     2.091     2.261
 232   7 N     -0.187  1.245  3.942  0.000    25.044     7.432
 233   6 C     -0.027  1.051  2.976  0.000    21.121     6.554
 234   6 C      0.292  1.032  2.676  0.000    22.049     7.690
 235   8 O     -0.515  1.754  4.761  0.000    24.124     6.585
 236   1 H      0.234  0.766  0.000  0.000     0.947     1.524
 237   1 H      0.078  0.922  0.000  0.000     2.002     2.213
 238   1 H      0.085  0.915  0.000  0.000     1.930     2.172
 239   7 N     -0.198  1.253  3.945  0.000    25.289     7.469
 240   6 C      0.039  1.051  2.910  0.000    19.915     6.354
 241   6 C      0.278  1.047  2.675  0.000    22.297     7.734
 242   8 O     -0.519  1.758  4.761  0.000    24.204     6.596
 243   6 C     -0.074  1.057  3.016  0.000    21.900     6.662
 244   6 C     -0.009  1.057  2.952  0.000    20.697     6.471
 245   6 C     -0.110  1.042  3.068  0.000    22.654     6.785
 246   6 C     -0.108  1.038  3.070  0.000    22.613     6.780
 247   1 H      0.230  0.770  0.000  0.000     0.964     1.538
 248   1 H      0.066  0.934  0.000  0.000     2.129     2.282
 249   1 H      0.063  0.937  0.000  0.000     2.168     2.303
 250   1 H      0.044  0.956  0.000  0.000     2.397     2.421
 251   1 H      0.052  0.948  0.000  0.000     2.292     2.368
 252   1 H      0.047  0.953  0.000  0.000     2.362     2.403
 253   1 H      0.040  0.960  0.000  0.000     2.453     2.449
 254   1 H      0.029  0.971  0.000  0.000     2.602     2.523
 255   1 H      0.050  0.950  0.000  0.000     2.322     2.383
 256   1 H      0.026  0.974  0.000  0.000     2.637     2.539
 257   1 H      0.032  0.968  0.000  0.000     2.558     2.501
 258   7 N     -0.202  1.281  3.921  0.000    25.389     7.483
 259   6 C      0.040  1.063  2.897  0.000    19.891     6.348
 260   6 C      0.229  1.081  2.690  0.000    23.193     7.887
 261   8 O     -0.394  1.750  4.643  0.000    21.558     6.225
 262   6 C     -0.020  1.061  2.959  0.000    20.900     6.502
 263   6 C     -0.121  1.038  3.083  0.000    22.872     6.819
 264   6 C     -0.122  1.041  3.081  0.000    22.890     6.821
 265   1 H      0.230  0.770  0.000  0.000     0.966     1.539
 266   1 H      0.068  0.932  0.000  0.000     2.108     2.270
 267   1 H      0.075  0.925  0.000  0.000     2.034     2.230
 268   1 H      0.055  0.945  0.000  0.000     2.260     2.351
 269   1 H      0.048  0.952  0.000  0.000     2.341     2.393
 270   1 H      0.034  0.966  0.000  0.000     2.529     2.487
 271   1 H      0.064  0.936  0.000  0.000     2.153     2.294
 272   1 H      0.046  0.954  0.000  0.000     2.376     2.410
 273   1 H      0.049  0.951  0.000  0.000     2.337     2.390
 274   7 N     -0.388  1.309  4.079  0.000    30.033     8.139
 275   6 C      0.037  1.059  2.905  0.000    19.971     6.365
 276   6 C      0.200  1.097  2.703  0.000    23.745     7.980
 277   8 O     -0.369  1.749  4.621  0.000    21.077     6.155
 278   6 C     -0.019  1.063  2.957  0.000    20.884     6.500
 279   6 C     -0.111  1.038  3.073  0.000    22.678     6.790
 280   6 C     -0.114  1.038  3.076  0.000    22.732     6.798
 281   1 H      0.165  0.835  0.000  0.000     1.302     1.788
 282   1 H      0.055  0.945  0.000  0.000     2.264     2.353
 283   1 H      0.040  0.960  0.000  0.000     2.447     2.446
 284   1 H      0.047  0.953  0.000  0.000     2.363     2.404
 285   1 H      0.034  0.966  0.000  0.000     2.527     2.486
 286   1 H      0.044  0.956  0.000  0.000     2.397     2.421
 287   1 H      0.045  0.955  0.000  0.000     2.388     2.416
 288   1 H      0.048  0.952  0.000  0.000     2.346     2.395
 289   1 H      0.044  0.956  0.000  0.000     2.400     2.423
 290   7 N     -0.415  1.322  4.093  0.000    30.799     8.242
 291   6 C      0.043  1.053  2.904  0.000    19.868     6.349
 292   6 C      0.203  1.095  2.702  0.000    23.685     7.970
 293   8 O     -0.380  1.744  4.636  0.000    21.288     6.186
 294   6 C     -0.071  1.065  3.006  0.000    21.849     6.653
 295   6 C     -0.012  1.057  2.955  0.000    20.756     6.480
 296   6 C     -0.130  1.038  3.092  0.000    23.047     6.845
 297   6 C     -0.117  1.042  3.076  0.000    22.796     6.807
 298   1 H      0.199  0.801  0.000  0.000     1.109     1.650
 299   1 H      0.047  0.953  0.000  0.000     2.358     2.401
 300   1 H      0.053  0.947  0.000  0.000     2.285     2.364
 301   1 H      0.046  0.954  0.000  0.000     2.373     2.409
 302   1 H      0.026  0.974  0.000  0.000     2.651     2.546
 303   1 H      0.048  0.952  0.000  0.000     2.346     2.395
 304   1 H      0.040  0.960  0.000  0.000     2.446     2.446
 305   1 H      0.046  0.954  0.000  0.000     2.375     2.410
 306   1 H      0.046  0.954  0.000  0.000     2.366     2.405
 307   1 H      0.037  0.963  0.000  0.000     2.489     2.467
 308   1 H      0.032  0.968  0.000  0.000     2.557     2.501
 309   7 N     -0.409  1.313  4.095  0.000    30.614     8.217
 310   6 C      0.044  1.054  2.903  0.000    19.862     6.348
 311   6 C      0.199  1.095  2.706  0.000    23.756     7.982
 312   8 O     -0.394  1.760  4.634  0.000    21.564     6.226
 313   6 C     -0.066  1.059  3.007  0.000    21.753     6.639
 314   6 C     -0.009  1.055  2.953  0.000    20.699     6.471
 315   6 C     -0.116  1.041  3.075  0.000    22.781     6.805
 316   6 C     -0.113  1.039  3.075  0.000    22.724     6.797
 317   1 H      0.190  0.810  0.000  0.000     1.159     1.687
 318   1 H      0.050  0.950  0.000  0.000     2.324     2.384
 319   1 H      0.042  0.958  0.000  0.000     2.428     2.437
 320   1 H      0.038  0.962  0.000  0.000     2.478     2.462
 321   1 H      0.046  0.954  0.000  0.000     2.374     2.409
 322   1 H      0.045  0.955  0.000  0.000     2.379     2.412
 323   1 H      0.033  0.967  0.000  0.000     2.547     2.496
 324   1 H      0.039  0.961  0.000  0.000     2.459     2.452
 325   1 H      0.040  0.960  0.000  0.000     2.453     2.449
 326   1 H      0.042  0.958  0.000  0.000     2.427     2.436
 327   1 H      0.036  0.964  0.000  0.000     2.499     2.472
 328   7 N     -0.391  1.316  4.074  0.000    30.113     8.150
 329   6 C      0.042  1.054  2.905  0.000    19.894     6.354
 330   6 C      0.207  1.093  2.700  0.000    23.609     7.958
 331   8 O     -0.367  1.751  4.616  0.000    21.037     6.149
 332   6 C     -0.080  1.059  3.021  0.000    22.018     6.679
 333   6 C      0.008  1.084  2.908  0.000    27.840     8.655
 334   6 C     -0.044  1.081  2.963  0.000    29.089     8.845
 335   6 C     -0.044  1.078  2.966  0.000    29.103     8.847
 336   6 C     -0.031  1.079  2.951  0.000    28.768     8.796
 337   6 C     -0.031  1.081  2.950  0.000    28.778     8.797
 338   6 C     -0.032  1.076  2.956  0.000    28.805     8.801
 339   1 H      0.171  0.829  0.000  0.000     1.267     1.763
 340   1 H      0.053  0.947  0.000  0.000     2.278     2.360
 341   1 H      0.065  0.935  0.000  0.000     2.141     2.288
 342   1 H      0.065  0.935  0.000  0.000     2.138     2.286
 343   1 H      0.040  0.960  0.000  0.000     2.446     2.446
 344   1 H      0.031  0.969  0.000  0.000     2.571     2.507
 345   1 H      0.040  0.960  0.000  0.000     2.447     2.446
 346   1 H      0.032  0.968  0.000  0.000     2.552     2.498
 347   1 H      0.024  0.976  0.000  0.000     2.673     2.557
 348   7 N     -0.413  1.314  4.099  0.000    30.745     8.235
 349   6 C      0.031  1.056  2.913  0.000    20.079     6.383
 350   6 C      0.193  1.094  2.713  0.000    23.880     8.003
 351   8 O     -0.374  1.746  4.628  0.000    21.178     6.170
 352   6 C      0.079  1.037  2.885  0.000    19.474     6.321
 353   8 O     -0.446  1.708  4.738  0.000    21.757     6.297
 354   1 H      0.210  0.790  0.000  0.000     1.056     1.609
 355   1 H      0.051  0.949  0.000  0.000     2.314     2.379
 356   1 H      0.029  0.971  0.000  0.000     2.607     2.525
 357   1 H      0.058  0.942  0.000  0.000     2.226     2.333
 358   1 H      0.317  0.683  0.000  0.000     0.671     1.287
 359   7 N     -0.409  1.312  4.098  0.000    30.638     8.221
 360   6 C      0.025  1.060  2.915  0.000    20.170     6.398
 361   6 C      0.201  1.091  2.708  0.000    23.723     7.977
 362   8 O     -0.388  1.765  4.624  0.000    21.449     6.209
 363   6 C      0.118  1.046  2.836  0.000    18.748     6.183
 364   8 O     -0.480  1.723  4.758  0.000    22.473     6.400
 365   6 C     -0.133  1.044  3.089  0.000    23.127     6.858
 366   1 H      0.207  0.793  0.000  0.000     1.070     1.620
 367   1 H      0.044  0.956  0.000  0.000     2.398     2.422
 368   1 H      0.030  0.970  0.000  0.000     2.594     2.518
 369   1 H      0.335  0.665  0.000  0.000     0.626     1.243
 370   1 H      0.061  0.939  0.000  0.000     2.190     2.314
 371   1 H      0.042  0.958  0.000  0.000     2.421     2.433
 372   1 H      0.076  0.924  0.000  0.000     2.018     2.221
 373   7 N     -0.392  1.314  4.078  0.000    30.143     8.154
 374   6 C      0.040  1.053  2.908  0.000    19.926     6.359
 375   6 C      0.193  1.094  2.713  0.000    23.872     8.002
 376   8 O     -0.367  1.745  4.622  0.000    21.036     6.149
 377   6 C     -0.063  1.057  3.006  0.000    21.695     6.628
 378   6 C     -0.010  1.065  2.945  0.000    20.765     6.489
 379  16 S     -0.229  1.925  4.250  0.054   150.825    20.670
 380   6 C     -0.061  1.054  3.007  0.000    21.744     6.652
 381   1 H      0.165  0.835  0.000  0.000     1.305     1.790
 382   1 H      0.063  0.937  0.000  0.000     2.159     2.298
 383   1 H      0.064  0.936  0.000  0.000     2.154     2.295
 384   1 H      0.052  0.948  0.000  0.000     2.290     2.367
 385   1 H      0.060  0.940  0.000  0.000     2.204     2.321
 386   1 H      0.055  0.945  0.000  0.000     2.259     2.351
 387   1 H      0.065  0.935  0.000  0.000     2.138     2.287
 388   1 H      0.058  0.942  0.000  0.000     2.227     2.334
 389   1 H      0.061  0.939  0.000  0.000     2.189     2.314
 390   7 N     -0.410  1.321  4.089  0.000    30.641     8.221
 391   6 C      0.047  1.053  2.900  0.000    19.805     6.339
 392   6 C      0.191  1.098  2.710  0.000    23.909     8.008
 393   8 O     -0.371  1.743  4.628  0.000    21.112     6.160
 394   6 C     -0.058  1.052  3.005  0.000    21.588     6.610
 395   6 C     -0.008  1.065  2.943  0.000    20.720     6.482
 396  16 S     -0.218  1.918  4.253  0.047   150.345    20.637
 397   6 C     -0.057  1.051  3.006  0.000    21.672     6.641
 398   1 H      0.202  0.798  0.000  0.000     1.095     1.639
 399   1 H      0.047  0.953  0.000  0.000     2.355     2.400
 400   1 H      0.063  0.937  0.000  0.000     2.169     2.303
 401   1 H      0.049  0.951  0.000  0.000     2.329     2.387
 402   1 H      0.057  0.943  0.000  0.000     2.237     2.339
 403   1 H      0.063  0.937  0.000  0.000     2.161     2.299
 404   1 H      0.066  0.934  0.000  0.000     2.126     2.280
 405   1 H      0.050  0.950  0.000  0.000     2.318     2.381
 406   1 H      0.050  0.950  0.000  0.000     2.315     2.379
 407   7 N     -0.396  1.323  4.072  0.000    30.249     8.168
 408   6 C      0.030  1.060  2.910  0.000    20.085     6.383
 409   6 C      0.271  1.048  2.681  0.000    22.427     7.756
 410   8 O     -0.506  1.746  4.759  0.000    23.914     6.556
 411   6 C     -0.019  1.064  2.955  0.000    20.877     6.499
 412   6 C     -0.112  1.039  3.074  0.000    22.705     6.794
 413   6 C     -0.114  1.040  3.074  0.000    22.744     6.800
 414   1 H      0.157  0.843  0.000  0.000     1.358     1.825
 415   1 H      0.031  0.969  0.000  0.000     2.568     2.506
 416   1 H      0.039  0.961  0.000  0.000     2.466     2.456
 417   1 H      0.057  0.943  0.000  0.000     2.230     2.335
 418   1 H      0.030  0.970  0.000  0.000     2.582     2.513
 419   1 H      0.038  0.962  0.000  0.000     2.478     2.462
 420   1 H      0.050  0.950  0.000  0.000     2.315     2.380
 421   1 H      0.041  0.959  0.000  0.000     2.440     2.443
 422   1 H      0.039  0.961  0.000  0.000     2.461     2.453
 423   7 N     -0.191  1.263  3.928  0.000    25.139     7.447
 424   6 C      0.033  1.052  2.915  0.000    20.012     6.369
 425   6 C      0.199  1.084  2.717  0.000    23.759     7.983
 426   8 O     -0.355  1.757  4.597  0.000    20.794     6.114
 427   6 C     -0.072  1.054  3.018  0.000    21.849     6.651
 428   6 C     -0.019  1.068  2.951  0.000    20.912     6.512
 429  16 S     -0.230  1.923  4.258  0.049   150.881    20.674
 430   6 C     -0.061  1.056  3.005  0.000    21.739     6.651
 431   1 H      0.246  0.754  0.000  0.000     0.898     1.485
 432   1 H      0.083  0.917  0.000  0.000     1.953     2.186
 433   1 H      0.073  0.927  0.000  0.000     2.054     2.241
 434   1 H      0.068  0.932  0.000  0.000     2.111     2.272
 435   1 H      0.077  0.923  0.000  0.000     2.013     2.219
 436   1 H      0.071  0.929  0.000  0.000     2.070     2.250
 437   1 H      0.055  0.945  0.000  0.000     2.264     2.353
 438   1 H      0.055  0.945  0.000  0.000     2.254     2.348
 439   1 H      0.063  0.937  0.000  0.000     2.159     2.298
 440   7 N     -0.403  1.306  4.098  0.000    30.470     8.198
 441   6 C      0.047  1.056  2.897  0.000    19.806     6.339
 442   6 C      0.198  1.102  2.700  0.000    23.782     7.987
 443   8 O     -0.388  1.744  4.643  0.000    21.435     6.207
 444   6 C     -0.013  1.060  2.953  0.000    20.776     6.483
 445   6 C     -0.112  1.037  3.075  0.000    22.693     6.792
 446   6 C     -0.115  1.038  3.077  0.000    22.750     6.801
 447   1 H      0.186  0.814  0.000  0.000     1.182     1.703
 448   1 H      0.043  0.957  0.000  0.000     2.405     2.425
 449   1 H      0.034  0.966  0.000  0.000     2.536     2.490
 450   1 H      0.037  0.963  0.000  0.000     2.494     2.469
 451   1 H      0.034  0.966  0.000  0.000     2.532     2.488
 452   1 H      0.063  0.937  0.000  0.000     2.166     2.301
 453   1 H      0.040  0.960  0.000  0.000     2.444     2.445
 454   1 H      0.064  0.936  0.000  0.000     2.157     2.297
 455   1 H      0.027  0.973  0.000  0.000     2.623     2.533
 456   7 N     -0.397  1.321  4.077  0.000    30.301     8.175
 457   6 C      0.033  1.057  2.910  0.000    20.032     6.375
 458   6 C      0.278  1.046  2.675  0.000    22.292     7.732
 459   8 O     -0.516  1.758  4.758  0.000    24.145     6.588
 460   6 C     -0.076  1.060  3.016  0.000    21.941     6.666
 461   6 C     -0.015  1.053  2.962  0.000    20.811     6.488
 462   6 C     -0.114  1.036  3.078  0.000    22.723     6.794
 463   6 C     -0.112  1.041  3.071  0.000    22.688     6.790
 464   1 H      0.164  0.836  0.000  0.000     1.308     1.791
 465   1 H      0.033  0.967  0.000  0.000     2.538     2.492
 466   1 H      0.050  0.950  0.000  0.000     2.316     2.380
 467   1 H      0.049  0.951  0.000  0.000     2.332     2.388
 468   1 H      0.029  0.971  0.000  0.000     2.603     2.523
 469   1 H      0.031  0.969  0.000  0.000     2.570     2.507
 470   1 H      0.031  0.969  0.000  0.000     2.577     2.511
 471   1 H      0.047  0.953  0.000  0.000     2.356     2.400
 472   1 H      0.035  0.965  0.000  0.000     2.515     2.480
 473   1 H      0.047  0.953  0.000  0.000     2.352     2.398
 474   1 H      0.038  0.962  0.000  0.000     2.476     2.461
 475   7 N     -0.189  1.260  3.929  0.000    25.105     7.442
 476   6 C      0.040  1.054  2.907  0.000    19.913     6.354
 477   6 C      0.209  1.086  2.705  0.000    23.561     7.949
 478   8 O     -0.381  1.762  4.619  0.000    21.305     6.188
 479   6 C     -0.107  1.065  3.042  0.000    22.533     6.757
 480   6 C      0.292  1.033  2.675  0.000    22.046     7.688
 481   8 O     -0.487  1.755  4.731  0.000    23.492     6.498
 482   7 N     -0.292  1.269  4.024  0.000    27.540     7.794
 483   1 H      0.242  0.758  0.000  0.000     0.913     1.497
 484   1 H      0.083  0.917  0.000  0.000     1.949     2.183
 485   1 H      0.106  0.894  0.000  0.000     1.734     2.059
 486   1 H      0.081  0.919  0.000  0.000     1.969     2.195
 487   1 H      0.235  0.765  0.000  0.000     0.945     1.523
 488   1 H      0.236  0.764  0.000  0.000     0.939     1.518
 489   1 H      0.180  0.820  0.000  0.000     1.216     1.727
 490   1 H      0.054  0.946  0.000  0.000     2.273     2.357
 491   1 H      0.188  0.812  0.000  0.000     1.169     1.694
 492   1 H      0.075  0.925  0.000  0.000     2.032     2.229
 493   1 H      0.178  0.822  0.000  0.000     1.226     1.734
 494   1 H      0.066  0.934  0.000  0.000     2.129     2.282
 495   1 H      0.176  0.824  0.000  0.000     1.234     1.740
 496   1 H      0.068  0.932  0.000  0.000     2.105     2.268
 497   1 H      0.188  0.812  0.000  0.000     1.166     1.692
 498   1 H      0.077  0.923  0.000  0.000     2.005     2.214
 499   1 H      0.175  0.825  0.000  0.000     1.241     1.745
 500   1 H      0.084  0.916  0.000  0.000     1.940     2.178
 501   1 H      0.177  0.823  0.000  0.000     1.228     1.736
 502   1 H      0.078  0.922  0.000  0.000     1.996     2.209
 503   1 H      0.184  0.816  0.000  0.000     1.191     1.709
 504   1 H      0.074  0.926  0.000  0.000     2.039     2.233
 505   1 H      0.175  0.825  0.000  0.000     1.245     1.748
 506   1 H      0.084  0.916  0.000  0.000     1.942     2.179
 507   1 H      0.183  0.817  0.000  0.000     1.196     1.713
 508   1 H      0.074  0.926  0.000  0.000     2.042     2.235
 509   1 H      0.172  0.828  0.000  0.000     1.258     1.757
 510   1 H      0.084  0.916  0.000  0.000     1.942     2.179
 511   1 H      0.186  0.814  0.000  0.000     1.181     1.702
 512   1 H      0.081  0.919  0.000  0.000     1.967     2.193

 Mol. C6AA /au·bohr⁶  :    2353878.150585
 Mol. C8AA /au·bohr⁸  :   53344203.743130
 Mol. α(0) /au        :       2309.114525

 
molecular dipole:
                 x           y           z       tot (Debye)
 q only:      -16.619       2.494      42.611
   full:      -19.337       2.902      46.773     128.858
molecular quadrupole (traceless):
                xx          xy          yy          xz          yz          zz
 q only:    -4885.955   -1084.452    -955.703    2976.078    3420.361    5841.658
  q+dip:    -5602.260   -1282.108    -937.091    3123.349    3756.806    6539.351
   full:    -5604.134   -1282.960    -928.532    3124.709    3759.989    6532.666
speedup  1.00
cpu  time for grad   14.29 s
wall time for grad   14.29 s

SCC energy    :    -744.5649640
rep           :       9.5128872
ES            :       1.5557314
AES           :       0.0074553
AXC           :       0.3025713
disp          :      -0.6771448
XB            :       0.0000000
fix           :       0.0000000
Gborn         :       0.0000000
Gsasa         :       0.0000000
Ghb           :       0.0000000
Gshift        :       0.0000000
Gsolv         :      -0.2504967     -157.19
Etot ala COSMO:    -744.5649640
grad norm     :       0.7706580
total E       :    -734.9932227
atomizationE  :     138.4873706    86902.14
(atE without considering molecular charge,
 total energy contains solvation terms)
H-L gap (eV)  :          1.3910

------------------------------------------------------------------------
 * finished run on 2019/03/14 at 15:08:35.995     
------------------------------------------------------------------------
 total:
 * wall-time:     0 d,  0 h,  0 min, 15.844 sec
 *  cpu-time:     0 d,  0 h,  0 min, 15.672 sec
 * ratio c/w:     0.989 speedup
 SCF:
 * wall-time:     0 d,  0 h,  0 min, 15.445 sec
 *  cpu-time:     0 d,  0 h,  0 min, 15.441 sec
 * ratio c/w:     1.000 speedup

