      -----------------------------------------------------------      
     |                   =====================                   |     
     |                           x T B                           |     
     |                   =====================                   |     
     |                         S. Grimme                         |     
     |          Mulliken Center for Theoretical Chemistry        |     
     |                    University of Bonn                     |     
     |                 Version 6.0.1 (SAW181210)                 |     
      -----------------------------------------------------------      

   This program is distributed in the hope that it will be useful,
   but WITHOUT ANY WARRANTY; without even the implied warranty of
   MERCHANTABILITY or FITNESS FOR A PARTICULAR PURPOSE.
   
   FOR NON-COMMERCIAL, ACADEMIA USE ONLY.
   
   Cite this work as:
   S. Grimme, C. Bannwarth, P. Shushkov, J. Comput. Theory Chem., 2017,
   13, 1989-2009.
   C. Bannwarth, S. Ehlert and S. Grimme., ChemRxiv, 2018, preprint.
   http://doi.org/10.26434/chemrxiv.7246238.v1
   
   for sTDA-xTB:
   S. Grimme and C. Bannwarth, J. Chem. Phys., 2016, 145, 054103.
   
   in the mass-spec context:
   V. Asgeirsson, C. Bauer and S. Grimme, Chem. Sci., 2017, 8, 4879.
   
   if GBSA is used:
   P. Shushkov, F. März and S. Grimme, unpublished.
   
   for ANC optimizer:
   S. Grimme, unpublished.
   Rational Function algorithm used in ANCopt:
   F. Eckert, P. Pulay, H.-J. Werner, J. Comput. Chem., 1997, 18, 1473.
   
   with help from (in alphabetical order)
   C. Bannwarth, F. Bohle, G. Brandenburg, E. Caldeweyher, M. Checinski,
   S. Dohm, S. Ehlert, S. Ehrlich, F. März, H. Neugebauer, J. Pisarek,
   P. Pracht, P. Shushkov, and S. Spicher.
   
 * started run on 2019/03/14 at 15:08:19.670     
========================================================================
 # omp threads = 1
========================================================================
number of atoms            : 350
number of electrons        : 918
charge                     : -1
spin                       : .0
first test random number   : .7166
           ------------------------------------------------- 
          |                 G F N 2 - x T B                 |
          | Geometry, Frequencies, Noncovalent interactions |
          |            JCTC 2018 parametrisation            |
           ------------------------------------------------- 
 
      method parameters     
 k(s)        :  1.8500
 k(p)        :  2.2300
 k(d)        :  2.2300
 k(f)        :  2.0000
 kEN (H0ij)  : -2.0000
 D4 a1       :  0.5200
 D4 a2       :  5.0000
 D4 s6       :  1.0000
 D4 s8       :  2.7000
 D4 s9       :  5.0000
 alphaj      :  2.0000

 Solvent             : h2o
 Using internal parameter file: .param_gbsa2_h2o
 Gsolv ref. state (COSMO-RS): gsolv [1 M gas/solution]
 temperature (mdtemp)       :    298.150000000000     
 dielectric constant        :    80.2000000000000     
 rho                        :    1.00000000000000     
 mass                       :    18.0000000000000     
 surface tension            :    15.5689454083859     
 probe radius               :   0.975313790000000     
 vdW radii scaling          :    1.00000000000000     
 Gshift (Eh)                :   1.857443126794793E-003
 c1                         :    1.55243817000000     
 soset                      :   0.130326360000000     
 HB correction              :  T

            Z     q(EN)     CN     RAES       Cart. coordinates
     1  N   5.0   -0.22    3.20    1.96    74.22947    47.52504    57.14884
     2  C   4.0    0.03    4.19    3.99    74.15655    45.44242    55.39765
     3  C   4.0    0.07    3.22    3.04    72.56011    46.19783    53.11848
     4  O   6.0   -0.30    1.12    1.80    73.01289    45.30832    51.02729
     5  C   4.0    0.03    4.15    3.90    73.07899    43.02192    56.56777
     6  O   6.0   -0.26    2.03    1.83    74.63836    41.94996    58.40791
     7  H   1.0    0.07    1.02    1.43    73.57909    47.26842    58.93461
     8  H   1.0    0.05    1.05    1.44    76.07435    45.04337    54.70305
     9  H   1.0    0.04    1.01    1.43    71.19231    43.45124    57.31380
    10  H   1.0    0.05    1.02    1.43    72.92399    41.63081    55.04968
    11  H   1.0    0.11    1.02    1.43    74.69261    43.08230    59.85409
    12  N   5.0   -0.21    3.19    1.95    77.22374    50.47679    49.45714
    13  C   4.0    0.03    4.28    4.15    79.09831    49.05140    48.05991
    14  C   4.0    0.09    3.25    3.04    77.75935    47.35327    46.16781
    15  O   6.0   -0.32    1.30    1.80    78.48126    47.23289    43.97727
    16  C   4.0    0.05    4.24    4.07    80.93696    47.43308    49.63499
    17  O   6.0   -0.26    2.11    1.84    79.71291    45.39686    50.82860
    18  C   4.0   -0.08    4.07    3.74    82.45410    49.04658    51.46654
    19  H   1.0    0.08    1.02    1.43    76.67169    49.88283    51.20104
    20  H   1.0    0.04    1.06    1.44    80.23463    50.36314    46.94405
    21  H   1.0    0.05    1.08    1.44    82.23128    46.57305    48.27407
    22  H   1.0    0.12    1.03    1.43    78.21313    46.02114    51.65376
    23  H   1.0    0.04    1.00    1.43    83.68938    47.84560    52.58403
    24  H   1.0    0.03    1.00    1.43    83.59803    50.37937    50.40668
    25  H   1.0    0.04    1.00    1.43    81.18193    50.03967    52.72397
    26  N   5.0   -0.21    3.26    1.97    79.43193    48.45080    39.20138
    27  C   4.0    0.03    4.25    4.11    79.72339    46.22700    37.65074
    28  C   4.0    0.07    3.21    3.04    77.68054    45.89435    35.62648
    29  O   6.0   -0.32    1.15    1.80    78.20743    45.03141    33.53767
    30  C   4.0   -0.03    4.39    4.37    79.54056    43.93178    39.41050
    31  C   4.0   -0.00    3.61    3.17    81.49072    43.89030    41.45264
    32  C   4.0   -0.03    3.56    3.14    80.87024    42.75925    43.73719
    33  C   4.0   -0.04    3.50    3.12    83.77133    45.13687    41.23742
    34  C   4.0   -0.04    3.43    3.09    82.45258    42.92274    45.80629
    35  C   4.0   -0.05    3.43    3.09    85.32965    45.34358    43.32004
    36  C   4.0   -0.05    3.40    3.08    84.70610    44.23044    45.59616
    37  H   1.0    0.13    1.12    1.45    78.78876    48.12901    40.97854
    38  H   1.0    0.04    1.05    1.44    81.52638    46.30318    36.62755
    39  H   1.0    0.05    1.05    1.44    77.70972    44.02152    40.34781
    40  H   1.0    0.03    1.05    1.44    79.60839    42.20206    38.31327
    41  H   1.0    0.05    1.03    1.43    79.08046    41.79305    43.88875
    42  H   1.0    0.04    1.03    1.43    84.29817    46.03184    39.48214
    43  H   1.0    0.05    1.03    1.43    81.87426    42.13025    47.59242
    44  H   1.0    0.04    1.07    1.44    86.97871    46.48547    43.14797
    45  H   1.0    0.04    1.03    1.43    85.95492    44.38837    47.19876
    46  N   5.0   -0.22    3.25    1.97    95.81741    42.66110    51.45858
    47  C   4.0    0.03    4.35    4.29    94.15811    42.29366    49.33664
    48  C   4.0    0.07    3.26    3.05    93.94462    44.90877    48.17563
    49  O   6.0   -0.34    1.28    1.80    94.57554    45.17223    45.96630
    50  C   4.0   -0.03    4.31    4.22    91.65626    40.98289    49.93589
    51  C   4.0   -0.06    4.19    3.98    92.11530    38.33653    51.02835
    52  C   4.0   -0.08    4.15    3.91    90.13434    40.80477    47.49697
    53  C   4.0   -0.09    4.02    3.65    89.70304    37.19618    52.11594
    54  H   1.0    0.07    1.02    1.43    95.06609    42.53249    53.21427
    55  H   1.0    0.04    1.06    1.44    95.15866    41.16724    47.90420
    56  H   1.0    0.03    1.05    1.44    90.61383    42.11928    51.31077
    57  H   1.0    0.03    1.03    1.43    92.89084    37.12340    49.55162
    58  H   1.0    0.03    1.03    1.43    93.50552    38.46853    52.53433
    59  H   1.0    0.03    1.00    1.43    88.32786    39.90776    47.85806
    60  H   1.0    0.04    1.01    1.43    89.77726    42.65486    46.69456
    61  H   1.0    0.03    1.00    1.43    91.18227    39.72079    46.09766
    62  H   1.0    0.03    1.00    1.43    90.10437    35.49735    53.19749
    63  H   1.0    0.03    1.00    1.43    88.82115    38.54324    53.39248
    64  H   1.0    0.03    1.00    1.43    88.37317    36.71528    50.63010
    65  N   5.0   -0.22    3.22    1.96    95.91779    45.42521    41.22921
    66  C   4.0    0.03    4.36    4.31    93.79833    46.08484    39.62327
    67  C   4.0    0.07    3.26    3.05    94.06227    48.70180    38.46077
    68  O   6.0   -0.31    1.12    1.80    93.06609    49.09865    36.39832
    69  C   4.0   -0.02    4.28    4.16    91.15436    45.97320    40.83757
    70  C   4.0   -0.08    4.12    3.85    90.77986    43.29138    41.81504
    71  C   4.0   -0.07    4.16    3.92    90.92598    48.11782    42.75284
    72  H   1.0    0.12    1.12    1.45    95.68244    45.61020    43.12535
    73  H   1.0    0.04    1.07    1.44    93.70284    44.73922    38.06707
    74  H   1.0    0.04    1.06    1.44    89.83177    46.33738    39.28353
    75  H   1.0    0.04    1.01    1.43    88.94894    42.94935    42.66901
    76  H   1.0    0.03    1.01    1.43    90.92976    42.00778    40.22057
    77  H   1.0    0.05    1.02    1.43    92.26030    42.89508    43.17116
    78  H   1.0    0.04    1.01    1.43    89.76537    47.60352    44.36166
    79  H   1.0    0.05    1.02    1.43    92.80149    48.57300    43.40496
    80  H   1.0    0.04    1.00    1.43    90.16487    49.80086    41.85058
    81  N   5.0   -0.22    3.21    1.96    80.40322    35.45260    26.13161
    82  C   4.0    0.03    4.32    4.23    79.35968    33.14916    27.20082
    83  C   4.0    0.15    3.43    3.09    81.38453    31.70704    28.68919
    84  O   6.0   -0.32    1.34    1.80    80.86380    30.86038    30.78629
    85  C   4.0   -0.03    4.26    4.12    78.24594    31.46239    25.17151
    86  C   4.0    0.25    3.11    3.03    76.71608    29.26117    26.44744
    87  O   6.0   -0.31    1.17    1.80    74.85054    29.92362    27.71730
    88  O   6.0   -0.30    1.16    1.80    77.48384    27.07355    26.05301
    89  H   1.0    0.08    1.03    1.43    80.09063    35.76264    24.27784
    90  H   1.0    0.05    1.05    1.44    77.87584    33.61489    28.59246
    91  H   1.0    0.04    1.02    1.43    76.91647    32.52894    24.00671
    92  H   1.0    0.05    1.03    1.43    79.74810    30.65793    24.01922
    93  N   5.0   -0.14    3.48    2.07    83.69536    31.48554    27.68007
    94  C   4.0    0.04    4.48    4.51    85.65736    29.99825    28.89050
    95  C   4.0    0.15    3.52    3.13    86.31522    31.09789    31.45344
    96  O   6.0   -0.33    1.36    1.80    86.43343    29.75619    33.35810
    97  C   4.0   -0.05    4.33    4.24    88.09448    30.01739    27.31447
    98  C   4.0    0.05    3.77    3.31    87.70066    28.79082    24.80612
    99  N   5.0   -0.18    2.58    1.90    85.64354    27.30145    24.36090
   100  C   4.0   -0.03    3.59    3.16    89.17743    28.87141    22.67971
   101  C   4.0    0.06    3.63    3.19    85.86494    26.49720    22.04441
   102  N   5.0   -0.13    3.45    2.05    87.97857    27.39710    20.92685
   103  H   1.0    0.08    1.07    1.44    83.96998    31.74708    25.80574
   104  H   1.0    0.06    1.05    1.44    84.98451    28.05415    29.17931
   105  H   1.0    0.03    1.03    1.43    88.75150    31.95932    27.07872
   106  H   1.0    0.04    1.03    1.43    89.56688    29.01016    28.36218
   107  H   1.0    0.04    1.02    1.43    90.94110    29.76790    22.27131
   108  H   1.0    0.04    1.02    1.43    84.50990    25.31328    21.11767
   109  H   1.0    0.06    1.04    1.44    88.66561    26.92687    19.21329
   110  N   5.0   -0.15    3.55    2.12    86.97867    33.51918    31.44364
   111  C   4.0    0.03    4.54    4.60    87.71885    34.68605    33.79516
   112  C   4.0    0.15    3.53    3.13    85.46155    34.67132    35.58020
   113  O   6.0   -0.34    1.38    1.80    85.83043    34.55608    37.86925
   114  C   4.0   -0.03    4.29    4.17    88.88331    37.36092    33.52263
   115  C   4.0   -0.05    4.25    4.09    86.69418    39.19559    33.04631
   116  C   4.0   -0.08    4.10    3.80    90.97851    37.30785    31.54353
   117  C   4.0   -0.08    3.99    3.60    87.21877    42.00800    32.77458
   118  H   1.0    0.07    1.06    1.44    86.63111    34.58641    29.88339
   119  H   1.0    0.05    1.06    1.44    89.12381    33.43925    34.68437
   120  H   1.0    0.04    1.05    1.44    89.73296    37.83731    35.35139
   121  H   1.0    0.04    1.03    1.43    85.62738    38.52109    31.42184
   122  H   1.0    0.04    1.06    1.44    85.49414    39.03669    34.71165
   123  H   1.0    0.03    1.00    1.43    91.79745    39.16739    31.29276
   124  H   1.0    0.03    1.00    1.43    92.48362    36.04995    32.15874
   125  H   1.0    0.04    1.01    1.43    90.24134    36.63601    29.75663
   126  H   1.0    0.04    1.00    1.43    85.43249    42.96671    32.43419
   127  H   1.0    0.04    1.00    1.43    87.97494    42.73003    34.53796
   128  H   1.0    0.04    1.00    1.43    88.49014    42.44455    31.23275
   129  N   5.0   -0.14    3.53    2.10    83.15490    34.80678    34.58361
   130  C   4.0    0.03    4.50    4.53    80.96311    34.91008    36.18974
   131  C   4.0    0.15    3.50    3.11    80.31700    32.36462    37.33241
   132  O   6.0   -0.33    1.35    1.80    79.24059    32.25635    39.38829
   133  C   4.0   -0.05    4.41    4.39    78.49150    35.64576    34.88023
   134  C   4.0   -0.02    4.19    3.97    78.52366    38.10704    33.36296
   135  C   4.0   -0.07    4.12    3.83    75.89395    39.26600    33.35483
   136  C   4.0   -0.08    4.18    3.96    80.47630    39.94652    34.38005
   137  H   1.0    0.08    1.07    1.44    82.87786    34.91080    32.69257
   138  H   1.0    0.05    1.06    1.44    81.36156    36.20967    37.75676
   139  H   1.0    0.05    1.03    1.43    77.91906    34.06808    33.67569
   140  H   1.0    0.04    1.04    1.43    77.09951    35.80173    36.39688
   141  H   1.0    0.04    1.06    1.44    79.05044    37.64033    31.43499
   142  H   1.0    0.05    1.00    1.43    75.83961    40.95693    32.19350
   143  H   1.0    0.04    1.00    1.43    74.51878    37.90469    32.66523
   144  H   1.0    0.04    1.01    1.43    75.38134    39.80985    35.25750
   145  H   1.0    0.07    1.04    1.43    79.95770    41.86275    33.88918
   146  H   1.0    0.04    1.02    1.43    80.67773    39.75816    36.40839
   147  H   1.0    0.04    1.03    1.43    82.27853    39.50182    33.55863
   148  N   5.0   -0.14    3.60    2.16    80.83066    30.40660    35.86540
   149  C   4.0    0.03    4.43    4.44    80.41282    27.79886    36.56590
   150  C   4.0    0.15    3.53    3.13    82.43058    27.24268    38.53228
   151  O   6.0   -0.32    1.39    1.80    81.91951    26.44171    40.64382
   152  C   4.0   -0.05    4.33    4.26    80.62513    26.10573    34.23880
   153  C   4.0   -0.01    4.16    3.91    78.17204    25.71445    32.69552
   154  C   4.0   -0.08    4.11    3.82    77.43064    22.92603    32.77113
   155  C   4.0   -0.06    4.12    3.84    75.93068    27.33219    33.51570
   156  H   1.0    0.12    1.15    1.45    81.28037    30.72010    34.02794
   157  H   1.0    0.05    1.06    1.44    78.57392    27.55808    37.48364
   158  H   1.0    0.06    1.03    1.43    82.06384    26.92153    33.01275
   159  H   1.0    0.04    1.04    1.43    81.28465    24.24277    34.81589
   160  H   1.0    0.07    1.06    1.44    78.57173    26.23171    30.73294
   161  H   1.0    0.04    1.00    1.43    75.76997    22.60824    31.60714
   162  H   1.0    0.04    1.00    1.43    78.95953    21.76239    32.04374
   163  H   1.0    0.04    1.00    1.43    77.00336    22.34398    34.69756
   164  H   1.0    0.06    1.00    1.43    74.45747    27.16764    32.09233
   165  H   1.0    0.04    1.00    1.43    75.15463    26.72302    35.31984
   166  H   1.0    0.06    1.00    1.43    76.44678    29.31722    33.61360
   167  N   5.0   -0.14    3.58    2.14    84.78836    27.78262    37.86102
   168  C   4.0    0.04    4.51    4.55    86.75791    27.49124    39.73137
   169  C   4.0    0.16    3.49    3.11    86.04088    29.05822    42.07298
   170  O   6.0   -0.32    1.35    1.80    86.13512    28.08019    44.16708
   171  C   4.0   -0.04    4.08    3.77    89.34555    28.10209    38.64338
   172  S   6.0   -0.08    2.31    3.10    90.27613    25.83629    36.19538
   173  H   1.0    0.12    1.13    1.45    85.16972    28.58248    36.16054
   174  H   1.0    0.05    1.07    1.44    86.74561    25.52480    40.41057
   175  H   1.0    0.05    1.07    1.44    89.37830    29.96158    37.77281
   176  H   1.0    0.04    1.07    1.44    90.78776    27.98440    40.10732
   177  H   1.0    0.07    1.00    1.43    88.66989    26.67734    34.45571
   178  N   5.0   -0.14    3.50    2.08    85.27228    31.42485    41.73099
   179  C   4.0    0.04    4.53    4.58    84.72092    32.99931    43.90605
   180  C   4.0    0.16    3.55    3.14    82.55737    31.85516    45.42464
   181  O   6.0   -0.33    1.37    1.80    82.80470    31.39620    47.67880
   182  C   4.0   -0.02    4.30    4.19    84.02700    35.71541    43.15723
   183  C   4.0   -0.08    4.21    4.01    82.56744    36.97330    45.28843
   184  C   4.0   -0.07    4.13    3.85    86.36303    37.30567    42.60302
   185  H   1.0    0.12    1.14    1.45    85.27988    32.32422    40.03235
   186  H   1.0    0.05    1.05    1.44    86.37716    33.00425    45.16158
   187  H   1.0    0.05    1.06    1.44    82.82245    35.62375    41.48256
   188  H   1.0    0.04    1.06    1.44    82.07115    38.86910    44.71997
   189  H   1.0    0.05    1.02    1.43    80.84236    35.96744    45.75266
   190  H   1.0    0.04    1.01    1.43    83.74854    37.08613    46.96021
   191  H   1.0    0.04    1.00    1.43    85.79248    39.20799    42.07553
   192  H   1.0    0.03    1.00    1.43    87.51700    37.42337    44.29240
   193  H   1.0    0.06    1.01    1.43    87.46508    36.49602    41.08147
   194  N   5.0   -0.14    3.55    2.12    80.40180    31.51342    44.17965
   195  C   4.0    0.03    4.43    4.43    78.11177    30.67451    45.41582
   196  C   4.0    0.16    3.52    3.12    78.56493    28.11669    46.61492
   197  O   6.0   -0.33    1.45    1.80    77.81000    27.67149    48.77127
   198  C   4.0   -0.03    4.33    4.26    75.93678    30.53156    43.50801
   199  C   4.0   -0.02    3.53    3.13    73.38105    29.85814    44.58258
   200  C   4.0   -0.04    3.47    3.10    71.78244    28.28557    43.20493
   201  C   4.0   -0.04    3.50    3.11    72.50144    30.82822    46.86020
   202  C   4.0   -0.05    3.37    3.07    69.38228    27.71139    44.06777
   203  C   4.0   -0.04    3.44    3.09    70.11466    30.22053    47.74943
   204  C   4.0   -0.04    3.38    3.07    68.54401    28.66603    46.35362
   205  H   1.0    0.12    1.16    1.46    80.22222    31.98960    42.32986
   206  H   1.0    0.05    1.05    1.44    77.65692    31.98427    46.96463
   207  H   1.0    0.05    1.03    1.43    75.81298    32.36288    42.55823
   208  H   1.0    0.05    1.03    1.43    76.45338    29.14927    42.06589
   209  H   1.0    0.04    1.03    1.43    72.40899    27.49436    41.42813
   210  H   1.0    0.05    1.03    1.43    73.68625    32.03336    48.00319
   211  H   1.0    0.04    1.03    1.43    68.16721    26.51470    42.94567
   212  H   1.0    0.05    1.03    1.43    69.49800    30.94826    49.55278
   213  H   1.0    0.04    1.03    1.43    66.68884    28.18106    47.04612
   214  N   5.0   -0.14    3.53    2.10    79.78163    26.40569    45.25288
   215  C   4.0    0.04    4.44    4.44    80.45155    23.99926    46.36184
   216  C   4.0    0.16    3.49    3.11    82.08214    24.43839    48.71132
   217  O   6.0   -0.33    1.32    1.80    81.54034    23.39748    50.71553
   218  C   4.0   -0.04    4.34    4.28    81.84525    22.31628    44.47492
   219  C   4.0   -0.04    4.06    3.73    80.08586    21.30820    42.43410
   220  S   6.0   -0.07    2.47    3.10    81.57822    18.90439    40.47008
   221  C   4.0   -0.07    3.88    3.44    83.64142    20.85284    38.55002
   222  H   1.0    0.12    1.14    1.45    80.43137    26.76638    43.48438
   223  H   1.0    0.05    1.05    1.44    78.71706    23.06452    47.02711
   224  H   1.0    0.06    1.04    1.43    83.35458    23.42024    43.61175
   225  H   1.0    0.04    1.04    1.43    82.68210    20.72649    45.48697
   226  H   1.0    0.04    1.08    1.44    78.47229    20.35051    43.27791
   227  H   1.0    0.05    1.07    1.44    79.43387    22.81529    41.19316
   228  H   1.0    0.04    1.04    1.43    84.38537    19.67075    37.05132
   229  H   1.0    0.05    1.05    1.44    82.52799    22.38137    37.75961
   230  H   1.0    0.04    1.04    1.43    85.16990    21.59197    39.69953
   231  N   5.0   -0.14    3.49    2.07    84.08711    25.93311    48.46351
   232  C   4.0    0.04    4.44    4.44    85.73426    26.30761    50.61115
   233  C   4.0    0.16    3.46    3.10    84.42037    27.66588    52.79417
   234  O   6.0   -0.34    1.39    1.80    84.92958    27.00771    54.96063
   235  C   4.0   -0.05    4.36    4.30    88.14111    27.77660    49.98013
   236  C   4.0   -0.02    4.18    3.96    89.91338    26.48429    48.08563
   237  C   4.0   -0.08    4.11    3.82    92.01123    28.33343    47.37197
   238  C   4.0   -0.09    4.10    3.80    91.04219    24.04454    49.12293
   239  H   1.0    0.12    1.11    1.45    84.55378    26.81533    46.82391
   240  H   1.0    0.05    1.06    1.44    86.23141    24.43677    51.36807
   241  H   1.0    0.05    1.03    1.43    87.57260    29.61121    49.23181
   242  H   1.0    0.04    1.03    1.43    89.15550    28.07085    51.75513
   243  H   1.0    0.06    1.07    1.44    88.83204    26.05796    46.38396
   244  H   1.0    0.03    1.00    1.43    93.22266    27.52170    45.92532
   245  H   1.0    0.04    1.00    1.43    91.19493    30.06772    46.63326
   246  H   1.0    0.03    1.00    1.43    93.15489    28.78019    49.01871
   247  H   1.0    0.03    1.00    1.43    92.32086    23.22206    47.74150
   248  H   1.0    0.03    1.00    1.43    92.09826    24.40469    50.84888
   249  H   1.0    0.04    1.00    1.43    89.57619    22.66527    49.52912
   250  N   5.0   -0.14    3.52    2.09    82.86490    29.57850    52.31991
   251  C   4.0    0.03    4.51    4.55    81.59372    30.89956    54.35961
   252  C   4.0    0.15    3.51    3.12    79.51241    29.21649    55.44043
   253  O   6.0   -0.32    1.35    1.80    79.08882    29.09824    57.71946
   254  C   4.0   -0.02    4.32    4.23    80.55084    33.49343    53.54035
   255  C   4.0   -0.05    4.19    3.98    82.72904    35.24070    52.76335
   256  C   4.0   -0.07    4.14    3.89    79.04427    34.65671    55.71235
   257  C   4.0   -0.08    4.02    3.65    81.82335    37.77407    51.73149
   258  H   1.0    0.12    1.15    1.45    82.54849    30.15039    50.51715
   259  H   1.0    0.05    1.06    1.44    82.95235    31.18858    55.90429
   260  H   1.0    0.05    1.05    1.44    79.31076    33.19389    51.90885
   261  H   1.0    0.03    1.03    1.43    83.93979    35.56320    54.40044
   262  H   1.0    0.05    1.03    1.43    83.83553    34.28471    51.31153
   263  H   1.0    0.04    1.00    1.43    78.22036    36.45086    55.15843
   264  H   1.0    0.05    1.01    1.43    77.52441    33.41746    56.31911
   265  H   1.0    0.04    1.00    1.43    80.28065    34.97245    57.32270
   266  H   1.0    0.03    1.00    1.43    83.41207    38.84193    50.98689
   267  H   1.0    0.04    1.00    1.43    80.47165    37.47070    50.21660
   268  H   1.0    0.04    1.00    1.43    80.93111    38.91339    53.18410
   269  N   5.0   -0.14    3.53    2.10    78.18157    27.87099    53.77808
   270  C   4.0    0.05    4.51    4.55    76.43896    25.99885    54.72641
   271  C   4.0    0.16    3.52    3.12    77.83000    24.15625    56.46179
   272  O   6.0   -0.32    1.36    1.80    76.76916    23.41968    58.38546
   273  C   4.0   -0.03    4.13    3.86    75.15256    24.34612    52.75080
   274  S   6.0   -0.06    2.43    3.10    72.73266    25.98472    50.94697
   275  H   1.0    0.12    1.13    1.45    78.55117    27.94405    51.89980
   276  H   1.0    0.06    1.06    1.44    74.98205    26.94724    55.87194
   277  H   1.0    0.06    1.07    1.44    76.50681    23.63486    51.37791
   278  H   1.0    0.05    1.08    1.44    74.22592    22.78509    53.72883
   279  H   1.0    0.08    1.04    1.43    74.46401    27.25219    49.64828
   280  N   5.0   -0.14    3.49    2.07    80.08939    23.31446    55.74083
   281  C   4.0    0.03    4.52    4.57    81.42004    21.44601    57.25795
   282  C   4.0    0.15    3.52    3.12    82.52983    22.70838    59.59811
   283  O   6.0   -0.30    1.29    1.80    81.96921    21.91902    61.70607
   284  C   4.0   -0.02    4.33    4.26    83.45064    20.02329    55.74812
   285  C   4.0   -0.05    4.19    3.99    82.17009    18.27465    53.82782
   286  C   4.0   -0.08    4.15    3.89    85.13571    18.52927    57.55553
   287  C   4.0   -0.08    4.01    3.64    84.00510    17.24990    51.86195
   288  H   1.0    0.12    1.11    1.45    80.82115    23.71676    54.00822
   289  H   1.0    0.05    1.06    1.44    80.04492    20.07530    57.99742
   290  H   1.0    0.05    1.05    1.44    84.60143    21.41182    54.73950
   291  H   1.0    0.03    1.03    1.43    81.27826    16.71209    54.83649
   292  H   1.0    0.05    1.03    1.43    80.70292    19.33999    52.85066
   293  H   1.0    0.03    1.00    1.43    86.60764    17.53647    56.52890
   294  H   1.0    0.04    1.01    1.43    86.04309    19.76958    58.91726
   295  H   1.0    0.04    1.00    1.43    84.01404    17.14898    58.58486
   296  H   1.0    0.03    1.00    1.43    83.00983    16.07534    50.50219
   297  H   1.0    0.04    1.00    1.43    84.87903    18.81130    50.85254
   298  H   1.0    0.03    1.00    1.43    85.47949    16.11537    52.72831
   299  N   5.0   -0.15    3.54    2.11    84.09099    24.63680    59.28068
   300  C   4.0    0.04    4.52    4.57    85.18234    25.91776    61.44310
   301  C   4.0    0.16    3.51    3.12    83.07557    26.70128    63.25004
   302  O   6.0   -0.29    1.22    1.80    83.28304    26.41135    65.54760
   303  C   4.0   -0.02    4.34    4.27    86.71840    28.22023    60.55965
   304  C   4.0   -0.05    4.19    3.98    89.00040    27.46064    58.93573
   305  C   4.0   -0.08    4.13    3.86    87.54281    29.84241    62.79262
   306  C   4.0   -0.08    4.02    3.65    90.85948    25.64595    60.17091
   307  H   1.0    0.12    1.16    1.45    84.49447    25.33565    57.54225
   308  H   1.0    0.05    1.05    1.44    86.38560    24.59176    62.49651
   309  H   1.0    0.05    1.06    1.44    85.46172    29.34591    59.36138
   310  H   1.0    0.06    1.04    1.43    88.31910    26.60186    57.19690
   311  H   1.0    0.03    1.03    1.43    89.99543    29.19673    58.43384
   312  H   1.0    0.03    1.00    1.43    88.67594    31.41728    62.11620
   313  H   1.0    0.05    1.00    1.43    85.92382    30.59934    63.80353
   314  H   1.0    0.04    1.00    1.43    88.66071    28.73012    64.10411
   315  H   1.0    0.03    1.00    1.43    92.37590    25.24362    58.84629
   316  H   1.0    0.03    1.00    1.43    91.69055    26.44701    61.86743
   317  H   1.0    0.04    1.00    1.43    89.95038    23.86872    60.65029
   318  N   5.0   -0.13    3.45    2.04    81.04303    27.71265    62.17007
   319  C   4.0    0.02    4.25    4.10    78.77521    28.38916    63.52402
   320  C   4.0    0.16    3.36    3.07    77.56925    26.09468    64.77611
   321  O   6.0   -0.28    1.24    1.80    76.92916    26.20975    67.00091
   322  H   1.0    0.12    1.12    1.45    80.93489    28.01666    60.28122
   323  H   1.0    0.06    1.02    1.43    79.18255    29.76232    65.02145
   324  H   1.0    0.05    1.03    1.43    77.45700    29.22692    62.17913
   325  N   5.0   -0.13    3.47    2.06    77.31559    24.00523    63.40093
   326  C   4.0    0.06    4.38    4.34    76.23447    21.72940    64.47422
   327  C   4.0    0.10    3.28    3.05    77.88919    20.73923    66.61903
   328  O   6.0   -0.28    1.12    1.80    76.91476    19.66148    68.42454
   329  C   4.0    0.06    4.22    4.04    75.73549    19.65085    62.46783
   330  O   6.0   -0.25    2.10    1.84    73.26233    18.72154    62.89285
   331  C   4.0   -0.07    4.10    3.80    77.69673    17.53442    62.52122
   332  H   1.0    0.12    1.12    1.45    77.66016    23.99031    61.51439
   333  H   1.0    0.07    1.06    1.44    74.38815    22.16097    65.32296
   334  H   1.0    0.07    1.07    1.44    75.79052    20.57327    60.61848
   335  H   1.0    0.11    1.03    1.43    72.94119    17.37121    61.70631
   336  H   1.0    0.04    1.00    1.43    77.36109    16.20241    60.99126
   337  H   1.0    0.06    1.01    1.43    79.55779    18.35895    62.29157
   338  H   1.0    0.05    1.00    1.43    77.61418    16.52581    64.30969
   339  H   1.0    0.09    1.07    1.44    75.83794    48.03816    57.35409
   340  H   1.0    0.05    1.05    1.44    71.13697    47.42362    53.32625
   341  H   1.0    0.08    1.07    1.44    77.79333    52.05738    49.72147
   342  H   1.0    0.07    1.05    1.44    76.27271    46.32104    46.71136
   343  H   1.0    0.09    1.07    1.44    80.93492    49.22977    39.36505
   344  H   1.0    0.05    1.04    1.44    75.89321    46.38214    35.99872
   345  H   1.0    0.08    1.08    1.44    97.05547    41.49566    51.41962
   346  H   1.0    0.04    1.04    1.43    93.30362    46.35318    49.21191
   347  H   1.0    0.09    1.07    1.44    96.32937    43.79329    40.98427
   348  H   1.0    0.05    1.04    1.43    95.02684    50.04746    39.37173
   349  H   1.0    0.09    1.07    1.44    79.74879    36.79981    26.93741
   350  H   1.0    0.07    1.04    1.44    79.76352    20.96990    66.55009

  Z AO/shell   Hii/eV     exponent
  1     Wed Apr 25 08:07:45 CEST 2018   EN: 2.200 GM2: 0.406  GM3: 0.0800  RAES: 1.40
     1s    -10.707211    1.230000
  6     Wed Apr 25 08:07:45 CEST 2018   EN: 2.550 GM2: 0.538  GM3: 0.1500  RAES: 3.00
     2s    -13.970922    2.096432
     2p    -10.063292    1.800000
  7     Wed Apr 25 08:07:45 CEST 2018   EN: 3.040 GM2: 0.461  GM3:-0.0640  RAES: 1.90
     2s    -16.686243    2.339881
     2p    -12.523956    2.014332
  8     Wed Apr 25 08:07:45 CEST 2018   EN: 3.440 GM2: 0.452  GM3:-0.0517  RAES: 1.80
     2s    -20.229985    2.439742
     2p    -15.503117    2.137023
 16     Tue Apr 24 11:44:34 CEST 2018   EN: 2.580 GM2: 0.340  GM3:-0.0502  RAES: 3.10
     3s    -20.029654    1.981333
     3p    -11.377694    2.025643
     3d     -0.420282    1.702555
 no old-style atom pair restraining (fixing) potential

molecular fragmentation (1/2 indicates fragments):
111111111112222222222222222222222222222222222222222222222222222222222222
222222222222222222222222222222222222222222222222222222222222222222222222
222222222222222222222222222222222222222222222222222222222222222222222222
222222222222222222222222222222222222222222222222222222222222222222222222
22222222222222222222222222222222222222222222222222112222222222
# atoms in fragment 1/2:    13   337
 fragment masses (1/2) :       89.09     2255.92
CMA distance (Bohr)    :  19.031
constraining FC (au)   :  0.0500
           ------------------------------------------------- 
          |        Self-Consistent Charge Iterations        |
           ------------------------------------------------- 

 Ncao       : 854
 Nao        : 851
 Nshell     : 515
 Nel        : 918
 T(el)      :   500.0
 intcut     :    35.0
 scfconv/Eh :  0.100E-06
   qconv/e  :  0.100E-04
 intneglect :  0.100E-08
 broydamp   :      0.400
 iter      E             dE          RMSdq      gap      omega  full diag
   1   -519.9097660 -0.519910E+03  0.435E+00    2.95       0.0  T
   2   -520.9976834 -0.108792E+01  0.207E+00    1.84       1.0  T
   3   -521.0593958 -0.617124E-01  0.117E+00    2.01       1.0  T
   4   -521.1414513 -0.820554E-01  0.226E-01    1.44       1.0  T
   5   -521.1451457 -0.369445E-02  0.110E-01    1.57       1.0  T
   6   -521.1458746 -0.728917E-03  0.459E-02    1.55       1.0  T
   7   -521.1461200 -0.245340E-03  0.202E-02    1.53       1.0  T
   8   -521.1461469 -0.268918E-04  0.916E-03    1.52       1.0  T
   9   -521.1461542 -0.737201E-05  0.415E-03    1.52       1.3  T
  10   -521.1461554 -0.117380E-05  0.189E-03    1.52       2.8  T
  11   -521.1461556 -0.226232E-06  0.909E-04    1.52       5.9  T
  12   -521.1461557 -0.533911E-07  0.453E-04    1.52      11.8  T
  13   -521.1461557 -0.214676E-07  0.221E-04    1.52      24.1  T
  14   -521.1461557 -0.264038E-08  0.974E-05    1.52      54.9  T
  15   -521.1461557 -0.633008E-09  0.398E-05    1.52     134.2  T
speedup  1.00
cpu  time for SCC    5.12 s
wall time for SCC    5.12 s

   *** convergence criteria satisfied after 15 iterations ***

          eigenvalues
 #    :         447        448        449        450        451        452        453        454
 occ. :        2.000      2.000      2.000      2.000      2.000      2.000      2.000      2.000
 eps  :       -10.577    -10.532    -10.507    -10.375    -10.363    -10.345    -10.220    -10.104
 #    :         455        456        457        458        459        460        461        462
 occ. :        2.000      2.000      2.000      2.000      2.000      0.000      0.000      0.000
 eps  :       -10.084     -9.834     -9.811     -9.631     -9.493     -7.977     -7.765     -7.727
 #    :         463        464        465        466        467        468        469        470
 occ. :        0.000      0.000      0.000      0.000      0.000      0.000      0.000      0.000
 eps  :        -7.694     -7.576     -7.453     -7.152     -6.930     -6.853     -6.763     -6.705


   #   Z            q   n(s)   n(p)   n(d)      C6AA      α(0)
   1   7 N     -0.390  1.310  4.080  0.000    30.085     8.146
   2   6 C      0.027  1.058  2.916  0.000    20.144     6.394
   3   6 C      0.188  1.096  2.717  0.000    23.984     8.021
   4   8 O     -0.373  1.758  4.614  0.000    21.146     6.165
   5   6 C      0.080  1.033  2.888  0.000    19.462     6.319
   6   8 O     -0.468  1.728  4.740  0.000    22.220     6.363
   7   1 H      0.169  0.831  0.000  0.000     1.277     1.770
   8   1 H      0.063  0.937  0.000  0.000     2.163     2.300
   9   1 H      0.037  0.963  0.000  0.000     2.490     2.468
  10   1 H      0.052  0.948  0.000  0.000     2.292     2.367
  11   1 H      0.340  0.660  0.000  0.000     0.612     1.229
  12   7 N     -0.382  1.315  4.067  0.000    29.889     8.120
  13   6 C      0.021  1.061  2.919  0.000    20.246     6.409
  14   6 C      0.201  1.089  2.710  0.000    23.726     7.977
  15   8 O     -0.363  1.742  4.620  0.000    20.949     6.137
  16   6 C      0.105  1.045  2.851  0.000    18.953     6.215
  17   8 O     -0.465  1.719  4.747  0.000    22.158     6.354
  18   6 C     -0.132  1.042  3.090  0.000    23.102     6.854
  19   1 H      0.152  0.848  0.000  0.000     1.388     1.846
  20   1 H      0.066  0.934  0.000  0.000     2.134     2.285
  21   1 H      0.052  0.948  0.000  0.000     2.301     2.372
  22   1 H      0.301  0.699  0.000  0.000     0.718     1.331
  23   1 H      0.065  0.935  0.000  0.000     2.140     2.288
  24   1 H      0.056  0.944  0.000  0.000     2.248     2.345
  25   1 H      0.052  0.948  0.000  0.000     2.299     2.371
  26   7 N     -0.417  1.321  4.096  0.000    30.843     8.248
  27   6 C      0.046  1.053  2.901  0.000    19.820     6.342
  28   6 C      0.195  1.094  2.711  0.000    23.836     7.996
  29   8 O     -0.381  1.755  4.625  0.000    21.299     6.188
  30   6 C     -0.075  1.053  3.021  0.000    21.912     6.661
  31   6 C      0.022  1.079  2.899  0.000    27.509     8.603
  32   6 C     -0.039  1.080  2.959  0.000    28.967     8.827
  33   6 C     -0.039  1.075  2.964  0.000    28.972     8.827
  34   6 C     -0.034  1.081  2.953  0.000    28.854     8.809
  35   6 C     -0.049  1.082  2.968  0.000    29.228     8.866
  36   6 C     -0.041  1.076  2.965  0.000    29.022     8.834
  37   1 H      0.205  0.795  0.000  0.000     1.082     1.629
  38   1 H      0.049  0.951  0.000  0.000     2.335     2.390
  39   1 H      0.056  0.944  0.000  0.000     2.244     2.343
  40   1 H      0.054  0.946  0.000  0.000     2.269     2.355
  41   1 H      0.023  0.977  0.000  0.000     2.682     2.561
  42   1 H      0.034  0.966  0.000  0.000     2.537     2.491
  43   1 H      0.047  0.953  0.000  0.000     2.360     2.403
  44   1 H      0.066  0.934  0.000  0.000     2.125     2.280
  45   1 H      0.042  0.958  0.000  0.000     2.420     2.433
  46   7 N     -0.383  1.312  4.071  0.000    29.903     8.121
  47   6 C      0.034  1.058  2.908  0.000    20.010     6.370
  48   6 C      0.202  1.092  2.706  0.000    23.712     7.976
  49   8 O     -0.359  1.740  4.619  0.000    20.876     6.126
  50   6 C     -0.027  1.066  2.961  0.000    21.014     6.520
  51   6 C     -0.060  1.049  3.011  0.000    21.655     6.625
  52   6 C     -0.119  1.042  3.077  0.000    22.822     6.810
  53   6 C     -0.109  1.036  3.072  0.000    22.637     6.785
  54   1 H      0.169  0.831  0.000  0.000     1.282     1.773
  55   1 H      0.053  0.947  0.000  0.000     2.278     2.361
  56   1 H      0.042  0.958  0.000  0.000     2.420     2.433
  57   1 H      0.040  0.960  0.000  0.000     2.453     2.449
  58   1 H      0.037  0.963  0.000  0.000     2.489     2.467
  59   1 H      0.048  0.952  0.000  0.000     2.342     2.393
  60   1 H      0.044  0.956  0.000  0.000     2.394     2.420
  61   1 H      0.044  0.956  0.000  0.000     2.398     2.421
  62   1 H      0.036  0.964  0.000  0.000     2.497     2.471
  63   1 H      0.040  0.960  0.000  0.000     2.443     2.444
  64   1 H      0.036  0.964  0.000  0.000     2.498     2.472
  65   7 N     -0.428  1.328  4.100  0.000    31.153     8.289
  66   6 C      0.037  1.058  2.906  0.000    19.965     6.363
  67   6 C      0.202  1.092  2.707  0.000    23.712     7.975
  68   8 O     -0.402  1.761  4.641  0.000    21.730     6.250
  69   6 C     -0.010  1.062  2.947  0.000    20.715     6.473
  70   6 C     -0.123  1.040  3.083  0.000    22.912     6.824
  71   6 C     -0.119  1.037  3.082  0.000    22.833     6.813
  72   1 H      0.211  0.789  0.000  0.000     1.050     1.605
  73   1 H      0.050  0.950  0.000  0.000     2.323     2.383
  74   1 H      0.025  0.975  0.000  0.000     2.658     2.550
  75   1 H      0.053  0.947  0.000  0.000     2.285     2.364
  76   1 H      0.036  0.964  0.000  0.000     2.503     2.474
  77   1 H      0.063  0.937  0.000  0.000     2.159     2.298
  78   1 H      0.053  0.947  0.000  0.000     2.282     2.362
  79   1 H      0.059  0.941  0.000  0.000     2.216     2.328
  80   1 H      0.028  0.972  0.000  0.000     2.621     2.532
  81   7 N     -0.399  1.313  4.086  0.000    30.352     8.182
  82   6 C      0.053  1.052  2.895  0.000    19.704     6.323
  83   6 C      0.271  1.055  2.674  0.000    22.421     7.754
  84   8 O     -0.498  1.739  4.760  0.000    23.748     6.534
  85   6 C     -0.095  1.070  3.026  0.000    22.318     6.726
  86   6 C      0.372  1.023  2.605  0.000    20.692     7.444
  87   8 O     -0.640  1.772  4.869  0.000    27.131     6.984
  88   8 O     -0.640  1.773  4.867  0.000    27.134     6.984
  89   1 H      0.171  0.829  0.000  0.000     1.267     1.763
  90   1 H      0.021  0.979  0.000  0.000     2.717     2.578
  91   1 H      0.024  0.976  0.000  0.000     2.673     2.557
  92   1 H      0.021  0.979  0.000  0.000     2.718     2.578
  93   7 N     -0.172  1.248  3.924  0.000    24.715     7.384
  94   6 C      0.029  1.056  2.915  0.000    20.091     6.382
  95   6 C      0.271  1.044  2.685  0.000    22.422     7.755
  96   8 O     -0.493  1.733  4.760  0.000    23.624     6.517
  97   6 C     -0.081  1.055  3.026  0.000    22.036     6.682
  98   6 C      0.054  1.059  2.886  0.000    26.286     8.360
  99   7 N     -0.314  1.495  3.819  0.000    28.994     7.984
 100   6 C     -0.032  1.067  2.965  0.000    28.759     8.796
 101   6 C      0.093  1.058  2.849  0.000    25.702     8.295
 102   7 N     -0.100  1.247  3.853  0.000    23.195     7.153
 103   1 H      0.220  0.780  0.000  0.000     1.010     1.575
 104   1 H      0.076  0.924  0.000  0.000     2.022     2.224
 105   1 H      0.075  0.925  0.000  0.000     2.034     2.230
 106   1 H      0.081  0.919  0.000  0.000     1.968     2.194
 107   1 H      0.065  0.935  0.000  0.000     2.140     2.287
 108   1 H      0.032  0.968  0.000  0.000     2.552     2.498
 109   1 H      0.215  0.785  0.000  0.000     1.034     1.593
 110   7 N     -0.165  1.241  3.923  0.000    24.563     7.361
 111   6 C      0.013  1.067  2.920  0.000    20.354     6.422
 112   6 C      0.269  1.044  2.687  0.000    22.450     7.759
 113   8 O     -0.469  1.731  4.738  0.000    23.114     6.446
 114   6 C     -0.024  1.068  2.957  0.000    20.976     6.514
 115   6 C     -0.066  1.050  3.016  0.000    21.761     6.641
 116   6 C     -0.128  1.039  3.089  0.000    23.007     6.840
 117   6 C     -0.113  1.034  3.078  0.000    22.715     6.797
 118   1 H      0.216  0.784  0.000  0.000     1.029     1.589
 119   1 H      0.093  0.907  0.000  0.000     1.853     2.129
 120   1 H      0.067  0.933  0.000  0.000     2.120     2.277
 121   1 H      0.030  0.970  0.000  0.000     2.591     2.517
 122   1 H      0.041  0.959  0.000  0.000     2.441     2.443
 123   1 H      0.071  0.929  0.000  0.000     2.076     2.253
 124   1 H      0.058  0.942  0.000  0.000     2.218     2.329
 125   1 H      0.052  0.948  0.000  0.000     2.293     2.368
 126   1 H      0.047  0.953  0.000  0.000     2.358     2.401
 127   1 H      0.046  0.954  0.000  0.000     2.372     2.408
 128   1 H      0.053  0.947  0.000  0.000     2.283     2.363
 129   7 N     -0.169  1.235  3.934  0.000    24.660     7.375
 130   6 C      0.027  1.055  2.918  0.000    20.118     6.385
 131   6 C      0.269  1.040  2.692  0.000    22.466     7.763
 132   8 O     -0.495  1.733  4.762  0.000    23.676     6.524
 133   6 C     -0.065  1.057  3.009  0.000    21.731     6.633
 134   6 C     -0.007  1.052  2.955  0.000    20.664     6.465
 135   6 C     -0.114  1.040  3.075  0.000    22.741     6.799
 136   6 C     -0.140  1.042  3.098  0.000    23.243     6.873
 137   1 H      0.192  0.808  0.000  0.000     1.147     1.678
 138   1 H      0.081  0.919  0.000  0.000     1.964     2.192
 139   1 H      0.027  0.973  0.000  0.000     2.625     2.534
 140   1 H      0.061  0.939  0.000  0.000     2.193     2.316
 141   1 H      0.020  0.980  0.000  0.000     2.736     2.587
 142   1 H      0.056  0.944  0.000  0.000     2.242     2.342
 143   1 H      0.029  0.971  0.000  0.000     2.597     2.520
 144   1 H      0.043  0.957  0.000  0.000     2.412     2.429
 145   1 H      0.081  0.919  0.000  0.000     1.965     2.192
 146   1 H      0.037  0.963  0.000  0.000     2.483     2.464
 147   1 H      0.053  0.947  0.000  0.000     2.279     2.361
 148   7 N     -0.195  1.257  3.938  0.000    25.232     7.460
 149   6 C      0.032  1.056  2.913  0.000    20.047     6.375
 150   6 C      0.272  1.043  2.685  0.000    22.403     7.752
 151   8 O     -0.485  1.730  4.756  0.000    23.458     6.494
 152   6 C     -0.072  1.060  3.012  0.000    21.869     6.657
 153   6 C      0.001  1.053  2.946  0.000    20.525     6.444
 154   6 C     -0.111  1.044  3.067  0.000    22.674     6.789
 155   6 C     -0.094  1.035  3.059  0.000    22.351     6.741
 156   1 H      0.239  0.761  0.000  0.000     0.926     1.508
 157   1 H      0.068  0.932  0.000  0.000     2.110     2.271
 158   1 H      0.053  0.947  0.000  0.000     2.286     2.365
 159   1 H      0.055  0.945  0.000  0.000     2.262     2.352
 160   1 H      0.028  0.972  0.000  0.000     2.618     2.530
 161   1 H      0.036  0.964  0.000  0.000     2.507     2.476
 162   1 H      0.041  0.959  0.000  0.000     2.436     2.441
 163   1 H      0.045  0.955  0.000  0.000     2.388     2.416
 164   1 H      0.034  0.966  0.000  0.000     2.531     2.488
 165   1 H      0.034  0.966  0.000  0.000     2.535     2.490
 166   1 H      0.025  0.975  0.000  0.000     2.652     2.547
 167   7 N     -0.191  1.254  3.937  0.000    25.144     7.447
 168   6 C      0.032  1.060  2.908  0.000    20.005     6.364
 169   6 C      0.274  1.042  2.684  0.000    22.372     7.746
 170   8 O     -0.479  1.729  4.749  0.000    23.316     6.474
 171   6 C     -0.018  1.065  2.953  0.000    20.901     6.510
 172  16 S     -0.290  1.932  4.329  0.028   153.579    20.858
 173   1 H      0.235  0.765  0.000  0.000     0.942     1.521
 174   1 H      0.074  0.926  0.000  0.000     2.042     2.235
 175   1 H      0.070  0.930  0.000  0.000     2.082     2.256
 176   1 H      0.082  0.918  0.000  0.000     1.959     2.189
 177   1 H      0.193  0.807  0.000  0.000     1.137     1.668
 178   7 N     -0.198  1.260  3.938  0.000    25.294     7.470
 179   6 C      0.025  1.065  2.911  0.000    20.156     6.391
 180   6 C      0.286  1.041  2.674  0.000    22.159     7.709
 181   8 O     -0.488  1.725  4.762  0.000    23.510     6.501
 182   6 C     -0.018  1.061  2.957  0.000    20.856     6.495
 183   6 C     -0.128  1.039  3.089  0.000    23.006     6.837
 184   6 C     -0.127  1.042  3.085  0.000    22.993     6.836
 185   1 H      0.233  0.767  0.000  0.000     0.953     1.529
 186   1 H      0.072  0.928  0.000  0.000     2.064     2.247
 187   1 H      0.036  0.964  0.000  0.000     2.499     2.472
 188   1 H      0.070  0.930  0.000  0.000     2.083     2.257
 189   1 H      0.023  0.977  0.000  0.000     2.684     2.562
 190   1 H      0.053  0.947  0.000  0.000     2.279     2.361
 191   1 H      0.053  0.947  0.000  0.000     2.282     2.362
 192   1 H      0.055  0.945  0.000  0.000     2.252     2.347
 193   1 H      0.066  0.934  0.000  0.000     2.127     2.281
 194   7 N     -0.206  1.257  3.948  0.000    25.475     7.496
 195   6 C      0.036  1.055  2.909  0.000    19.973     6.364
 196   6 C      0.277  1.041  2.682  0.000    22.317     7.737
 197   8 O     -0.505  1.733  4.772  0.000    23.903     6.555
 198   6 C     -0.076  1.056  3.020  0.000    21.936     6.667
 199   6 C      0.008  1.081  2.911  0.000    27.849     8.656
 200   6 C     -0.040  1.081  2.960  0.000    28.998     8.831
 201   6 C     -0.040  1.078  2.962  0.000    28.986     8.829
 202   6 C     -0.031  1.081  2.950  0.000    28.776     8.797
 203   6 C     -0.028  1.083  2.945  0.000    28.694     8.784
 204   6 C     -0.031  1.081  2.950  0.000    28.775     8.797
 205   1 H      0.239  0.761  0.000  0.000     0.928     1.509
 206   1 H      0.062  0.938  0.000  0.000     2.171     2.304
 207   1 H      0.082  0.918  0.000  0.000     1.963     2.191
 208   1 H      0.051  0.949  0.000  0.000     2.302     2.373
 209   1 H      0.027  0.973  0.000  0.000     2.630     2.536
 210   1 H      0.033  0.967  0.000  0.000     2.538     2.491
 211   1 H      0.040  0.960  0.000  0.000     2.443     2.444
 212   1 H      0.046  0.954  0.000  0.000     2.367     2.406
 213   1 H      0.044  0.956  0.000  0.000     2.392     2.419
 214   7 N     -0.184  1.255  3.930  0.000    24.997     7.425
 215   6 C      0.031  1.060  2.909  0.000    20.058     6.376
 216   6 C      0.274  1.042  2.684  0.000    22.373     7.746
 217   8 O     -0.498  1.736  4.762  0.000    23.734     6.532
 218   6 C     -0.066  1.051  3.015  0.000    21.741     6.634
 219   6 C     -0.009  1.064  2.945  0.000    20.737     6.484
 220  16 S     -0.217  1.915  4.254  0.047   150.302    20.634
 221   6 C     -0.051  1.050  3.001  0.000    21.562     6.624
 222   1 H      0.240  0.760  0.000  0.000     0.923     1.505
 223   1 H      0.064  0.936  0.000  0.000     2.152     2.294
 224   1 H      0.067  0.933  0.000  0.000     2.118     2.276
 225   1 H      0.064  0.936  0.000  0.000     2.150     2.293
 226   1 H      0.057  0.943  0.000  0.000     2.231     2.336
 227   1 H      0.054  0.946  0.000  0.000     2.275     2.359
 228   1 H      0.072  0.928  0.000  0.000     2.063     2.246
 229   1 H      0.041  0.959  0.000  0.000     2.440     2.443
 230   1 H      0.052  0.948  0.000  0.000     2.293     2.368
 231   7 N     -0.183  1.252  3.931  0.000    24.972     7.422
 232   6 C      0.031  1.058  2.911  0.000    20.047     6.374
 233   6 C      0.271  1.046  2.683  0.000    22.419     7.754
 234   8 O     -0.502  1.730  4.773  0.000    23.831     6.545
 235   6 C     -0.072  1.059  3.013  0.000    21.867     6.656
 236   6 C     -0.017  1.056  2.961  0.000    20.842     6.494
 237   6 C     -0.115  1.043  3.073  0.000    22.755     6.801
 238   6 C     -0.117  1.040  3.077  0.000    22.796     6.808
 239   1 H      0.238  0.762  0.000  0.000     0.930     1.511
 240   1 H      0.067  0.933  0.000  0.000     2.123     2.278
 241   1 H      0.056  0.944  0.000  0.000     2.248     2.345
 242   1 H      0.060  0.940  0.000  0.000     2.199     2.319
 243   1 H      0.051  0.949  0.000  0.000     2.307     2.375
 244   1 H      0.044  0.956  0.000  0.000     2.403     2.424
 245   1 H      0.036  0.964  0.000  0.000     2.506     2.475
 246   1 H      0.050  0.950  0.000  0.000     2.325     2.385
 247   1 H      0.048  0.952  0.000  0.000     2.349     2.397
 248   1 H      0.047  0.953  0.000  0.000     2.364     2.404
 249   1 H      0.030  0.970  0.000  0.000     2.593     2.518
 250   7 N     -0.197  1.256  3.942  0.000    25.283     7.468
 251   6 C      0.023  1.065  2.912  0.000    20.187     6.397
 252   6 C      0.275  1.044  2.680  0.000    22.346     7.742
 253   8 O     -0.502  1.744  4.758  0.000    23.821     6.544
 254   6 C     -0.016  1.065  2.951  0.000    20.832     6.492
 255   6 C     -0.065  1.051  3.014  0.000    21.752     6.640
 256   6 C     -0.116  1.038  3.079  0.000    22.779     6.805
 257   6 C     -0.110  1.037  3.073  0.000    22.656     6.788
 258   1 H      0.245  0.755  0.000  0.000     0.904     1.489
 259   1 H      0.071  0.929  0.000  0.000     2.071     2.251
 260   1 H      0.034  0.966  0.000  0.000     2.532     2.488
 261   1 H      0.047  0.953  0.000  0.000     2.362     2.403
 262   1 H      0.046  0.954  0.000  0.000     2.366     2.406
 263   1 H      0.065  0.935  0.000  0.000     2.139     2.287
 264   1 H      0.030  0.970  0.000  0.000     2.582     2.513
 265   1 H      0.051  0.949  0.000  0.000     2.304     2.374
 266   1 H      0.049  0.951  0.000  0.000     2.331     2.387
 267   1 H      0.037  0.963  0.000  0.000     2.492     2.469
 268   1 H      0.050  0.950  0.000  0.000     2.319     2.381
 269   7 N     -0.194  1.253  3.941  0.000    25.205     7.456
 270   6 C      0.038  1.055  2.907  0.000    19.917     6.350
 271   6 C      0.274  1.044  2.682  0.000    22.364     7.745
 272   8 O     -0.497  1.739  4.759  0.000    23.725     6.530
 273   6 C     -0.008  1.063  2.945  0.000    20.712     6.479
 274  16 S     -0.316  1.928  4.353  0.034   154.769    20.939
 275   1 H      0.235  0.765  0.000  0.000     0.945     1.522
 276   1 H      0.074  0.926  0.000  0.000     2.044     2.236
 277   1 H      0.063  0.937  0.000  0.000     2.161     2.299
 278   1 H      0.062  0.938  0.000  0.000     2.181     2.310
 279   1 H      0.204  0.796  0.000  0.000     1.079     1.625
 280   7 N     -0.192  1.258  3.934  0.000    25.163     7.450
 281   6 C      0.022  1.065  2.912  0.000    20.199     6.398
 282   6 C      0.277  1.039  2.684  0.000    22.321     7.737
 283   8 O     -0.515  1.754  4.761  0.000    24.113     6.584
 284   6 C     -0.021  1.065  2.956  0.000    20.911     6.504
 285   6 C     -0.064  1.051  3.013  0.000    21.723     6.635
 286   6 C     -0.115  1.038  3.076  0.000    22.753     6.801
 287   6 C     -0.107  1.037  3.071  0.000    22.609     6.781
 288   1 H      0.231  0.769  0.000  0.000     0.960     1.534
 289   1 H      0.065  0.935  0.000  0.000     2.137     2.286
 290   1 H      0.046  0.954  0.000  0.000     2.366     2.406
 291   1 H      0.042  0.958  0.000  0.000     2.423     2.434
 292   1 H      0.042  0.958  0.000  0.000     2.424     2.435
 293   1 H      0.067  0.933  0.000  0.000     2.120     2.277
 294   1 H      0.032  0.968  0.000  0.000     2.554     2.499
 295   1 H      0.046  0.954  0.000  0.000     2.372     2.408
 296   1 H      0.045  0.955  0.000  0.000     2.378     2.411
 297   1 H      0.032  0.968  0.000  0.000     2.556     2.500
 298   1 H      0.049  0.951  0.000  0.000     2.328     2.386
 299   7 N     -0.204  1.258  3.947  0.000    25.446     7.492
 300   6 C      0.028  1.063  2.909  0.000    20.110     6.384
 301   6 C      0.288  1.039  2.674  0.000    22.126     7.703
 302   8 O     -0.515  1.755  4.759  0.000    24.109     6.583
 303   6 C     -0.020  1.065  2.955  0.000    20.892     6.501
 304   6 C     -0.071  1.052  3.019  0.000    21.855     6.656
 305   6 C     -0.115  1.038  3.076  0.000    22.749     6.801
 306   6 C     -0.112  1.036  3.076  0.000    22.706     6.795
 307   1 H      0.246  0.754  0.000  0.000     0.898     1.485
 308   1 H      0.064  0.936  0.000  0.000     2.156     2.296
 309   1 H      0.037  0.963  0.000  0.000     2.496     2.471
 310   1 H      0.056  0.944  0.000  0.000     2.246     2.344
 311   1 H      0.052  0.948  0.000  0.000     2.291     2.367
 312   1 H      0.063  0.937  0.000  0.000     2.162     2.300
 313   1 H      0.029  0.971  0.000  0.000     2.601     2.522
 314   1 H      0.050  0.950  0.000  0.000     2.322     2.383
 315   1 H      0.051  0.949  0.000  0.000     2.308     2.376
 316   1 H      0.044  0.956  0.000  0.000     2.392     2.418
 317   1 H      0.028  0.972  0.000  0.000     2.609     2.526
 318   7 N     -0.187  1.242  3.945  0.000    25.050     7.433
 319   6 C     -0.024  1.051  2.973  0.000    21.072     6.549
 320   6 C      0.283  1.038  2.680  0.000    22.213     7.718
 321   8 O     -0.513  1.749  4.764  0.000    24.078     6.579
 322   1 H      0.221  0.779  0.000  0.000     1.005     1.570
 323   1 H      0.081  0.919  0.000  0.000     1.965     2.192
 324   1 H      0.088  0.912  0.000  0.000     1.895     2.153
 325   7 N     -0.184  1.251  3.933  0.000    24.987     7.424
 326   6 C      0.030  1.061  2.908  0.000    20.072     6.380
 327   6 C      0.220  1.083  2.697  0.000    23.369     7.917
 328   8 O     -0.367  1.747  4.620  0.000    21.038     6.149
 329   6 C      0.112  1.051  2.837  0.000    18.851     6.200
 330   8 O     -0.489  1.731  4.758  0.000    22.657     6.426
 331   6 C     -0.135  1.043  3.092  0.000    23.163     6.864
 332   1 H      0.226  0.774  0.000  0.000     0.982     1.552
 333   1 H      0.093  0.907  0.000  0.000     1.849     2.127
 334   1 H      0.063  0.937  0.000  0.000     2.161     2.299
 335   1 H      0.347  0.653  0.000  0.000     0.595     1.212
 336   1 H      0.060  0.940  0.000  0.000     2.195     2.317
 337   1 H      0.063  0.937  0.000  0.000     2.162     2.299
 338   1 H      0.050  0.950  0.000  0.000     2.320     2.382
 339   1 H      0.190  0.810  0.000  0.000     1.159     1.686
 340   1 H      0.088  0.912  0.000  0.000     1.896     2.153
 341   1 H      0.195  0.805  0.000  0.000     1.132     1.666
 342   1 H      0.075  0.925  0.000  0.000     2.034     2.230
 343   1 H      0.177  0.823  0.000  0.000     1.232     1.739
 344   1 H      0.068  0.932  0.000  0.000     2.110     2.272
 345   1 H      0.187  0.813  0.000  0.000     1.175     1.698
 346   1 H      0.075  0.925  0.000  0.000     2.031     2.229
 347   1 H      0.175  0.825  0.000  0.000     1.243     1.747
 348   1 H      0.068  0.932  0.000  0.000     2.109     2.271
 349   1 H      0.182  0.818  0.000  0.000     1.202     1.717
 350   1 H      0.069  0.931  0.000  0.000     2.099     2.266

 Mol. C6AA /au·bohr⁶  :    1141489.311069
 Mol. C8AA /au·bohr⁸  :   26065413.537728
 Mol. α(0) /au        :       1609.112126

 
molecular dipole:
                 x           y           z       tot (Debye)
 q only:      -69.131     -18.284     -49.157
   full:      -69.559     -17.451     -52.202     225.462
molecular quadrupole (traceless):
                xx          xy          yy          xz          yz          zz
 q only:    -3115.378   -1730.035    3578.862   -5291.799   -1189.121    -463.485
  q+dip:    -3088.733   -1661.913    3767.763   -5673.546   -1226.987    -679.029
   full:    -3089.046   -1665.457    3774.529   -5672.501   -1226.068    -685.483
speedup  1.00
cpu  time for grad    6.49 s
wall time for grad    6.49 s

SCC energy    :    -521.1674266
rep           :       6.5186804
ES            :       1.2414910
AES           :      -0.0150898
AXC           :       0.1931238
disp          :      -0.4793389
XB            :       0.0000000
fix           :       0.0000000
Gborn         :       0.0000000
Gsasa         :       0.0000000
Ghb           :       0.0000000
Gshift        :       0.0000000
Gsolv         :      -0.2407526     -151.07
Etot ala COSMO:    -521.1674266
grad norm     :       0.5468529
total E       :    -514.6052877
atomizationE  :      96.5636883    60594.63
(atE without considering molecular charge,
 total energy contains solvation terms)
H-L gap (eV)  :          1.5162

------------------------------------------------------------------------
 * finished run on 2019/03/14 at 15:08:26.959     
------------------------------------------------------------------------
 total:
 * wall-time:     0 d,  0 h,  0 min,  7.288 sec
 *  cpu-time:     0 d,  0 h,  0 min,  7.072 sec
 * ratio c/w:     0.970 speedup
 SCF:
 * wall-time:     0 d,  0 h,  0 min,  6.945 sec
 *  cpu-time:     0 d,  0 h,  0 min,  6.943 sec
 * ratio c/w:     1.000 speedup

