      -----------------------------------------------------------      
     |                   =====================                   |     
     |                           x T B                           |     
     |                   =====================                   |     
     |                         S. Grimme                         |     
     |          Mulliken Center for Theoretical Chemistry        |     
     |                    University of Bonn                     |     
     |                Version 6.1 RC1 (SAW190329)                |     
      -----------------------------------------------------------      

   This program is distributed in the hope that it will be useful,
   but WITHOUT ANY WARRANTY; without even the implied warranty of
   MERCHANTABILITY or FITNESS FOR A PARTICULAR PURPOSE.
   
   FOR NON-COMMERCIAL, ACADEMIA USE ONLY.
   
   Cite this work as:
   S. Grimme, C. Bannwarth, P. Shushkov, J. Comput. Theory Chem., 2017,
   13, 1989-2009. DOI: 10.1021/acs.jctc.7b00118
   C. Bannwarth, S. Ehlert and S. Grimme., J. Comput. Theory Chem., 2019,
   just accepted. DOI: 10.1021/acs.jctc.8b01176
   
   for sTDA-xTB:
   S. Grimme and C. Bannwarth, J. Chem. Phys., 2016, 145, 054103.
   DOI: 10.1063/1.4959605
   
   in the mass-spec context:
   V. Asgeirsson, C. Bauer and S. Grimme, Chem. Sci., 2017, 8, 4879.
   DOI: 10.1039/c7sc00601b
   
   for metadynamics refer to:
   S. Grimme, ChemRxiv, Preprint. DOI: 10.26434/chemrxiv.7660532.v1
   
   with help from (in alphabetical order)
   C. Bannwarth, F. Bohle, G. Brandenburg, E. Caldeweyher, M. Checinski,
   S. Dohm, S. Ehlert, S. Ehrlich, F. März, H. Neugebauer, J. Pisarek,
   P. Pracht, P. Shushkov, and S. Spicher.
   
 * started run on 2019/05/31 at 07:36:45.035     

           -------------------------------------------------
          |                Calculation Setup                |
           -------------------------------------------------

          program call               : /home/lum/install/xtb/xtb-190329/bin/xtb xtb_tmp.xyz --chrg 1 --grad --gfn 2 --etemp 500 --acc 0.1 --gbsa h2o --parallel 1
          hostname                   : cu05
          coordinate file            : xtb_tmp.xyz
          omp threads                :                     1
          number of atoms            :                   325
          number of electrons        :                   846
          charge                     :                     1
          spin                       :                   0.0
          first test random number   :      0.89518860964618


molecular fragmentation (1/2 indicates fragments):
111111111111111111111111111111111111111111122222222222222222222222222222
222222222222222222222222222222222222222222222222222222222222222222222222
222222222222222222222222222222222222222222222222222222222222222222222222
222222222222222222222222222222222222222222222222222222222222222222222222
2222222222222222222222211222222222222
# atoms in fragment 1/2:    45   280
 fragment masses (1/2) :      272.37     1860.32
CMA distance (Bohr)    :  15.326
constraining FC (au)   :  0.0500

########################################################################
# WARNING! Please study the warnings concerning your input carefully
#  - XTBPATH is not set, using XTBHOME instead
########################################################################

           ------------------------------------------------- 
          |                 G F N 2 - x T B                 |
          | Geometry, Frequencies, Noncovalent interactions |
          |            JCTC 2018 parametrisation            |
           ------------------------------------------------- 
 
             k(s)              :                1.8500
             k(p)              :                2.2300
             k(d)              :                2.2300
             k(f)              :                2.0000
             kEN (H0ij)        :               -2.0000
             D4 a1             :                0.5200
             D4 a2             :                5.0000
             D4 s6             :                1.0000
             D4 s8             :                2.7000
             D4 s9             :                5.0000
             alphaj            :                2.0000

  Z AO/shell   Hii/eV     exponent
  1     Wed Apr 25 08:07:45 CEST 2018   EN: 2.200 GM2: 0.406  GM3: 0.0800  RAES: 1.40
     1s    -10.707211    1.230000
  6     Wed Apr 25 08:07:45 CEST 2018   EN: 2.550 GM2: 0.538  GM3: 0.1500  RAES: 3.00
     2s    -13.970922    2.096432
     2p    -10.063292    1.800000
  7     Wed Apr 25 08:07:45 CEST 2018   EN: 3.040 GM2: 0.461  GM3:-0.0640  RAES: 1.90
     2s    -16.686243    2.339881
     2p    -12.523956    2.014332
  8     Wed Apr 25 08:07:45 CEST 2018   EN: 3.440 GM2: 0.452  GM3:-0.0517  RAES: 1.80
     2s    -20.229985    2.439742
     2p    -15.503117    2.137023
 16     Tue Apr 24 11:44:34 CEST 2018   EN: 2.580 GM2: 0.340  GM3:-0.0502  RAES: 3.10
     3s    -20.029654    1.981333
     3p    -11.377694    2.025643
     3d     -0.420282    1.702555

 Solvent             : h2o
 Using internal parameter file: .param_gbsa2_h2o
 Gsolv ref. state (COSMO-RS): gsolv [1 M gas/solution]
 temperature (mdtemp)       :    298.150000000000     
 dielectric constant        :    80.2000000000000     
 rho                        :    1.00000000000000     
 mass                       :    18.0000000000000     
 surface tension            :    15.5689454083859     
 probe radius               :   0.975313790000000     
 vdW radii scaling          :    1.00000000000000     
 Gshift (Eh)                :   1.857443126794793E-003
 c1                         :    1.55243817000000     
 soset                      :   0.130326360000000     
 HB correction              :  T
 Number of grid points      :          230

            Z     q(EN)     CN     RAES       Cart. coordinates
     1  N   5.0   -0.71    3.00    1.93    69.44007    53.65494    33.26508
     2  C   4.0    0.07    3.98    3.59    66.74743    53.14993    33.33995
     3  C   4.0    0.28    3.01    3.02    65.71164    53.46843    36.01209
     4  O   6.0   -0.47    1.00    1.80    63.61732    54.38790    36.39682
     5  C   4.0   -0.14    3.99    3.60    66.25213    50.51243    32.26846
     6  C   4.0   -0.10    3.98    3.58    63.48658    49.65673    32.28421
     7  C   4.0   -0.22    3.98    3.59    61.73426    51.55243    30.99546
     8  C   4.0   -0.23    3.99    3.60    63.33143    47.09427    30.96493
     9  H   1.0    0.25    1.00    1.43    70.61016    52.11513    33.24559
    10  H   1.0    0.12    0.99    1.43    65.80689    54.59015    32.18026
    11  H   1.0    0.10    0.99    1.43    66.94928    50.49874    30.32542
    12  H   1.0    0.10    0.99    1.43    67.38468    49.15900    33.34162
    13  H   1.0    0.11    0.99    1.43    62.88369    49.44077    34.25241
    14  H   1.0    0.09    0.99    1.43    59.85414    50.74995    30.79668
    15  H   1.0    0.12    0.99    1.43    61.57578    53.26765    32.11178
    16  H   1.0    0.11    0.99    1.43    62.43504    52.02704    29.12269
    17  H   1.0    0.09    0.99    1.43    61.42694    46.33690    31.07323
    18  H   1.0    0.11    0.99    1.43    63.83832    47.28368    28.98138
    19  H   1.0    0.10    0.99    1.43    64.62883    45.76423    31.84152
    20  N   5.0   -0.49    3.01    1.93    67.19690    52.69516    37.90303
    21  C   4.0    0.06    4.00    3.61    66.42611    53.12659    40.49208
    22  C   4.0    0.09    3.00    3.02    66.09557    55.94938    40.99092
    23  O   6.0   -0.40    1.00    1.80    64.31379    56.75079    42.23416
    24  C   4.0   -0.16    3.99    3.60    68.33321    52.06456    42.37417
    25  C   4.0   -0.16    3.98    3.59    68.43561    49.18779    42.30476
    26  C   4.0   -0.04    3.99    3.60    70.59139    48.19560    43.95443
    27  N   5.0   -0.48    3.02    1.93    71.03374    45.56491    43.35364
    28  C   4.0    0.38    3.00    3.02    71.15100    43.66264    44.99366
    29  N   5.0   -0.64    3.02    1.93    71.32031    44.04629    47.46486
    30  N   5.0   -0.64    3.02    1.93    71.12871    41.29342    44.13571
    31  H   1.0    0.24    1.00    1.43    69.01532    52.19954    37.59043
    32  H   1.0    0.12    0.99    1.43    64.56778    52.24455    40.76399
    33  H   1.0    0.11    0.99    1.43    70.19580    52.83406    41.93021
    34  H   1.0    0.11    0.99    1.43    67.79490    52.70032    44.26143
    35  H   1.0    0.10    0.99    1.43    66.64295    48.39342    42.94045
    36  H   1.0    0.11    0.99    1.43    68.74379    48.56833    40.36056
    37  H   1.0    0.11    0.99    1.43    72.29915    49.31414    43.60440
    38  H   1.0    0.11    0.99    1.43    70.12057    48.37294    45.95063
    39  H   1.0    0.23    1.00    1.43    70.96069    45.16591    41.48283
    40  H   1.0    0.26    1.00    1.43    71.78627    45.74789    48.20751
    41  H   1.0    0.30    1.00    1.43    71.29614    42.50830    48.59607
    42  H   1.0    0.27    1.00    1.43    70.77460    40.92122    42.30725
    43  H   1.0    0.32    1.00    1.43    71.01316    39.88488    45.43219
    44  N   5.0   -0.68    3.00    1.93    59.89008    57.89025    38.67735
    45  C   4.0    0.08    3.98    3.59    57.89661    57.05669    40.36894
    46  C   4.0    0.09    3.00    3.02    57.76579    58.80695    42.66373
    47  O   6.0   -0.39    1.00    1.80    55.72784    59.46401    43.59167
    48  C   4.0   -0.08    3.98    3.58    58.30447    54.27448    41.12684
    49  C   4.0   -0.16    3.98    3.59    58.01046    52.59715    38.77712
    50  C   4.0   -0.22    3.98    3.59    56.44203    53.49835    43.19104
    51  C   4.0   -0.24    3.98    3.58    58.50587    49.80364    39.28534
    52  H   1.0    0.32    1.00    1.43    61.24828    56.64029    38.16560
    53  H   1.0    0.12    0.99    1.43    56.06842    57.23861    39.39875
    54  H   1.0    0.14    0.99    1.43    60.23763    54.12057    41.85275
    55  H   1.0    0.10    0.99    1.43    56.09877    52.81975    38.03665
    56  H   1.0    0.13    0.99    1.43    59.32793    53.23388    37.32631
    57  H   1.0    0.09    0.99    1.43    56.82542    51.57915    43.79955
    58  H   1.0    0.13    0.99    1.43    56.60283    54.73613    44.82271
    59  H   1.0    0.10    0.99    1.43    54.51684    53.59085    42.48052
    60  H   1.0    0.09    0.99    1.43    58.52385    48.78231    37.50315
    61  H   1.0    0.10    0.99    1.43    60.32818    49.54908    40.20328
    62  H   1.0    0.10    0.99    1.43    57.03074    48.99120    40.45752
    63  N   5.0   -0.71    3.00    1.93    42.02165    49.19809    38.50966
    64  C   4.0    0.07    3.98    3.59    44.33559    47.78623    38.24267
    65  C   4.0    0.08    3.00    3.02    43.80138    45.06141    37.45137
    66  O   6.0   -0.49    1.00    1.80    45.36577    43.90881    36.16660
    67  C   4.0   -0.14    3.99    3.60    45.91223    47.80772    40.66020
    68  C   4.0   -0.10    3.98    3.58    47.19406    50.34526    41.22649
    69  C   4.0   -0.23    3.99    3.60    48.47442    50.18286    43.80538
    70  C   4.0   -0.23    3.98    3.59    49.16261    51.06098    39.24302
    71  H   1.0    0.26    1.00    1.43    41.51861    49.77018    40.27130
    72  H   1.0    0.12    0.99    1.43    45.43555    48.58885    36.67722
    73  H   1.0    0.11    0.99    1.43    44.66117    47.30048    42.22283
    74  H   1.0    0.12    0.99    1.43    47.35789    46.34185    40.48628
    75  H   1.0    0.11    0.99    1.43    45.73487    51.80861    41.29777
    76  H   1.0    0.10    0.99    1.43    49.39019    51.96481    44.24607
    77  H   1.0    0.10    0.99    1.43    47.08842    49.78147    45.26618
    78  H   1.0    0.10    0.99    1.43    49.89008    48.69185    43.78707
    79  H   1.0    0.10    0.99    1.43    50.07444    52.82062    39.78179
    80  H   1.0    0.10    0.99    1.43    50.59575    49.59258    39.10340
    81  H   1.0    0.10    0.99    1.43    48.32282    51.32735    37.38734
    82  N   5.0   -0.71    3.00    1.93    46.31717    42.10582    31.41808
    83  C   4.0    0.07    3.98    3.58    47.57106    39.68475    31.70394
    84  C   4.0    0.11    3.00    3.02    47.09214    37.93607    29.46093
    85  O   6.0   -0.37    1.00    1.80    48.80060    37.21966    28.06706
    86  C   4.0   -0.09    3.98    3.59    46.59843    38.41181    34.10385
    87  C   4.0    0.31    2.99    3.02    47.21452    35.53460    34.17772
    88  O   6.0   -0.36    1.00    1.80    49.29505    34.85084    33.34424
    89  O   6.0   -0.36    1.00    1.80    45.55031    34.14009    35.12245
    90  H   1.0    0.33    1.00    1.43    45.81824    42.93325    33.08611
    91  H   1.0    0.12    0.99    1.43    49.63172    39.95795    31.80798
    92  H   1.0    0.12    0.99    1.43    47.45041    39.30094    35.75805
    93  H   1.0    0.14    0.99    1.43    44.55435    38.63285    34.19136
    94  N   5.0   -0.68    3.00    1.93    49.26077    41.27499    23.12557
    95  C   4.0    0.07    3.98    3.59    51.89017    42.01121    23.32236
    96  C   4.0    0.09    3.00    3.02    53.67092    39.76394    23.16868
    97  O   6.0   -0.39    1.00    1.80    55.41074    39.74120    21.60950
    98  C   4.0   -0.14    3.99    3.61    52.47897    43.38819    25.79804
    99  C   4.0   -0.11    3.97    3.58    51.57074    46.13662    25.95425
   100  C   4.0   -0.23    3.99    3.60    52.50907    47.22413    28.46167
   101  C   4.0   -0.22    3.98    3.59    52.55679    47.74466    23.77022
   102  H   1.0    0.27    1.00    1.43    48.04072    42.06047    24.37757
   103  H   1.0    0.13    0.99    1.43    52.35534    43.22812    21.71026
   104  H   1.0    0.12    0.99    1.43    51.65341    42.30010    27.34737
   105  H   1.0    0.11    0.99    1.43    54.53175    43.38404    26.02735
   106  H   1.0    0.11    0.99    1.43    49.50230    46.15454    25.92549
   107  H   1.0    0.10    0.99    1.43    51.86175    49.15659    28.71106
   108  H   1.0    0.09    0.99    1.43    51.84622    46.08835    30.04153
   109  H   1.0    0.10    0.99    1.43    54.56394    47.22594    28.48144
   110  H   1.0    0.11    0.99    1.43    52.17155    49.72804    24.13576
   111  H   1.0    0.11    0.99    1.43    54.58722    47.49668    23.56773
   112  H   1.0    0.11    0.99    1.43    51.64943    47.24566    21.99767
   113  N   5.0   -0.52    3.02    1.93    63.20136    34.19839    30.33818
   114  C   4.0    0.06    4.02    3.66    61.59837    34.47664    32.54909
   115  C   4.0    0.26    3.01    3.02    62.77048    36.32796    34.45605
   116  O   6.0   -0.41    1.00    1.80    65.03650    36.63101    34.66872
   117  C   4.0   -0.13    4.01    3.64    61.64655    31.80546    33.67609
   118  C   4.0   -0.13    4.01    3.63    64.39861    31.02154    33.27026
   119  C   4.0   -0.00    4.01    3.63    65.16457    32.31835    30.78967
   120  H   1.0    0.10    0.99    1.43    59.73020    35.12027    31.95506
   121  H   1.0    0.10    0.99    1.43    61.11554    31.77179    35.66101
   122  H   1.0    0.11    0.99    1.43    60.36034    30.60692    32.60272
   123  H   1.0    0.13    0.99    1.43    65.56134    31.74405    34.80598
   124  H   1.0    0.10    0.99    1.43    64.60733    28.98276    33.15969
   125  H   1.0    0.13    0.99    1.43    67.00325    33.24183    30.95894
   126  H   1.0    0.11    0.99    1.43    65.21697    30.99559    29.21075
   127  N   5.0   -0.52    3.00    1.93    61.07344    37.42088    36.02717
   128  C   4.0    0.08    3.99    3.61    61.83386    38.83456    38.23516
   129  C   4.0    0.28    3.00    3.02    61.13559    37.44018    40.67335
   130  O   6.0   -0.47    1.00    1.80    61.53395    38.38854    42.74832
   131  C   4.0   -0.08    3.98    3.58    60.89000    41.60115    38.28925
   132  C   4.0   -0.15    3.98    3.58    58.18329    41.88543    37.26638
   133  C   4.0   -0.23    3.98    3.59    62.75846    43.33108    36.93847
   134  C   4.0   -0.23    3.98    3.58    57.95154    42.23026    34.40886
   135  H   1.0    0.23    1.00    1.43    59.21434    37.34358    35.60939
   136  H   1.0    0.14    0.99    1.43    63.91248    38.85876    38.17853
   137  H   1.0    0.12    0.99    1.43    60.84690    42.13601    40.28608
   138  H   1.0    0.12    0.99    1.43    57.05055    40.26423    37.86660
   139  H   1.0    0.10    0.99    1.43    57.32147    43.53917    38.14347
   140  H   1.0    0.09    0.99    1.43    62.03012    45.24996    36.89210
   141  H   1.0    0.10    0.99    1.43    64.55485    43.32411    37.92817
   142  H   1.0    0.12    0.99    1.43    63.07323    42.69217    35.01373
   143  H   1.0    0.10    0.99    1.43    55.97157    42.10119    33.86111
   144  H   1.0    0.09    0.99    1.43    58.64269    44.08213    33.85434
   145  H   1.0    0.11    0.99    1.43    58.99077    40.81598    33.34209
   146  N   5.0   -0.47    3.01    1.93    60.29704    35.06135    40.36097
   147  C   4.0    0.07    3.99    3.60    59.12936    33.55581    42.33671
   148  C   4.0    0.29    3.01    3.02    56.85188    35.02830    43.41207
   149  O   6.0   -0.42    1.00    1.80    56.23862    37.08652    42.58382
   150  C   4.0   -0.01    3.98    3.58    61.03187    32.91766    44.46670
   151  O   6.0   -0.51    1.98    1.82    61.20405    34.84422    46.28028
   152  H   1.0    0.24    1.00    1.43    59.95568    34.52268    38.56284
   153  H   1.0    0.09    0.99    1.43    58.45861    31.81101    41.46003
   154  H   1.0    0.10    0.99    1.43    60.44955    31.20743    45.45921
   155  H   1.0    0.12    0.99    1.43    62.87447    32.56788    43.58157
   156  H   1.0    0.32    0.99    1.43    61.50072    36.40915    45.31183
   157  N   5.0   -0.50    3.01    1.93    55.72854    33.88580    45.37500
   158  C   4.0    0.07    3.99    3.61    53.78310    35.07513    46.87689
   159  C   4.0    0.27    3.01    3.02    54.85411    36.12679    49.35759
   160  O   6.0   -0.47    1.00    1.80    54.13344    38.16002    50.19487
   161  C   4.0   -0.09    3.98    3.58    51.52288    33.26863    47.27226
   162  C   4.0   -0.16    3.98    3.59    49.17975    34.77726    48.05803
   163  C   4.0   -0.22    3.98    3.59    52.10650    31.15137    49.14446
   164  C   4.0   -0.22    3.98    3.58    46.76275    33.21875    47.89706
   165  H   1.0    0.22    1.00    1.43    56.23401    32.09837    45.79776
   166  H   1.0    0.13    0.99    1.43    53.13155    36.71615    45.79265
   167  H   1.0    0.12    0.99    1.43    51.13685    32.43346    45.41729
   168  H   1.0    0.12    0.99    1.43    49.42427    35.49824    49.97668
   169  H   1.0    0.10    0.99    1.43    48.98948    36.40770    46.80672
   170  H   1.0    0.11    0.99    1.43    50.53933    29.82659    49.18403
   171  H   1.0    0.10    0.99    1.43    53.78479    30.10491    48.59129
   172  H   1.0    0.11    0.99    1.43    52.35004    31.90956    51.03763
   173  H   1.0    0.11    0.99    1.43    45.11700    34.41875    48.17971
   174  H   1.0    0.12    0.99    1.43    46.59062    32.33596    46.04949
   175  H   1.0    0.11    0.99    1.43    46.72192    31.74924    49.33067
   176  N   5.0   -0.48    3.01    1.93    56.58747    34.70300    50.52817
   177  C   4.0    0.07    3.99    3.61    57.59762    35.37224    52.99069
   178  C   4.0    0.29    3.02    3.02    59.15022    37.80069    52.81923
   179  O   6.0   -0.47    1.00    1.80    59.03180    39.45768    54.42621
   180  C   4.0   -0.16    3.99    3.60    59.32128    33.29018    54.02492
   181  C   4.0   -0.16    3.98    3.59    57.89531    30.89749    54.80758
   182  C   4.0   -0.04    3.99    3.60    59.71828    29.06270    56.09241
   183  N   5.0   -0.48    3.02    1.93    58.40479    26.75954    56.80979
   184  C   4.0    0.37    3.01    3.02    59.53815    24.71516    57.73007
   185  N   5.0   -0.64    3.02    1.93    62.03458    24.65834    58.02953
   186  N   5.0   -0.64    3.02    1.93    58.18338    22.64702    58.20369
   187  H   1.0    0.23    1.00    1.43    57.09632    33.01261    49.80975
   188  H   1.0    0.12    0.99    1.43    56.03125    35.73821    54.29838
   189  H   1.0    0.11    0.99    1.43    60.75230    32.84035    52.60962
   190  H   1.0    0.11    0.99    1.43    60.27726    34.05973    55.68114
   191  H   1.0    0.11    0.99    1.43    56.37299    31.39061    56.10897
   192  H   1.0    0.11    0.99    1.43    57.05044    29.98812    53.16407
   193  H   1.0    0.12    0.99    1.43    61.23450    28.57723    54.77397
   194  H   1.0    0.11    0.99    1.43    60.52416    29.97246    57.76847
   195  H   1.0    0.23    1.00    1.43    56.49685    26.80420    56.76499
   196  H   1.0    0.26    1.00    1.43    63.07748    26.24756    57.92972
   197  H   1.0    0.27    1.00    1.43    62.87294    23.11627    58.76383
   198  H   1.0    0.27    1.00    1.43    56.28530    22.65612    58.05783
   199  H   1.0    0.27    1.00    1.43    58.98826    21.11308    58.98935
   200  N   5.0   -0.49    3.01    1.93    60.76141    37.88650    50.87200
   201  C   4.0    0.07    4.00    3.62    62.46491    40.01628    50.61817
   202  C   4.0    0.29    3.01    3.02    61.03741    42.38633    49.78576
   203  O   6.0   -0.47    1.00    1.80    61.60756    44.45494    50.64215
   204  C   4.0   -0.13    3.98    3.59    64.72686    39.36858    48.94101
   205  C   4.0   -0.11    3.99    3.60    66.00379    36.94258    49.87642
   206  C   4.0    0.28    3.00    3.02    68.81277    36.86281    49.31133
   207  O   6.0   -0.45    1.00    1.80    70.01976    38.70300    48.59826
   208  N   5.0   -0.65    3.00    1.93    69.89859    34.61334    49.68513
   209  H   1.0    0.28    1.00    1.43    60.74791    36.55490    49.48993
   210  H   1.0    0.13    0.99    1.43    63.15696    40.47254    52.52293
   211  H   1.0    0.14    0.99    1.43    64.13098    39.17778    46.97972
   212  H   1.0    0.13    0.99    1.43    66.06965    40.92837    49.04891
   213  H   1.0    0.11    0.99    1.43    65.81966    36.82930    51.92960
   214  H   1.0    0.12    0.99    1.43    65.10575    35.28925    49.04177
   215  H   1.0    0.26    1.00    1.43    68.91004    33.11414    50.30740
   216  H   1.0    0.29    1.00    1.43    71.77887    34.42973    49.44258
   217  N   5.0   -0.47    3.01    1.93    59.09349    42.06193    48.18898
   218  C   4.0    0.07    4.00    3.62    57.37492    44.14626    47.70622
   219  C   4.0    0.30    3.01    3.02    56.35561    45.13486    50.23626
   220  O   6.0   -0.45    1.00    1.80    56.49367    47.36187    50.82748
   221  C   4.0   -0.14    4.01    3.64    55.11268    43.42616    46.06177
   222  C   4.0   -0.14    3.98    3.58    55.75500    43.31684    43.25755
   223  S   6.0   -0.19    2.01    3.10    52.99146    43.92793    41.26308
   224  C   4.0   -0.19    3.98    3.58    51.30817    40.98305    41.68561
   225  H   1.0    0.27    1.00    1.43    58.73996    40.38042    47.36481
   226  H   1.0    0.11    0.99    1.43    58.40571    45.71379    46.82441
   227  H   1.0    0.13    0.99    1.43    54.32558    41.63006    46.70018
   228  H   1.0    0.11    0.99    1.43    53.66936    44.87815    46.33790
   229  H   1.0    0.10    0.99    1.43    57.06726    44.81867    42.75511
   230  H   1.0    0.15    0.99    1.43    56.53261    41.49789    42.69965
   231  H   1.0    0.12    0.99    1.43    49.84050    40.89210    40.25228
   232  H   1.0    0.14    0.99    1.43    52.62128    39.42597    41.43778
   233  H   1.0    0.10    0.99    1.43    50.44632    40.93349    43.54834
   234  N   5.0   -0.47    3.01    1.93    55.30732    43.37088    51.69971
   235  C   4.0    0.07    4.00    3.61    54.09805    44.02483    54.07414
   236  C   4.0    0.30    3.01    3.02    55.91573    45.62322    55.65708
   237  O   6.0   -0.40    1.00    1.80    55.24795    47.59204    56.68109
   238  C   4.0   -0.20    3.99    3.59    53.36032    41.60364    55.43727
   239  H   1.0    0.29    1.00    1.43    55.03856    41.57342    51.08352
   240  H   1.0    0.13    0.99    1.43    52.40401    45.17364    53.71537
   241  H   1.0    0.10    0.99    1.43    52.15304    42.03708    57.03723
   242  H   1.0    0.12    0.99    1.43    52.31135    40.40350    54.14213
   243  H   1.0    0.14    0.99    1.43    55.03109    40.59239    56.07613
   244  N   5.0   -0.47    3.01    1.93    58.24320    44.68099    55.82112
   245  C   4.0    0.08    3.99    3.61    60.26974    45.87300    57.23642
   246  C   4.0    0.29    3.01    3.02    60.70023    48.59079    56.34769
   247  O   6.0   -0.36    1.00    1.80    60.53213    50.38265    57.80643
   248  C   4.0   -0.13    3.99    3.60    62.66374    44.26372    56.92629
   249  C   4.0   -0.03    3.03    3.02    64.78227    45.13099    58.60666
   250  C   4.0   -0.08    3.03    3.02    66.33476    47.12618    57.89966
   251  C   4.0   -0.09    3.03    3.02    65.24000    43.93161    60.89308
   252  C   4.0   -0.06    3.03    3.02    68.30690    47.89656    59.42299
   253  C   4.0   -0.08    3.03    3.02    67.22873    44.66417    62.41866
   254  C   4.0    0.12    3.03    3.02    68.78905    46.64322    61.68442
   255  O   6.0   -0.44    1.99    1.83    70.79774    47.39475    63.09356
   256  H   1.0    0.30    1.00    1.43    58.61565    42.95492    55.06219
   257  H   1.0    0.14    0.99    1.43    59.73571    46.00657    59.23750
   258  H   1.0    0.12    0.99    1.43    62.16474    42.31647    57.39054
   259  H   1.0    0.13    0.99    1.43    63.25531    44.35115    54.95232
   260  H   1.0    0.12    1.00    1.43    66.02686    48.06814    56.11883
   261  H   1.0    0.12    1.00    1.43    64.04838    42.38289    61.47394
   262  H   1.0    0.14    1.00    1.43    69.50905    49.44870    58.87251
   263  H   1.0    0.12    1.00    1.43    67.58304    43.68721    64.17440
   264  H   1.0    0.26    0.99    1.43    70.92042    46.37533    64.60541
   265  N   5.0   -0.50    3.00    1.93    61.32804    48.86441    53.91293
   266  C   4.0    0.09    4.00    3.62    61.99503    51.33058    52.95823
   267  C   4.0    0.29    3.01    3.02    59.74390    53.14483    52.90794
   268  O   6.0   -0.37    1.00    1.80    60.08278    55.42787    52.67607
   269  C   4.0   -0.09    3.98    3.58    63.28221    51.27853    50.34775
   270  C   4.0   -0.22    3.98    3.59    65.62226    49.58959    50.38336
   271  C   4.0   -0.21    3.98    3.59    61.46984    50.43670    48.27103
   272  H   1.0    0.30    1.00    1.43    61.29552    47.36145    52.72421
   273  H   1.0    0.14    0.99    1.43    63.32827    52.17112    54.31470
   274  H   1.0    0.13    0.99    1.43    63.84587    53.23581    49.97492
   275  H   1.0    0.10    0.99    1.43    66.65901    49.81163    48.62525
   276  H   1.0    0.11    0.99    1.43    66.87145    50.07856    51.94046
   277  H   1.0    0.13    0.99    1.43    65.07001    47.62048    50.55324
   278  H   1.0    0.10    0.99    1.43    62.39461    50.58874    46.44260
   279  H   1.0    0.14    0.99    1.43    60.91603    48.48727    48.57787
   280  H   1.0    0.12    0.99    1.43    59.78746    51.61387    48.24428
   281  N   5.0   -0.46    3.01    1.93    57.48541    52.05221    53.13066
   282  C   4.0    0.09    3.98    3.59    55.09861    53.39519    53.07903
   283  C   4.0    0.13    3.00    3.02    54.55078    54.49895    55.70275
   284  O   6.0   -0.34    1.00    1.80    54.10017    56.74459    56.04555
   285  C   4.0   -0.01    3.98    3.59    52.91168    51.62424    52.31798
   286  O   6.0   -0.48    1.99    1.82    50.54381    52.68055    52.85337
   287  H   1.0    0.31    1.00    1.43    57.45187    50.13382    53.02421
   288  H   1.0    0.15    0.99    1.43    55.24440    54.98697    51.75833
   289  H   1.0    0.11    0.99    1.43    53.09792    51.10789    50.32206
   290  H   1.0    0.16    0.99    1.43    53.02793    49.90257    53.44582
   291  H   1.0    0.27    0.99    1.43    50.23803    54.12064    51.77854
   292  N   5.0   -0.70    3.00    1.93    44.35392    41.27516    58.66087
   293  C   4.0    0.07    3.98    3.59    44.29649    39.76168    56.38939
   294  C   4.0    0.08    3.00    3.02    43.76823    37.01004    57.07376
   295  O   6.0   -0.39    1.00    1.80    42.09785    35.78184    56.03147
   296  C   4.0   -0.13    3.99    3.60    46.79061    39.97904    54.92859
   297  C   4.0   -0.04    3.03    3.02    46.88090    42.36516    53.37649
   298  C   4.0   -0.09    3.03    3.02    47.34355    44.69228    54.50609
   299  C   4.0   -0.09    3.03    3.02    46.45342    42.27565    50.78719
   300  C   4.0   -0.09    3.03    3.02    47.34754    46.88566    53.08078
   301  C   4.0   -0.10    3.03    3.02    46.47987    44.46538    49.35199
   302  C   4.0   -0.09    3.03    3.02    46.90957    46.77445    50.50373
   303  H   1.0    0.26    1.00    1.43    45.96622    42.19971    59.12336
   304  H   1.0    0.14    0.99    1.43    42.70756    40.37651    55.19731
   305  H   1.0    0.10    0.99    1.43    48.33128    39.91790    56.29756
   306  H   1.0    0.10    0.99    1.43    46.95261    38.34238    53.68336
   307  H   1.0    0.11    1.00    1.43    47.75657    44.78396    56.49861
   308  H   1.0    0.11    0.99    1.43    46.10871    40.47480    49.88344
   309  H   1.0    0.14    1.00    1.43    47.72949    48.68614    53.95730
   310  H   1.0    0.11    0.99    1.43    46.17021    44.36837    47.33281
   311  H   1.0    0.11    1.00    1.43    46.92148    48.48412    49.39312
   312  H   1.0    0.30    1.00    1.43    69.81338    54.53712    31.85974
   313  H   1.0    0.15    1.00    1.43    67.34701    57.18423    40.29802
   314  H   1.0    0.30    1.00    1.43    59.20809    58.40837    37.20799
   315  H   1.0    0.17    1.00    1.43    59.35754    59.45072    43.45300
   316  H   1.0    0.30    1.00    1.43    42.11838    50.62573    37.59040
   317  H   1.0    0.14    1.00    1.43    42.19065    44.22375    37.97571
   318  H   1.0    0.30    1.00    1.43    47.35093    43.18879    30.61118
   319  H   1.0    0.16    1.00    1.43    45.33938    37.33636    29.08777
   320  H   1.0    0.31    1.00    1.43    48.66784    41.69281    21.58725
   321  H   1.0    0.16    1.00    1.43    53.43885    38.29319    24.33234
   322  H   1.0    0.28    1.00    1.43    62.34292    34.67808    28.95054
   323  H   1.0    0.17    1.00    1.43    54.55209    53.37315    57.22052
   324  H   1.0    0.31    1.00    1.43    43.17757    42.49911    58.55745
   325  H   1.0    0.14    1.00    1.43    44.79712    36.15389    58.40773

           ------------------------------------------------- 
          |        Self-Consistent Charge Iterations        |
           ------------------------------------------------- 

          ...................................................
          :                      SETUP                      :
          :.................................................:
          :  # basis functions                 778          :
          :  # atomic orbitals                 777          :
          :  # shells                          475          :
          :  # electrons                       846          :
          :  max. iterations                   250          :
          :  Hamiltonian                  GFN2-xTB          :
          :  restarted?                      false          :
          :  GBSA solvation                   true          :
          :  PC potential                    false          :
          :  electronic temp.          500.0000000     K    :
          :  accuracy                    0.1000000          :
          :  -> integral cutoff          0.3500000E+02      :
          :  -> integral neglect         0.1000000E-08      :
          :  -> SCF convergence          0.1000000E-06 Eh   :
          :  -> wf. convergence          0.1000000E-04 e    :
          :  Broyden damping             0.4000000          :
          ...................................................

 iter      E             dE          RMSdq      gap      omega  full diag
   1   -480.4015251 -0.480402E+03  0.409E+00    1.18       0.0  T
   2   -481.4556907 -0.105417E+01  0.215E+00    0.90       1.0  T
   3   -481.4996544 -0.439637E-01  0.112E+00    1.50       1.0  T
   4   -481.5241282 -0.244738E-01  0.266E-01    1.21       1.0  T
   5   -481.5345337 -0.104055E-01  0.123E-01    1.32       1.0  T
   6   -481.5351182 -0.584474E-03  0.548E-02    1.29       1.0  T
   7   -481.5352060 -0.877796E-04  0.291E-02    1.28       1.0  T
   8   -481.5352644 -0.584528E-04  0.142E-02    1.27       1.0  T
   9   -481.5352757 -0.112130E-04  0.698E-03    1.26       1.0  T
  10   -481.5352779 -0.225112E-05  0.322E-03    1.25       1.7  T
  11   -481.5352784 -0.440512E-06  0.125E-03    1.25       4.4  T
  12   -481.5352784 -0.746223E-07  0.662E-04    1.25       8.4  T
  13   -481.5352785 -0.279330E-07  0.303E-04    1.25      18.3  T
  14   -481.5352785 -0.386467E-08  0.130E-04    1.25      42.7  T
  15   -481.5352785 -0.101539E-08  0.548E-05    1.25     101.2  T
  16   -481.5352785 -0.164619E-09  0.260E-05    1.25     213.5  T

   *** convergence criteria satisfied after 16 iterations ***

         #    Occupation            Energy/Eh            Energy/eV
      -------------------------------------------------------------
         1        2.0000           -0.7380505             -20.0834
       ...           ...                  ...                  ...
       417        2.0000           -0.3706693             -10.0864
       418        2.0000           -0.3694093             -10.0521
       419        2.0000           -0.3691011             -10.0438
       420        2.0000           -0.3636159              -9.8945
       421        2.0000           -0.3618355              -9.8460
       422        2.0000           -0.3528947              -9.6028
       423        2.0000           -0.3397681              -9.2456 (HOMO)
       424        0.0000           -0.2937946              -7.9946 (LUMO)
       425                         -0.2888050              -7.8588
       426                         -0.2874915              -7.8230
       427                         -0.2870839              -7.8119
       428                         -0.2828179              -7.6959
       ...                                ...                  ...
       777                          0.6680718              18.1792
      -------------------------------------------------------------
                  HL-Gap            0.0459736 Eh            1.2510 eV
             Fermi-level           -0.3168399 Eh           -8.6217 eV

 SCC (total)                   0 d,  0 h,  0 min,  7.146 sec
 SCC setup                      ...        0 min,  0.080 sec (  1.115%)
 Dispersion                     ...        0 min,  0.082 sec (  1.144%)
 integral evaluation            ...        0 min,  0.366 sec (  5.120%)
 zeroth order Hamiltonian       ...        0 min,  0.007 sec (  0.098%)
 iterations                     ...        0 min,  5.169 sec ( 72.334%)
 molecular gradient             ...        0 min,  1.396 sec ( 19.541%)
 printout                       ...        0 min,  0.046 sec (  0.648%)

         :::::::::::::::::::::::::::::::::::::::::::::::::::::
         ::                     SUMMARY                     ::
         :::::::::::::::::::::::::::::::::::::::::::::::::::::
         :: total energy             -475.443036376855 Eh   ::
         :: total w/o Gsasa/hb       -475.375777572349 Eh   ::
         :: gradient norm               0.590254796278 Eh/α ::
         :: HOMO-LUMO gap               1.251004046071 eV   ::
         ::.................................................::
         :: SCC energy               -481.554976454381 Eh   ::
         :: -> isotropic ES             1.385956337409 Eh   ::
         :: -> anisotropic ES          -0.037151356741 Eh   ::
         :: -> anisotropic XC           0.188655420452 Eh   ::
         :: -> dispersion              -0.379710398457 Eh   ::
         :: -> Gsolv                   -0.460106770145 Eh   ::
         ::    -> Gborn                -0.392847965639 Eh   ::
         ::    -> Gsasa                -0.021555435547 Eh   ::
         ::    -> Ghb                  -0.047560812086 Eh   ::
         ::    -> Gshift                0.001857443127 Eh   ::
         :: repulsion energy            6.081417289403 Eh   ::
         :: add. restraining            0.000000000000 Eh   ::
         :::::::::::::::::::::::::::::::::::::::::::::::::::::

           -------------------------------------------------
          |                Property Printout                |
           -------------------------------------------------

    * Orbital Energies and Occupations

         #    Occupation            Energy/Eh            Energy/eV
      -------------------------------------------------------------
         1        2.0000           -0.7380505             -20.0834
       ...           ...                  ...                  ...
       411        2.0000           -0.3898778             -10.6091
       412        2.0000           -0.3853683             -10.4864
       413        2.0000           -0.3835314             -10.4364
       414        2.0000           -0.3753948             -10.2150
       415        2.0000           -0.3734594             -10.1623
       416        2.0000           -0.3716150             -10.1122
       417        2.0000           -0.3706693             -10.0864
       418        2.0000           -0.3694093             -10.0521
       419        2.0000           -0.3691011             -10.0438
       420        2.0000           -0.3636159              -9.8945
       421        2.0000           -0.3618355              -9.8460
       422        2.0000           -0.3528947              -9.6028
       423        2.0000           -0.3397681              -9.2456 (HOMO)
       424        0.0000           -0.2937946              -7.9946 (LUMO)
       425                         -0.2888050              -7.8588
       426                         -0.2874915              -7.8230
       427                         -0.2870839              -7.8119
       428                         -0.2828179              -7.6959
       429                         -0.2797477              -7.6123
       430                         -0.2755087              -7.4970
       431                         -0.2505125              -6.8168
       432                         -0.2445197              -6.6537
       433                         -0.2426937              -6.6040
       434                         -0.2418737              -6.5817
       ...                                ...                  ...
       777                          0.6680718              18.1792
      -------------------------------------------------------------
                  HL-Gap            0.0459736 Eh            1.2510 eV
             Fermi-level           -0.3168399 Eh           -8.6217 eV

   #   Z        covCN         q      C6AA      α(0)
   1   7 N      2.636    -0.398    30.316     8.177
   2   6 C      3.785     0.030    20.081     6.383
   3   6 C      2.760     0.269    22.455     7.760
   4   8 O      0.859    -0.503    23.842     6.547
   5   6 C      3.811    -0.075    21.922     6.665
   6   6 C      3.849    -0.009    20.700     6.471
   7   6 C      3.755    -0.109    22.635     6.784
   8   6 C      3.759    -0.113    22.707     6.794
   9   1 H      0.859     0.169     1.279     1.772
  10   1 H      0.924     0.041     2.438     2.442
  11   1 H      0.924     0.043     2.411     2.428
  12   1 H      0.924     0.053     2.284     2.363
  13   1 H      0.924     0.033     2.540     2.492
  14   1 H      0.925     0.032     2.558     2.501
  15   1 H      0.925     0.037     2.487     2.466
  16   1 H      0.925     0.031     2.571     2.507
  17   1 H      0.925     0.032     2.562     2.503
  18   1 H      0.925     0.034     2.529     2.487
  19   1 H      0.925     0.048     2.345     2.395
  20   7 N      2.690    -0.166    24.589     7.365
  21   6 C      3.799     0.026    20.141     6.390
  22   6 C      2.768     0.202    23.710     7.975
  23   8 O      0.856    -0.364    20.982     6.141
  24   6 C      3.809    -0.081    22.043     6.683
  25   6 C      3.805    -0.089    22.197     6.707
  26   6 C      3.739    -0.029    21.164     6.564
  27   7 N      2.701    -0.145    24.140     7.297
  28   6 C      2.736     0.230    23.169     7.881
  29   7 N      2.651    -0.245    26.386     7.629
  30   7 N      2.655    -0.266    26.896     7.702
  31   1 H      0.860     0.228     0.974     1.546
  32   1 H      0.923     0.089     1.889     2.149
  33   1 H      0.924     0.076     2.017     2.221
  34   1 H      0.924     0.072     2.068     2.249
  35   1 H      0.924     0.078     2.002     2.212
  36   1 H      0.924     0.074     2.037     2.232
  37   1 H      0.924     0.086     1.918     2.166
  38   1 H      0.925     0.086     1.918     2.166
  39   1 H      0.860     0.227     0.978     1.550
  40   1 H      0.860     0.240     0.921     1.503
  41   1 H      0.860     0.259     0.851     1.445
  42   1 H      0.860     0.238     0.931     1.511
  43   1 H      0.860     0.263     0.835     1.431
  44   7 N      2.635    -0.401    30.390     8.187
  45   6 C      3.786     0.045    19.840     6.344
  46   6 C      2.765     0.204    23.658     7.966
  47   8 O      0.856    -0.403    21.751     6.253
  48   6 C      3.852    -0.015    20.811     6.488
  49   6 C      3.804    -0.059    21.637     6.622
  50   6 C      3.755    -0.108    22.628     6.783
  51   6 C      3.751    -0.107    22.598     6.779
  52   1 H      0.860     0.183     1.194     1.712
  53   1 H      0.923     0.034     2.533     2.489
  54   1 H      0.924     0.053     2.278     2.360
  55   1 H      0.924     0.027     2.636     2.539
  56   1 H      0.924     0.050     2.322     2.383
  57   1 H      0.925     0.057     2.234     2.337
  58   1 H      0.925     0.019     2.750     2.593
  59   1 H      0.925     0.038     2.476     2.461
  60   1 H      0.925     0.040     2.443     2.444
  61   1 H      0.925     0.047     2.362     2.404
  62   1 H      0.925     0.041     2.442     2.444
  63   7 N      2.635    -0.394    30.213     8.163
  64   6 C      3.783     0.043    19.875     6.351
  65   6 C      2.767     0.196    23.828     7.994
  66   8 O      0.856    -0.393    21.533     6.221
  67   6 C      3.810    -0.062    21.682     6.628
  68   6 C      3.849    -0.007    20.665     6.466
  69   6 C      3.759    -0.111    22.672     6.788
  70   6 C      3.756    -0.112    22.687     6.791
  71   1 H      0.860     0.169     1.282     1.774
  72   1 H      0.923     0.060     2.199     2.319
  73   1 H      0.924     0.044     2.390     2.418
  74   1 H      0.924     0.042     2.426     2.436
  75   1 H      0.924     0.032     2.557     2.501
  76   1 H      0.925     0.043     2.411     2.428
  77   1 H      0.925     0.035     2.510     2.478
  78   1 H      0.925     0.047     2.358     2.401
  79   1 H      0.925     0.042     2.424     2.435
  80   1 H      0.925     0.048     2.340     2.392
  81   1 H      0.925     0.032     2.562     2.503
  82   7 N      2.636    -0.405    30.524     8.205
  83   6 C      3.782     0.065    19.516     6.293
  84   6 C      2.767     0.210    23.551     7.948
  85   8 O      0.856    -0.373    21.148     6.166
  86   6 C      3.806    -0.092    22.252     6.715
  87   6 C      2.684     0.369    20.749     7.454
  88   8 O      0.856    -0.640    27.115     6.981
  89   8 O      0.856    -0.654    27.494     7.030
  90   1 H      0.860     0.200     1.107     1.648
  91   1 H      0.923     0.016     2.790     2.612
  92   1 H      0.924     0.035     2.522     2.483
  93   1 H      0.925     0.036     2.509     2.477
  94   7 N      2.633    -0.388    30.048     8.141
  95   6 C      3.783     0.043    19.867     6.349
  96   6 C      2.771     0.202    23.694     7.972
  97   8 O      0.856    -0.385    21.384     6.200
  98   6 C      3.815    -0.063    21.698     6.630
  99   6 C      3.849    -0.006    20.655     6.464
 100   6 C      3.759    -0.113    22.705     6.793
 101   6 C      3.756    -0.116    22.777     6.805
 102   1 H      0.860     0.155     1.370     1.834
 103   1 H      0.924     0.050     2.322     2.383
 104   1 H      0.924     0.038     2.475     2.460
 105   1 H      0.924     0.044     2.399     2.422
 106   1 H      0.924     0.026     2.638     2.540
 107   1 H      0.925     0.050     2.321     2.383
 108   1 H      0.925     0.030     2.586     2.515
 109   1 H      0.925     0.048     2.351     2.398
 110   1 H      0.925     0.051     2.306     2.375
 111   1 H      0.925     0.046     2.371     2.408
 112   1 H      0.925     0.036     2.505     2.475
 113   7 N      2.706    -0.280    27.230     7.750
 114   6 C      3.822     0.022    20.185     6.393
 115   6 C      2.754     0.268    22.481     7.764
 116   8 O      0.858    -0.447    22.640     6.379
 117   6 C      3.832    -0.058    21.596     6.612
 118   6 C      3.828    -0.066    21.734     6.634
 119   6 C      3.760     0.015    20.368     6.434
 120   1 H      0.924     0.010     2.890     2.658
 121   1 H      0.925     0.030     2.582     2.513
 122   1 H      0.925     0.042     2.426     2.436
 123   1 H      0.925     0.059     2.215     2.327
 124   1 H      0.925     0.048     2.344     2.394
 125   1 H      0.924     0.045     2.379     2.412
 126   1 H      0.924     0.024     2.680     2.560
 127   7 N      2.688    -0.193    25.196     7.455
 128   6 C      3.795     0.006    20.480     6.444
 129   6 C      2.750     0.275    22.353     7.742
 130   8 O      0.858    -0.455    22.813     6.404
 131   6 C      3.849    -0.025    20.992     6.517
 132   6 C      3.800    -0.058    21.621     6.620
 133   6 C      3.755    -0.124    22.929     6.828
 134   6 C      3.750    -0.101    22.487     6.763
 135   1 H      0.860     0.179     1.217     1.728
 136   1 H      0.923     0.115     1.656     2.012
 137   1 H      0.924     0.070     2.089     2.260
 138   1 H      0.924     0.017     2.777     2.606
 139   1 H      0.924     0.052     2.291     2.367
 140   1 H      0.925     0.056     2.242     2.341
 141   1 H      0.925     0.064     2.154     2.295
 142   1 H      0.925     0.045     2.378     2.412
 143   1 H      0.925     0.015     2.803     2.618
 144   1 H      0.925     0.046     2.364     2.405
 145   1 H      0.925     0.029     2.607     2.525
 146   7 N      2.689    -0.173    24.742     7.388
 147   6 C      3.788    -0.003    20.649     6.472
 148   6 C      2.753     0.277    22.319     7.736
 149   8 O      0.858    -0.479    23.324     6.475
 150   6 C      3.675     0.058    19.824     6.380
 151   8 O      1.653    -0.473    22.327     6.379
 152   1 H      0.860     0.182     1.203     1.718
 153   1 H      0.924     0.074     2.038     2.232
 154   1 H      0.924     0.078     2.001     2.212
 155   1 H      0.924     0.067     2.124     2.279
 156   1 H      0.802     0.335     0.624     1.241
 157   7 N      2.689    -0.181    24.928     7.415
 158   6 C      3.795     0.011    20.400     6.432
 159   6 C      2.753     0.266    22.510     7.769
 160   8 O      0.859    -0.484    23.439     6.491
 161   6 C      3.852    -0.028    21.035     6.523
 162   6 C      3.803    -0.053    21.523     6.605
 163   6 C      3.754    -0.133    23.119     6.856
 164   6 C      3.752    -0.109    22.636     6.785
 165   1 H      0.860     0.217     1.022     1.583
 166   1 H      0.924     0.069     2.094     2.263
 167   1 H      0.924     0.045     2.384     2.415
 168   1 H      0.924     0.045     2.383     2.414
 169   1 H      0.924     0.020     2.735     2.586
 170   1 H      0.925     0.065     2.147     2.291
 171   1 H      0.925     0.060     2.201     2.320
 172   1 H      0.925     0.064     2.147     2.292
 173   1 H      0.925     0.029     2.599     2.521
 174   1 H      0.925     0.030     2.579     2.512
 175   1 H      0.925     0.053     2.283     2.363
 176   7 N      2.688    -0.167    24.606     7.367
 177   6 C      3.796     0.003    20.526     6.451
 178   6 C      2.764     0.268    22.474     7.764
 179   8 O      0.859    -0.482    23.394     6.485
 180   6 C      3.810    -0.094    22.292     6.721
 181   6 C      3.803    -0.089    22.199     6.708
 182   6 C      3.741    -0.034    21.261     6.579
 183   7 N      2.701    -0.138    23.999     7.276
 184   6 C      2.738     0.232    23.130     7.874
 185   7 N      2.651    -0.248    26.455     7.639
 186   7 N      2.653    -0.259    26.728     7.678
 187   1 H      0.860     0.226     0.983     1.553
 188   1 H      0.924     0.091     1.873     2.140
 189   1 H      0.924     0.089     1.893     2.151
 190   1 H      0.924     0.087     1.907     2.159
 191   1 H      0.924     0.072     2.058     2.244
 192   1 H      0.925     0.075     2.031     2.229
 193   1 H      0.924     0.100     1.784     2.089
 194   1 H      0.924     0.088     1.902     2.157
 195   1 H      0.860     0.231     0.963     1.537
 196   1 H      0.860     0.252     0.875     1.465
 197   1 H      0.860     0.247     0.894     1.481
 198   1 H      0.860     0.245     0.904     1.489
 199   1 H      0.860     0.248     0.890     1.478
 200   7 N      2.690    -0.181    24.915     7.413
 201   6 C      3.801     0.002    20.545     6.453
 202   6 C      2.758     0.269    22.456     7.760
 203   8 O      0.859    -0.473    23.184     6.456
 204   6 C      3.804    -0.085    22.113     6.695
 205   6 C      3.808    -0.120    22.788     6.795
 206   6 C      2.743     0.286    22.147     7.706
 207   8 O      0.859    -0.492    23.599     6.513
 208   7 N      2.640    -0.285    27.354     7.768
 209   1 H      0.860     0.234     0.950     1.527
 210   1 H      0.923     0.100     1.788     2.091
 211   1 H      0.925     0.078     1.995     2.209
 212   1 H      0.924     0.095     1.833     2.117
 213   1 H      0.924     0.094     1.843     2.123
 214   1 H      0.925     0.095     1.834     2.118
 215   1 H      0.860     0.234     0.948     1.525
 216   1 H      0.860     0.232     0.956     1.532
 217   7 N      2.688    -0.171    24.696     7.381
 218   6 C      3.801     0.015    20.326     6.419
 219   6 C      2.760     0.277    22.317     7.736
 220   8 O      0.859    -0.491    23.577     6.510
 221   6 C      3.832    -0.069    21.794     6.642
 222   6 C      3.795    -0.020    20.933     6.515
 223  16 S      1.965    -0.216   150.266    20.632
 224   6 C      3.745    -0.044    21.425     6.603
 225   1 H      0.860     0.206     1.076     1.625
 226   1 H      0.924     0.085     1.932     2.174
 227   1 H      0.924     0.061     2.186     2.312
 228   1 H      0.924     0.057     2.231     2.336
 229   1 H      0.925     0.074     2.047     2.237
 230   1 H      0.925     0.078     2.002     2.212
 231   1 H      0.925     0.023     2.686     2.563
 232   1 H      0.925     0.060     2.202     2.320
 233   1 H      0.925     0.043     2.407     2.426
 234   7 N      2.693    -0.190    25.123     7.444
 235   6 C      3.798     0.026    20.133     6.389
 236   6 C      2.755     0.281    22.237     7.722
 237   8 O      0.858    -0.519    24.204     6.596
 238   6 C      3.758    -0.136    23.172     6.863
 239   1 H      0.860     0.235     0.944     1.522
 240   1 H      0.923     0.050     2.321     2.383
 241   1 H      0.925     0.059     2.216     2.328
 242   1 H      0.925     0.079     1.994     2.208
 243   1 H      0.925     0.086     1.916     2.165
 244   7 N      2.692    -0.190    25.124     7.444
 245   6 C      3.794     0.026    20.137     6.390
 246   6 C      2.760     0.283    22.211     7.718
 247   8 O      0.859    -0.518    24.192     6.595
 248   6 C      3.813    -0.091    22.218     6.709
 249   6 C      2.969    -0.001    28.043     8.686
 250   6 C      2.925    -0.042    29.038     8.837
 251   6 C      2.926    -0.044    29.102     8.847
 252   6 C      2.918    -0.060    29.483     8.904
 253   6 C      2.918    -0.077    29.913     8.969
 254   6 C      2.847     0.144    24.854     8.171
 255   8 O      1.659    -0.440    21.648     6.281
 256   1 H      0.860     0.239     0.927     1.509
 257   1 H      0.923     0.058     2.219     2.330
 258   1 H      0.924     0.084     1.943     2.180
 259   1 H      0.924     0.079     1.988     2.205
 260   1 H      0.926     0.041     2.440     2.443
 261   1 H      0.926     0.054     2.272     2.357
 262   1 H      0.926     0.045     2.378     2.411
 263   1 H      0.926     0.045     2.382     2.413
 264   1 H      0.805     0.348     0.592     1.208
 265   7 N      2.687    -0.186    25.031     7.431
 266   6 C      3.804     0.025    20.159     6.392
 267   6 C      2.752     0.282    22.228     7.720
 268   8 O      0.858    -0.518    24.195     6.595
 269   6 C      3.852    -0.017    20.848     6.494
 270   6 C      3.756    -0.133    23.115     6.855
 271   6 C      3.756    -0.121    22.883     6.821
 272   1 H      0.860     0.241     0.919     1.501
 273   1 H      0.923     0.064     2.155     2.296
 274   1 H      0.924     0.046     2.376     2.410
 275   1 H      0.925     0.070     2.087     2.259
 276   1 H      0.925     0.047     2.352     2.398
 277   1 H      0.925     0.075     2.028     2.227
 278   1 H      0.925     0.062     2.173     2.305
 279   1 H      0.925     0.065     2.138     2.286
 280   1 H      0.925     0.019     2.750     2.593
 281   7 N      2.689    -0.184    24.984     7.424
 282   6 C      3.786     0.026    20.154     6.394
 283   6 C      2.766     0.216    23.435     7.928
 284   8 O      0.856    -0.366    21.020     6.147
 285   6 C      3.678     0.077    19.506     6.327
 286   8 O      1.656    -0.470    22.257     6.369
 287   1 H      0.860     0.230     0.965     1.539
 288   1 H      0.924     0.072     2.061     2.245
 289   1 H      0.924     0.053     2.288     2.366
 290   1 H      0.924     0.076     2.026     2.226
 291   1 H      0.805     0.338     0.617     1.234
 292   7 N      2.636    -0.384    29.930     8.125
 293   6 C      3.784     0.046    19.824     6.342
 294   6 C      2.767     0.199    23.755     7.982
 295   8 O      0.856    -0.385    21.393     6.201
 296   6 C      3.811    -0.076    21.937     6.667
 297   6 C      2.969     0.013    27.722     8.636
 298   6 C      2.924    -0.040    28.995     8.830
 299   6 C      2.924    -0.041    29.008     8.832
 300   6 C      2.918    -0.034    28.836     8.806
 301   6 C      2.918    -0.032    28.802     8.801
 302   6 C      2.921    -0.034    28.835     8.806
 303   1 H      0.860     0.171     1.268     1.764
 304   1 H      0.923     0.043     2.413     2.429
 305   1 H      0.924     0.073     2.051     2.239
 306   1 H      0.924     0.052     2.298     2.371
 307   1 H      0.926     0.038     2.480     2.463
 308   1 H      0.925     0.034     2.532     2.488
 309   1 H      0.926     0.039     2.459     2.452
 310   1 H      0.925     0.027     2.634     2.538
 311   1 H      0.926     0.029     2.600     2.521
 312   1 H      0.862     0.178     1.227     1.735
 313   1 H      0.930     0.071     2.069     2.249
 314   1 H      0.862     0.172     1.260     1.758
 315   1 H      0.930     0.070     2.084     2.257
 316   1 H      0.862     0.185     1.187     1.706
 317   1 H      0.930     0.071     2.072     2.251
 318   1 H      0.862     0.172     1.258     1.757
 319   1 H      0.930     0.052     2.289     2.366
 320   1 H      0.862     0.186     1.180     1.701
 321   1 H      0.930     0.066     2.125     2.279
 322   1 H      0.862     0.160     1.336     1.810
 323   1 H      0.930     0.076     2.025     2.225
 324   1 H      0.862     0.178     1.226     1.734
 325   1 H      0.930     0.085     1.923     2.168

 Mol. C6AA /au·bohr⁶  :     939829.621427
 Mol. C8AA /au·bohr⁸  :   20958943.031848
 Mol. α(0) /au        :       1456.303592


Wiberg/Mayer (AO) data.
largest (>0.10) Wiberg bond orders for each atom
          total WBO             WBO to atom ...
     1  N   2.991        C    2 1.013    H  312 0.957    H    9 0.952
     2  C   3.984        N    1 1.013    C    5 0.973    H   10 0.961    C    3 0.945
     3  C   3.942        O    4 1.618    N   20 1.297    C    2 0.945
     4  O   1.959        C    3 1.618    N   20 0.190
     5  C   3.993        C    6 0.995    H   11 0.973    C    2 0.973    H   12 0.972
     6  C   3.996        C    7 1.010    C    8 1.008    C    5 0.995    H   13 0.968
     7  C   3.996        C    6 1.010    H   16 0.987    H   14 0.986    H   15 0.984
     8  C   3.996        C    6 1.008    H   18 0.986    H   17 0.984    H   19 0.984
     9  H   0.971        N    1 0.952
    10  H   0.998        C    2 0.961
    11  H   0.998        C    5 0.973
    12  H   0.997        C    5 0.972
    13  H   0.999        C    6 0.968
    14  H   0.999        C    7 0.986
    15  H   0.999        C    7 0.984
    16  H   0.999        C    7 0.987
    17  H   0.999        C    8 0.984
    18  H   0.999        C    8 0.986
    19  H   0.998        C    8 0.984
    20  N   3.462        C    3 1.297    C   21 0.981    H   31 0.912    O    4 0.190
    21  C   3.965        N   20 0.981    C   22 0.968    C   24 0.967    H   32 0.945
    22  C   3.897        O   23 1.902    C   21 0.968    H  313 0.954
    23  O   2.046        C   22 1.902
    24  C   3.981        C   25 1.002    H   34 0.970    H   33 0.968    C   21 0.967
    25  C   3.987        C   24 1.002    C   26 0.998    H   35 0.973    H   36 0.967
    26  C   3.956        C   25 0.998    N   27 0.991    H   38 0.960    H   37 0.959
    27  N   3.456        C   28 1.299    C   26 0.991    H   39 0.914
    28  C   3.977        N   29 1.329    N   30 1.318    N   27 1.299
    29  N   3.403        C   28 1.329    H   40 0.916    H   41 0.902    N   30 0.103
    30  N   3.384        C   28 1.318    H   42 0.923    H   43 0.879    N   29 0.103
    31  H   0.948        N   20 0.912
    32  H   0.992        C   21 0.945
    33  H   0.994        C   24 0.968
    34  H   0.994        C   24 0.970
    35  H   0.994        C   25 0.973
    36  H   0.994        C   25 0.967
    37  H   0.993        C   26 0.959
    38  H   0.993        C   26 0.960
    39  H   0.948        N   27 0.914
    40  H   0.942        N   29 0.916
    41  H   0.933        N   29 0.902
    42  H   0.943        N   30 0.923
    43  H   0.930        N   30 0.879
    44  N   2.996        C   45 1.015    H  314 0.959    H   52 0.925
    45  C   3.984        N   44 1.015    C   46 0.983    H   53 0.956    C   48 0.943
    46  C   3.884        O   47 1.869    C   45 0.983    H  315 0.956
    47  O   2.009        C   46 1.869
    48  C   3.988        C   50 1.009    C   49 0.994    H   54 0.961    C   45 0.943
    49  C   3.995        C   51 1.017    C   48 0.994    H   55 0.977    H   56 0.968
    50  C   3.996        C   48 1.009    H   59 0.985    H   58 0.985    H   57 0.981
    51  C   3.995        C   49 1.017    H   61 0.986    H   60 0.985    H   62 0.984
    52  H   0.966        N   44 0.925
    53  H   0.999        C   45 0.956
    54  H   0.997        C   48 0.961
    55  H   0.999        C   49 0.977
    56  H   0.997        C   49 0.968
    57  H   0.997        C   50 0.981
    58  H   1.000        C   50 0.985
    59  H   0.998        C   50 0.985
    60  H   0.997        C   51 0.985
    61  H   0.998        C   51 0.986
    62  H   0.998        C   51 0.984
    63  N   2.998        C   64 1.021    H  316 0.955    H   71 0.952
    64  C   3.985        N   63 1.021    C   65 0.984    C   67 0.954    H   72 0.943
    65  C   3.884        O   66 1.839    C   64 0.984    H  317 0.955
    66  O   2.037        C   65 1.839
    67  C   3.989        C   68 0.990    H   74 0.972    H   73 0.972    C   64 0.954
    68  C   3.995        C   70 1.011    C   69 1.005    C   67 0.990    H   75 0.968
    69  C   3.993        C   68 1.005    H   78 0.985    H   76 0.985    H   77 0.983
    70  C   3.995        C   68 1.011    H   80 0.985    H   79 0.984    H   81 0.982
    71  H   0.972        N   63 0.952
    72  H   0.996        C   64 0.943
    73  H   0.998        C   67 0.972
    74  H   0.998        C   67 0.972
    75  H   0.999        C   68 0.968
    76  H   0.997        C   69 0.985
    77  H   0.999        C   69 0.983
    78  H   0.998        C   69 0.985
    79  H   0.998        C   70 0.984
    80  H   0.998        C   70 0.985
    81  H   0.999        C   70 0.982
    82  N   2.984        C   83 1.007    H  318 0.959    H   90 0.898
    83  C   3.988        N   82 1.007    C   84 0.973    C   86 0.972    H   91 0.963
    84  C   3.891        O   85 1.896    C   83 0.973    H  319 0.957
    85  O   2.029        C   84 1.896
    86  C   3.987        H   93 0.977    C   83 0.972    H   92 0.962    C   87 0.914
    87  C   3.935        O   88 1.506    O   89 1.491    C   86 0.914
    88  O   1.803        C   87 1.506    O   89 0.217
    89  O   1.781        C   87 1.491    O   88 0.217
    90  H   0.960        N   82 0.898
    91  H   1.000        C   83 0.963
    92  H   0.999        C   86 0.962
    93  H   0.999        C   86 0.977
    94  N   2.999        C   95 1.010    H  102 0.956    H  320 0.955
    95  C   3.983        N   94 1.010    C   96 0.980    C   98 0.962    H  103 0.956
    96  C   3.892        O   97 1.881    C   95 0.980    H  321 0.956
    97  O   2.016        C   96 1.881
    98  C   3.991        C   99 0.989    H  104 0.973    H  105 0.971    C   95 0.962
    99  C   3.995        C  101 1.010    C  100 1.006    C   98 0.989    H  106 0.969
   100  C   3.994        C   99 1.006    H  108 0.987    H  109 0.986    H  107 0.985
   101  C   3.995        C   99 1.010    H  111 0.986    H  110 0.984    H  112 0.983
   102  H   0.976        N   94 0.956
   103  H   0.997        C   95 0.956
   104  H   0.999        C   98 0.973
   105  H   0.998        C   98 0.971
   106  H   0.999        C   99 0.969
   107  H   0.996        C  100 0.985
   108  H   0.999        C  100 0.987
   109  H   0.998        C  100 0.986
   110  H   0.997        C  101 0.984
   111  H   0.998        C  101 0.986
   112  H   0.999        C  101 0.983
   113  N   3.081        C  114 1.014    C  119 1.005    H  322 0.958
   114  C   3.989        N  113 1.014    C  117 0.967    H  120 0.965    C  115 0.936
   115  C   3.945        O  116 1.683    N  127 1.242    C  114 0.936
   116  O   1.997        C  115 1.683    N  127 0.190
   117  C   3.995        C  118 1.007    H  122 0.977    H  121 0.974    C  114 0.967
   118  C   3.995        C  117 1.007    C  119 0.998    H  123 0.980    H  124 0.979
   119  C   3.980        N  113 1.005    C  118 0.998    H  126 0.978    H  125 0.972
   120  H   1.000        C  114 0.965
   121  H   0.999        C  117 0.974
   122  H   0.998        C  117 0.977
   123  H   0.997        C  118 0.980
   124  H   0.998        C  118 0.979
   125  H   0.998        C  119 0.972
   126  H   0.999        C  119 0.978
   127  N   3.443        C  115 1.242    C  128 0.984    H  135 0.929    O  116 0.190
   128  C   3.955        N  127 0.984    C  131 0.959    C  129 0.951    H  136 0.923
   129  C   3.946        O  130 1.617    N  146 1.284    C  128 0.951
   130  O   2.000        C  129 1.617    N  146 0.180
   131  C   3.986        C  133 1.009    C  132 0.995    H  137 0.960    C  128 0.959
   132  C   3.995        C  134 1.018    C  131 0.995    H  138 0.975    H  139 0.972
   133  C   3.991        C  131 1.009    H  142 0.984    H  141 0.983    H  140 0.981
   134  C   3.996        C  132 1.018    H  143 0.988    H  144 0.984    H  145 0.983
   135  H   0.968        N  127 0.929
   136  H   0.987        C  128 0.923
   137  H   0.995        C  131 0.960
   138  H   1.000        C  132 0.975
   139  H   0.997        C  132 0.972
   140  H   0.996        C  133 0.981
   141  H   0.996        C  133 0.983
   142  H   0.998        C  133 0.984
   143  H   1.000        C  134 0.988
   144  H   0.998        C  134 0.984
   145  H   0.999        C  134 0.983
   146  N   3.452        C  129 1.284    C  147 0.985    H  152 0.920    O  130 0.180
   147  C   3.961        N  146 0.985    C  150 0.958    H  153 0.953    C  148 0.926
   148  C   3.947        O  149 1.654    N  157 1.286    C  147 0.926
   149  O   1.990        C  148 1.654    N  157 0.195
   150  C   3.958        O  151 1.012    H  154 0.966    H  155 0.963    C  147 0.958
   151  O   1.950        C  150 1.012    H  156 0.807
   152  H   0.967        N  146 0.920
   153  H   0.994        C  147 0.953
   154  H   0.994        C  150 0.966
   155  H   0.995        C  150 0.963
   156  H   0.887        O  151 0.807
   157  N   3.457        C  148 1.286    C  158 0.982    H  165 0.914    O  149 0.195
   158  C   3.958        N  157 0.982    C  161 0.954    H  166 0.950    C  159 0.934
   159  C   3.952        O  160 1.622    N  176 1.310    C  158 0.934
   160  O   1.978        C  159 1.622    N  176 0.199
   161  C   3.986        C  163 1.009    C  162 0.996    H  167 0.963    C  158 0.954
   162  C   3.996        C  164 1.018    C  161 0.996    H  169 0.976    H  168 0.975
   163  C   3.989        C  161 1.009    H  172 0.983    H  170 0.979    H  171 0.978
   164  C   3.994        C  162 1.018    H  174 0.987    H  173 0.987    H  175 0.984
   165  H   0.953        N  157 0.914
   166  H   0.995        C  158 0.950
   167  H   0.997        C  161 0.963
   168  H   0.998        C  162 0.975
   169  H   1.000        C  162 0.976
   170  H   0.996        C  163 0.979
   171  H   0.996        C  163 0.978
   172  H   0.996        C  163 0.983
   173  H   0.999        C  164 0.987
   174  H   0.999        C  164 0.987
   175  H   0.997        C  164 0.984
   176  N   3.475        C  159 1.310    C  177 0.972    H  187 0.911    O  160 0.199
   177  C   3.955        C  180 0.978    N  176 0.972    H  188 0.949    C  178 0.936
   178  C   3.948        O  179 1.620    N  200 1.307    C  177 0.936
   179  O   1.982        C  178 1.620    N  200 0.197
   180  C   3.978        C  181 1.003    C  177 0.978    H  189 0.967    H  190 0.966
   181  C   3.988        C  182 1.007    C  180 1.003    H  191 0.971    H  192 0.971
   182  C   3.950        C  181 1.007    N  183 0.981    H  193 0.959    H  194 0.959
   183  N   3.467        C  184 1.318    C  182 0.981    H  195 0.914    N  186 0.102    N  185 0.101
   184  C   3.977        N  185 1.319    N  183 1.318    N  186 1.310
   185  N   3.396        C  184 1.319    H  197 0.920    H  196 0.913    N  183 0.101    N  186 0.100
   186  N   3.389        C  184 1.310    H  198 0.920    H  199 0.919    N  183 0.102    N  185 0.100
   187  H   0.949        N  176 0.911
   188  H   0.991        C  177 0.949
   189  H   0.992        C  180 0.967
   190  H   0.992        C  180 0.966
   191  H   0.995        C  181 0.971
   192  H   0.994        C  181 0.971
   193  H   0.990        C  182 0.959
   194  H   0.992        C  182 0.959
   195  H   0.947        N  183 0.914
   196  H   0.936        N  185 0.913
   197  H   0.939        N  185 0.920
   198  H   0.940        N  186 0.920
   199  H   0.938        N  186 0.919
   200  N   3.471        C  178 1.307    C  201 0.982    H  209 0.889    O  179 0.197
   201  C   3.960        N  200 0.982    C  204 0.977    H  210 0.941    C  202 0.938
   202  C   3.939        O  203 1.624    N  217 1.288    C  201 0.938
   203  O   1.988        C  202 1.624    N  217 0.191
   204  C   3.978        C  205 1.005    C  201 0.977    H  211 0.968    H  212 0.963
   205  C   3.991        C  204 1.005    C  206 0.975    H  214 0.956    H  213 0.946
   206  C   3.944        O  207 1.603    N  208 1.325    C  205 0.975
   207  O   1.959        C  206 1.603    N  208 0.190
   208  N   3.407        C  206 1.325    H  215 0.927    H  216 0.925    O  207 0.190
   209  H   0.945        N  200 0.889
   210  H   0.990        C  201 0.941
   211  H   0.994        C  204 0.968
   212  H   0.990        C  204 0.963
   213  H   0.991        C  205 0.946
   214  H   0.991        C  205 0.956
   215  H   0.945        N  208 0.927
   216  H   0.946        N  208 0.925
   217  N   3.464        C  202 1.288    C  218 0.983    H  225 0.924    O  203 0.191
   218  C   3.969        N  217 0.983    C  221 0.982    H  226 0.946    C  219 0.927
   219  C   3.947        O  220 1.620    N  234 1.315    C  218 0.927
   220  O   1.977        C  219 1.620    N  234 0.198
   221  C   3.990        C  222 1.010    C  218 0.982    H  228 0.969    H  227 0.968
   222  C   3.972        C  221 1.010    S  223 0.990    H  230 0.966    H  229 0.964
   223  S   2.083        C  224 1.009    C  222 0.990
   224  C   3.982        S  223 1.009    H  233 0.987    H  231 0.985    H  232 0.979
   225  H   0.957        N  217 0.924
   226  H   0.992        C  218 0.946
   227  H   0.996        C  221 0.968
   228  H   0.996        C  221 0.969
   229  H   0.995        C  222 0.964
   230  H   0.994        C  222 0.966
   231  H   0.999        C  224 0.985
   232  H   0.996        C  224 0.979
   233  H   0.998        C  224 0.987
   234  N   3.466        C  219 1.315    C  235 0.975    H  239 0.885    O  220 0.198
   235  C   3.966        C  238 0.995    N  234 0.975    H  240 0.950    C  236 0.934
   236  C   3.946        O  237 1.619    N  244 1.316    C  235 0.934
   237  O   1.940        C  236 1.619    N  244 0.198
   238  C   3.981        C  235 0.995    H  241 0.981    H  243 0.975    H  242 0.974
   239  H   0.945        N  234 0.885
   240  H   0.997        C  235 0.950
   241  H   0.996        C  238 0.981
   242  H   0.993        C  238 0.974
   243  H   0.992        C  238 0.975
   244  N   3.463        C  236 1.316    C  245 0.975    H  256 0.877    O  237 0.198
   245  C   3.963        N  244 0.975    C  248 0.968    H  257 0.956    C  246 0.935
   246  C   3.942        O  247 1.633    N  265 1.297    C  245 0.935
   247  O   1.941        C  246 1.633    N  265 0.196
   248  C   3.982        C  249 1.009    C  245 0.968    H  258 0.964    H  259 0.959
   249  C   3.987        C  251 1.414    C  250 1.401    C  248 1.009
   250  C   3.990        C  252 1.464    C  249 1.401    H  260 0.965    C  253 0.105
   251  C   3.989        C  253 1.448    C  249 1.414    H  261 0.967    C  252 0.107
   252  C   3.989        C  250 1.464    C  254 1.361    H  262 0.969    C  251 0.107
   253  C   3.986        C  251 1.448    C  254 1.374    H  263 0.965    C  250 0.105
   254  C   3.937        C  253 1.374    C  252 1.361    O  255 1.072
   255  O   2.089        C  254 1.072    H  264 0.858
   256  H   0.943        N  244 0.877
   257  H   0.996        C  245 0.956
   258  H   0.992        C  248 0.964
   259  H   0.993        C  248 0.959
   260  H   0.998        C  250 0.965
   261  H   0.997        C  251 0.967
   262  H   0.998        C  252 0.969
   263  H   0.998        C  253 0.965
   264  H   0.879        O  255 0.858
   265  N   3.467        C  246 1.297    C  266 0.990    H  272 0.879    O  247 0.196
   266  C   3.962        N  265 0.990    C  269 0.959    H  273 0.943    C  267 0.934
   267  C   3.939        O  268 1.622    N  281 1.300    C  266 0.934
   268  O   1.929        C  267 1.622    N  281 0.189
   269  C   3.982        C  271 1.009    C  270 1.006    H  274 0.965    C  266 0.959
   270  C   3.987        C  269 1.006    H  276 0.984    H  275 0.980    H  277 0.979
   271  C   3.992        C  269 1.009    H  280 0.985    H  278 0.983    H  279 0.973
   272  H   0.942        N  265 0.879
   273  H   0.995        C  266 0.943
   274  H   0.997        C  269 0.965
   275  H   0.995        C  270 0.980
   276  H   0.998        C  270 0.984
   277  H   0.994        C  270 0.979
   278  H   0.996        C  271 0.983
   279  H   0.996        C  271 0.973
   280  H   1.000        C  271 0.985
   281  N   3.465        C  267 1.300    C  282 0.983    H  287 0.882    O  268 0.189
   282  C   3.970        N  281 0.983    C  283 0.966    H  288 0.955    C  285 0.954
   283  C   3.893        O  284 1.908    C  282 0.966    H  323 0.954
   284  O   2.038        C  283 1.908
   285  C   3.952        O  286 1.012    H  289 0.965    H  290 0.961    C  282 0.954
   286  O   1.947        C  285 1.012    H  291 0.872
   287  H   0.947        N  281 0.882
   288  H   0.995        C  282 0.955
   289  H   0.997        C  285 0.965
   290  H   0.994        C  285 0.961
   291  H   0.886        O  286 0.872
   292  N   3.008        C  293 1.014    H  324 0.956    H  303 0.945
   293  C   3.985        N  292 1.014    C  294 0.973    H  304 0.962    C  296 0.948
   294  C   3.887        O  295 1.890    C  293 0.973    H  325 0.952
   295  O   2.025        C  294 1.890
   296  C   3.991        C  297 1.009    H  306 0.970    H  305 0.960    C  293 0.948
   297  C   3.988        C  299 1.412    C  298 1.408    C  296 1.009    C  302 0.108
   298  C   3.990        C  300 1.444    C  297 1.408    H  307 0.964    C  301 0.110
   299  C   3.991        C  301 1.443    C  297 1.412    H  308 0.969    C  300 0.112
   300  C   3.991        C  298 1.444    C  302 1.436    H  309 0.969    C  299 0.112
   301  C   3.992        C  299 1.443    C  302 1.440    H  310 0.971    C  298 0.110
   302  C   3.989        C  301 1.440    C  300 1.436    H  311 0.968    C  297 0.108
   303  H   0.971        N  292 0.945
   304  H   0.998        C  293 0.962
   305  H   0.994        C  296 0.960
   306  H   0.997        C  296 0.970
   307  H   0.999        C  298 0.964
   308  H   0.999        C  299 0.969
   309  H   0.998        C  300 0.969
   310  H   0.999        C  301 0.971
   311  H   0.999        C  302 0.968
   312  H   0.968        N    1 0.957
   313  H   0.995        C   22 0.954
   314  H   0.970        N   44 0.959
   315  H   0.995        C   46 0.956
   316  H   0.966        N   63 0.955
   317  H   0.995        C   65 0.955
   318  H   0.970        N   82 0.959
   319  H   0.997        C   84 0.957
   320  H   0.965        N   94 0.955
   321  H   0.996        C   96 0.956
   322  H   0.974        N  113 0.958
   323  H   0.994        C  283 0.954
   324  H   0.968        N  292 0.956
   325  H   0.993        C  294 0.952
 
molecular dipole:
                 x           y           z       tot (Debye)
 q only:       86.680      17.625      66.363
   full:       84.908      16.477      64.548     274.317
molecular quadrupole (traceless):
                xx          xy          yy          xz          yz          zz
 q only:     4899.253    3179.964   -5454.856    7601.074    1836.806     555.604
  q+dip:     4802.400    2964.820   -5367.637    7328.502    1624.067     565.236
   full:     4805.820    2962.153   -5370.368    7329.032    1622.772     564.548


           -------------------------------------------------
          | TOTAL ENERGY             -475.443036376855 Eh   |
          | GRADIENT NORM               0.590254796278 Eh/α |
          | HOMO-LUMO GAP               1.251004046071 eV   |
           -------------------------------------------------

------------------------------------------------------------------------
 * finished run on 2019/05/31 at 07:36:52.808     
------------------------------------------------------------------------
 total:
 * wall-time:     0 d,  0 h,  0 min,  7.772 sec
 *  cpu-time:     0 d,  0 h,  0 min,  4.377 sec
 * ratio c/w:     0.563 speedup
 SCF:
 * wall-time:     0 d,  0 h,  0 min,  7.147 sec
 *  cpu-time:     0 d,  0 h,  0 min,  4.118 sec
 * ratio c/w:     0.576 speedup

