      -----------------------------------------------------------      
     |                   =====================                   |     
     |                           x T B                           |     
     |                   =====================                   |     
     |                         S. Grimme                         |     
     |          Mulliken Center for Theoretical Chemistry        |     
     |                    University of Bonn                     |     
     |                Version 6.1 RC1 (SAW190329)                |     
      -----------------------------------------------------------      

   This program is distributed in the hope that it will be useful,
   but WITHOUT ANY WARRANTY; without even the implied warranty of
   MERCHANTABILITY or FITNESS FOR A PARTICULAR PURPOSE.
   
   FOR NON-COMMERCIAL, ACADEMIA USE ONLY.
   
   Cite this work as:
   S. Grimme, C. Bannwarth, P. Shushkov, J. Comput. Theory Chem., 2017,
   13, 1989-2009. DOI: 10.1021/acs.jctc.7b00118
   C. Bannwarth, S. Ehlert and S. Grimme., J. Comput. Theory Chem., 2019,
   just accepted. DOI: 10.1021/acs.jctc.8b01176
   
   for sTDA-xTB:
   S. Grimme and C. Bannwarth, J. Chem. Phys., 2016, 145, 054103.
   DOI: 10.1063/1.4959605
   
   in the mass-spec context:
   V. Asgeirsson, C. Bauer and S. Grimme, Chem. Sci., 2017, 8, 4879.
   DOI: 10.1039/c7sc00601b
   
   for metadynamics refer to:
   S. Grimme, ChemRxiv, Preprint. DOI: 10.26434/chemrxiv.7660532.v1
   
   with help from (in alphabetical order)
   C. Bannwarth, F. Bohle, G. Brandenburg, E. Caldeweyher, M. Checinski,
   S. Dohm, S. Ehlert, S. Ehrlich, F. März, H. Neugebauer, J. Pisarek,
   P. Pracht, P. Shushkov, and S. Spicher.
   
 * started run on 2019/05/31 at 05:34:51.995     

           -------------------------------------------------
          |                Calculation Setup                |
           -------------------------------------------------

          program call               : /home/lum/install/xtb/xtb-190329/bin/xtb xtb_tmp.xyz --chrg 0 --grad --gfn 2 --etemp 500 --acc 0.1 --gbsa h2o --parallel 2
          hostname                   : cpu02
          coordinate file            : xtb_tmp.xyz
          omp threads                :                     2
          number of atoms            :                   535
          number of electrons        :                  1448
          charge                     :                     0
          spin                       :                   0.0
          first test random number   :      0.69517022561723


molecular fragmentation (1/2 indicates fragments):
111111111111111111111111111111111111111111111111111111111111111111111111
111111111111111111111111111111111111111111111111111111111111111111111111
111111111111111111111111111111111111111111111111111111111111111111111111
111111111111111122222222222222222222222222222222222222222222222222222222
222222222222222222222222222222222222222222222222222222222222222222222222
222222222222222222222222222222222222222222222222222222222222222222222222
222222222222222222222222222222222222222222222222222222222222222222222222
2222222222222112222222222222222
# atoms in fragment 1/2:   234   301
 fragment masses (1/2) :     1657.82     1977.39
CMA distance (Bohr)    :  14.467
constraining FC (au)   :  0.0500

########################################################################
# WARNING! Please study the warnings concerning your input carefully
#  - XTBPATH is not set, using XTBHOME instead
#  - Process number higher than OMP_NUM_THREADS, I hope you know what you are doing.
########################################################################

           ------------------------------------------------- 
          |                 G F N 2 - x T B                 |
          | Geometry, Frequencies, Noncovalent interactions |
          |            JCTC 2018 parametrisation            |
           ------------------------------------------------- 
 
             k(s)              :                1.8500
             k(p)              :                2.2300
             k(d)              :                2.2300
             k(f)              :                2.0000
             kEN (H0ij)        :               -2.0000
             D4 a1             :                0.5200
             D4 a2             :                5.0000
             D4 s6             :                1.0000
             D4 s8             :                2.7000
             D4 s9             :                5.0000
             alphaj            :                2.0000

  Z AO/shell   Hii/eV     exponent
  1     Wed Apr 25 08:07:45 CEST 2018   EN: 2.200 GM2: 0.406  GM3: 0.0800  RAES: 1.40
     1s    -10.707211    1.230000
  6     Wed Apr 25 08:07:45 CEST 2018   EN: 2.550 GM2: 0.538  GM3: 0.1500  RAES: 3.00
     2s    -13.970922    2.096432
     2p    -10.063292    1.800000
  7     Wed Apr 25 08:07:45 CEST 2018   EN: 3.040 GM2: 0.461  GM3:-0.0640  RAES: 1.90
     2s    -16.686243    2.339881
     2p    -12.523956    2.014332
  8     Wed Apr 25 08:07:45 CEST 2018   EN: 3.440 GM2: 0.452  GM3:-0.0517  RAES: 1.80
     2s    -20.229985    2.439742
     2p    -15.503117    2.137023

 Solvent             : h2o
 Using internal parameter file: .param_gbsa2_h2o
 Gsolv ref. state (COSMO-RS): gsolv [1 M gas/solution]
 temperature (mdtemp)       :    298.150000000000     
 dielectric constant        :    80.2000000000000     
 rho                        :    1.00000000000000     
 mass                       :    18.0000000000000     
 surface tension            :    15.5689454083859     
 probe radius               :   0.975313790000000     
 vdW radii scaling          :    1.00000000000000     
 Gshift (Eh)                :   1.857443126794793E-003
 c1                         :    1.55243817000000     
 soset                      :   0.130326360000000     
 HB correction              :  T
 Number of grid points      :          230

            Z     q(EN)     CN     RAES       Cart. coordinates
     1  N   5.0   -0.72    3.00    1.93   279.50647   135.20426   195.48076
     2  C   4.0    0.06    3.98    3.59   278.34619   136.71363   193.51436
     3  C   4.0    0.28    3.01    3.02   280.37482   138.23578   192.10075
     4  O   6.0   -0.45    1.00    1.80   280.39196   138.42205   189.79143
     5  C   4.0   -0.14    3.99    3.60   276.38124   138.50520   194.63974
     6  C   4.0   -0.12    3.98    3.59   274.06069   137.10116   195.65427
     7  C   4.0    0.27    3.00    3.02   272.37205   138.93191   197.07347
     8  O   6.0   -0.38    1.00    1.80   273.02839   139.95974   199.03633
     9  N   5.0   -0.65    3.00    1.93   270.11556   139.37895   196.01296
    10  H   1.0    0.26    1.00    1.43   278.99566   135.54203   197.29774
    11  H   1.0    0.10    0.99    1.43   277.46435   135.45796   192.11828
    12  H   1.0    0.13    0.99    1.43   277.26411   139.57048   196.16964
    13  H   1.0    0.12    0.99    1.43   275.80588   139.84879   193.18361
    14  H   1.0    0.10    0.99    1.43   273.02483   136.21161   194.11697
    15  H   1.0    0.11    0.99    1.43   274.64233   135.65236   197.00087
    16  H   1.0    0.26    1.00    1.43   269.57947   138.53595   194.39894
    17  H   1.0    0.29    1.00    1.43   268.92204   140.60290   196.85139
    18  N   5.0   -0.48    3.01    1.93   282.09820   139.31230   193.58540
    19  C   4.0    0.07    4.00    3.61   284.20885   140.70595   192.52953
    20  C   4.0    0.29    3.02    3.02   285.76099   138.92166   190.86011
    21  O   6.0   -0.46    1.00    1.80   286.57144   139.53812   188.77700
    22  C   4.0   -0.16    3.99    3.60   285.82478   141.75544   194.68260
    23  C   4.0   -0.15    3.98    3.59   287.73915   143.71677   193.77935
    24  C   4.0   -0.02    3.99    3.60   286.46943   146.28642   193.43203
    25  N   5.0   -0.47    3.02    1.93   288.30039   148.15987   192.64317
    26  C   4.0    0.38    3.00    3.02   287.98039   149.95409   190.91319
    27  N   5.0   -0.62    3.01    1.93   285.89259   150.14964   189.55190
    28  N   5.0   -0.64    3.02    1.93   289.83588   151.65422   190.61635
    29  H   1.0    0.24    1.00    1.43   281.93845   139.22214   195.49079
    30  H   1.0    0.15    0.99    1.43   283.50664   142.23207   191.31031
    31  H   1.0    0.11    0.99    1.43   284.56572   142.61142   196.07563
    32  H   1.0    0.10    0.99    1.43   286.77295   140.16645   195.58905
    33  H   1.0    0.12    0.99    1.43   289.25183   143.89662   195.16753
    34  H   1.0    0.13    0.99    1.43   288.56029   143.10537   191.99066
    35  H   1.0    0.15    0.99    1.43   284.97763   146.13981   192.02696
    36  H   1.0    0.12    0.99    1.43   285.62662   146.88052   195.22723
    37  H   1.0    0.25    1.00    1.43   289.92082   148.16617   193.65854
    38  H   1.0    0.33    1.00    1.43   284.61772   148.66810   189.33973
    39  H   1.0    0.28    1.00    1.43   285.81324   151.45575   188.17120
    40  H   1.0    0.27    1.00    1.43   291.36599   151.63163   191.74373
    41  H   1.0    0.27    1.00    1.43   289.64987   153.07383   189.36712
    42  N   5.0   -0.48    3.01    1.93   286.15375   136.63194   191.84317
    43  C   4.0    0.07    4.00    3.62   287.57414   134.76400   190.43409
    44  C   4.0    0.29    3.01    3.02   286.34807   134.38405   187.84300
    45  O   6.0   -0.46    1.00    1.80   287.64653   134.35373   185.91838
    46  C   4.0   -0.10    3.98    3.58   287.86918   132.28366   191.90537
    47  C   4.0   -0.23    3.99    3.59   289.13049   130.29651   190.23959
    48  C   4.0   -0.23    3.98    3.59   289.46226   132.71380   194.27674
    49  H   1.0    0.23    1.00    1.43   285.63964   136.25466   193.65059
    50  H   1.0    0.11    0.99    1.43   289.46241   135.53067   190.02913
    51  H   1.0    0.11    0.99    1.43   285.97623   131.64294   192.42899
    52  H   1.0    0.09    0.99    1.43   289.37199   128.55395   191.29384
    53  H   1.0    0.11    0.99    1.43   288.00485   129.91659   188.57021
    54  H   1.0    0.09    0.99    1.43   290.97976   130.95192   189.62905
    55  H   1.0    0.10    0.99    1.43   289.68161   130.94898   195.30333
    56  H   1.0    0.09    0.99    1.43   291.33557   133.38817   193.76560
    57  H   1.0    0.10    0.99    1.43   288.60622   134.09321   195.53157
    58  N   5.0   -0.48    3.00    1.93   283.84646   134.07493   187.79127
    59  C   4.0    0.07    4.00    3.62   282.57314   133.82355   185.37735
    60  C   4.0    0.30    3.01    3.02   283.62203   135.74217   183.46654
    61  O   6.0   -0.47    1.00    1.80   284.18126   135.11949   181.31007
    62  C   4.0   -0.16    3.99    3.60   279.72798   134.26837   185.61093
    63  C   4.0   -0.16    3.98    3.58   278.33544   132.13996   186.97998
    64  C   4.0   -0.04    3.99    3.60   275.51378   132.79380   187.14564
    65  N   5.0   -0.48    3.01    1.93   274.02277   130.80242   188.29350
    66  C   4.0    0.37    3.01    3.02   273.29381   128.70181   187.09524
    67  N   5.0   -0.64    3.02    1.93   273.70692   128.35866   184.65426
    68  N   5.0   -0.64    3.02    1.93   272.01678   126.93198   188.34666
    69  H   1.0    0.25    1.00    1.43   282.82542   133.96523   189.41130
    70  H   1.0    0.11    0.99    1.43   282.94937   131.94020   184.58190
    71  H   1.0    0.15    0.99    1.43   279.43611   136.04783   186.60551
    72  H   1.0    0.10    0.99    1.43   278.97441   134.46624   183.70143
    73  H   1.0    0.11    0.99    1.43   278.58676   130.37199   185.95077
    74  H   1.0    0.11    0.99    1.43   279.10902   131.88564   188.87398
    75  H   1.0    0.10    0.99    1.43   275.26422   134.49937   188.27352
    76  H   1.0    0.11    0.99    1.43   274.77170   133.19487   185.26266
    77  H   1.0    0.23    1.00    1.43   273.85965   130.82521   190.19439
    78  H   1.0    0.25    1.00    1.43   274.66428   129.62016   183.60857
    79  H   1.0    0.26    1.00    1.43   273.23822   126.63506   183.91182
    80  H   1.0    0.27    1.00    1.43   271.63150   127.06855   190.20236
    81  H   1.0    0.27    1.00    1.43   271.57546   125.32740   187.39788
    82  N   5.0   -0.47    3.01    1.93   283.61420   138.13891   184.26510
    83  C   4.0    0.07    4.00    3.61   284.33345   140.20827   182.62845
    84  C   4.0    0.29    3.01    3.02   287.00039   139.85209   181.58053
    85  O   6.0   -0.47    1.00    1.80   287.53846   140.31107   179.36760
    86  C   4.0   -0.14    3.99    3.61   284.32583   142.72046   184.06777
    87  C   4.0   -0.11    3.98    3.58   281.73541   143.54875   185.03019
    88  C   4.0    0.31    3.00    3.02   282.16454   146.15918   186.29013
    89  O   6.0   -0.39    1.00    1.80   281.88376   148.08767   184.98751
    90  O   6.0   -0.47    1.00    1.80   282.89100   146.11211   188.54970
    91  H   1.0    0.29    1.00    1.43   283.17043   138.56871   186.07404
    92  H   1.0    0.12    0.99    1.43   283.03335   140.30197   181.01366
    93  H   1.0    0.15    0.99    1.43   285.59806   142.56329   185.68506
    94  H   1.0    0.12    0.99    1.43   285.05200   144.18957   182.80806
    95  H   1.0    0.12    0.99    1.43   280.39501   143.74606   183.47834
    96  H   1.0    0.14    0.99    1.43   281.01303   142.23049   186.43886
    97  N   5.0   -0.47    3.01    1.93   288.69891   139.15498   183.30084
    98  C   4.0    0.07    3.99    3.61   291.35373   138.82907   182.70574
    99  C   4.0    0.29    3.01    3.02   291.67261   136.76571   180.70376
   100  O   6.0   -0.47    1.00    1.80   293.01541   137.08446   178.83519
   101  C   4.0   -0.15    3.99    3.60   292.80001   138.19604   185.12399
   102  C   4.0   -0.10    3.98    3.58   292.80178   140.41713   186.99198
   103  C   4.0   -0.23    3.98    3.59   293.48928   139.51331   189.64183
   104  C   4.0   -0.23    3.98    3.59   294.64412   142.47851   186.16645
   105  H   1.0    0.29    1.00    1.43   288.13833   138.83270   185.10586
   106  H   1.0    0.12    0.99    1.43   292.08834   140.57197   181.85340
   107  H   1.0    0.12    0.99    1.43   291.89031   136.55529   185.97925
   108  H   1.0    0.10    0.99    1.43   294.73900   137.68779   184.64950
   109  H   1.0    0.14    0.99    1.43   290.89579   141.21833   187.06070
   110  H   1.0    0.10    0.99    1.43   293.20766   141.03642   190.98726
   111  H   1.0    0.10    0.99    1.43   292.31059   137.93038   190.20185
   112  H   1.0    0.10    0.99    1.43   295.45759   138.93048   189.71044
   113  H   1.0    0.11    0.99    1.43   294.48047   144.11944   187.39072
   114  H   1.0    0.10    0.99    1.43   296.58019   141.79162   186.28600
   115  H   1.0    0.11    0.99    1.43   294.29447   143.08826   184.23532
   116  N   5.0   -0.48    3.01    1.93   290.39294   134.64988   181.15543
   117  C   4.0    0.07    3.99    3.61   290.39449   132.54974   179.38753
   118  C   4.0    0.30    3.01    3.02   289.68537   133.52104   176.75786
   119  O   6.0   -0.45    1.00    1.80   291.02480   133.15333   174.89467
   120  C   4.0   -0.22    3.98    3.59   288.54458   130.53701   180.28525
   121  H   1.0    0.30    1.00    1.43   289.31976   134.48619   182.73993
   122  H   1.0    0.12    0.99    1.43   292.31408   131.77405   179.24011
   123  H   1.0    0.09    0.99    1.43   288.45818   129.01235   178.91522
   124  H   1.0    0.10    0.99    1.43   289.17694   129.78652   182.08797
   125  H   1.0    0.13    0.99    1.43   286.67890   131.36486   180.51179
   126  N   5.0   -0.48    3.01    1.93   287.49124   134.74594   176.61081
   127  C   4.0    0.08    4.00    3.62   286.63737   135.73934   174.19984
   128  C   4.0    0.30    3.01    3.02   288.79761   137.18185   172.92892
   129  O   6.0   -0.43    1.00    1.80   289.50348   136.74772   170.76826
   130  C   4.0   -0.09    3.98    3.58   284.29606   137.42326   174.53476
   131  C   4.0   -0.22    3.98    3.59   283.64146   138.71082   172.03523
   132  C   4.0   -0.22    3.98    3.59   282.06025   135.85367   175.46856
   133  H   1.0    0.29    1.00    1.43   286.44821   135.10472   178.17993
   134  H   1.0    0.12    0.99    1.43   286.18830   134.15245   172.93775
   135  H   1.0    0.14    0.99    1.43   284.75514   138.87201   175.93888
   136  H   1.0    0.11    0.99    1.43   281.96834   139.87978   172.25646
   137  H   1.0    0.12    0.99    1.43   285.18238   139.90979   171.39358
   138  H   1.0    0.11    0.99    1.43   283.27811   137.30747   170.57839
   139  H   1.0    0.10    0.99    1.43   280.39406   137.04606   175.59756
   140  H   1.0    0.10    0.99    1.43   281.66960   134.32774   174.15043
   141  H   1.0    0.13    0.99    1.43   282.44147   135.06844   177.32520
   142  N   5.0   -0.48    3.01    1.93   289.82246   139.01715   174.33941
   143  C   4.0    0.07    4.00    3.62   291.77321   140.62131   173.28797
   144  C   4.0    0.29    3.01    3.02   293.93297   139.05255   172.17418
   145  O   6.0   -0.47    1.00    1.80   294.82810   139.55468   170.08404
   146  C   4.0   -0.14    3.99    3.60   292.81299   142.41075   175.30349
   147  C   4.0   -0.11    3.98    3.59   290.88957   144.47327   175.96312
   148  C   4.0    0.27    3.00    3.02   292.06179   146.29859   177.83919
   149  O   6.0   -0.38    1.00    1.80   293.53655   147.96071   177.22353
   150  N   5.0   -0.66    3.00    1.93   291.39668   145.89768   180.25904
   151  H   1.0    0.29    1.00    1.43   289.21927   139.35947   176.12573
   152  H   1.0    0.12    0.99    1.43   290.98048   141.72534   171.71533
   153  H   1.0    0.14    0.99    1.43   293.28815   141.30540   176.97975
   154  H   1.0    0.13    0.99    1.43   294.53894   143.29788   174.60248
   155  H   1.0    0.12    0.99    1.43   290.41678   145.52790   174.25734
   156  H   1.0    0.13    0.99    1.43   289.18531   143.62873   176.74968
   157  H   1.0    0.27    1.00    1.43   290.08468   144.59811   180.70619
   158  H   1.0    0.28    1.00    1.43   292.06985   147.05512   181.61279
   159  N   5.0   -0.48    3.01    1.93   294.78867   137.20491   173.64378
   160  C   4.0    0.08    3.99    3.60   297.01588   135.73933   173.02315
   161  C   4.0    0.30    3.01    3.02   296.88839   134.47049   170.42315
   162  O   6.0   -0.40    1.00    1.80   298.82387   133.93409   169.28079
   163  C   4.0   -0.02    3.98    3.59   297.47985   133.71156   175.06028
   164  O   6.0   -0.48    1.99    1.82   295.94182   131.58031   174.87157
   165  H   1.0    0.30    1.00    1.43   294.02394   136.95958   175.39213
   166  H   1.0    0.11    0.99    1.43   298.66957   136.99344   172.96458
   167  H   1.0    0.11    0.99    1.43   299.42497   133.04415   174.87199
   168  H   1.0    0.10    0.99    1.43   297.25407   134.62788   176.91523
   169  H   1.0    0.32    0.99    1.43   294.15549   132.09231   174.85919
   170  N   5.0   -0.47    3.01    1.93   294.57260   133.95356   169.55638
   171  C   4.0    0.08    3.99    3.61   294.17576   132.68484   167.17141
   172  C   4.0    0.29    3.01    3.02   294.81772   134.28323   164.84299
   173  O   6.0   -0.40    1.00    1.80   294.76406   133.34676   162.73044
   174  C   4.0   -0.20    3.99    3.60   291.43645   131.81144   166.99266
   175  H   1.0    0.30    1.00    1.43   293.01223   134.48708   170.52620
   176  H   1.0    0.14    0.99    1.43   295.46609   131.06071   167.08203
   177  H   1.0    0.13    0.99    1.43   291.08809   131.05721   165.11647
   178  H   1.0    0.11    0.99    1.43   291.07286   130.36430   168.39980
   179  H   1.0    0.14    0.99    1.43   290.19215   133.41222   167.32910
   180  N   5.0   -0.45    3.01    1.93   295.35762   136.72763   165.23323
   181  C   4.0    0.08    4.00    3.62   295.94078   138.38377   163.13667
   182  C   4.0    0.28    3.01    3.02   298.77258   138.30687   162.53311
   183  O   6.0   -0.46    1.00    1.80   300.37724   139.16339   163.98138
   184  C   4.0   -0.09    3.99    3.60   295.14101   141.10419   163.72640
   185  C   4.0    0.29    3.00    3.02   292.26306   141.20707   163.80128
   186  O   6.0   -0.38    1.00    1.80   290.99254   141.55059   161.90640
   187  N   5.0   -0.64    3.00    1.93   291.27644   140.86560   166.10169
   188  H   1.0    0.30    1.00    1.43   295.49951   137.43724   167.00649
   189  H   1.0    0.15    0.99    1.43   294.88749   137.67389   161.49868
   190  H   1.0    0.13    0.99    1.43   295.94421   141.68056   165.53002
   191  H   1.0    0.13    0.99    1.43   295.82794   142.35294   162.23951
   192  H   1.0    0.29    1.00    1.43   289.38982   140.68879   166.28177
   193  H   1.0    0.31    1.00    1.43   292.39196   140.40615   167.59003
   194  N   5.0   -0.48    3.01    1.93   299.34982   137.38992   160.25463
   195  C   4.0    0.10    3.99    3.60   301.92828   137.02476   159.40488
   196  C   4.0    0.27    3.01    3.02   303.46940   139.46177   159.10220
   197  O   6.0   -0.37    1.00    1.80   305.69987   139.35910   158.53266
   198  C   4.0   -0.01    3.98    3.59   301.88448   135.68264   156.83758
   199  O   6.0   -0.46    1.99    1.82   300.47627   133.44461   157.08599
   200  H   1.0    0.27    1.00    1.43   298.04727   136.36552   159.29580
   201  H   1.0    0.15    0.99    1.43   302.95453   135.85055   160.77490
   202  H   1.0    0.12    0.99    1.43   301.01630   136.95212   155.44198
   203  H   1.0    0.13    0.99    1.43   303.84586   135.31821   156.28512
   204  H   1.0    0.26    0.99    1.43   300.57267   132.49213   155.53349
   205  N   5.0   -0.47    3.01    1.93   302.19672   141.64314   159.34840
   206  C   4.0    0.10    4.00    3.61   303.49814   144.02990   159.48646
   207  C   4.0    0.30    3.01    3.02   305.16198   144.32987   161.85067
   208  O   6.0   -0.37    1.00    1.80   306.90482   145.84958   161.82511
   209  C   4.0    0.04    3.98    3.59   301.53427   146.17764   159.40025
   210  O   6.0   -0.47    1.99    1.82   299.62635   145.54448   161.16739
   211  C   4.0   -0.21    3.98    3.59   300.44502   146.47366   156.74179
   212  H   1.0    0.29    1.00    1.43   300.43420   141.67936   160.08105
   213  H   1.0    0.14    0.99    1.43   304.78914   144.19575   157.87778
   214  H   1.0    0.13    0.99    1.43   302.50978   147.91746   159.97943
   215  H   1.0    0.26    0.99    1.43   298.55776   147.00008   161.42089
   216  H   1.0    0.11    0.99    1.43   299.02917   147.96080   156.72031
   217  H   1.0    0.11    0.99    1.43   301.94164   146.96375   155.42880
   218  H   1.0    0.13    0.99    1.43   299.57564   144.70952   156.15394
   219  N   5.0   -0.44    3.01    1.93   304.51870   142.95625   163.87297
   220  C   4.0    0.08    3.99    3.60   306.08815   142.93142   166.12063
   221  C   4.0    0.09    3.00    3.02   308.65927   141.72665   165.50276
   222  O   6.0   -0.35    1.00    1.80   308.78596   139.63263   164.52455
   223  C   4.0   -0.10    3.99    3.61   304.85128   141.32032   168.18302
   224  C   4.0    0.28    3.00    3.02   302.63349   142.66735   169.41924
   225  O   6.0   -0.41    1.00    1.80   302.89398   144.12422   171.20083
   226  N   5.0   -0.63    3.00    1.93   300.38716   142.10403   168.42277
   227  H   1.0    0.30    1.00    1.43   303.17259   141.59403   163.74551
   228  H   1.0    0.16    0.99    1.43   306.39938   144.87446   166.77037
   229  H   1.0    0.14    0.99    1.43   304.23903   139.53792   167.35153
   230  H   1.0    0.10    0.99    1.43   306.25505   140.93146   169.64075
   231  H   1.0    0.30    1.00    1.43   298.81863   142.87789   169.17414
   232  H   1.0    0.32    1.00    1.43   300.22581   140.88360   166.94541
   233  N   5.0   -0.71    3.00    1.93   313.00440   144.42510   174.28828
   234  C   4.0    0.08    3.99    3.60   310.35277   144.93588   174.75857
   235  C   4.0    0.27    3.02    3.02   309.18004   142.73579   176.18845
   236  O   6.0   -0.47    1.00    1.80   307.83408   143.04458   178.05570
   237  C   4.0   -0.09    3.98    3.59   308.95868   145.27656   172.27535
   238  C   4.0    0.32    2.99    3.02   309.65988   147.81303   170.93527
   239  O   6.0   -0.37    1.00    1.80   310.10895   149.66856   172.29479
   240  O   6.0   -0.37    1.00    1.80   309.67812   147.74110   168.57617
   241  H   1.0    0.28    1.00    1.43   313.66988   144.74169   172.52869
   242  H   1.0    0.13    0.99    1.43   310.15145   146.65932   175.90131
   243  H   1.0    0.11    0.99    1.43   309.37929   143.70948   171.00956
   244  H   1.0    0.14    0.99    1.43   306.92039   145.31981   172.60515
   245  N   5.0   -0.49    3.01    1.93   309.63382   140.47067   175.18667
   246  C   4.0    0.06    3.99    3.61   308.61376   138.20479   176.32113
   247  C   4.0    0.09    3.00    3.02   309.56672   137.92820   179.03486
   248  O   6.0   -0.46    1.00    1.80   308.13383   137.24959   180.73015
   249  C   4.0   -0.14    3.99    3.60   309.29563   135.86273   174.78772
   250  C   4.0   -0.10    3.98    3.58   308.11722   135.77494   172.13757
   251  C   4.0   -0.20    3.99    3.60   309.03329   133.38365   170.80576
   252  C   4.0   -0.21    3.98    3.59   305.23533   135.76282   172.28089
   253  H   1.0    0.24    1.00    1.43   310.75277   140.30860   173.64583
   254  H   1.0    0.13    0.99    1.43   306.55431   138.40906   176.46626
   255  H   1.0    0.11    0.99    1.43   311.35537   135.79082   174.64949
   256  H   1.0    0.13    0.99    1.43   308.64877   134.20386   175.83270
   257  H   1.0    0.12    0.99    1.43   308.74595   137.42716   171.05633
   258  H   1.0    0.13    0.99    1.43   308.27308   133.30070   168.90133
   259  H   1.0    0.12    0.99    1.43   311.08566   133.36258   170.68264
   260  H   1.0    0.13    0.99    1.43   308.40514   131.74277   171.87113
   261  H   1.0    0.13    0.99    1.43   304.42404   135.39856   170.43003
   262  H   1.0    0.12    0.99    1.43   304.63037   134.28205   173.57069
   263  H   1.0    0.10    0.99    1.43   304.52088   137.57488   172.93842
   264  N   5.0   -0.70    3.00    1.93   310.92821   142.21577   182.89049
   265  C   4.0    0.10    3.98    3.59   309.46913   143.96440   184.40441
   266  C   4.0    0.32    3.01    3.02   306.89543   142.81077   185.07814
   267  O   6.0   -0.42    1.00    1.80   306.11296   142.74129   187.25704
   268  C   4.0   -0.01    3.98    3.59   309.13030   146.45079   182.96596
   269  O   6.0   -0.46    1.99    1.82   307.72274   148.11093   184.48562
   270  H   1.0    0.27    1.00    1.43   311.52420   142.76521   181.15647
   271  H   1.0    0.13    0.99    1.43   310.44765   144.33641   186.19714
   272  H   1.0    0.11    0.99    1.43   311.01575   147.21572   182.55083
   273  H   1.0    0.14    0.99    1.43   308.16763   146.06087   181.17095
   274  H   1.0    0.26    0.99    1.43   307.51842   149.69835   183.60512
   275  N   5.0   -0.48    3.01    1.93   305.59636   141.89122   183.12665
   276  C   4.0    0.08    4.00    3.63   303.10572   140.82915   183.53997
   277  C   4.0    0.30    3.01    3.02   303.31297   138.85346   185.65104
   278  O   6.0   -0.47    1.00    1.80   301.77206   138.69234   187.36795
   279  C   4.0   -0.09    3.98    3.58   301.99922   139.68003   181.11133
   280  C   4.0   -0.15    3.98    3.59   301.58899   141.75120   179.12218
   281  C   4.0   -0.23    3.98    3.59   299.52758   138.31938   181.71397
   282  C   4.0   -0.22    3.98    3.58   300.52759   140.73461   176.63922
   283  H   1.0    0.29    1.00    1.43   306.30432   142.04395   181.35706
   284  H   1.0    0.12    0.99    1.43   301.84087   142.32260   184.24096
   285  H   1.0    0.13    0.99    1.43   303.36918   138.31469   180.37797
   286  H   1.0    0.12    0.99    1.43   300.30846   143.18754   179.86848
   287  H   1.0    0.14    0.99    1.43   303.38290   142.68213   178.71713
   288  H   1.0    0.10    0.99    1.43   298.78695   137.41254   180.03028
   289  H   1.0    0.11    0.99    1.43   299.82358   136.88803   183.15517
   290  H   1.0    0.10    0.99    1.43   298.13877   139.67237   182.39131
   291  H   1.0    0.14    0.99    1.43   300.73673   142.15017   175.16187
   292  H   1.0    0.10    0.99    1.43   301.55663   139.05278   176.05593
   293  H   1.0    0.11    0.99    1.43   298.53591   140.26313   176.80580
   294  N   5.0   -0.48    3.01    1.93   305.26370   137.27518   185.37454
   295  C   4.0    0.07    3.99    3.60   305.77994   135.26203   187.14283
   296  C   4.0    0.09    3.00    3.02   306.24044   136.28681   189.78824
   297  O   6.0   -0.40    1.00    1.80   305.24421   135.26711   191.63759
   298  C   4.0   -0.14    3.99    3.60   308.07828   133.72105   186.30449
   299  C   4.0   -0.11    3.98    3.59   308.56462   131.50430   188.09328
   300  C   4.0    0.28    3.00    3.02   306.44469   129.57430   187.94321
   301  O   6.0   -0.47    1.00    1.80   305.33168   129.15996   185.94685
   302  N   5.0   -0.65    3.00    1.93   305.91588   128.32650   190.06293
   303  H   1.0    0.30    1.00    1.43   306.43029   137.44476   183.86684
   304  H   1.0    0.14    0.99    1.43   304.11886   134.01772   187.25805
   305  H   1.0    0.13    0.99    1.43   307.70999   133.00980   184.40313
   306  H   1.0    0.12    0.99    1.43   309.72620   134.95640   186.22233
   307  H   1.0    0.13    0.99    1.43   310.30752   130.54900   187.53210
   308  H   1.0    0.13    0.99    1.43   308.80669   132.15257   190.03130
   309  H   1.0    0.27    1.00    1.43   306.75720   128.77284   191.71222
   310  H   1.0    0.32    1.00    1.43   304.57719   126.94054   190.05979
   311  N   5.0   -0.68    3.00    1.93   304.09811   140.99749   192.54166
   312  C   4.0    0.09    3.98    3.59   301.66724   141.64449   193.62641
   313  C   4.0    0.29    3.01    3.02   300.22549   139.25327   194.37697
   314  O   6.0   -0.44    1.00    1.80   299.30621   139.01316   196.49548
   315  C   4.0   -0.13    3.98    3.59   300.18181   143.26857   191.76384
   316  C   4.0   -0.12    3.98    3.58   297.52529   143.81657   192.70665
   317  C   4.0    0.32    2.99    3.02   297.29896   145.36436   195.17386
   318  O   6.0   -0.49    1.00    1.80   295.03800   145.75962   195.81743
   319  O   6.0   -0.39    1.00    1.80   299.19299   146.09251   196.32880
   320  H   1.0    0.31    1.00    1.43   304.44832   141.49110   190.72529
   321  H   1.0    0.15    0.99    1.43   301.96704   142.71538   195.37919
   322  H   1.0    0.13    0.99    1.43   301.21625   145.03212   191.48527
   323  H   1.0    0.13    0.99    1.43   300.08427   142.27199   189.95766
   324  H   1.0    0.11    0.99    1.43   296.47574   144.84296   191.26051
   325  H   1.0    0.11    0.99    1.43   296.54712   142.03970   193.07124
   326  N   5.0   -0.48    3.01    1.93   299.99555   137.48132   192.59776
   327  C   4.0    0.07    3.99    3.61   298.79421   135.07877   193.17647
   328  C   4.0    0.10    3.00    3.02   299.81368   134.06241   195.68715
   329  O   6.0   -0.43    1.00    1.80   298.43614   133.23155   197.34764
   330  C   4.0   -0.08    3.98    3.59   299.24181   133.10838   191.07777
   331  C   4.0   -0.16    3.98    3.59   297.86224   133.88402   188.64822
   332  C   4.0   -0.22    3.98    3.59   298.38681   130.50208   191.98045
   333  C   4.0   -0.23    3.98    3.58   298.32079   132.06897   186.45579
   334  H   1.0    0.30    1.00    1.43   300.81213   137.71850   190.88040
   335  H   1.0    0.11    0.99    1.43   296.75651   135.38421   193.43034
   336  H   1.0    0.15    0.99    1.43   301.27651   133.05079   190.70413
   337  H   1.0    0.09    0.99    1.43   295.83715   133.98796   189.01900
   338  H   1.0    0.13    0.99    1.43   298.50984   135.75793   188.08295
   339  H   1.0    0.11    0.99    1.43   298.84904   129.08030   190.57729
   340  H   1.0    0.13    0.99    1.43   299.33395   129.98102   193.72516
   341  H   1.0    0.10    0.99    1.43   296.36014   130.49916   192.31448
   342  H   1.0    0.09    0.99    1.43   297.55855   132.86078   184.71962
   343  H   1.0    0.12    0.99    1.43   300.33445   131.74679   186.18009
   344  H   1.0    0.10    0.99    1.43   297.41845   130.25594   186.78169
   345  N   5.0   -0.68    3.00    1.93   297.70939   136.97015   201.52302
   346  C   4.0    0.08    3.98    3.58   295.13250   136.18913   202.04127
   347  C   4.0    0.09    3.00    3.02   295.13986   133.67959   203.49151
   348  O   6.0   -0.39    1.00    1.80   293.83594   133.35234   205.38123
   349  C   4.0   -0.14    3.98    3.59   293.64875   135.87441   199.57543
   350  C   4.0   -0.15    3.98    3.58   293.28072   138.34989   198.12759
   351  C   4.0   -0.04    3.98    3.59   291.30640   140.10068   199.34847
   352  N   5.0   -0.48    3.02    1.93   292.13194   142.70956   199.31430
   353  C   4.0    0.38    3.00    3.02   293.02443   144.04920   201.25576
   354  N   5.0   -0.64    3.01    1.93   292.73438   143.33744   203.65158
   355  N   5.0   -0.62    3.02    1.93   294.06030   146.27687   200.72776
   356  H   1.0    0.33    1.00    1.43   298.15913   137.44232   199.71966
   357  H   1.0    0.13    0.99    1.43   294.22591   137.58415   203.28157
   358  H   1.0    0.14    0.99    1.43   294.67479   134.53848   198.39094
   359  H   1.0    0.10    0.99    1.43   291.80684   135.06969   200.02485
   360  H   1.0    0.15    0.99    1.43   295.07805   139.34979   197.99927
   361  H   1.0    0.09    0.99    1.43   292.69129   137.89589   196.20725
   362  H   1.0    0.10    0.99    1.43   289.52910   139.98018   198.30812
   363  H   1.0    0.11    0.99    1.43   290.93073   139.51893   201.28445
   364  H   1.0    0.27    1.00    1.43   292.71984   143.38153   197.60640
   365  H   1.0    0.26    1.00    1.43   291.72712   141.80779   204.18073
   366  H   1.0    0.27    1.00    1.43   293.56462   144.38647   205.00275
   367  H   1.0    0.33    1.00    1.43   294.61965   146.50756   198.85537
   368  H   1.0    0.28    1.00    1.43   295.11704   147.10259   202.08448
   369  N   5.0   -0.69    3.00    1.93   300.18498   119.13636   191.13464
   370  C   4.0    0.07    3.98    3.59   299.36467   120.64313   188.98504
   371  C   4.0    0.28    3.01    3.02   301.54834   122.36811   188.16288
   372  O   6.0   -0.44    1.00    1.80   302.47085   123.92343   189.61153
   373  C   4.0   -0.14    3.99    3.60   297.07111   122.19239   189.81091
   374  C   4.0   -0.10    3.98    3.58   296.07039   124.02518   187.80720
   375  C   4.0   -0.23    3.98    3.59   295.18498   122.65118   185.43412
   376  C   4.0   -0.24    3.99    3.60   293.88506   125.54182   188.92805
   377  H   1.0    0.26    1.00    1.43   299.49481   119.63990   192.84898
   378  H   1.0    0.10    0.99    1.43   298.91497   119.35262   187.43740
   379  H   1.0    0.10    0.99    1.43   295.58079   120.88465   190.38002
   380  H   1.0    0.12    0.99    1.43   297.62657   123.25854   191.48927
   381  H   1.0    0.12    0.99    1.43   297.60481   125.31904   187.29791
   382  H   1.0    0.09    0.99    1.43   294.37376   124.00460   184.12085
   383  H   1.0    0.10    0.99    1.43   296.75426   121.70595   184.51134
   384  H   1.0    0.10    0.99    1.43   293.74979   121.26705   185.92945
   385  H   1.0    0.09    0.99    1.43   293.24169   126.96575   187.59674
   386  H   1.0    0.10    0.99    1.43   292.31251   124.29202   189.36021
   387  H   1.0    0.09    0.99    1.43   294.46394   126.47035   190.66505
   388  N   5.0   -0.50    3.01    1.93   302.30510   122.08302   185.76420
   389  C   4.0    0.08    4.00    3.62   304.47337   123.42145   184.78825
   390  C   4.0    0.27    3.01    3.02   304.15889   124.01238   181.97611
   391  O   6.0   -0.45    1.00    1.80   303.44661   122.39778   180.47614
   392  C   4.0   -0.09    3.99    3.60   306.89394   121.82429   185.12000
   393  C   4.0    0.28    3.00    3.02   309.14798   123.42350   184.38367
   394  O   6.0   -0.42    1.00    1.80   309.84415   123.59884   182.17905
   395  N   5.0   -0.64    3.00    1.93   310.24428   124.67227   186.27858
   396  H   1.0    0.24    1.00    1.43   301.67020   120.59114   184.72949
   397  H   1.0    0.17    0.99    1.43   304.64975   125.18318   185.85260
   398  H   1.0    0.13    0.99    1.43   307.02440   121.21763   187.08143
   399  H   1.0    0.13    0.99    1.43   306.79996   120.16671   183.89447
   400  H   1.0    0.33    1.00    1.43   311.69510   125.89931   185.96199
   401  H   1.0    0.28    1.00    1.43   309.55866   124.53968   188.04505
   402  N   5.0   -0.49    3.00    1.93   304.79894   126.36724   181.31149
   403  C   4.0    0.08    4.00    3.61   304.48500   127.29151   178.75774
   404  C   4.0    0.27    3.01    3.02   306.91048   128.43873   177.66974
   405  O   6.0   -0.47    1.00    1.80   306.86288   130.13603   176.09983
   406  C   4.0   -0.08    3.98    3.58   302.24878   129.14470   178.51504
   407  C   4.0   -0.21    3.98    3.59   299.76896   127.81734   179.14906
   408  C   4.0   -0.21    3.98    3.59   302.62249   131.48104   180.16821
   409  H   1.0    0.28    1.00    1.43   305.16803   127.65312   182.68423
   410  H   1.0    0.13    0.99    1.43   304.06294   125.62474   177.59286
   411  H   1.0    0.12    0.99    1.43   302.20777   129.73192   176.53180
   412  H   1.0    0.11    0.99    1.43   298.18640   128.98621   178.56573
   413  H   1.0    0.11    0.99    1.43   299.64293   126.02178   178.15854
   414  H   1.0    0.12    0.99    1.43   299.64652   127.46476   181.16951
   415  H   1.0    0.09    0.99    1.43   301.02154   132.74588   179.94581
   416  H   1.0    0.12    0.99    1.43   302.77164   130.96133   182.14940
   417  H   1.0    0.13    0.99    1.43   304.32114   132.49496   179.61332
   418  N   5.0   -0.47    3.01    1.93   309.06479   127.44247   178.53808
   419  C   4.0    0.07    4.00    3.61   311.51255   128.28990   177.68102
   420  C   4.0    0.27    3.01    3.02   312.51129   126.54668   175.58650
   421  O   6.0   -0.41    1.00    1.80   311.53335   124.52130   175.09957
   422  C   4.0   -0.13    3.99    3.60   313.36275   128.33493   179.90502
   423  C   4.0   -0.11    3.99    3.60   312.58358   130.33763   181.83909
   424  C   4.0    0.27    3.00    3.02   314.28594   130.18993   184.13215
   425  O   6.0   -0.43    1.00    1.80   314.04054   128.52678   185.74031
   426  N   5.0   -0.64    3.00    1.93   316.01484   132.00722   184.30539
   427  H   1.0    0.31    1.00    1.43   309.07216   125.94831   179.74552
   428  H   1.0    0.12    0.99    1.43   311.28312   130.19719   176.90012
   429  H   1.0    0.16    0.99    1.43   313.35441   126.47593   180.79871
   430  H   1.0    0.12    0.99    1.43   315.27657   128.72883   179.24306
   431  H   1.0    0.11    0.99    1.43   312.72208   132.21168   180.99830
   432  H   1.0    0.13    0.99    1.43   310.63737   129.98734   182.42822
   433  H   1.0    0.25    1.00    1.43   316.36773   133.21635   182.82995
   434  H   1.0    0.29    1.00    1.43   317.27956   131.95732   185.73027
   435  N   5.0   -0.49    3.01    1.93   314.48527   127.51040   174.32016
   436  C   4.0    0.06    3.99    3.60   316.00352   126.06186   172.56499
   437  C   4.0    0.06    3.00    3.02   318.77302   126.46181   173.32823
   438  O   6.0   -0.39    1.00    1.80   319.47353   128.51503   174.16014
   439  C   4.0   -0.12    3.98    3.59   315.63405   127.00024   169.84274
   440  C   4.0   -0.10    3.98    3.59   312.87690   126.88974   169.00470
   441  C   4.0    0.27    3.00    3.02   312.43735   128.44745   166.63315
   442  O   6.0   -0.38    1.00    1.80   314.02060   129.86986   165.73233
   443  N   5.0   -0.65    3.00    1.93   310.15459   128.12720   165.58236
   444  H   1.0    0.25    1.00    1.43   315.28214   129.14741   174.90041
   445  H   1.0    0.14    0.99    1.43   315.41882   124.08944   172.75369
   446  H   1.0    0.15    0.99    1.43   316.27551   128.95671   169.73255
   447  H   1.0    0.12    0.99    1.43   316.81992   125.90303   168.56505
   448  H   1.0    0.12    0.99    1.43   312.28841   124.94395   168.68005
   449  H   1.0    0.13    0.99    1.43   311.67481   127.67886   170.48841
   450  H   1.0    0.26    1.00    1.43   308.80648   127.10603   166.44987
   451  H   1.0    0.30    1.00    1.43   309.67753   129.19257   164.07788
   452  N   5.0   -0.66    3.00    1.93   308.69331   116.68273   177.13858
   453  C   4.0    0.09    3.98    3.58   306.31551   118.01873   176.94362
   454  C   4.0    0.07    3.00    3.02   304.14068   116.21316   177.57083
   455  O   6.0   -0.36    1.00    1.80   304.14935   114.01524   176.83672
   456  C   4.0    0.05    3.98    3.59   306.02897   118.89380   174.16136
   457  O   6.0   -0.47    1.99    1.82   308.34782   119.75002   173.19045
   458  C   4.0   -0.21    3.98    3.59   303.91384   120.82852   173.90454
   459  H   1.0    0.30    1.00    1.43   309.62310   116.45773   175.48389
   460  H   1.0    0.13    0.99    1.43   306.30372   119.63844   178.23318
   461  H   1.0    0.15    0.99    1.43   305.58664   117.21591   173.02151
   462  H   1.0    0.30    0.99    1.43   308.88051   121.29448   174.02088
   463  H   1.0    0.12    0.99    1.43   303.79909   121.45970   171.95480
   464  H   1.0    0.11    0.99    1.43   302.11526   120.00494   174.45301
   465  H   1.0    0.12    0.99    1.43   304.29936   122.44743   175.11004
   466  N   5.0   -0.53    3.02    1.93   289.70173   118.35948   177.60646
   467  C   4.0    0.06    4.01    3.64   289.53919   119.61226   180.05177
   468  C   4.0    0.27    3.01    3.02   286.80169   120.18829   180.75513
   469  O   6.0   -0.46    1.00    1.80   285.95795   119.69065   182.84760
   470  C   4.0   -0.15    4.01    3.63   291.14560   122.01165   179.76052
   471  C   4.0   -0.14    4.00    3.63   291.35758   122.39570   176.90665
   472  C   4.0   -0.04    4.01    3.64   291.38657   119.69358   175.89481
   473  H   1.0    0.10    0.99    1.43   290.27369   118.36542   181.53157
   474  H   1.0    0.09    0.99    1.43   290.30399   123.62582   180.71552
   475  H   1.0    0.09    0.99    1.43   293.01435   121.67259   180.54717
   476  H   1.0    0.10    0.99    1.43   289.74495   123.44474   176.16769
   477  H   1.0    0.09    0.99    1.43   293.06300   123.41519   176.38951
   478  H   1.0    0.11    0.99    1.43   290.72757   119.57218   173.94890
   479  H   1.0    0.10    0.99    1.43   293.30133   118.91429   176.00612
   480  N   5.0   -0.49    3.01    1.93   285.43044   121.34065   178.96943
   481  C   4.0    0.06    3.99    3.60   282.90648   122.27806   179.48860
   482  C   4.0    0.09    3.00    3.02   281.28991   120.20910   180.69094
   483  O   6.0   -0.41    1.00    1.80   280.13597   120.58970   182.66143
   484  C   4.0   -0.15    3.99    3.60   281.65886   123.29356   177.09150
   485  C   4.0   -0.11    3.98    3.58   282.74175   125.84409   176.21723
   486  C   4.0   -0.23    3.98    3.59   281.74219   126.45179   173.57877
   487  C   4.0   -0.23    3.98    3.59   282.05090   127.97746   178.03218
   488  H   1.0    0.24    1.00    1.43   286.18034   121.70569   177.25483
   489  H   1.0    0.12    0.99    1.43   283.02118   123.78512   180.90974
   490  H   1.0    0.11    0.99    1.43   281.87841   121.89336   175.59074
   491  H   1.0    0.11    0.99    1.43   279.63889   123.51096   177.45710
   492  H   1.0    0.11    0.99    1.43   284.80555   125.71433   176.11785
   493  H   1.0    0.10    0.99    1.43   282.51974   128.23596   172.92309
   494  H   1.0    0.10    0.99    1.43   282.26109   124.98900   172.23277
   495  H   1.0    0.10    0.99    1.43   279.69381   126.60943   173.61590
   496  H   1.0    0.10    0.99    1.43   282.77560   129.76624   177.32904
   497  H   1.0    0.10    0.99    1.43   280.00912   128.12175   178.20372
   498  H   1.0    0.09    0.99    1.43   282.85004   127.67406   179.89888
   499  N   5.0   -0.69    3.00    1.93   282.93678   119.10048   187.42942
   500  C   4.0    0.08    3.98    3.59   282.13495   121.20897   188.98329
   501  C   4.0    0.09    3.00    3.02   279.29679   120.99019   189.52166
   502  O   6.0   -0.40    1.00    1.80   278.43919   121.22153   191.66470
   503  C   4.0   -0.08    3.98    3.59   282.84475   123.72447   187.71770
   504  C   4.0   -0.16    3.98    3.59   285.73247   123.94369   187.50888
   505  C   4.0   -0.22    3.98    3.59   281.75140   125.93496   189.21669
   506  C   4.0   -0.24    3.98    3.58   286.57178   125.77910   185.45425
   507  H   1.0    0.33    1.00    1.43   283.56893   119.46740   185.65744
   508  H   1.0    0.12    0.99    1.43   283.07929   121.06678   190.82665
   509  H   1.0    0.14    0.99    1.43   282.01778   123.70322   185.82124
   510  H   1.0    0.09    0.99    1.43   286.48590   124.54888   189.32877
   511  H   1.0    0.12    0.99    1.43   286.53186   122.09910   187.06213
   512  H   1.0    0.10    0.99    1.43   282.37298   127.72090   188.42038
   513  H   1.0    0.12    0.99    1.43   279.69796   125.88277   189.19606
   514  H   1.0    0.11    0.99    1.43   282.37873   125.84535   191.17108
   515  H   1.0    0.09    0.99    1.43   288.61628   125.97219   185.48753
   516  H   1.0    0.11    0.99    1.43   286.02359   125.07371   183.60408
   517  H   1.0    0.10    0.99    1.43   285.74165   127.64216   185.69909
   518  H   1.0    0.29    1.00    1.43   279.14895   133.56188   195.22126
   519  H   1.0    0.15    1.00    1.43   310.25714   142.65421   165.89961
   520  H   1.0    0.31    1.00    1.43   313.95904   145.39598   175.30740
   521  H   1.0    0.14    1.00    1.43   311.37343   138.30117   179.44448
   522  H   1.0    0.29    1.00    1.43   312.35374   141.79965   183.71950
   523  H   1.0    0.15    1.00    1.43   307.35413   137.79302   190.03744
   524  H   1.0    0.31    1.00    1.43   305.33647   141.74101   193.43955
   525  H   1.0    0.16    1.00    1.43   301.67380   134.06089   196.02038
   526  H   1.0    0.31    1.00    1.43   298.08161   138.34851   202.44722
   527  H   1.0    0.16    1.00    1.43   296.22869   132.25151   202.90321
   528  H   1.0    0.29    1.00    1.43   299.71658   117.51757   190.90506
   529  H   1.0    0.13    1.00    1.43   320.01572   125.04940   173.14973
   530  H   1.0    0.31    1.00    1.43   309.73865   117.53273   178.17653
   531  H   1.0    0.13    1.00    1.43   302.67537   116.81990   178.59834
   532  H   1.0    0.27    1.00    1.43   290.43440   116.83644   177.79644
   533  H   1.0    0.14    1.00    1.43   281.16173   118.51253   179.86859
   534  H   1.0    0.30    1.00    1.43   284.22192   118.28913   188.19275
   535  H   1.0    0.16    1.00    1.43   278.09026   120.65041   188.10749

           ------------------------------------------------- 
          |        Self-Consistent Charge Iterations        |
           ------------------------------------------------- 

          ...................................................
          :                      SETUP                      :
          :.................................................:
          :  # basis functions                1297          :
          :  # atomic orbitals                1297          :
          :  # shells                          789          :
          :  # electrons                      1448          :
          :  max. iterations                   250          :
          :  Hamiltonian                  GFN2-xTB          :
          :  restarted?                      false          :
          :  GBSA solvation                   true          :
          :  PC potential                    false          :
          :  electronic temp.          500.0000000     K    :
          :  accuracy                    0.1000000          :
          :  -> integral cutoff          0.3500000E+02      :
          :  -> integral neglect         0.1000000E-08      :
          :  -> SCF convergence          0.1000000E-06 Eh   :
          :  -> wf. convergence          0.1000000E-04 e    :
          :  Broyden damping             0.4000000          :
          ...................................................

 iter      E             dE          RMSdq      gap      omega  full diag
   1   -831.8907660 -0.831891E+03  0.423E+00    1.52       0.0  T
   2   -834.0905107 -0.219974E+01  0.217E+00    1.30       1.0  T
   3   -834.1736583 -0.831475E-01  0.117E+00    1.73       1.0  T
   4   -834.2007978 -0.271395E-01  0.263E-01    1.20       1.0  T
   5   -834.2202346 -0.194368E-01  0.113E-01    1.32       1.0  T
   6   -834.2209953 -0.760756E-03  0.466E-02    1.27       1.0  T
   7   -834.2210962 -0.100865E-03  0.192E-02    1.27       1.0  T
   8   -834.2211325 -0.362977E-04  0.776E-03    1.26       1.0  T
   9   -834.2211386 -0.608628E-05  0.365E-03    1.25       1.2  T
  10   -834.2211396 -0.105950E-05  0.171E-03    1.25       2.5  T
  11   -834.2211400 -0.396542E-06  0.666E-04    1.25       6.5  T
  12   -834.2211401 -0.476419E-07  0.337E-04    1.25      12.8  T
  13   -834.2211401 -0.123562E-07  0.143E-04    1.25      30.2  T
  14   -834.2211401 -0.244256E-08  0.571E-05    1.25      75.7  T
  15   -834.2211401 -0.347882E-09  0.243E-05    1.25     178.0  T

   *** convergence criteria satisfied after 15 iterations ***

         #    Occupation            Energy/Eh            Energy/eV
      -------------------------------------------------------------
         1        2.0000           -0.7414425             -20.1757
       ...           ...                  ...                  ...
       718        2.0000           -0.3627754              -9.8716
       719        2.0000           -0.3626049              -9.8670
       720        2.0000           -0.3599139              -9.7938
       721        2.0000           -0.3589422              -9.7673
       722        2.0000           -0.3566762              -9.7057
       723        2.0000           -0.3499059              -9.5214
       724        2.0000           -0.3478323              -9.4650 (HOMO)
       725        0.0000           -0.3018577              -8.2140 (LUMO)
       726        0.0000           -0.3016615              -8.2086
       727        0.0000           -0.3002423              -8.1700
       728                         -0.2911389              -7.9223
       729                         -0.2796478              -7.6096
       ...                                ...                  ...
      1297                          0.6414813              17.4556
      -------------------------------------------------------------
                  HL-Gap            0.0459746 Eh            1.2510 eV
             Fermi-level           -0.3252928 Eh           -8.8517 eV

 SCC (total)                   0 d,  0 h,  0 min, 10.988 sec
 SCC setup                      ...        0 min,  0.140 sec (  1.276%)
 Dispersion                     ...        0 min,  0.146 sec (  1.331%)
 integral evaluation            ...        0 min,  0.332 sec (  3.021%)
 zeroth order Hamiltonian       ...        0 min,  0.006 sec (  0.059%)
 iterations                     ...        0 min,  8.543 sec ( 77.749%)
 molecular gradient             ...        0 min,  1.755 sec ( 15.973%)
 printout                       ...        0 min,  0.065 sec (  0.591%)

         :::::::::::::::::::::::::::::::::::::::::::::::::::::
         ::                     SUMMARY                     ::
         :::::::::::::::::::::::::::::::::::::::::::::::::::::
         :: total energy             -824.398597164123 Eh   ::
         :: total w/o Gsasa/hb       -824.294941305594 Eh   ::
         :: gradient norm               0.665439817329 Eh/α ::
         :: HOMO-LUMO gap               1.251031306420 eV   ::
         ::.................................................::
         :: SCC energy               -834.241589658460 Eh   ::
         :: -> isotropic ES             2.591683674246 Eh   ::
         :: -> anisotropic ES          -0.103793947573 Eh   ::
         :: -> anisotropic XC           0.252810698220 Eh   ::
         :: -> dispersion              -0.694173473804 Eh   ::
         :: -> Gsolv                   -0.574478560816 Eh   ::
         ::    -> Gborn                -0.470822702287 Eh   ::
         ::    -> Gsasa                -0.022306997800 Eh   ::
         ::    -> Ghb                  -0.083206303856 Eh   ::
         ::    -> Gshift                0.001857443127 Eh   ::
         :: repulsion energy            9.771965514687 Eh   ::
         :: add. restraining            0.000000000000 Eh   ::
         :::::::::::::::::::::::::::::::::::::::::::::::::::::

           -------------------------------------------------
          |                Property Printout                |
           -------------------------------------------------

    * Orbital Energies and Occupations

         #    Occupation            Energy/Eh            Energy/eV
      -------------------------------------------------------------
         1        2.0000           -0.7414425             -20.1757
       ...           ...                  ...                  ...
       712        2.0000           -0.3865083             -10.5174
       713        2.0000           -0.3816844             -10.3862
       714        2.0000           -0.3812410             -10.3741
       715        2.0000           -0.3756607             -10.2222
       716        2.0000           -0.3663783              -9.9697
       717        2.0000           -0.3658630              -9.9556
       718        2.0000           -0.3627754              -9.8716
       719        2.0000           -0.3626049              -9.8670
       720        2.0000           -0.3599139              -9.7938
       721        2.0000           -0.3589422              -9.7673
       722        2.0000           -0.3566762              -9.7057
       723        2.0000           -0.3499059              -9.5214
       724        2.0000           -0.3478323              -9.4650 (HOMO)
       725        0.0000           -0.3018577              -8.2140 (LUMO)
       726        0.0000           -0.3016615              -8.2086
       727        0.0000           -0.3002423              -8.1700
       728                         -0.2911389              -7.9223
       729                         -0.2796478              -7.6096
       730                         -0.2791504              -7.5961
       731                         -0.2735309              -7.4432
       732                         -0.2718264              -7.3968
       733                         -0.2709512              -7.3730
       734                         -0.2528214              -6.8796
       735                         -0.2424578              -6.5976
       ...                                ...                  ...
      1297                          0.6414813              17.4556
      -------------------------------------------------------------
                  HL-Gap            0.0459746 Eh            1.2510 eV
             Fermi-level           -0.3252928 Eh           -8.8517 eV

   #   Z        covCN         q      C6AA      α(0)
   1   7 N      2.636    -0.392    30.161     8.156
   2   6 C      3.787     0.018    20.283     6.415
   3   6 C      2.758     0.260    22.613     7.787
   4   8 O      0.858    -0.495    23.667     6.523
   5   6 C      3.809    -0.063    21.701     6.631
   6   6 C      3.806    -0.101    22.416     6.740
   7   6 C      2.746     0.290    22.083     7.695
   8   8 O      0.859    -0.517    24.163     6.590
   9   7 N      2.639    -0.293    27.560     7.797
  10   1 H      0.860     0.165     1.306     1.790
  11   1 H      0.924     0.061     2.185     2.311
  12   1 H      0.924     0.053     2.283     2.363
  13   1 H      0.924     0.042     2.417     2.431
  14   1 H      0.925     0.070     2.088     2.260
  15   1 H      0.924     0.079     1.991     2.207
  16   1 H      0.860     0.235     0.944     1.522
  17   1 H      0.860     0.221     1.007     1.572
  18   7 N      2.693    -0.175    24.781     7.393
  19   6 C      3.799     0.007    20.456     6.440
  20   6 C      2.762     0.275    22.349     7.742
  21   8 O      0.859    -0.488    23.521     6.502
  22   6 C      3.809    -0.089    22.196     6.706
  23   6 C      3.804    -0.083    22.083     6.690
  24   6 C      3.739    -0.035    21.279     6.582
  25   7 N      2.702    -0.141    24.050     7.284
  26   6 C      2.735     0.237    23.039     7.859
  27   7 N      2.647    -0.268    26.946     7.710
  28   7 N      2.655    -0.279    27.203     7.746
  29   1 H      0.860     0.223     0.997     1.564
  30   1 H      0.923     0.091     1.871     2.139
  31   1 H      0.924     0.084     1.940     2.178
  32   1 H      0.924     0.070     2.081     2.256
  33   1 H      0.924     0.075     2.029     2.228
  34   1 H      0.924     0.060     2.200     2.319
  35   1 H      0.925     0.102     1.767     2.079
  36   1 H      0.924     0.085     1.925     2.170
  37   1 H      0.860     0.223     0.994     1.562
  38   1 H      0.858     0.260     0.846     1.441
  39   1 H      0.860     0.218     1.019     1.581
  40   1 H      0.860     0.239     0.928     1.509
  41   1 H      0.860     0.239     0.928     1.509
  42   7 N      2.691    -0.179    24.872     7.407
  43   6 C      3.804     0.010    20.405     6.431
  44   6 C      2.761     0.274    22.373     7.746
  45   8 O      0.859    -0.486    23.478     6.496
  46   6 C      3.852    -0.028    21.041     6.524
  47   6 C      3.758    -0.124    22.923     6.826
  48   6 C      3.757    -0.129    23.030     6.842
  49   1 H      0.860     0.221     1.005     1.570
  50   1 H      0.923     0.072     2.062     2.246
  51   1 H      0.924     0.064     2.149     2.292
  52   1 H      0.925     0.063     2.164     2.300
  53   1 H      0.925     0.050     2.319     2.381
  54   1 H      0.925     0.047     2.361     2.403
  55   1 H      0.925     0.066     2.131     2.283
  56   1 H      0.925     0.045     2.381     2.413
  57   1 H      0.925     0.053     2.280     2.362
  58   7 N      2.688    -0.168    24.628     7.370
  59   6 C      3.801     0.014    20.344     6.422
  60   6 C      2.758     0.279    22.286     7.731
  61   8 O      0.858    -0.486    23.485     6.497
  62   6 C      3.810    -0.095    22.304     6.722
  63   6 C      3.801    -0.090    22.217     6.711
  64   6 C      3.741    -0.031    21.199     6.569
  65   7 N      2.697    -0.142    24.079     7.288
  66   6 C      2.737     0.229    23.185     7.884
  67   7 N      2.653    -0.241    26.293     7.616
  68   7 N      2.656    -0.258    26.703     7.675
  69   1 H      0.860     0.216     1.029     1.589
  70   1 H      0.923     0.085     1.925     2.170
  71   1 H      0.925     0.086     1.918     2.166
  72   1 H      0.924     0.070     2.085     2.258
  73   1 H      0.924     0.079     1.991     2.207
  74   1 H      0.924     0.068     2.112     2.273
  75   1 H      0.925     0.087     1.904     2.158
  76   1 H      0.924     0.088     1.896     2.153
  77   1 H      0.860     0.232     0.958     1.533
  78   1 H      0.860     0.251     0.880     1.469
  79   1 H      0.859     0.254     0.868     1.459
  80   1 H      0.860     0.252     0.875     1.465
  81   1 H      0.860     0.252     0.876     1.466
  82   7 N      2.690    -0.174    24.765     7.391
  83   6 C      3.798     0.023    20.185     6.397
  84   6 C      2.760     0.270    22.438     7.757
  85   8 O      0.858    -0.511    24.032     6.573
  86   6 C      3.816    -0.054    21.536     6.605
  87   6 C      3.799    -0.095    22.321     6.727
  88   6 C      2.691     0.367    20.778     7.460
  89   8 O      0.856    -0.629    26.841     6.946
  90   8 O      0.857    -0.601    26.151     6.856
  91   1 H      0.860     0.220     1.010     1.574
  92   1 H      0.923     0.068     2.106     2.270
  93   1 H      0.924     0.065     2.141     2.288
  94   1 H      0.924     0.027     2.632     2.537
  95   1 H      0.925     0.024     2.674     2.557
  96   1 H      0.925     0.048     2.344     2.394
  97   7 N      2.693    -0.177    24.842     7.402
  98   6 C      3.797     0.021    20.221     6.403
  99   6 C      2.756     0.271    22.418     7.753
 100   8 O      0.858    -0.511    24.021     6.571
 101   6 C      3.810    -0.085    22.120     6.695
 102   6 C      3.850    -0.016    20.822     6.490
 103   6 C      3.757    -0.117    22.789     6.806
 104   6 C      3.756    -0.113    22.710     6.795
 105   1 H      0.860     0.235     0.946     1.523
 106   1 H      0.924     0.058     2.225     2.333
 107   1 H      0.924     0.077     2.014     2.219
 108   1 H      0.925     0.060     2.200     2.319
 109   1 H      0.924     0.049     2.328     2.386
 110   1 H      0.925     0.049     2.338     2.391
 111   1 H      0.925     0.048     2.340     2.392
 112   1 H      0.925     0.042     2.417     2.431
 113   1 H      0.925     0.039     2.456     2.451
 114   1 H      0.925     0.035     2.523     2.484
 115   1 H      0.925     0.027     2.624     2.533
 116   7 N      2.692    -0.180    24.899     7.411
 117   6 C      3.796     0.019    20.262     6.410
 118   6 C      2.761     0.275    22.344     7.741
 119   8 O      0.859    -0.498    23.745     6.533
 120   6 C      3.757    -0.142    23.290     6.881
 121   1 H      0.860     0.248     0.893     1.480
 122   1 H      0.923     0.075     2.028     2.227
 123   1 H      0.925     0.074     2.041     2.234
 124   1 H      0.925     0.084     1.939     2.178
 125   1 H      0.925     0.087     1.909     2.161
 126   7 N      2.690    -0.171    24.707     7.382
 127   6 C      3.805     0.016    20.302     6.414
 128   6 C      2.760     0.282    22.228     7.721
 129   8 O      0.859    -0.494    23.648     6.520
 130   6 C      3.852    -0.024    20.960     6.512
 131   6 C      3.756    -0.119    22.826     6.812
 132   6 C      3.756    -0.131    23.077     6.849
 133   1 H      0.860     0.233     0.950     1.527
 134   1 H      0.923     0.078     1.998     2.211
 135   1 H      0.924     0.049     2.327     2.385
 136   1 H      0.925     0.060     2.200     2.320
 137   1 H      0.925     0.023     2.685     2.562
 138   1 H      0.925     0.052     2.289     2.366
 139   1 H      0.925     0.059     2.205     2.322
 140   1 H      0.925     0.057     2.231     2.336
 141   1 H      0.925     0.070     2.088     2.260
 142   7 N      2.690    -0.188    25.086     7.439
 143   6 C      3.801     0.024    20.166     6.393
 144   6 C      2.757     0.273    22.381     7.747
 145   8 O      0.858    -0.505    23.905     6.555
 146   6 C      3.809    -0.063    21.703     6.631
 147   6 C      3.808    -0.104    22.487     6.750
 148   6 C      2.746     0.293    22.028     7.685
 149   8 O      0.859    -0.501    23.814     6.543
 150   7 N      2.639    -0.282    27.285     7.758
 151   1 H      0.860     0.226     0.982     1.552
 152   1 H      0.923     0.068     2.108     2.270
 153   1 H      0.924     0.068     2.109     2.271
 154   1 H      0.924     0.051     2.306     2.375
 155   1 H      0.924     0.073     2.049     2.238
 156   1 H      0.925     0.081     1.972     2.196
 157   1 H      0.860     0.210     1.056     1.610
 158   1 H      0.860     0.229     0.969     1.542
 159   7 N      2.688    -0.179    24.871     7.407
 160   6 C      3.793     0.010    20.424     6.436
 161   6 C      2.756     0.282    22.221     7.719
 162   8 O      0.859    -0.496    23.695     6.526
 163   6 C      3.678     0.080    19.457     6.319
 164   8 O      1.654    -0.476    22.376     6.386
 165   1 H      0.860     0.239     0.926     1.507
 166   1 H      0.923     0.061     2.184     2.311
 167   1 H      0.924     0.061     2.189     2.314
 168   1 H      0.923     0.040     2.454     2.450
 169   1 H      0.802     0.339     0.615     1.232
 170   7 N      2.689    -0.173    24.748     7.388
 171   6 C      3.795     0.024    20.174     6.396
 172   6 C      2.758     0.273    22.388     7.748
 173   8 O      0.859    -0.486    23.486     6.498
 174   6 C      3.759    -0.134    23.135     6.857
 175   1 H      0.860     0.221     1.007     1.572
 176   1 H      0.923     0.081     1.966     2.193
 177   1 H      0.925     0.078     2.004     2.214
 178   1 H      0.925     0.082     1.963     2.191
 179   1 H      0.925     0.073     2.051     2.240
 180   7 N      2.689    -0.180    24.907     7.412
 181   6 C      3.802     0.026    20.135     6.388
 182   6 C      2.755     0.266    22.504     7.768
 183   8 O      0.858    -0.481    23.367     6.481
 184   6 C      3.811    -0.113    22.647     6.774
 185   6 C      2.746     0.293    22.029     7.685
 186   8 O      0.858    -0.492    23.599     6.513
 187   7 N      2.639    -0.285    27.357     7.768
 188   1 H      0.860     0.214     1.038     1.596
 189   1 H      0.924     0.084     1.937     2.177
 190   1 H      0.925     0.080     1.978     2.200
 191   1 H      0.925     0.088     1.896     2.153
 192   1 H      0.860     0.222     1.002     1.568
 193   1 H      0.860     0.228     0.976     1.547
 194   7 N      2.690    -0.166    24.588     7.364
 195   6 C      3.792     0.014    20.349     6.424
 196   6 C      2.758     0.272    22.396     7.750
 197   8 O      0.859    -0.477    23.278     6.469
 198   6 C      3.682     0.073    19.556     6.333
 199   8 O      1.656    -0.477    22.399     6.389
 200   1 H      0.860     0.243     0.912     1.496
 201   1 H      0.923     0.089     1.887     2.148
 202   1 H      0.923     0.050     2.324     2.384
 203   1 H      0.924     0.058     2.218     2.329
 204   1 H      0.805     0.362     0.560     1.175
 205   7 N      2.689    -0.171    24.710     7.383
 206   6 C      3.798     0.014    20.342     6.422
 207   6 C      2.755     0.277    22.312     7.735
 208   8 O      0.858    -0.504    23.879     6.552
 209   6 C      3.728     0.113    18.820     6.193
 210   8 O      1.655    -0.486    22.595     6.417
 211   6 C      3.753    -0.145    23.353     6.891
 212   1 H      0.860     0.220     1.010     1.574
 213   1 H      0.924     0.087     1.911     2.162
 214   1 H      0.923     0.029     2.601     2.522
 215   1 H      0.805     0.350     0.589     1.206
 216   1 H      0.925     0.075     2.028     2.227
 217   1 H      0.925     0.062     2.170     2.304
 218   1 H      0.925     0.074     2.038     2.232
 219   7 N      2.688    -0.179    24.871     7.407
 220   6 C      3.794     0.046    19.815     6.339
 221   6 C      2.768     0.208    23.586     7.954
 222   8 O      0.856    -0.342    20.562     6.080
 223   6 C      3.814    -0.095    22.296     6.721
 224   6 C      2.743     0.293    22.033     7.686
 225   8 O      0.859    -0.511    24.026     6.572
 226   7 N      2.639    -0.279    27.220     7.749
 227   1 H      0.860     0.231     0.960     1.535
 228   1 H      0.924     0.070     2.088     2.260
 229   1 H      0.925     0.091     1.866     2.136
 230   1 H      0.924     0.070     2.081     2.256
 231   1 H      0.860     0.217     1.025     1.586
 232   1 H      0.860     0.246     0.899     1.485
 233   7 N      2.637    -0.392    30.140     8.154
 234   6 C      3.790     0.049    19.761     6.331
 235   6 C      2.764     0.265    22.537     7.774
 236   8 O      0.859    -0.498    23.733     6.532
 237   6 C      3.806    -0.092    22.243     6.714
 238   6 C      2.683     0.375    20.650     7.437
 239   8 O      0.856    -0.638    27.078     6.977
 240   8 O      0.856    -0.650    27.379     7.015
 241   1 H      0.860     0.150     1.402     1.855
 242   1 H      0.923     0.020     2.734     2.586
 243   1 H      0.925     0.015     2.810     2.621
 244   1 H      0.924     0.034     2.537     2.491
 245   7 N      2.692    -0.164    24.557     7.360
 246   6 C      3.796     0.027    20.124     6.388
 247   6 C      2.767     0.197    23.799     7.989
 248   8 O      0.856    -0.347    20.647     6.092
 249   6 C      3.811    -0.082    22.062     6.686
 250   6 C      3.849    -0.006    20.643     6.463
 251   6 C      3.758    -0.120    22.849     6.815
 252   6 C      3.756    -0.117    22.791     6.807
 253   1 H      0.860     0.208     1.065     1.617
 254   1 H      0.924     0.087     1.908     2.160
 255   1 H      0.924     0.063     2.169     2.303
 256   1 H      0.924     0.090     1.877     2.143
 257   1 H      0.924     0.014     2.832     2.632
 258   1 H      0.925     0.042     2.419     2.432
 259   1 H      0.925     0.040     2.444     2.445
 260   1 H      0.925     0.065     2.140     2.288
 261   1 H      0.925     0.045     2.380     2.412
 262   1 H      0.925     0.062     2.175     2.306
 263   1 H      0.925     0.021     2.716     2.577
 264   7 N      2.636    -0.389    30.064     8.143
 265   6 C      3.785     0.029    20.096     6.385
 266   6 C      2.761     0.277    22.312     7.735
 267   8 O      0.859    -0.501    23.817     6.543
 268   6 C      3.678     0.082    19.428     6.314
 269   8 O      1.656    -0.493    22.733     6.436
 270   1 H      0.860     0.145     1.437     1.878
 271   1 H      0.923     0.049     2.335     2.390
 272   1 H      0.923     0.021     2.722     2.580
 273   1 H      0.924     0.032     2.564     2.504
 274   1 H      0.805     0.344     0.602     1.219
 275   7 N      2.692    -0.179    24.886     7.409
 276   6 C      3.807     0.024    20.165     6.393
 277   6 C      2.757     0.285    22.171     7.711
 278   8 O      0.858    -0.477    23.272     6.468
 279   6 C      3.852    -0.026    21.005     6.519
 280   6 C      3.803    -0.061    21.663     6.626
 281   6 C      3.756    -0.116    22.778     6.805
 282   6 C      3.751    -0.103    22.536     6.770
 283   1 H      0.860     0.221     1.006     1.571
 284   1 H      0.923     0.057     2.236     2.339
 285   1 H      0.924     0.054     2.273     2.358
 286   1 H      0.924     0.036     2.502     2.474
 287   1 H      0.924     0.035     2.516     2.480
 288   1 H      0.925     0.055     2.258     2.350
 289   1 H      0.925     0.053     2.288     2.366
 290   1 H      0.925     0.051     2.302     2.373
 291   1 H      0.925     0.029     2.602     2.523
 292   1 H      0.925     0.034     2.532     2.488
 293   1 H      0.925     0.043     2.411     2.428
 294   7 N      2.692    -0.184    24.983     7.424
 295   6 C      3.794     0.033    20.023     6.372
 296   6 C      2.768     0.204    23.666     7.967
 297   8 O      0.856    -0.353    20.764     6.109
 298   6 C      3.809    -0.072    21.868     6.657
 299   6 C      3.806    -0.106    22.512     6.754
 300   6 C      2.744     0.283    22.200     7.715
 301   8 O      0.859    -0.506    23.908     6.556
 302   7 N      2.637    -0.274    27.085     7.729
 303   1 H      0.860     0.228     0.973     1.545
 304   1 H      0.923     0.086     1.917     2.165
 305   1 H      0.924     0.084     1.943     2.180
 306   1 H      0.924     0.066     2.133     2.284
 307   1 H      0.924     0.092     1.855     2.130
 308   1 H      0.925     0.063     2.167     2.302
 309   1 H      0.860     0.224     0.993     1.561
 310   1 H      0.860     0.244     0.906     1.491
 311   7 N      2.636    -0.400    30.374     8.185
 312   6 C      3.787     0.046    19.823     6.341
 313   6 C      2.758     0.273    22.393     7.749
 314   8 O      0.859    -0.504    23.866     6.550
 315   6 C      3.806    -0.050    21.467     6.596
 316   6 C      3.802    -0.098    22.361     6.732
 317   6 C      2.684     0.366    20.794     7.463
 318   8 O      0.857    -0.607    26.285     6.874
 319   8 O      0.856    -0.618    26.575     6.912
 320   1 H      0.860     0.159     1.341     1.814
 321   1 H      0.923     0.029     2.594     2.519
 322   1 H      0.924     0.015     2.816     2.624
 323   1 H      0.924     0.037     2.496     2.470
 324   1 H      0.924     0.036     2.496     2.471
 325   1 H      0.924     0.042     2.420     2.433
 326   7 N      2.689    -0.170    24.677     7.378
 327   6 C      3.797     0.028    20.111     6.386
 328   6 C      2.766     0.213    23.501     7.939
 329   8 O      0.856    -0.351    20.731     6.105
 330   6 C      3.853    -0.023    20.941     6.509
 331   6 C      3.803    -0.069    21.810     6.649
 332   6 C      3.756    -0.120    22.847     6.815
 333   6 C      3.751    -0.110    22.656     6.788
 334   1 H      0.860     0.221     1.005     1.570
 335   1 H      0.923     0.079     1.985     2.203
 336   1 H      0.924     0.048     2.343     2.394
 337   1 H      0.924     0.053     2.280     2.361
 338   1 H      0.924     0.041     2.431     2.438
 339   1 H      0.925     0.063     2.161     2.299
 340   1 H      0.925     0.038     2.472     2.459
 341   1 H      0.925     0.062     2.176     2.307
 342   1 H      0.925     0.039     2.459     2.452
 343   1 H      0.925     0.029     2.601     2.522
 344   1 H      0.925     0.056     2.249     2.345
 345   7 N      2.635    -0.395    30.248     8.168
 346   6 C      3.781     0.042    19.895     6.354
 347   6 C      2.766     0.201    23.714     7.975
 348   8 O      0.856    -0.386    21.408     6.203
 349   6 C      3.806    -0.082    22.053     6.685
 350   6 C      3.801    -0.076    21.957     6.671
 351   6 C      3.736    -0.027    21.137     6.561
 352   7 N      2.702    -0.152    24.290     7.320
 353   6 C      2.735     0.236    23.053     7.861
 354   7 N      2.647    -0.256    26.653     7.667
 355   7 N      2.655    -0.292    27.531     7.793
 356   1 H      0.860     0.174     1.248     1.750
 357   1 H      0.923     0.045     2.387     2.416
 358   1 H      0.925     0.081     1.966     2.193
 359   1 H      0.925     0.062     2.181     2.310
 360   1 H      0.924     0.055     2.258     2.350
 361   1 H      0.925     0.060     2.203     2.321
 362   1 H      0.924     0.090     1.877     2.143
 363   1 H      0.925     0.085     1.926     2.170
 364   1 H      0.860     0.222     1.002     1.568
 365   1 H      0.860     0.244     0.909     1.493
 366   1 H      0.860     0.242     0.913     1.497
 367   1 H      0.858     0.254     0.868     1.460
 368   1 H      0.860     0.224     0.990     1.559
 369   7 N      2.638    -0.398    30.304     8.176
 370   6 C      3.786     0.034    20.023     6.374
 371   6 C      2.757     0.271    22.413     7.753
 372   8 O      0.858    -0.469    23.106     6.445
 373   6 C      3.812    -0.073    21.878     6.658
 374   6 C      3.849    -0.013    20.779     6.484
 375   6 C      3.756    -0.116    22.781     6.805
 376   6 C      3.758    -0.121    22.876     6.819
 377   1 H      0.860     0.168     1.284     1.775
 378   1 H      0.924     0.026     2.638     2.540
 379   1 H      0.924     0.047     2.357     2.401
 380   1 H      0.924     0.052     2.291     2.367
 381   1 H      0.924     0.019     2.755     2.596
 382   1 H      0.925     0.049     2.330     2.387
 383   1 H      0.925     0.022     2.699     2.569
 384   1 H      0.925     0.046     2.376     2.411
 385   1 H      0.925     0.049     2.334     2.389
 386   1 H      0.925     0.049     2.336     2.390
 387   1 H      0.925     0.048     2.348     2.396
 388   7 N      2.689    -0.171    24.707     7.382
 389   6 C      3.801     0.017    20.292     6.413
 390   6 C      2.757     0.274    22.365     7.744
 391   8 O      0.858    -0.485    23.455     6.493
 392   6 C      3.811    -0.103    22.465     6.747
 393   6 C      2.747     0.285    22.179     7.711
 394   8 O      0.859    -0.507    23.944     6.561
 395   7 N      2.638    -0.280    27.229     7.750
 396   1 H      0.860     0.198     1.117     1.655
 397   1 H      0.924     0.093     1.852     2.128
 398   1 H      0.925     0.074     2.039     2.233
 399   1 H      0.924     0.070     2.087     2.259
 400   1 H      0.860     0.245     0.902     1.487
 401   1 H      0.860     0.220     1.009     1.574
 402   7 N      2.688    -0.182    24.939     7.417
 403   6 C      3.798     0.017    20.301     6.415
 404   6 C      2.754     0.266    22.517     7.770
 405   8 O      0.859    -0.488    23.512     6.501
 406   6 C      3.851    -0.014    20.797     6.486
 407   6 C      3.756    -0.121    22.882     6.821
 408   6 C      3.755    -0.121    22.878     6.820
 409   1 H      0.860     0.225     0.989     1.558
 410   1 H      0.923     0.073     2.055     2.242
 411   1 H      0.924     0.046     2.372     2.409
 412   1 H      0.925     0.061     2.190     2.314
 413   1 H      0.925     0.042     2.421     2.433
 414   1 H      0.925     0.048     2.340     2.392
 415   1 H      0.925     0.049     2.327     2.386
 416   1 H      0.925     0.057     2.237     2.339
 417   1 H      0.925     0.036     2.503     2.474
 418   7 N      2.691    -0.174    24.760     7.390
 419   6 C      3.799     0.014    20.349     6.423
 420   6 C      2.753     0.270    22.439     7.757
 421   8 O      0.858    -0.469    23.107     6.445
 422   6 C      3.809    -0.072    21.867     6.656
 423   6 C      3.809    -0.103    22.463     6.747
 424   6 C      2.746     0.287    22.140     7.704
 425   8 O      0.859    -0.493    23.634     6.518
 426   7 N      2.638    -0.277    27.151     7.739
 427   1 H      0.860     0.225     0.988     1.557
 428   1 H      0.924     0.078     2.002     2.213
 429   1 H      0.924     0.077     2.007     2.215
 430   1 H      0.924     0.058     2.220     2.330
 431   1 H      0.925     0.063     2.166     2.302
 432   1 H      0.924     0.076     2.023     2.224
 433   1 H      0.859     0.233     0.954     1.530
 434   1 H      0.860     0.239     0.927     1.508
 435   7 N      2.694    -0.172    24.720     7.384
 436   6 C      3.790     0.020    20.248     6.409
 437   6 C      2.770     0.195    23.837     7.996
 438   8 O      0.856    -0.355    20.803     6.115
 439   6 C      3.807    -0.061    21.661     6.625
 440   6 C      3.807    -0.101    22.423     6.741
 441   6 C      2.744     0.291    22.057     7.690
 442   8 O      0.859    -0.504    23.884     6.552
 443   7 N      2.639    -0.291    27.510     7.790
 444   1 H      0.860     0.211     1.051     1.606
 445   1 H      0.924     0.099     1.791     2.093
 446   1 H      0.924     0.071     2.076     2.253
 447   1 H      0.925     0.069     2.096     2.264
 448   1 H      0.925     0.083     1.948     2.183
 449   1 H      0.924     0.075     2.029     2.228
 450   1 H      0.860     0.229     0.970     1.543
 451   1 H      0.860     0.225     0.989     1.558
 452   7 N      2.638    -0.384    29.941     8.127
 453   6 C      3.781     0.028    20.123     6.390
 454   6 C      2.767     0.196    23.827     7.994
 455   8 O      0.856    -0.368    21.051     6.151
 456   6 C      3.730     0.119    18.728     6.178
 457   8 O      1.655    -0.460    22.042     6.338
 458   6 C      3.753    -0.133    23.110     6.855
 459   1 H      0.860     0.174     1.246     1.749
 460   1 H      0.924     0.047     2.361     2.403
 461   1 H      0.923     0.045     2.380     2.413
 462   1 H      0.804     0.321     0.660     1.276
 463   1 H      0.925     0.062     2.170     2.304
 464   1 H      0.925     0.050     2.315     2.380
 465   1 H      0.925     0.047     2.351     2.398
 466   7 N      2.703    -0.305    27.842     7.837
 467   6 C      3.812     0.026    20.132     6.386
 468   6 C      2.755     0.270    22.433     7.756
 469   8 O      0.859    -0.486    23.477     6.496
 470   6 C      3.829    -0.067    21.757     6.637
 471   6 C      3.827    -0.069    21.793     6.643
 472   6 C      3.765     0.012    20.418     6.441
 473   1 H      0.924     0.030     2.581     2.513
 474   1 H      0.925     0.051     2.312     2.378
 475   1 H      0.925     0.051     2.307     2.375
 476   1 H      0.924     0.046     2.375     2.410
 477   1 H      0.925     0.047     2.357     2.401
 478   1 H      0.925     0.043     2.412     2.429
[...]
   196  C   3.951        O  197 1.658    N  205 1.277    C  195 0.936
   197  O   1.973        C  196 1.658    N  205 0.193
   198  C   3.958        O  199 1.009    C  195 0.975    H  203 0.966    H  202 0.966
   199  O   1.927        C  198 1.009    H  204 0.854
   200  H   0.941        N  194 0.903
   201  H   0.992        C  195 0.938
   202  H   0.998        C  198 0.966
   203  H   0.996        C  198 0.966
   204  H   0.868        O  199 0.854
   205  N   3.454        C  196 1.277    C  206 0.994    H  212 0.905    O  197 0.193
   206  C   3.969        N  205 0.994    C  209 0.958    H  213 0.948    C  207 0.929
   207  C   3.943        O  208 1.636    N  219 1.299    C  206 0.929
   208  O   1.950        C  207 1.636    N  219 0.194
   209  C   3.952        C  211 0.997    O  210 0.990    H  214 0.963    C  206 0.958
   210  O   1.935        C  209 0.990    H  215 0.862
   211  C   3.986        C  209 0.997    H  217 0.983    H  218 0.982    H  216 0.980
   212  H   0.952        N  205 0.905
   213  H   0.992        C  206 0.948
   214  H   0.999        C  209 0.963
   215  H   0.878        O  210 0.862
   216  H   0.994        C  211 0.980
   217  H   0.996        C  211 0.983
   218  H   0.994        C  211 0.982
   219  N   3.462        C  207 1.299    C  220 0.981    H  227 0.885    O  208 0.194
   220  C   3.973        N  219 0.981    C  223 0.961    C  221 0.960    H  228 0.955
   221  C   3.904        O  222 1.914    C  220 0.960    H  519 0.955
   222  O   2.053        C  221 1.914
   223  C   3.985        H  229 0.963    C  220 0.961    H  230 0.959    C  224 0.959
   224  C   3.951        O  225 1.625    N  226 1.339    C  223 0.959
   225  O   1.942        C  224 1.625    N  226 0.208
   226  N   3.416        C  224 1.339    H  231 0.929    H  232 0.875    O  225 0.208
   227  H   0.946        N  219 0.885
   228  H   0.995        C  220 0.955
   229  H   0.992        C  223 0.963
   230  H   0.994        C  223 0.959
   231  H   0.952        N  226 0.929
   232  H   0.939        N  226 0.875
   233  N   2.988        C  234 1.008    H  241 0.959    H  520 0.956
   234  C   3.984        N  233 1.008    C  237 0.981    H  242 0.961    C  235 0.944
   235  C   3.948        O  236 1.596    N  245 1.312    C  234 0.944
   236  O   1.947        C  235 1.596    N  245 0.190
   237  C   3.986        C  234 0.981    H  243 0.971    H  244 0.957    C  238 0.903
   238  C   3.933        O  239 1.510    O  240 1.494    C  237 0.903
   239  O   1.806        C  238 1.510    O  240 0.216
   240  O   1.794        C  238 1.494    O  239 0.216
   241  H   0.977        N  233 0.959
   242  H   0.999        C  234 0.961
   243  H   1.000        C  237 0.971
   244  H   0.999        C  237 0.957
   245  N   3.479        C  235 1.312    C  246 0.972    H  253 0.919    O  236 0.190
   246  C   3.958        C  247 0.977    N  245 0.972    C  249 0.964    H  254 0.939
   247  C   3.900        O  248 1.877    C  246 0.977    H  521 0.950
   248  O   2.062        C  247 1.877
   249  C   3.980        C  250 0.989    H  255 0.971    C  246 0.964    H  256 0.960
   250  C   3.995        C  252 1.010    C  251 1.005    C  249 0.989    H  257 0.965
   251  C   3.991        C  250 1.005    H  259 0.986    H  258 0.985    H  260 0.982
   252  C   3.994        C  250 1.010    H  261 0.984    H  262 0.983    H  263 0.981
   253  H   0.956        N  245 0.919
   254  H   0.992        C  246 0.939
   255  H   0.996        C  249 0.971
   256  H   0.991        C  249 0.960
   257  H   1.000        C  250 0.965
   258  H   0.997        C  251 0.985
   259  H   0.998        C  251 0.986
   260  H   0.996        C  251 0.982
   261  H   0.997        C  252 0.984
   262  H   0.996        C  252 0.983
   263  H   1.000        C  252 0.981
   264  N   2.995        C  265 1.014    H  270 0.958    H  522 0.950
   265  C   3.984        N  264 1.014    C  268 0.977    H  271 0.964    C  266 0.934
   266  C   3.947        O  267 1.614    N  275 1.324    C  265 0.934
   267  O   1.945        C  266 1.614    N  275 0.199
   268  C   3.957        O  269 0.999    C  265 0.977    H  272 0.967    H  273 0.963
   269  O   1.921        C  268 0.999    H  274 0.868
   270  H   0.979        N  264 0.958
   271  H   0.997        C  265 0.964
   272  H   0.999        C  268 0.967
   273  H   0.999        C  268 0.963
   274  H   0.882        O  269 0.868
   275  N   3.480        C  266 1.324    C  276 0.975    H  283 0.896    O  267 0.199
   276  C   3.958        N  275 0.975    C  279 0.968    H  284 0.952    C  277 0.934
   277  C   3.951        O  278 1.615    N  294 1.309    C  276 0.934
   278  O   1.967        C  277 1.615    N  294 0.192
   279  C   3.987        C  281 1.007    C  280 0.995    C  276 0.968    H  285 0.961
   280  C   3.995        C  282 1.016    C  279 0.995    H  286 0.977    H  287 0.970
   281  C   3.991        C  279 1.007    H  290 0.981    H  289 0.980    H  288 0.978
   282  C   3.995        C  280 1.016    H  291 0.986    H  293 0.985    H  292 0.982
   283  H   0.951        N  275 0.896
   284  H   0.996        C  276 0.952
   285  H   0.997        C  279 0.961
   286  H   0.999        C  280 0.977
   287  H   0.999        C  280 0.970
   288  H   0.997        C  281 0.978
   289  H   0.997        C  281 0.980
   290  H   0.997        C  281 0.981
   291  H   0.999        C  282 0.986
   292  H   0.999        C  282 0.982
   293  H   0.998        C  282 0.985
   294  N   3.468        C  277 1.309    C  295 0.979    H  303 0.889    O  278 0.192
   295  C   3.965        N  294 0.979    C  296 0.979    C  298 0.965    H  304 0.941
   296  C   3.904        O  297 1.892    C  295 0.979    H  523 0.954
   297  O   2.040        C  296 1.892
   298  C   3.985        C  299 1.005    H  306 0.973    C  295 0.965    H  305 0.962
   299  C   3.992        C  298 1.005    C  300 0.973    H  308 0.968    H  307 0.941
   300  C   3.948        O  301 1.587    N  302 1.350    C  299 0.973
   301  O   1.945        C  300 1.587    N  302 0.198
   302  N   3.425        C  300 1.350    H  309 0.930    H  310 0.892    O  301 0.198
   303  H   0.948        N  294 0.889
   304  H   0.992        C  295 0.941
   305  H   0.993        C  298 0.962
   306  H   0.995        C  298 0.973
   307  H   0.991        C  299 0.941
   308  H   0.996        C  299 0.968
   309  H   0.950        N  302 0.930
   310  H   0.940        N  302 0.892
   311  N   2.992        C  312 1.007    H  524 0.960    H  320 0.945
   312  C   3.982        N  311 1.007    C  315 0.980    H  321 0.963    C  313 0.940
   313  C   3.945        O  314 1.590    N  326 1.330    C  312 0.940
   314  O   1.945        C  313 1.590    N  326 0.195
   315  C   3.995        C  316 1.010    C  312 0.980    H  322 0.976    H  323 0.969
   316  C   3.990        C  315 1.010    H  324 0.964    H  325 0.958    C  317 0.932
   317  C   3.933        O  319 1.555    O  318 1.413    C  316 0.932
   318  O   1.843        C  317 1.413    O  319 0.204
   319  O   1.846        C  317 1.555    O  318 0.204
   320  H   0.975        N  311 0.945
   321  H   0.999        C  312 0.963
   322  H   0.999        C  315 0.976
   323  H   0.998        C  315 0.969
   324  H   0.999        C  316 0.964
   325  H   0.998        C  316 0.958
   326  N   3.483        C  313 1.330    C  327 0.972    H  334 0.896    O  314 0.195
   327  C   3.960        C  328 0.973    N  326 0.972    C  330 0.952    H  335 0.947
   328  C   3.907        O  329 1.883    C  327 0.973    H  525 0.956
   329  O   2.048        C  328 1.883
   330  C   3.984        C  332 1.007    C  331 0.993    H  336 0.960    C  327 0.952
   331  C   3.994        C  333 1.017    C  330 0.993    H  337 0.974    H  338 0.968
   332  C   3.991        C  330 1.007    H  341 0.982    H  340 0.980    H  339 0.980
   333  C   3.993        C  331 1.017    H  342 0.985    H  343 0.983    H  344 0.982
   334  H   0.951        N  326 0.896
   335  H   0.993        C  327 0.947
   336  H   0.998        C  330 0.960
   337  H   0.997        C  331 0.974
   338  H   0.998        C  331 0.968
   339  H   0.996        C  332 0.980
   340  H   0.998        C  332 0.980
   341  H   0.996        C  332 0.982
   342  H   0.998        C  333 0.985
   343  H   0.999        C  333 0.983
   344  H   0.997        C  333 0.982
   345  N   3.004        C  346 1.013    H  526 0.959    H  356 0.931
   346  C   3.984        N  345 1.013    C  347 0.972    C  349 0.965    H  357 0.956
   347  C   3.887        O  348 1.886    C  346 0.972    H  527 0.955
   348  O   2.022        C  347 1.886
   349  C   3.987        C  350 1.004    H  359 0.973    C  346 0.965    H  358 0.960
   350  C   3.991        C  349 1.004    C  351 0.991    H  361 0.973    H  360 0.965
   351  C   3.951        C  350 0.991    N  352 0.985    H  363 0.959    H  362 0.957
   352  N   3.451        C  353 1.306    C  351 0.985    H  364 0.892
   353  C   3.975        N  355 1.324    N  354 1.307    N  352 1.306
   354  N   3.383        C  353 1.307    H  366 0.921    H  365 0.913
   355  N   3.359        C  353 1.324    H  368 0.925    H  367 0.825
   356  H   0.970        N  345 0.931
   357  H   0.998        C  346 0.956
   358  H   0.992        C  349 0.960
   359  H   0.996        C  349 0.973
   360  H   0.997        C  350 0.965
   361  H   0.995        C  350 0.973
   362  H   0.992        C  351 0.957
   363  H   0.992        C  351 0.959
   364  H   0.951        N  352 0.892
   365  H   0.941        N  354 0.913
   366  H   0.941        N  354 0.921
   367  H   0.935        N  355 0.825
   368  H   0.949        N  355 0.925
   369  N   2.992        C  370 1.007    H  528 0.956    H  377 0.954
   370  C   3.983        N  369 1.007    C  373 0.979    H  378 0.964    C  371 0.937
   371  C   3.936        O  372 1.640    N  388 1.280    C  370 0.937
   372  O   1.978        C  371 1.640    N  388 0.189
   373  C   3.991        C  374 0.995    C  370 0.979    H  379 0.972    H  380 0.971
   374  C   3.996        C  375 1.009    C  376 1.008    C  373 0.995    H  381 0.967
   375  C   3.996        C  374 1.009    H  384 0.986    H  383 0.985    H  382 0.983
   376  C   3.994        C  374 1.008    H  386 0.985    H  385 0.984    H  387 0.983
   377  H   0.971        N  369 0.954
   378  H   0.999        C  370 0.964
   379  H   0.997        C  373 0.972
   380  H   0.997        C  373 0.971
   381  H   1.000        C  374 0.967
   382  H   0.997        C  375 0.983
   383  H   0.999        C  375 0.985
   384  H   0.998        C  375 0.986
   385  H   0.997        C  376 0.984
   386  H   0.997        C  376 0.985
   387  H   0.998        C  376 0.983
   388  N   3.461        C  371 1.280    C  389 0.989    H  396 0.925    O  372 0.189
   389  C   3.966        N  388 0.989    C  392 0.947    H  397 0.940    C  390 0.939
   390  C   3.952        O  391 1.631    N  402 1.307    C  389 0.939
   391  O   1.958        C  390 1.631    N  402 0.201
   392  C   3.990        C  393 0.970    H  399 0.969    H  398 0.967    C  389 0.947
   393  C   3.948        O  394 1.593    N  395 1.348    C  392 0.970
   394  O   1.943        C  393 1.593    N  395 0.201
   395  N   3.425        C  393 1.348    H  401 0.931    H  400 0.879    O  394 0.201
   396  H   0.961        N  388 0.925
   397  H   0.991        C  389 0.940
   398  H   0.994        C  392 0.967
   399  H   0.995        C  392 0.969
   400  H   0.939        N  395 0.879
   401  H   0.952        N  395 0.931
   402  N   3.479        C  390 1.307    C  403 0.985    H  409 0.890    O  391 0.201
   403  C   3.961        N  402 0.985    C  406 0.963    C  404 0.939    H  410 0.928
   404  C   3.950        O  405 1.626    N  418 1.306    C  403 0.939
   405  O   1.954        C  404 1.626    N  418 0.197
   406  C   3.988        C  408 1.010    C  407 1.009    C  403 0.963    H  411 0.962
   407  C   3.993        C  406 1.009    H  414 0.986    H  413 0.985    H  412 0.983
   408  C   3.993        C  406 1.010    H  417 0.985    H  415 0.983    H  416 0.979
   409  H   0.949        N  402 0.890
   410  H   0.994        C  403 0.928
   411  H   0.997        C  406 0.962
   412  H   0.996        C  407 0.983
   413  H   0.998        C  407 0.985
   414  H   0.998        C  407 0.986
   415  H   0.997        C  408 0.983
   416  H   0.997        C  408 0.979
   417  H   0.999        C  408 0.985
   418  N   3.477        C  404 1.306    C  419 0.995    H  427 0.881    O  405 0.197
   419  C   3.971        N  418 0.995    C  422 0.975    H  428 0.944    C  420 0.928
   420  C   3.949        O  421 1.657    N  435 1.283    C  419 0.928
   421  O   1.978        C  420 1.657    N  435 0.197
   422  C   3.987        C  423 0.988    C  419 0.975    H  430 0.972    H  429 0.968
   423  C   3.992        C  422 0.988    C  424 0.973    H  431 0.972    H  432 0.959
   424  C   3.945        O  425 1.606    N  426 1.335    C  423 0.973
   425  O   1.963        C  424 1.606    N  426 0.196
   426  N   3.413        C  424 1.335    H  433 0.924    H  434 0.921    O  425 0.196
   427  H   0.949        N  418 0.881
   428  H   0.993        C  419 0.944
   429  H   0.994        C  422 0.968
   430  H   0.996        C  422 0.972
   431  H   0.996        C  423 0.972
   432  H   0.994        C  423 0.959
   433  H   0.946        N  426 0.924
   434  H   0.942        N  426 0.921
   435  N   3.460        C  420 1.283    C  436 0.983    H  444 0.917    O  421 0.197
   436  C   3.965        N  435 0.983    C  437 0.978    C  439 0.950    H  445 0.948
   437  C   3.897        O  438 1.903    C  436 0.978    H  529 0.952
   438  O   2.052        C  437 1.903
   439  C   3.985        C  440 1.006    H  447 0.972    H  446 0.971    C  436 0.950
   440  C   3.994        C  439 1.006    C  441 0.968    H  448 0.960    H  449 0.950
   441  C   3.942        O  442 1.647    N  443 1.298    C  440 0.968
   442  O   1.947        C  441 1.647    N  443 0.195
   443  N   3.384        C  441 1.298    H  450 0.929    H  451 0.928    O  442 0.195
   444  H   0.955        N  435 0.917
   445  H   0.990        C  436 0.948
   446  H   0.995        C  439 0.971
   447  H   0.995        C  439 0.972
   448  H   0.993        C  440 0.960
   449  H   0.994        C  440 0.950
   450  H   0.948        N  443 0.929
   451  H   0.949        N  443 0.928
   452  N   2.998        C  453 1.019    H  530 0.957    H  459 0.946
   453  C   3.987        N  452 1.019    C  454 0.982    H  460 0.958    C  456 0.923
   454  C   3.903        O  455 1.893    C  453 0.982    H  531 0.954
   455  O   2.038        C  454 1.893
   456  C   3.955        O  457 1.003    C  458 1.002    H  461 0.961    C  453 0.923
   457  O   1.982        C  456 1.003    H  462 0.873
   458  C   3.993        C  456 1.002    H  464 0.983    H  463 0.983    H  465 0.977
   459  H   0.970        N  452 0.946
   460  H   0.998        C  453 0.958
   461  H   0.998        C  456 0.961
   462  H   0.897        O  457 0.873
   463  H   0.996        C  458 0.983
   464  H   0.997        C  458 0.983
   465  H   0.998        C  458 0.977
   466  N   3.041        C  472 1.001    C  467 0.995    H  532 0.952
   467  C   3.985        N  466 0.995    C  470 0.973    H  473 0.968    C  468 0.944
   468  C   3.946        O  469 1.619    N  480 1.304    C  467 0.944
   469  O   1.974        C  468 1.619    N  480 0.196
   470  C   3.994        C  471 1.007    H  474 0.976    H  475 0.976    C  467 0.973
   471  C   3.996        C  470 1.007    C  472 1.006    H  477 0.977    H  476 0.974
   472  C   3.986        C  471 1.006    N  466 1.001    H  479 0.976    H  478 0.973
   473  H   0.999        C  467 0.968
   474  H   0.997        C  470 0.976
   475  H   0.997        C  470 0.976
   476  H   0.998        C  471 0.974
   477  H   0.997        C  471 0.977
   478  H   0.998        C  472 0.973
   479  H   1.000        C  472 0.976
   480  N   3.472        C  468 1.304    C  481 0.972    H  488 0.915    O  469 0.196
   481  C   3.963        N  480 0.972    C  482 0.972    C  484 0.971    H  489 0.937
   482  C   3.908        O  483 1.895    C  481 0.972    H  533 0.956
   483  O   2.047        C  482 1.895
   484  C   3.984        C  485 0.990    C  481 0.971    H  490 0.971    H  491 0.968
   485  C   3.994        C  487 1.010    C  486 1.007    C  484 0.990    H  492 0.966
   486  C   3.993        C  485 1.007    H  494 0.986    H  495 0.985    H  493 0.985
   487  C   3.993        C  485 1.010    H  497 0.984    H  496 0.984    H  498 0.980
   488  H   0.954        N  480 0.915
   489  H   0.992        C  481 0.937
   490  H   0.996        C  484 0.971
   491  H   0.994        C  484 0.968
   492  H   0.999        C  485 0.966
   493  H   0.997        C  486 0.985
   494  H   0.999        C  486 0.986
   495  H   0.997        C  486 0.985
   496  H   0.997        C  487 0.984
   497  H   0.996        C  487 0.984
   498  H   0.998        C  487 0.980
   499  N   3.003        C  500 1.010    H  534 0.959    H  507 0.926
   500  C   3.982        N  499 1.010    C  501 0.976    H  508 0.962    C  503 0.948
   501  C   3.887        O  502 1.883    C  500 0.976    H  535 0.954
   502  O   2.021        C  501 1.883
   503  C   3.989        C  505 1.009    C  504 0.994    H  509 0.961    C  500 0.948
   504  C   3.996        C  506 1.018    C  503 0.994    H  510 0.976    H  511 0.970
   505  C   3.994        C  503 1.009    H  514 0.985    H  513 0.984    H  512 0.981
   506  C   3.995        C  504 1.018    H  515 0.984    H  516 0.982    H  517 0.980
   507  H   0.967        N  499 0.926
   508  H   0.998        C  500 0.962
   509  H   0.997        C  503 0.961
   510  H   0.998        C  504 0.976
   511  H   0.999        C  504 0.970
   512  H   0.997        C  505 0.981
   513  H   0.998        C  505 0.984
   514  H   0.998        C  505 0.985
   515  H   0.998        C  506 0.984
   516  H   0.999        C  506 0.982
   517  H   0.998        C  506 0.980
   518  H   0.963        N    1 0.952
   519  H   0.995        C  221 0.955
   520  H   0.967        N  233 0.956
   521  H   0.992        C  247 0.950
   522  H   0.960        N  264 0.950
   523  H   0.995        C  296 0.954
   524  H   0.971        N  311 0.960
   525  H   0.997        C  328 0.956
   526  H   0.971        N  345 0.959
   527  H   0.995        C  347 0.955
   528  H   0.966        N  369 0.956
   529  H   0.991        C  437 0.952
   530  H   0.968        N  452 0.957
   531  H   0.995        C  454 0.954
   532  H   0.969        N  466 0.952
   533  H   0.996        C  482 0.956
   534  H   0.972        N  499 0.959
   535  H   0.994        C  501 0.954
 
molecular dipole:
                 x           y           z       tot (Debye)
 q only:      -42.371     -20.559      28.824
   full:      -40.339     -17.644      29.038     134.059
molecular quadrupole (traceless):
                xx          xy          yy          xz          yz          zz
 q only:   -26970.148  -17801.752    1336.269    1269.920     561.951   25633.880
  q+dip:   -26159.804  -16056.026    1510.233    1926.920    1394.559   24649.571
   full:   -26159.548  -16061.594    1514.925    1928.224    1392.435   24644.623


           -------------------------------------------------
          | TOTAL ENERGY             -824.398597164123 Eh   |
          | GRADIENT NORM               0.665439817329 Eh/α |
          | HOMO-LUMO GAP               1.251031306420 eV   |
           -------------------------------------------------

------------------------------------------------------------------------
 * finished run on 2019/05/31 at 05:35:03.866     
------------------------------------------------------------------------
 total:
 * wall-time:     0 d,  0 h,  0 min, 11.870 sec
 *  cpu-time:     0 d,  0 h,  0 min, 23.119 sec
 * ratio c/w:     1.948 speedup
 SCF:
 * wall-time:     0 d,  0 h,  0 min, 10.989 sec
 *  cpu-time:     0 d,  0 h,  0 min, 21.762 sec
 * ratio c/w:     1.980 speedup

