      -----------------------------------------------------------      
     |                   =====================                   |     
     |                           x T B                           |     
     |                   =====================                   |     
     |                         S. Grimme                         |     
     |          Mulliken Center for Theoretical Chemistry        |     
     |                    University of Bonn                     |     
     |                 Version 6.0.1 (SAW181210)                 |     
      -----------------------------------------------------------      

   This program is distributed in the hope that it will be useful,
   but WITHOUT ANY WARRANTY; without even the implied warranty of
   MERCHANTABILITY or FITNESS FOR A PARTICULAR PURPOSE.
   
   FOR NON-COMMERCIAL, ACADEMIA USE ONLY.
   
   Cite this work as:
   S. Grimme, C. Bannwarth, P. Shushkov, J. Comput. Theory Chem., 2017,
   13, 1989-2009.
   C. Bannwarth, S. Ehlert and S. Grimme., ChemRxiv, 2018, preprint.
   http://doi.org/10.26434/chemrxiv.7246238.v1
   
   for sTDA-xTB:
   S. Grimme and C. Bannwarth, J. Chem. Phys., 2016, 145, 054103.
   
   in the mass-spec context:
   V. Asgeirsson, C. Bauer and S. Grimme, Chem. Sci., 2017, 8, 4879.
   
   if GBSA is used:
   P. Shushkov, F. März and S. Grimme, unpublished.
   
   for ANC optimizer:
   S. Grimme, unpublished.
   Rational Function algorithm used in ANCopt:
   F. Eckert, P. Pulay, H.-J. Werner, J. Comput. Chem., 1997, 18, 1473.
   
   with help from (in alphabetical order)
   C. Bannwarth, F. Bohle, G. Brandenburg, E. Caldeweyher, M. Checinski,
   S. Dohm, S. Ehlert, S. Ehrlich, F. März, H. Neugebauer, J. Pisarek,
   P. Pracht, P. Shushkov, and S. Spicher.
   
 * started run on 2019/02/13 at 00:17:39.793     
========================================================================
 # omp threads = 16
========================================================================
number of atoms            : 380
number of electrons        : 1030
charge                     : 1
spin                       : .0
first test random number   : .9865

########################################################################
# WARNING! Please study the warnings concerning your input carefully
#  - Process number higher than OMP_NUM_THREADS, I hope you know what you are doing.
########################################################################

           ------------------------------------------------- 
          |                 G F N 2 - x T B                 |
          | Geometry, Frequencies, Noncovalent interactions |
          |            JCTC 2018 parametrisation            |
           ------------------------------------------------- 
 
      method parameters     
 k(s)        :  1.8500
 k(p)        :  2.2300
 k(d)        :  2.2300
 k(f)        :  2.0000
 kEN (H0ij)  : -2.0000
 D4 a1       :  0.5200
 D4 a2       :  5.0000
 D4 s6       :  1.0000
 D4 s8       :  2.7000
 D4 s9       :  5.0000
 alphaj      :  2.0000

 Solvent             : h2o
 Using internal parameter file: .param_gbsa2_h2o
 Gsolv ref. state (COSMO-RS): gsolv [1 M gas/solution]
 temperature (mdtemp)       :    298.150000000000     
 dielectric constant        :    80.2000000000000     
 rho                        :    1.00000000000000     
 mass                       :    18.0000000000000     
 surface tension            :    15.5689454083859     
 probe radius               :   0.975313790000000     
 vdW radii scaling          :    1.00000000000000     
 Gshift (Eh)                :   1.857443126794793E-003
 c1                         :    1.55243817000000     
 soset                      :   0.130326360000000     
 HB correction              :  T

            Z     q(EN)     CN     RAES       Cart. coordinates
     1  N   5.0   -0.18    3.13    1.94   216.16938   125.04327   300.58811
     2  C   4.0    0.02    4.16    3.92   214.81897   123.67949   298.65268
     3  C   4.0    0.16    3.35    3.06   214.50079   120.89137   299.37489
     4  O   6.0   -0.26    1.25    1.80   214.96003   120.08202   301.49253
     5  H   1.0    0.10    1.02    1.43   215.15892   126.17339   301.76399
     6  H   1.0    0.07    1.02    1.43   212.97819   124.55542   298.32509
     7  H   1.0    0.06    1.03    1.43   215.88867   123.75452   296.88276
     8  N   5.0   -0.13    3.47    2.06   213.66152   119.47221   297.46867
     9  C   4.0    0.04    4.28    4.16   213.48667   116.74343   297.58263
    10  C   4.0    0.10    3.27    3.05   215.84880   115.62023   298.85028
    11  O   6.0   -0.26    1.13    1.80   217.97900   116.41381   298.50926
    12  C   4.0   -0.05    4.33    4.26   213.16349   115.61752   294.92429
    13  C   4.0   -0.01    4.18    3.97   215.51671   115.66026   293.22560
    14  C   4.0   -0.08    4.10    3.81   214.97632   114.18450   290.80090
    15  C   4.0   -0.06    4.11    3.82   216.37062   118.34444   292.59698
    16  H   1.0    0.10    1.09    1.44   212.97218   120.34407   295.90142
    17  H   1.0    0.05    1.05    1.44   211.82005   116.23272   298.71364
    18  H   1.0    0.03    1.03    1.43   212.58087   113.65276   295.15896
    19  H   1.0    0.05    1.03    1.43   211.64923   116.66022   293.98636
    20  H   1.0    0.06    1.06    1.44   217.08055   114.72939   294.20711
    21  H   1.0    0.04    1.00    1.43   216.62085   114.27176   289.57039
    22  H   1.0    0.04    1.00    1.43   214.57904   112.21957   291.23688
    23  H   1.0    0.04    1.00    1.43   213.38027   114.99965   289.79383
    24  H   1.0    0.05    1.00    1.43   217.83447   118.32030   291.14881
    25  H   1.0    0.05    1.00    1.43   214.81141   119.49039   291.89266
    26  H   1.0    0.06    1.00    1.43   217.16593   119.26266   294.25343
    27  N   5.0   -0.20    3.24    1.96   205.52672   107.95452   302.34152
    28  C   4.0    0.03    4.25    4.10   204.86229   108.78034   299.80445
    29  C   4.0    0.15    3.41    3.08   205.99194   107.07670   297.76521
    30  O   6.0   -0.30    1.22    1.80   204.94169   106.67832   295.75178
    31  C   4.0   -0.07    4.13    3.86   205.87704   111.45369   299.39749
    32  H   1.0    0.09    1.03    1.43   206.40802   109.24271   303.44851
    33  H   1.0    0.06    1.05    1.44   202.80558   108.71832   299.57456
    34  H   1.0    0.05    1.00    1.43   205.36996   112.12251   297.52431
    35  H   1.0    0.05    1.00    1.43   205.07672   112.72589   300.79250
    36  H   1.0    0.04    1.00    1.43   207.92541   111.46083   299.57292
    37  N   5.0   -0.14    3.47    2.06   208.34671   106.29922   298.29221
    38  C   4.0    0.04    4.30    4.20   209.91651   104.97143   296.49034
    39  C   4.0    0.09    3.19    3.03   210.87257   102.45458   297.58171
    40  O   6.0   -0.27    1.14    1.80   213.09988   101.90135   297.75313
    41  C   4.0   -0.04    4.25    4.10   212.09540   106.60792   295.47978
    42  C   4.0   -0.05    4.16    3.92   211.73321   107.32306   292.70361
    43  C   4.0   -0.05    4.17    3.94   209.58820   109.23833   292.33824
    44  C   4.0   -0.04    4.11    3.83   208.56240   109.34294   289.64889
    45  N   5.0   -0.12    4.02    2.92   206.81824   107.17653   289.19848
    46  H   1.0    0.09    1.08    1.44   209.06724   106.73962   300.00588
    47  H   1.0    0.06    1.07    1.44   208.64982   104.45075   294.93097
    48  H   1.0    0.04    1.03    1.43   212.27356   108.29351   296.65149
    49  H   1.0    0.07    1.04    1.43   213.83401   105.51656   295.67504
    50  H   1.0    0.04    1.03    1.43   213.50428   108.11481   292.01287
    51  H   1.0    0.04    1.03    1.43   211.41118   105.58403   291.64024
    52  H   1.0    0.06    1.04    1.43   208.03135   108.79268   293.60865
    53  H   1.0    0.04    1.03    1.43   210.27433   111.10959   292.84629
    54  H   1.0    0.05    1.02    1.43   207.50460   111.09080   289.36800
    55  H   1.0    0.04    1.02    1.43   210.09075   109.25244   288.27008
    56  H   1.0    0.06    1.02    1.43   205.94181   107.33410   287.47119
    57  H   1.0    0.06    1.02    1.43   207.80486   105.50230   289.23979
    58  H   1.0    0.07    1.02    1.43   205.47160   107.11804   290.61223
    59  N   5.0   -0.21    3.19    1.95   218.00493   102.66547   284.94898
    60  C   4.0    0.04    4.26    4.11   219.03715   105.19841   285.00371
    61  C   4.0    0.08    3.19    3.03   221.92427   105.19363   285.00437
    62  O   6.0   -0.29    1.12    1.80   223.07158   106.94151   283.99045
    63  C   4.0   -0.04    4.25    4.10   217.93573   106.83416   287.10816
    64  C   4.0   -0.04    4.22    4.04   215.26213   107.72996   286.42956
    65  C   4.0    0.14    3.25    3.04   215.26350   109.13810   283.92169
    66  O   6.0   -0.31    1.20    1.80   214.62165   108.14305   281.93926
    67  N   5.0   -0.19    3.19    1.95   216.00838   111.55471   284.06441
    68  H   1.0    0.09    1.02    1.43   217.17202   101.93126   286.50236
    69  H   1.0    0.06    1.08    1.44   218.54413   106.06280   283.18087
    70  H   1.0    0.04    1.02    1.43   217.88817   105.75581   288.86502
    71  H   1.0    0.05    1.03    1.43   219.17969   108.45995   287.35877
    72  H   1.0    0.05    1.03    1.43   214.03213   106.08807   286.24428
    73  H   1.0    0.03    1.03    1.43   214.57414   108.98084   287.90951
    74  H   1.0    0.08    1.03    1.43   216.64358   112.32834   285.67924
    75  H   1.0    0.09    1.03    1.43   216.19395   112.57553   282.46891
    76  N   5.0   -0.19    3.20    1.95   222.78567   105.78380   278.38408
    77  C   4.0    0.03    4.13    3.86   222.36470   108.37965   277.58783
    78  C   4.0    0.09    3.21    3.04   224.77381   109.94153   278.02399
    79  O   6.0   -0.31    1.15    1.80   225.62489   111.36997   276.41060
    80  C   4.0   -0.06    4.10    3.80   220.19239   109.56877   279.04847
    81  H   1.0    0.09    1.02    1.43   221.41032   104.86475   279.35197
    82  H   1.0    0.04    1.05    1.44   221.97921   108.41570   275.54631
    83  H   1.0    0.05    1.00    1.43   219.87922   111.48260   278.37286
    84  H   1.0    0.05    1.00    1.43   218.46791   108.47795   278.79527
    85  H   1.0    0.06    1.00    1.43   220.66335   109.64736   281.04760
    86  N   5.0   -0.19    3.24    1.97   229.84832   108.75107   273.70797
    87  C   4.0    0.03    4.33    4.26   229.36191   110.04924   271.35098
    88  C   4.0    0.15    3.45    3.09   230.27449   112.78143   271.50491
    89  O   6.0   -0.32    1.30    1.80   231.35270   113.76953   269.69777
    90  C   4.0   -0.03    4.33    4.26   226.55849   110.02335   270.68154
    91  C   4.0   -0.02    3.53    3.13   225.47144   107.47719   270.00836
    92  C   4.0   -0.04    3.48    3.10   222.85261   107.23253   269.97964
    93  C   4.0   -0.04    3.47    3.10   226.93289   105.40967   269.32476
    94  C   4.0   -0.04    3.37    3.07   221.71415   104.99461   269.26038
    95  C   4.0   -0.03    3.38    3.07   225.79190   103.16481   268.60601
    96  C   4.0   -0.03    3.37    3.07   223.18759   102.94860   268.55892
    97  H   1.0    0.10    1.03    1.43   228.36017   108.00487   274.65794
    98  H   1.0    0.05    1.05    1.44   230.48432   109.15786   269.85137
    99  H   1.0    0.06    1.04    1.43   225.51315   110.81558   272.27579
   100  H   1.0    0.04    1.03    1.43   226.29438   111.28449   269.06253
   101  H   1.0    0.05    1.03    1.43   221.69643   108.83212   270.50864
   102  H   1.0    0.05    1.03    1.43   228.96704   105.52760   269.31879
   103  H   1.0    0.05    1.03    1.43   219.67829   104.84812   269.24197
   104  H   1.0    0.06    1.03    1.43   226.95681   101.58027   268.06263
   105  H   1.0    0.06    1.03    1.43   222.30808   101.20032   267.98360
   106  N   5.0   -0.14    3.48    2.06   229.86517   114.00129   273.66967
   107  C   4.0    0.04    4.40    4.38   230.82791   116.55001   273.98568
   108  C   4.0    0.09    3.26    3.05   233.71782   116.50414   273.80842
   109  O   6.0   -0.29    1.13    1.80   234.90342   118.11287   272.63295
   110  C   4.0    0.05    4.23    4.06   229.95808   117.65835   276.52568
   111  O   6.0   -0.25    2.13    1.84   227.29392   117.46588   276.57022
   112  C   4.0   -0.07    4.08    3.76   230.81923   120.40320   276.78411
   113  H   1.0    0.11    1.08    1.44   228.60092   113.33592   274.95305
   114  H   1.0    0.05    1.05    1.44   230.13203   117.74474   272.43884
   115  H   1.0    0.05    1.03    1.43   230.77563   116.48854   278.03601
   116  H   1.0    0.12    1.03    1.43   226.69902   118.15647   278.14880
   117  H   1.0    0.05    1.00    1.43   230.39958   121.10899   278.66506
   118  H   1.0    0.06    1.00    1.43   232.83366   120.55399   276.43307
   119  H   1.0    0.05    1.00    1.43   229.84318   121.55786   275.39505
   120  N   5.0   -0.18    3.23    1.96   235.44332   116.27488   267.39385
   121  C   4.0    0.04    4.31    4.21   235.31892   118.77677   266.27206
   122  C   4.0    0.09    3.24    3.04   237.81642   120.14498   266.76905
   123  O   6.0   -0.27    1.11    1.80   238.98303   121.19520   265.05658
   124  C   4.0   -0.02    4.32    4.23   233.04041   120.29101   267.24933
   125  C   4.0   -0.05    4.19    3.97   230.58352   119.08388   266.28893
   126  C   4.0   -0.07    4.14    3.88   233.27063   123.04159   266.39863
   127  C   4.0   -0.08    4.01    3.64   228.21323   120.34737   267.33501
   128  H   1.0    0.12    1.07    1.44   233.98574   115.66714   268.48905
   129  H   1.0    0.05    1.05    1.44   235.18536   118.59179   264.20590
   130  H   1.0    0.06    1.06    1.44   233.08649   120.21319   269.31356
   131  H   1.0    0.04    1.03    1.43   230.55778   119.16678   264.22611
   132  H   1.0    0.06    1.03    1.43   230.56068   117.09304   266.82229
   133  H   1.0    0.04    1.00    1.43   231.70062   124.15348   267.10377
   134  H   1.0    0.06    1.01    1.43   235.01160   123.88215   267.09118
   135  H   1.0    0.05    1.00    1.43   233.29317   123.16056   264.34597
   136  H   1.0    0.04    1.00    1.43   226.55107   119.27427   266.78488
   137  H   1.0    0.04    1.00    1.43   228.29952   120.42143   269.38377
   138  H   1.0    0.04    1.00    1.43   228.00541   122.25584   266.60977
   139  N   5.0   -0.20    3.22    1.96   222.24015   120.18753   252.36117
   140  C   4.0    0.03    4.35    4.29   221.85952   118.45053   254.43569
   141  C   4.0    0.14    3.43    3.09   222.26326   119.77248   256.98021
   142  O   6.0   -0.33    1.33    1.80   220.73449   119.41346   258.68797
   143  C   4.0    0.05    4.21    4.01   223.47132   116.02262   254.20178
   144  O   6.0   -0.25    2.12    1.84   225.94442   116.47752   253.37164
   145  C   4.0   -0.06    4.08    3.76   222.25961   114.18825   252.33110
   146  H   1.0    0.09    1.02    1.43   223.53680   119.76105   251.00232
   147  H   1.0    0.04    1.06    1.44   219.86574   117.86604   254.45817
   148  H   1.0    0.04    1.04    1.43   223.50742   115.14923   256.09663
   149  H   1.0    0.12    1.02    1.43   226.62483   118.01956   254.10733
   150  H   1.0    0.06    1.00    1.43   223.45431   112.52866   252.16201
   151  H   1.0    0.04    1.00    1.43   220.39956   113.61756   252.97828
   152  H   1.0    0.05    1.00    1.43   222.11092   115.07869   250.48656
   153  N   5.0   -0.15    3.48    2.06   224.30598   121.21395   257.23175
   154  C   4.0    0.03    4.51    4.55   224.82507   122.57157   259.56124
   155  C   4.0    0.16    3.56    3.15   222.46986   124.01477   260.37153
   156  O   6.0   -0.32    1.33    1.80   221.56013   123.78448   262.49316
   157  C   4.0   -0.03    4.27    4.14   227.08302   124.37276   259.24175
   158  C   4.0   -0.07    4.14    3.88   227.19604   126.25331   261.43053
   159  C   4.0   -0.07    4.11    3.82   229.54172   122.87234   259.08557
   160  H   1.0    0.08    1.06    1.44   225.45857   121.57939   255.74059
   161  H   1.0    0.04    1.05    1.44   225.22770   121.20499   261.07283
   162  H   1.0    0.05    1.05    1.44   226.79610   125.42321   257.48411
   163  H   1.0    0.05    1.00    1.43   228.91605   127.36727   261.30868
   164  H   1.0    0.06    1.00    1.43   225.59826   127.54503   261.38513
   165  H   1.0    0.04    1.00    1.43   227.18117   125.26673   263.23334
   166  H   1.0    0.05    1.00    1.43   231.12718   124.15517   258.84420
   167  H   1.0    0.04    1.00    1.43   229.82521   121.80755   260.81898
   168  H   1.0    0.05    1.00    1.43   229.50706   121.57185   257.49970
   169  N   5.0   -0.14    3.53    2.10   221.47572   125.52608   258.62306
   170  C   4.0    0.04    4.47    4.49   219.31115   127.08857   259.23209
   171  C   4.0    0.17    3.51    3.12   217.28458   125.44354   260.48059
   172  O   6.0   -0.30    1.28    1.80   216.30584   125.97172   262.51466
   173  C   4.0   -0.04    4.32    4.24   218.29297   128.32699   256.83430
   174  C   4.0    0.16    3.22    3.04   220.06523   130.41262   255.91278
   175  O   6.0   -0.28    1.22    1.80   222.01676   130.98536   256.98834
   176  N   5.0   -0.18    3.18    1.95   219.26811   131.56343   253.79828
   177  H   1.0    0.09    1.06    1.44   222.34987   125.80362   256.94089
   178  H   1.0    0.07    1.05    1.44   219.86713   128.55775   260.59253
   179  H   1.0    0.05    1.03    1.43   218.10545   126.90103   255.35415
   180  H   1.0    0.05    1.03    1.43   216.44050   129.14669   257.21650
   181  H   1.0    0.11    1.03    1.43   220.29222   133.00471   253.09254
   182  H   1.0    0.09    1.03    1.43   217.61220   131.11749   252.97945
   183  N   5.0   -0.14    3.51    2.08   216.60328   123.44807   259.09554
   184  C   4.0    0.04    4.43    4.44   214.64599   121.73457   259.93906
   185  C   4.0    0.16    3.45    3.10   215.23767   120.62509   262.55629
   186  O   6.0   -0.31    1.29    1.80   213.58694   120.53514   264.18228
   187  C   4.0   -0.03    4.30    4.20   214.25106   119.61000   258.01198
   188  C   4.0    0.16    3.22    3.04   212.58694   120.55720   255.85181
   189  O   6.0   -0.27    1.20    1.80   210.28814   120.37173   255.92953
   190  N   5.0   -0.18    3.18    1.95   213.80747   121.61863   253.90763
   191  H   1.0    0.08    1.07    1.44   217.60883   122.99904   257.52855
   192  H   1.0    0.07    1.06    1.44   212.87817   122.79957   260.17651
   193  H   1.0    0.05    1.03    1.43   216.08379   118.95419   257.34199
   194  H   1.0    0.06    1.03    1.43   213.25271   118.05931   258.93300
   195  H   1.0    0.10    1.03    1.43   212.77479   122.35249   252.48524
   196  H   1.0    0.08    1.02    1.43   215.70091   121.88269   253.89693
   197  N   5.0   -0.14    3.51    2.09   217.56122   119.73220   262.86443
   198  C   4.0    0.04    4.42    4.42   218.34555   118.52596   265.19454
   199  C   4.0    0.16    3.50    3.11   218.01979   120.31385   267.43139
   200  O   6.0   -0.32    1.31    1.80   217.10759   119.58907   269.43302
   201  C   4.0   -0.05    4.36    4.31   221.11438   117.70527   265.03240
   202  C   4.0   -0.02    4.17    3.95   221.55134   115.40778   263.31462
   203  C   4.0   -0.07    4.10    3.81   224.36694   115.16896   262.71924
   204  C   4.0   -0.08    4.10    3.80   220.60178   112.97691   264.54365
   205  H   1.0    0.12    1.12    1.45   218.84560   119.79148   261.43899
   206  H   1.0    0.05    1.05    1.44   217.12153   116.89386   265.56171
   207  H   1.0    0.05    1.03    1.43   222.19690   119.31547   264.33326
   208  H   1.0    0.04    1.03    1.43   221.77689   117.25433   266.93311
   209  H   1.0    0.05    1.06    1.44   220.53591   115.70451   261.53832
   210  H   1.0    0.04    1.00    1.43   224.71437   113.52076   261.54283
   211  H   1.0    0.04    1.00    1.43   225.04336   116.82798   261.71375
   212  H   1.0    0.04    1.00    1.43   225.46329   114.96278   264.44576
   213  H   1.0    0.04    1.00    1.43   220.92592   111.37539   263.29876
   214  H   1.0    0.04    1.00    1.43   221.60380   112.62889   266.30434
   215  H   1.0    0.04    1.00    1.43   218.59058   113.07050   264.94511
   216  N   5.0   -0.14    3.51    2.09   218.86862   122.66561   267.09068
   217  C   4.0    0.04    4.48    4.50   218.66003   124.45623   269.15286
   218  C   4.0    0.17    3.51    3.12   215.89592   124.61352   269.97268
   219  O   6.0   -0.31    1.29    1.80   215.26041   124.40583   272.18833
   220  C   4.0    0.06    4.21    4.02   219.69384   127.12543   268.52705
   221  O   6.0   -0.24    2.12    1.84   218.13364   128.48112   266.86713
   222  C   4.0   -0.07    4.07    3.74   222.42733   126.99280   267.59902
   223  H   1.0    0.11    1.10    1.44   219.66719   123.18680   265.43041
   224  H   1.0    0.05    1.05    1.44   219.71212   123.72525   270.78484
   225  H   1.0    0.05    1.04    1.44   219.61629   128.20303   270.29663
   226  H   1.0    0.15    1.05    1.44   218.02009   127.61831   265.24709
   227  H   1.0    0.05    1.00    1.43   223.15419   128.90164   267.38828
   228  H   1.0    0.04    1.00    1.43   223.59567   125.97390   268.93913
   229  H   1.0    0.06    1.01    1.43   222.52799   126.05523   265.77608
   230  N   5.0   -0.13    3.52    2.09   214.25219   124.97981   268.09176
   231  C   4.0    0.05    4.42    4.41   211.59127   125.29073   268.61652
   232  C   4.0    0.17    3.46    3.10   210.54906   122.96591   270.01379
   233  O   6.0   -0.29    1.24    1.80   209.15482   123.17063   271.84709
   234  C   4.0    0.04    4.15    3.91   210.12672   125.72454   266.16023
   235  O   6.0   -0.25    2.08    1.84   207.60839   126.29431   266.80435
   236  H   1.0    0.11    1.08    1.44   214.86037   125.25343   266.29883
   237  H   1.0    0.06    1.05    1.44   211.30460   126.92903   269.86118
   238  H   1.0    0.06    1.01    1.43   211.01103   127.30316   265.14663
   239  H   1.0    0.06    1.01    1.43   210.23442   124.01479   264.99036
   240  H   1.0    0.13    1.02    1.43   206.67539   126.70334   265.29116
   241  N   5.0   -0.13    3.51    2.08   211.26107   120.76676   269.01766
   242  C   4.0    0.04    4.34    4.27   210.41648   118.36202   270.02689
   243  C   4.0    0.16    3.50    3.11   211.12677   118.15760   272.81455
   244  O   6.0   -0.32    1.32    1.80   209.52429   117.79570   274.45499
   245  C   4.0   -0.07    4.12    3.84   211.57426   116.21028   268.50894
   246  H   1.0    0.12    1.11    1.45   212.34228   120.71345   267.43222
   247  H   1.0    0.06    1.05    1.44   208.34404   118.28072   269.95073
   248  H   1.0    0.04    1.00    1.43   210.91243   114.40655   269.22872
   249  H   1.0    0.06    1.00    1.43   211.02829   116.39214   266.53779
   250  H   1.0    0.06    1.00    1.43   213.62114   116.28398   268.64929
   251  N   5.0   -0.14    3.50    2.08   213.58362   118.33052   273.36590
   252  C   4.0    0.04    4.44    4.45   214.32120   118.03001   275.98363
   253  C   4.0    0.16    3.48    3.10   213.09115   120.07634   277.61916
   254  O   6.0   -0.32    1.31    1.80   212.25582   119.53918   279.71710
   255  C   4.0   -0.05    4.26    4.11   217.17056   117.81324   276.37400
   256  C   4.0   -0.03    4.17    3.95   218.68662   120.18182   275.74877
   257  C   4.0   -0.00    4.22    4.04   221.47126   119.70296   276.41183
   258  N   5.0   -0.14    3.39    2.02   222.97596   121.98501   276.30737
   259  C   4.0    0.10    3.34    3.06   223.14940   123.68989   278.15969
   260  N   5.0   -0.17    3.27    1.97   222.25970   123.24011   280.44277
   261  N   5.0   -0.18    3.24    1.97   224.40836   125.83849   277.69121
   262  H   1.0    0.11    1.09    1.44   214.89305   118.77264   272.03695
   263  H   1.0    0.05    1.06    1.44   213.45328   116.26255   276.65841
   264  H   1.0    0.06    1.03    1.43   217.47771   117.37731   278.36831
   265  H   1.0    0.04    1.03    1.43   217.85495   116.23664   275.23608
   266  H   1.0    0.06    1.02    1.43   218.47131   120.66770   273.75946
   267  H   1.0    0.06    1.03    1.43   217.98777   121.75442   276.88598
   268  H   1.0    0.06    1.03    1.43   221.55635   118.92590   278.31844
   269  H   1.0    0.05    1.02    1.43   222.31004   118.34113   275.11274
   270  H   1.0    0.08    1.07    1.44   223.63604   122.47910   274.58878
   271  H   1.0    0.13    1.11    1.44   221.02996   121.76536   280.90386
   272  H   1.0    0.10    1.04    1.43   222.29670   124.61971   281.75104
   273  H   1.0    0.08    1.03    1.43   225.25126   126.15425   276.01799
   274  H   1.0    0.09    1.03    1.43   224.66641   127.11407   279.07481
   275  N   5.0   -0.14    3.51    2.09   212.85035   122.36065   276.58260
   276  C   4.0    0.04    4.36    4.31   211.56356   124.42848   277.82092
   277  C   4.0    0.17    3.41    3.08   208.74224   123.96262   278.32818
   278  O   6.0   -0.28    1.25    1.80   207.53206   125.52412   279.54185
   279  C   4.0    0.05    4.17    3.94   211.88356   126.79930   276.15272
   280  O   6.0   -0.24    2.07    1.83   210.28205   128.81890   276.73639
   281  H   1.0    0.11    1.11    1.45   213.65827   122.75435   274.88534
   282  H   1.0    0.07    1.05    1.44   212.40543   124.75425   279.69799
   283  H   1.0    0.06    1.01    1.43   213.87454   127.38161   276.23297
   284  H   1.0    0.07    1.03    1.43   211.42939   126.25415   274.21425
   285  H   1.0    0.14    1.03    1.43   210.23765   129.07583   278.53999
   286  N   5.0   -0.13    3.54    2.10   207.72114   121.89046   277.32894
   287  C   4.0    0.04    4.42    4.42   205.14641   121.13785   277.80873
   288  C   4.0    0.16    3.40    3.08   204.92845   119.04606   279.80902
   289  O   6.0   -0.27    1.22    1.80   202.93151   118.67000   280.91206
   290  C   4.0   -0.03    4.28    4.17   203.90421   120.18691   275.35176
   291  C   4.0   -0.04    4.16    3.91   201.03401   120.57106   275.36178
   292  C   4.0   -0.00    4.19    3.97   200.21697   123.02961   274.04630
   293  N   5.0   -0.13    3.42    2.03   201.75964   125.17350   274.77226
   294  C   4.0    0.11    3.34    3.06   203.73064   126.12050   273.51023
   295  N   5.0   -0.17    3.26    1.97   204.05316   125.68685   271.06243
   296  N   5.0   -0.16    3.25    1.97   205.22021   127.77847   274.68745
   297  H   1.0    0.12    1.13    1.45   208.72318   120.72895   276.17898
   298  H   1.0    0.07    1.07    1.44   204.16291   122.78084   278.58799
   299  H   1.0    0.06    1.03    1.43   204.79281   121.17740   273.77721
   300  H   1.0    0.06    1.03    1.43   204.36208   118.18856   275.15048
   301  H   1.0    0.05    1.03    1.43   200.11581   119.00768   274.38878
   302  H   1.0    0.06    1.03    1.43   200.38342   120.54079   277.31633
   303  H   1.0    0.05    1.03    1.43   200.30802   122.77303   272.00702
   304  H   1.0    0.05    1.02    1.43   198.26247   123.45215   274.54869
   305  H   1.0    0.09    1.07    1.44   201.62558   125.66274   276.61371
   306  H   1.0    0.09    1.04    1.43   202.90959   124.48538   270.13312
   307  H   1.0    0.11    1.05    1.44   205.64730   126.22311   270.15333
   308  H   1.0    0.11    1.04    1.43   205.30727   127.81875   276.59366
   309  H   1.0    0.11    1.03    1.43   206.79779   128.41543   273.83040
   310  N   5.0   -0.14    3.53    2.10   206.97519   117.58320   280.05433
   311  C   4.0    0.04    4.50    4.54   207.14104   115.51278   281.82972
   312  C   4.0    0.16    3.46    3.10   208.01091   116.49439   284.41627
   313  O   6.0   -0.29    1.21    1.80   206.93107   115.94964   286.38572
   314  C   4.0   -0.02    4.34    4.28   208.95363   113.46109   280.84050
   315  C   4.0   -0.04    4.19    3.98   208.14955   112.56873   278.20325
   316  C   4.0   -0.07    4.13    3.87   209.02562   111.28351   282.72926
   317  C   4.0   -0.07    4.01    3.64   210.14564   110.92700   276.92709
   318  H   1.0    0.11    1.10    1.44   208.61140   118.16541   279.26077
   319  H   1.0    0.07    1.06    1.44   205.22672   114.76094   282.07159
   320  H   1.0    0.05    1.06    1.44   210.83291   114.31907   280.70708
   321  H   1.0    0.05    1.03    1.43   206.37801   111.52497   278.35706
   322  H   1.0    0.06    1.04    1.43   207.80940   114.22040   277.01620
   323  H   1.0    0.06    1.00    1.43   210.41024   109.88774   282.14955
   324  H   1.0    0.05    1.01    1.43   209.52781   112.00649   284.58290
   325  H   1.0    0.05    1.00    1.43   207.16969   110.41152   282.82217
   326  H   1.0    0.05    1.00    1.43   209.47180   110.31687   275.08572
   327  H   1.0    0.05    1.00    1.43   211.87856   111.99850   276.65551
   328  H   1.0    0.05    1.00    1.43   210.58974   109.26434   278.04319
   329  N   5.0   -0.14    3.53    2.10   210.15098   117.85654   284.31768
   330  C   4.0    0.03    4.43    4.42   210.86174   119.52378   286.35947
   331  C   4.0    0.17    3.46    3.10   208.75938   121.46688   286.76341
   332  O   6.0   -0.25    1.23    1.80   207.53944   122.31947   284.98881
   333  C   4.0   -0.03    4.32    4.23   213.21443   121.03772   285.63708
   334  C   4.0   -0.03    4.18    3.95   215.49487   119.42547   284.95526
   335  C   4.0    0.25    3.12    3.03   217.46627   120.96895   283.43921
   336  O   6.0   -0.29    1.19    1.80   217.41713   123.31038   283.52584
   337  O   6.0   -0.32    1.28    1.80   219.02958   119.69550   282.17953
   338  H   1.0    0.11    1.13    1.45   210.76696   118.44832   282.60653
   339  H   1.0    0.04    1.05    1.44   211.15227   118.43292   288.09327
   340  H   1.0    0.08    1.04    1.43   212.71991   122.20577   284.00381
   341  H   1.0    0.06    1.03    1.43   213.68273   122.33851   287.17098
   342  H   1.0    0.04    1.02    1.43   216.41786   118.70925   286.65412
   343  H   1.0    0.05    1.03    1.43   214.93140   117.82915   283.78168
   344  N   5.0   -0.12    3.53    2.10   208.38150   122.10282   289.17481
   345  C   4.0    0.04    4.41    4.41   206.93574   124.27717   289.95310
   346  C   4.0    0.16    3.47    3.10   208.52634   126.67576   289.63434
   347  O   6.0   -0.28    1.25    1.80   210.80918   126.57232   289.35123
   348  C   4.0   -0.03    4.29    4.17   206.37951   123.97269   292.78132
   349  C   4.0    0.26    3.17    3.03   208.92948   123.85632   294.28137
   350  O   6.0   -0.32    1.27    1.80   210.31892   121.98628   293.85369
   351  O   6.0   -0.28    1.16    1.80   209.36686   125.60486   295.77769
   352  H   1.0    0.11    1.14    1.45   209.58041   121.51514   290.57486
   353  H   1.0    0.06    1.04    1.44   205.21147   124.40248   288.81090
   354  H   1.0    0.06    1.02    1.43   205.26503   125.54399   293.50837
   355  H   1.0    0.06    1.02    1.43   205.36172   122.20527   293.07284
   356  N   5.0   -0.12    3.42    2.03   207.20911   128.88619   289.74407
   357  C   4.0    0.04    4.28    4.15   208.48001   131.13106   290.71876
   358  C   4.0    0.09    3.25    3.04   206.50716   133.14650   291.22431
   359  O   6.0   -0.25    1.13    1.80   204.68334   133.48310   289.83712
   360  C   4.0    0.05    4.13    3.86   210.47378   132.23779   288.86088
   361  O   6.0   -0.22    2.05    1.83   209.36380   133.39798   286.75370
   362  H   1.0    0.09    1.08    1.44   205.39055   128.72216   290.32976
   363  H   1.0    0.06    1.05    1.44   209.47288   130.64045   292.47795
   364  H   1.0    0.06    1.01    1.43   211.54208   133.70720   289.86404
   365  H   1.0    0.07    1.01    1.43   211.71203   130.67273   288.29257
   366  H   1.0    0.14    1.02    1.43   208.46373   132.16517   285.74009
   367  H   1.0    0.12    1.09    1.44   216.96410   123.94043   301.61024
   368  H   1.0    0.06    1.05    1.44   215.68086   114.15392   300.03045
   369  H   1.0    0.11    1.07    1.44   204.11680   107.50480   303.17965
   370  H   1.0    0.07    1.05    1.44   209.63896   101.16350   298.20007
   371  H   1.0    0.10    1.07    1.44   216.79553   102.57091   283.75694
   372  H   1.0    0.06    1.04    1.43   222.86660   103.77616   285.82527
   373  H   1.0    0.09    1.07    1.44   223.06287   104.80890   277.01833
   374  H   1.0    0.07    1.05    1.44   225.70020   109.81094   279.66589
   375  H   1.0    0.10    1.07    1.44   230.89093   107.43694   273.42766
   376  H   1.0    0.07    1.05    1.44   234.69546   115.13347   274.66664
   377  H   1.0    0.10    1.07    1.44   235.56508   115.10662   266.16385
   378  H   1.0    0.07    1.05    1.44   238.53308   120.19826   268.51680
   379  H   1.0    0.10    1.07    1.44   220.78197   120.38030   251.50728
   380  H   1.0    0.07    1.05    1.44   206.66573   134.26499   292.73921

  Z AO/shell   Hii/eV     exponent
  1     Wed Apr 25 08:07:45 CEST 2018   EN: 2.200 GM2: 0.406  GM3: 0.0800  RAES: 1.40
     1s    -10.707211    1.230000
  6     Wed Apr 25 08:07:45 CEST 2018   EN: 2.550 GM2: 0.538  GM3: 0.1500  RAES: 3.00
     2s    -13.970922    2.096432
     2p    -10.063292    1.800000
  7     Wed Apr 25 08:07:45 CEST 2018   EN: 3.040 GM2: 0.461  GM3:-0.0640  RAES: 1.90
     2s    -16.686243    2.339881
     2p    -12.523956    2.014332
  8     Wed Apr 25 08:07:45 CEST 2018   EN: 3.440 GM2: 0.452  GM3:-0.0517  RAES: 1.80
     2s    -20.229985    2.439742
     2p    -15.503117    2.137023
 no old-style atom pair restraining (fixing) potential

molecular fragmentation (1/2 indicates fragments):
111111111111111111111111112222222222222222222222222222222222222222222222
222222222222222222222222222222222222222222222222222222222222222222222222
222222222222222222222222222222222222222222222222222222222222222222222222
222222222222222222222222222222222222222222222222222222222222222222222222
222222222222222222222222222222222222222222222222222222222222222222222222
22222211222222222222
# atoms in fragment 1/2:    28   352
 fragment masses (1/2) :      172.23     2417.76
CMA distance (Bohr)    :  22.123
constraining FC (au)   :  0.0500
           ------------------------------------------------- 
          |        Self-Consistent Charge Iterations        |
           ------------------------------------------------- 

 Ncao       : 923
 Nao        : 923
 Nshell     : 561
 Nel        : 1030
 T(el)      :   500.0
 intcut     :    35.0
 scfconv/Eh :  0.100E-06
   qconv/e  :  0.100E-04
 intneglect :  0.100E-08
 broydamp   :      0.400
 iter      E             dE          RMSdq      gap      omega  full diag
   1   -592.2567847 -0.592257E+03  0.471E+00    3.29       0.0  T
   2   -593.7031774 -0.144639E+01  0.219E+00    1.72       1.0  T
   3   -593.7932880 -0.901106E-01  0.123E+00    1.73       1.0  T
   4   -593.8876653 -0.943774E-01  0.253E-01    1.24       1.0  T
   5   -593.8924099 -0.474457E-02  0.117E-01    1.38       1.0  T
   6   -593.8932241 -0.814229E-03  0.456E-02    1.34       1.0  T
   7   -593.8933874 -0.163235E-03  0.205E-02    1.32       1.0  T
   8   -593.8934067 -0.193394E-04  0.905E-03    1.31       1.0  T
   9   -593.8934147 -0.800102E-05  0.402E-03    1.31       1.3  T
  10   -593.8934160 -0.127299E-05  0.173E-03    1.31       3.0  T
  11   -593.8934162 -0.242698E-06  0.709E-04    1.31       7.2  T
  12   -593.8934162 -0.286966E-07  0.289E-04    1.31      17.7  T
  13   -593.8934163 -0.763691E-08  0.138E-04    1.31      37.1  T
  14   -593.8934163 -0.127397E-08  0.666E-05    1.31      77.0  T
  15   -593.8934163 -0.417003E-09  0.294E-05    1.31     174.7  T
speedup 12.33
cpu  time for SCC   29.11 s
wall time for SCC    2.36 s

   *** convergence criteria satisfied after 15 iterations ***

          eigenvalues
 #    :         503        504        505        506        507        508        509        510
 occ. :        2.000      2.000      2.000      2.000      2.000      2.000      2.000      2.000
 eps  :       -10.728    -10.637    -10.582    -10.504    -10.465    -10.341    -10.165    -10.006
 #    :         511        512        513        514        515        516        517        518
 occ. :        2.000      2.000      2.000      2.000      2.000      0.000      0.000      0.000
 eps  :        -9.973     -9.884     -9.875     -9.859     -9.500     -8.190     -7.854     -7.765
 #    :         519        520        521        522        523        524        525        526
 occ. :        0.000      0.000      0.000      0.000      0.000      0.000      0.000      0.000
 eps  :        -7.733     -7.623     -7.550     -7.428     -7.031     -6.871     -6.719     -6.672


   #   Z            q   n(s)   n(p)   n(d)      C6AA      α(0)
   1   7 N     -0.387  1.310  4.077  0.000    30.008     8.136
   2   6 C     -0.005  1.045  2.960  0.000    20.754     6.501
   3   6 C      0.273  1.046  2.681  0.000    22.377     7.746
   4   8 O     -0.517  1.748  4.768  0.000    24.154     6.589
   5   1 H      0.159  0.841  0.000  0.000     1.341     1.814
   6   1 H      0.052  0.948  0.000  0.000     2.290     2.367
   7   1 H      0.044  0.956  0.000  0.000     2.401     2.423
   8   7 N     -0.184  1.248  3.936  0.000    24.986     7.424
   9   6 C      0.035  1.058  2.907  0.000    19.994     6.369
  10   6 C      0.212  1.080  2.707  0.000    23.504     7.940
  11   8 O     -0.367  1.755  4.612  0.000    21.038     6.149
  12   6 C     -0.078  1.063  3.015  0.000    21.976     6.673
  13   6 C     -0.013  1.055  2.957  0.000    20.767     6.482
  14   6 C     -0.125  1.045  3.080  0.000    22.948     6.830
  15   6 C     -0.103  1.036  3.067  0.000    22.525     6.767
  16   1 H      0.216  0.784  0.000  0.000     1.029     1.589
  17   1 H      0.064  0.936  0.000  0.000     2.158     2.297
  18   1 H      0.079  0.921  0.000  0.000     1.986     2.204
  19   1 H      0.067  0.933  0.000  0.000     2.119     2.276
  20   1 H      0.045  0.955  0.000  0.000     2.385     2.415
  21   1 H      0.045  0.955  0.000  0.000     2.379     2.412
  22   1 H      0.069  0.931  0.000  0.000     2.094     2.263
  23   1 H      0.044  0.956  0.000  0.000     2.397     2.421
  24   1 H      0.035  0.965  0.000  0.000     2.513     2.479
  25   1 H      0.021  0.979  0.000  0.000     2.721     2.579
  26   1 H      0.029  0.971  0.000  0.000     2.607     2.525
  27   7 N     -0.398  1.314  4.084  0.000    30.318     8.178
  28   6 C      0.030  1.056  2.914  0.000    20.075     6.382
  29   6 C      0.266  1.049  2.685  0.000    22.513     7.770
  30   8 O     -0.475  1.731  4.744  0.000    23.245     6.464
  31   6 C     -0.121  1.044  3.078  0.000    22.872     6.818
  32   1 H      0.162  0.838  0.000  0.000     1.321     1.801
  33   1 H      0.038  0.962  0.000  0.000     2.472     2.459
  34   1 H      0.057  0.943  0.000  0.000     2.238     2.339
  35   1 H      0.048  0.952  0.000  0.000     2.350     2.397
  36   1 H      0.052  0.948  0.000  0.000     2.290     2.366
  37   7 N     -0.160  1.236  3.924  0.000    24.462     7.346
  38   6 C      0.009  1.064  2.927  0.000    20.436     6.438
  39   6 C      0.197  1.086  2.716  0.000    23.790     7.988
  40   8 O     -0.360  1.759  4.601  0.000    20.903     6.130
  41   6 C     -0.085  1.053  3.032  0.000    22.125     6.697
  42   6 C     -0.085  1.057  3.028  0.000    22.127     6.697
  43   6 C     -0.100  1.052  3.047  0.000    22.404     6.739
  44   6 C     -0.050  1.059  2.991  0.000    21.571     6.630
  45   7 N     -0.139  1.227  3.912  0.000    24.010     7.278
  46   1 H      0.206  0.794  0.000  0.000     1.077     1.626
  47   1 H      0.123  0.877  0.000  0.000     1.593     1.974
  48   1 H      0.056  0.944  0.000  0.000     2.245     2.343
  49   1 H      0.081  0.919  0.000  0.000     1.974     2.197
  50   1 H      0.062  0.938  0.000  0.000     2.172     2.305
  51   1 H      0.069  0.931  0.000  0.000     2.092     2.262
  52   1 H      0.083  0.917  0.000  0.000     1.945     2.181
  53   1 H      0.072  0.928  0.000  0.000     2.059     2.244
  54   1 H      0.111  0.889  0.000  0.000     1.692     2.034
  55   1 H      0.113  0.887  0.000  0.000     1.668     2.019
  56   1 H      0.294  0.706  0.000  0.000     0.731     1.339
  57   1 H      0.295  0.705  0.000  0.000     0.729     1.338
  58   1 H      0.295  0.705  0.000  0.000     0.727     1.336
  59   7 N     -0.397  1.312  4.085  0.000    30.300     8.175
  60   6 C      0.035  1.053  2.912  0.000    19.997     6.370
  61   6 C      0.191  1.093  2.716  0.000    23.910     8.008
  62   8 O     -0.372  1.759  4.612  0.000    21.122     6.162
  63   6 C     -0.070  1.056  3.014  0.000    21.835     6.652
  64   6 C     -0.113  1.062  3.050  0.000    22.646     6.774
  65   6 C      0.286  1.038  2.676  0.000    22.155     7.707
  66   8 O     -0.485  1.747  4.738  0.000    23.454     6.493
  67   7 N     -0.260  1.251  4.009  0.000    26.753     7.682
  68   1 H      0.172  0.828  0.000  0.000     1.262     1.760
  69   1 H      0.067  0.933  0.000  0.000     2.120     2.277
  70   1 H      0.072  0.928  0.000  0.000     2.060     2.245
  71   1 H      0.047  0.953  0.000  0.000     2.361     2.403
  72   1 H      0.089  0.911  0.000  0.000     1.893     2.151
  73   1 H      0.079  0.921  0.000  0.000     1.993     2.208
  74   1 H      0.206  0.794  0.000  0.000     1.074     1.624
  75   1 H      0.197  0.803  0.000  0.000     1.119     1.657
  76   7 N     -0.384  1.308  4.077  0.000    29.936     8.126
  77   6 C      0.048  1.053  2.899  0.000    19.789     6.337
  78   6 C      0.195  1.098  2.706  0.000    23.835     7.995
  79   8 O     -0.359  1.742  4.617  0.000    20.872     6.125
  80   6 C     -0.121  1.040  3.080  0.000    22.868     6.818
  81   1 H      0.158  0.842  0.000  0.000     1.346     1.818
  82   1 H      0.041  0.959  0.000  0.000     2.429     2.437
  83   1 H      0.051  0.949  0.000  0.000     2.303     2.373
  84   1 H      0.069  0.931  0.000  0.000     2.091     2.262
  85   1 H      0.064  0.936  0.000  0.000     2.151     2.293
  86   7 N     -0.388  1.309  4.079  0.000    30.041     8.140
  87   6 C      0.038  1.054  2.908  0.000    19.948     6.361
  88   6 C      0.265  1.051  2.683  0.000    22.524     7.772
  89   8 O     -0.505  1.744  4.761  0.000    23.898     6.554
  90   6 C     -0.079  1.055  3.024  0.000    22.001     6.676
  91   6 C      0.014  1.083  2.903  0.000    27.706     8.634
  92   6 C     -0.045  1.081  2.964  0.000    29.112     8.848
  93   6 C     -0.041  1.076  2.965  0.000    29.015     8.833
  94   6 C     -0.035  1.081  2.954  0.000    28.869     8.811
  95   6 C     -0.034  1.081  2.954  0.000    28.850     8.808
  96   6 C     -0.038  1.079  2.959  0.000    28.933     8.821
  97   1 H      0.154  0.846  0.000  0.000     1.371     1.834
  98   1 H      0.035  0.965  0.000  0.000     2.515     2.480
  99   1 H      0.079  0.921  0.000  0.000     1.990     2.206
 100   1 H      0.052  0.948  0.000  0.000     2.301     2.372
 101   1 H      0.041  0.959  0.000  0.000     2.433     2.439
 102   1 H      0.026  0.974  0.000  0.000     2.645     2.543
 103   1 H      0.041  0.959  0.000  0.000     2.442     2.444
 104   1 H      0.027  0.973  0.000  0.000     2.632     2.537
 105   1 H      0.031  0.969  0.000  0.000     2.576     2.510
 106   7 N     -0.164  1.245  3.919  0.000    24.544     7.358
 107   6 C      0.023  1.062  2.915  0.000    20.184     6.397
 108   6 C      0.200  1.086  2.714  0.000    23.745     7.980
 109   8 O     -0.346  1.754  4.592  0.000    20.634     6.090
 110   6 C      0.110  1.047  2.843  0.000    18.871     6.202
 111   8 O     -0.458  1.714  4.744  0.000    22.005     6.332
 112   6 C     -0.144  1.045  3.099  0.000    23.331     6.888
 113   1 H      0.243  0.757  0.000  0.000     0.912     1.496
 114   1 H      0.094  0.906  0.000  0.000     1.836     2.119
 115   1 H      0.034  0.966  0.000  0.000     2.527     2.486
 116   1 H      0.333  0.667  0.000  0.000     0.630     1.247
 117   1 H      0.069  0.931  0.000  0.000     2.102     2.267
 118   1 H      0.050  0.950  0.000  0.000     2.314     2.379
 119   1 H      0.074  0.926  0.000  0.000     2.041     2.234
 120   7 N     -0.407  1.317  4.090  0.000    30.570     8.212
 121   6 C      0.044  1.059  2.897  0.000    19.849     6.346
 122   6 C      0.206  1.094  2.700  0.000    23.629     7.961
 123   8 O     -0.399  1.760  4.639  0.000    21.668     6.241
 124   6 C     -0.024  1.068  2.956  0.000    20.961     6.512
 125   6 C     -0.060  1.049  3.011  0.000    21.650     6.624
 126   6 C     -0.115  1.039  3.076  0.000    22.755     6.802
 127   6 C     -0.113  1.038  3.075  0.000    22.715     6.797
 128   1 H      0.187  0.813  0.000  0.000     1.177     1.699
 129   1 H      0.032  0.968  0.000  0.000     2.562     2.503
 130   1 H      0.059  0.941  0.000  0.000     2.215     2.327
 131   1 H      0.029  0.971  0.000  0.000     2.600     2.522
 132   1 H      0.046  0.954  0.000  0.000     2.373     2.409
 133   1 H      0.061  0.939  0.000  0.000     2.188     2.313
 134   1 H      0.023  0.977  0.000  0.000     2.690     2.565
 135   1 H      0.042  0.958  0.000  0.000     2.416     2.431
 136   1 H      0.045  0.955  0.000  0.000     2.379     2.412
 137   1 H      0.040  0.960  0.000  0.000     2.444     2.445
 138   1 H      0.045  0.955  0.000  0.000     2.389     2.417
 139   7 N     -0.391  1.303  4.088  0.000    30.120     8.151
 140   6 C      0.009  1.067  2.924  0.000    20.440     6.440
 141   6 C      0.257  1.050  2.693  0.000    22.678     7.798
 142   8 O     -0.484  1.733  4.751  0.000    23.443     6.492
 143   6 C      0.121  1.043  2.836  0.000    18.711     6.177
 144   8 O     -0.471  1.723  4.748  0.000    22.270     6.370
 145   6 C     -0.126  1.042  3.083  0.000    22.970     6.834
 146   1 H      0.172  0.828  0.000  0.000     1.259     1.758
 147   1 H      0.050  0.950  0.000  0.000     2.321     2.382
 148   1 H      0.016  0.984  0.000  0.000     2.789     2.612
 149   1 H      0.321  0.679  0.000  0.000     0.662     1.278
 150   1 H      0.060  0.940  0.000  0.000     2.205     2.322
 151   1 H      0.054  0.946  0.000  0.000     2.267     2.354
 152   1 H      0.060  0.940  0.000  0.000     2.203     2.321
 153   7 N     -0.168  1.244  3.924  0.000    24.633     7.371
 154   6 C      0.010  1.067  2.922  0.000    20.402     6.431
 155   6 C      0.278  1.040  2.681  0.000    22.295     7.733
 156   8 O     -0.475  1.733  4.743  0.000    23.240     6.463
 157   6 C     -0.024  1.065  2.959  0.000    20.958     6.511
 158   6 C     -0.119  1.039  3.081  0.000    22.842     6.814
 159   6 C     -0.122  1.041  3.081  0.000    22.883     6.820
 160   1 H      0.216  0.784  0.000  0.000     1.029     1.589
 161   1 H      0.085  0.915  0.000  0.000     1.929     2.172
 162   1 H      0.052  0.948  0.000  0.000     2.293     2.368
 163   1 H      0.060  0.940  0.000  0.000     2.205     2.322
 164   1 H      0.042  0.958  0.000  0.000     2.424     2.435
 165   1 H      0.054  0.946  0.000  0.000     2.273     2.358
 166   1 H      0.056  0.944  0.000  0.000     2.244     2.343
 167   1 H      0.054  0.946  0.000  0.000     2.266     2.354
 168   1 H      0.045  0.955  0.000  0.000     2.378     2.412
 169   7 N     -0.172  1.240  3.932  0.000    24.733     7.386
 170   6 C      0.024  1.057  2.919  0.000    20.166     6.393
 171   6 C      0.276  1.040  2.684  0.000    22.333     7.739
 172   8 O     -0.478  1.741  4.738  0.000    23.309     6.473
 173   6 C     -0.121  1.066  3.055  0.000    22.814     6.799
 174   6 C      0.289  1.031  2.679  0.000    22.092     7.696
 175   8 O     -0.485  1.753  4.732  0.000    23.450     6.493
 176   7 N     -0.289  1.265  4.024  0.000    27.467     7.784
 177   1 H      0.218  0.782  0.000  0.000     1.021     1.583
 178   1 H      0.090  0.910  0.000  0.000     1.882     2.146
 179   1 H      0.091  0.909  0.000  0.000     1.865     2.136
 180   1 H      0.097  0.903  0.000  0.000     1.808     2.103
 181   1 H      0.235  0.765  0.000  0.000     0.946     1.523
 182   1 H      0.237  0.763  0.000  0.000     0.935     1.515
 183   7 N     -0.168  1.240  3.928  0.000    24.643     7.373
 184   6 C      0.022  1.062  2.916  0.000    20.208     6.401
 185   6 C      0.270  1.040  2.690  0.000    22.432     7.756
 186   8 O     -0.491  1.737  4.755  0.000    23.587     6.511
 187   6 C     -0.113  1.064  3.048  0.000    22.647     6.774
 188   6 C      0.291  1.033  2.676  0.000    22.069     7.692
 189   8 O     -0.488  1.758  4.730  0.000    23.518     6.502
 190   7 N     -0.278  1.261  4.017  0.000    27.185     7.744
 191   1 H      0.208  0.792  0.000  0.000     1.067     1.618
 192   1 H      0.085  0.915  0.000  0.000     1.932     2.174
 193   1 H      0.085  0.915  0.000  0.000     1.930     2.173
 194   1 H      0.090  0.910  0.000  0.000     1.876     2.142
 195   1 H      0.242  0.758  0.000  0.000     0.917     1.500
 196   1 H      0.215  0.785  0.000  0.000     1.035     1.593
 197   7 N     -0.179  1.250  3.929  0.000    24.886     7.409
 198   6 C      0.017  1.061  2.921  0.000    20.286     6.413
 199   6 C      0.272  1.043  2.685  0.000    22.409     7.752
 200   8 O     -0.487  1.733  4.753  0.000    23.488     6.498
 201   6 C     -0.081  1.061  3.020  0.000    22.045     6.683
 202   6 C     -0.015  1.057  2.958  0.000    20.805     6.488
 203   6 C     -0.110  1.040  3.070  0.000    22.655     6.786
 204   6 C     -0.119  1.041  3.078  0.000    22.842     6.814
 205   1 H      0.246  0.754  0.000  0.000     0.899     1.485
 206   1 H      0.077  0.923  0.000  0.000     2.009     2.217
 207   1 H      0.067  0.933  0.000  0.000     2.123     2.279
 208   1 H      0.064  0.936  0.000  0.000     2.151     2.293
 209   1 H      0.047  0.953  0.000  0.000     2.359     2.402
 210   1 H      0.039  0.961  0.000  0.000     2.457     2.451
 211   1 H      0.035  0.965  0.000  0.000     2.522     2.483
 212   1 H      0.041  0.959  0.000  0.000     2.434     2.440
 213   1 H      0.043  0.957  0.000  0.000     2.411     2.428
 214   1 H      0.043  0.957  0.000  0.000     2.405     2.425
 215   1 H      0.041  0.959  0.000  0.000     2.430     2.438
 216   7 N     -0.183  1.245  3.938  0.000    24.956     7.419
 217   6 C      0.000  1.070  2.930  0.000    20.576     6.458
 218   6 C      0.282  1.038  2.680  0.000    22.229     7.721
 219   8 O     -0.492  1.739  4.753  0.000    23.611     6.515
 220   6 C      0.108  1.047  2.845  0.000    18.905     6.209
 221   8 O     -0.479  1.722  4.757  0.000    22.453     6.397
 222   6 C     -0.148  1.046  3.101  0.000    23.411     6.900
 223   1 H      0.237  0.763  0.000  0.000     0.937     1.517
 224   1 H      0.080  0.920  0.000  0.000     1.980     2.200
 225   1 H      0.057  0.943  0.000  0.000     2.236     2.339
 226   1 H      0.325  0.675  0.000  0.000     0.650     1.267
 227   1 H      0.068  0.932  0.000  0.000     2.110     2.271
 228   1 H      0.064  0.936  0.000  0.000     2.152     2.294
 229   1 H      0.072  0.928  0.000  0.000     2.067     2.249
 230   7 N     -0.177  1.244  3.933  0.000    24.841     7.402
 231   6 C      0.014  1.062  2.923  0.000    20.335     6.421
 232   6 C      0.273  1.039  2.688  0.000    22.383     7.747
 233   8 O     -0.488  1.742  4.746  0.000    23.530     6.504
 234   6 C      0.065  1.041  2.894  0.000    19.700     6.358
 235   8 O     -0.477  1.712  4.765  0.000    22.392     6.388
 236   1 H      0.224  0.776  0.000  0.000     0.991     1.559
 237   1 H      0.077  0.923  0.000  0.000     2.014     2.219
 238   1 H      0.054  0.946  0.000  0.000     2.270     2.356
 239   1 H      0.052  0.948  0.000  0.000     2.295     2.369
 240   1 H      0.364  0.636  0.000  0.000     0.557     1.172
 241   7 N     -0.184  1.250  3.934  0.000    24.989     7.424
 242   6 C      0.021  1.059  2.920  0.000    20.223     6.404
 243   6 C      0.272  1.045  2.683  0.000    22.401     7.751
 244   8 O     -0.494  1.744  4.750  0.000    23.653     6.521
 245   6 C     -0.139  1.044  3.095  0.000    23.223     6.871
 246   1 H      0.236  0.764  0.000  0.000     0.942     1.520
 247   1 H      0.080  0.920  0.000  0.000     1.976     2.198
 248   1 H      0.074  0.926  0.000  0.000     2.043     2.235
 249   1 H      0.078  0.922  0.000  0.000     1.996     2.209
 250   1 H      0.070  0.930  0.000  0.000     2.081     2.256
 251   7 N     -0.186  1.251  3.935  0.000    25.030     7.430
 252   6 C      0.023  1.059  2.917  0.000    20.178     6.395
 253   6 C      0.281  1.042  2.676  0.000    22.235     7.721
 254   8 O     -0.510  1.741  4.769  0.000    23.997     6.568
 255   6 C     -0.081  1.054  3.027  0.000    22.049     6.685
 256   6 C     -0.079  1.051  3.028  0.000    22.004     6.679
 257   6 C     -0.036  1.055  2.980  0.000    21.289     6.583
 258   7 N     -0.140  1.208  3.932  0.000    24.040     7.282
 259   6 C      0.233  1.020  2.747  0.000    23.105     7.870
 260   7 N     -0.262  1.257  4.005  0.000    26.801     7.689
 261   7 N     -0.272  1.235  4.037  0.000    27.033     7.722
 262   1 H      0.243  0.757  0.000  0.000     0.913     1.497
 263   1 H      0.078  0.922  0.000  0.000     1.997     2.210
 264   1 H      0.069  0.931  0.000  0.000     2.093     2.263
 265   1 H      0.081  0.919  0.000  0.000     1.972     2.196
 266   1 H      0.070  0.930  0.000  0.000     2.087     2.259
 267   1 H      0.038  0.962  0.000  0.000     2.471     2.458
 268   1 H      0.092  0.908  0.000  0.000     1.862     2.134
 269   1 H      0.104  0.896  0.000  0.000     1.751     2.070
 270   1 H      0.223  0.777  0.000  0.000     0.995     1.563
 271   1 H      0.260  0.740  0.000  0.000     0.846     1.441
 272   1 H      0.215  0.785  0.000  0.000     1.033     1.592
 273   1 H      0.248  0.752  0.000  0.000     0.891     1.478
 274   1 H      0.241  0.759  0.000  0.000     0.919     1.502
 275   7 N     -0.191  1.251  3.940  0.000    25.151     7.448
 276   6 C      0.022  1.060  2.918  0.000    20.213     6.403
 277   6 C      0.278  1.039  2.683  0.000    22.288     7.731
 278   8 O     -0.501  1.746  4.755  0.000    23.809     6.542
 279   6 C      0.067  1.039  2.894  0.000    19.667     6.352
 280   8 O     -0.453  1.696  4.756  0.000    21.897     6.317
 281   1 H      0.238  0.762  0.000  0.000     0.933     1.513
 282   1 H      0.045  0.955  0.000  0.000     2.381     2.413
 283   1 H      0.046  0.954  0.000  0.000     2.377     2.411
 284   1 H      0.080  0.920  0.000  0.000     1.978     2.200
 285   1 H      0.331  0.669  0.000  0.000     0.635     1.252
 286   7 N     -0.184  1.245  3.939  0.000    24.990     7.424
 287   6 C      0.018  1.063  2.919  0.000    20.281     6.413
 288   6 C      0.275  1.043  2.681  0.000    22.343     7.740
 289   8 O     -0.497  1.748  4.750  0.000    23.728     6.531
 290   6 C     -0.080  1.057  3.023  0.000    22.022     6.681
 291   6 C     -0.086  1.054  3.032  0.000    22.150     6.701
 292   6 C     -0.031  1.056  2.975  0.000    21.207     6.572
 293   7 N     -0.141  1.210  3.931  0.000    24.053     7.284
 294   6 C      0.235  1.020  2.745  0.000    23.076     7.865
 295   7 N     -0.233  1.225  4.008  0.000    26.102     7.588
 296   7 N     -0.248  1.242  4.005  0.000    26.455     7.639
 297   1 H      0.223  0.777  0.000  0.000     0.994     1.562
 298   1 H      0.075  0.925  0.000  0.000     2.029     2.228
 299   1 H      0.079  0.921  0.000  0.000     1.990     2.206
 300   1 H      0.065  0.935  0.000  0.000     2.145     2.290
 301   1 H      0.083  0.917  0.000  0.000     1.953     2.185
 302   1 H      0.065  0.935  0.000  0.000     2.139     2.287
 303   1 H      0.093  0.907  0.000  0.000     1.847     2.125
 304   1 H      0.098  0.902  0.000  0.000     1.806     2.102
 305   1 H      0.213  0.787  0.000  0.000     1.040     1.597
 306   1 H      0.246  0.754  0.000  0.000     0.898     1.484
 307   1 H      0.249  0.751  0.000  0.000     0.889     1.477
 308   1 H      0.226  0.774  0.000  0.000     0.981     1.551
 309   1 H      0.239  0.761  0.000  0.000     0.926     1.507
 310   7 N     -0.186  1.248  3.938  0.000    25.032     7.431
 311   6 C      0.014  1.067  2.919  0.000    20.343     6.422
 312   6 C      0.277  1.047  2.677  0.000    22.316     7.736
 313   8 O     -0.488  1.741  4.747  0.000    23.516     6.502
 314   6 C     -0.025  1.067  2.958  0.000    20.983     6.515
 315   6 C     -0.068  1.051  3.017  0.000    21.796     6.647
 316   6 C     -0.135  1.042  3.093  0.000    23.151     6.860
 317   6 C     -0.112  1.038  3.074  0.000    22.701     6.795
 318   1 H      0.206  0.794  0.000  0.000     1.074     1.624
 319   1 H      0.081  0.919  0.000  0.000     1.970     2.195
 320   1 H      0.035  0.965  0.000  0.000     2.513     2.479
 321   1 H      0.047  0.953  0.000  0.000     2.362     2.404
 322   1 H      0.042  0.958  0.000  0.000     2.427     2.436
 323   1 H      0.079  0.921  0.000  0.000     1.994     2.208
 324   1 H      0.044  0.956  0.000  0.000     2.401     2.423
 325   1 H      0.061  0.939  0.000  0.000     2.190     2.314
 326   1 H      0.044  0.956  0.000  0.000     2.398     2.422
 327   1 H      0.031  0.969  0.000  0.000     2.575     2.509
 328   1 H      0.059  0.941  0.000  0.000     2.208     2.324
 329   7 N     -0.197  1.262  3.935  0.000    25.272     7.466
 330   6 C      0.034  1.059  2.907  0.000    20.005     6.368
 331   6 C      0.282  1.043  2.675  0.000    22.222     7.720
 332   8 O     -0.514  1.752  4.762  0.000    24.093     6.581
 333   6 C     -0.035  1.043  2.992  0.000    21.187     6.552
 334   6 C     -0.097  1.063  3.034  0.000    22.356     6.732
 335   6 C      0.365  1.026  2.609  0.000    20.806     7.465
 336   8 O     -0.624  1.775  4.850  0.000    26.726     6.931
 337   8 O     -0.595  1.748  4.846  0.000    25.994     6.836
 338   1 H      0.231  0.769  0.000  0.000     0.960     1.535
 339   1 H      0.052  0.948  0.000  0.000     2.294     2.369
 340   1 H      0.026  0.974  0.000  0.000     2.640     2.541
 341   1 H      0.023  0.977  0.000  0.000     2.682     2.561
 342   1 H      0.040  0.960  0.000  0.000     2.443     2.444
 343   1 H      0.052  0.948  0.000  0.000     2.294     2.369
 344   7 N     -0.199  1.260  3.939  0.000    25.318     7.473
 345   6 C      0.038  1.056  2.906  0.000    19.940     6.359
 346   6 C      0.280  1.050  2.670  0.000    22.262     7.727
 347   8 O     -0.474  1.750  4.723  0.000    23.206     6.459
 348   6 C     -0.107  1.071  3.035  0.000    22.529     6.757
 349   6 C      0.370  1.024  2.606  0.000    20.727     7.450
 350   8 O     -0.601  1.755  4.847  0.000    26.148     6.856
 351   8 O     -0.618  1.771  4.847  0.000    26.571     6.911
 352   1 H      0.223  0.777  0.000  0.000     0.997     1.564
 353   1 H      0.060  0.940  0.000  0.000     2.199     2.319
 354   1 H      0.035  0.965  0.000  0.000     2.517     2.481
 355   1 H      0.060  0.940  0.000  0.000     2.198     2.319
 356   7 N     -0.193  1.275  3.918  0.000    25.191     7.454
 357   6 C      0.027  1.060  2.913  0.000    20.126     6.389
 358   6 C      0.200  1.080  2.720  0.000    23.749     7.981
 359   8 O     -0.340  1.749  4.591  0.000    20.516     6.073
 360   6 C      0.077  1.041  2.882  0.000    19.512     6.329
 361   8 O     -0.457  1.708  4.749  0.000    21.996     6.331
 362   1 H      0.202  0.798  0.000  0.000     1.094     1.639
 363   1 H      0.058  0.942  0.000  0.000     2.222     2.331
 364   1 H      0.074  0.926  0.000  0.000     2.037     2.232
 365   1 H      0.063  0.937  0.000  0.000     2.161     2.299
 366   1 H      0.344  0.656  0.000  0.000     0.603     1.220
 367   1 H      0.184  0.816  0.000  0.000     1.191     1.710
 368   1 H      0.081  0.919  0.000  0.000     1.969     2.194
 369   1 H      0.177  0.823  0.000  0.000     1.230     1.737
 370   1 H      0.076  0.924  0.000  0.000     2.022     2.224
 371   1 H      0.185  0.815  0.000  0.000     1.184     1.705
 372   1 H      0.073  0.927  0.000  0.000     2.052     2.240
 373   1 H      0.175  0.825  0.000  0.000     1.244     1.747
 374   1 H      0.078  0.922  0.000  0.000     2.000     2.211
 375   1 H      0.175  0.825  0.000  0.000     1.243     1.746
 376   1 H      0.072  0.928  0.000  0.000     2.061     2.245
 377   1 H      0.171  0.829  0.000  0.000     1.269     1.765
 378   1 H      0.065  0.935  0.000  0.000     2.144     2.289
 379   1 H      0.186  0.814  0.000  0.000     1.179     1.701
 380   1 H      0.087  0.913  0.000  0.000     1.907     2.159

 Mol. C6AA /au·bohr⁶  :    1285583.989225
 Mol. C8AA /au·bohr⁸  :   28247438.611944
 Mol. α(0) /au        :       1690.932021

 
molecular dipole:
                 x           y           z       tot (Debye)
 q only:      211.862     109.088     252.656
   full:      212.013     109.221     252.228     882.331
molecular quadrupole (traceless):
                xx          xy          yy          xz          yz          zz
 q only:     7186.531   34772.699  -42185.528   80148.201   40447.242   34998.997
  q+dip:     7281.097   34845.613  -42119.472   80015.105   40437.550   34838.375
   full:     7279.465   34843.852  -42117.143   80015.703   40439.707   34837.678
speedup 12.60
cpu  time for grad   32.21 s
wall time for grad    2.56 s

SCC energy    :    -593.9121748
rep           :       6.9971509
ES            :       1.8291073
AES           :      -0.0860520
AXC           :       0.1812435
disp          :      -0.4766572
XB            :       0.0000000
fix           :       0.0000000
Gborn         :       0.0000000
Gsasa         :       0.0000000
Ghb           :       0.0000000
Gshift        :       0.0000000
Gsolv         :      -0.4234100     -265.69
Etot ala COSMO:    -593.9121748
grad norm     :       0.5870535
total E       :    -586.8774481
atomizationE  :     104.6803049    65687.88
(atE without considering molecular charge,
 total energy contains solvation terms)
H-L gap (eV)  :          1.3105

------------------------------------------------------------------------
 * finished run on 2019/02/13 at 00:17:42.717     
------------------------------------------------------------------------
 total:
 * wall-time:     0 d,  0 h,  0 min,  2.923 sec
 *  cpu-time:     0 d,  0 h,  0 min, 37.180 sec
 * ratio c/w:    12.721 speedup
 SCF:
 * wall-time:     0 d,  0 h,  0 min,  2.717 sec
 *  cpu-time:     0 d,  0 h,  0 min, 34.774 sec
 * ratio c/w:    12.801 speedup

