      -----------------------------------------------------------      
     |                   =====================                   |     
     |                           x T B                           |     
     |                   =====================                   |     
     |                         S. Grimme                         |     
     |          Mulliken Center for Theoretical Chemistry        |     
     |                    University of Bonn                     |     
     |                 Version 6.0.1 (SAW181210)                 |     
      -----------------------------------------------------------      

   This program is distributed in the hope that it will be useful,
   but WITHOUT ANY WARRANTY; without even the implied warranty of
   MERCHANTABILITY or FITNESS FOR A PARTICULAR PURPOSE.
   
   FOR NON-COMMERCIAL, ACADEMIA USE ONLY.
   
   Cite this work as:
   S. Grimme, C. Bannwarth, P. Shushkov, J. Comput. Theory Chem., 2017,
   13, 1989-2009.
   C. Bannwarth, S. Ehlert and S. Grimme., ChemRxiv, 2018, preprint.
   http://doi.org/10.26434/chemrxiv.7246238.v1
   
   for sTDA-xTB:
   S. Grimme and C. Bannwarth, J. Chem. Phys., 2016, 145, 054103.
   
   in the mass-spec context:
   V. Asgeirsson, C. Bauer and S. Grimme, Chem. Sci., 2017, 8, 4879.
   
   if GBSA is used:
   P. Shushkov, F. März and S. Grimme, unpublished.
   
   for ANC optimizer:
   S. Grimme, unpublished.
   Rational Function algorithm used in ANCopt:
   F. Eckert, P. Pulay, H.-J. Werner, J. Comput. Chem., 1997, 18, 1473.
   
   with help from (in alphabetical order)
   C. Bannwarth, F. Bohle, G. Brandenburg, E. Caldeweyher, M. Checinski,
   S. Dohm, S. Ehlert, S. Ehrlich, F. März, H. Neugebauer, J. Pisarek,
   P. Pracht, P. Shushkov, and S. Spicher.
   
 * started run on 2019/03/14 at 15:08:18.892     
========================================================================
 # omp threads = 1
========================================================================
number of atoms            : 474
number of electrons        : 1228
charge                     : 1
spin                       : .0
first test random number   : .1921
           ------------------------------------------------- 
          |                 G F N 2 - x T B                 |
          | Geometry, Frequencies, Noncovalent interactions |
          |            JCTC 2018 parametrisation            |
           ------------------------------------------------- 
 
      method parameters     
 k(s)        :  1.8500
 k(p)        :  2.2300
 k(d)        :  2.2300
 k(f)        :  2.0000
 kEN (H0ij)  : -2.0000
 D4 a1       :  0.5200
 D4 a2       :  5.0000
 D4 s6       :  1.0000
 D4 s8       :  2.7000
 D4 s9       :  5.0000
 alphaj      :  2.0000

 Solvent             : h2o
 Using internal parameter file: .param_gbsa2_h2o
 Gsolv ref. state (COSMO-RS): gsolv [1 M gas/solution]
 temperature (mdtemp)       :    298.150000000000     
 dielectric constant        :    80.2000000000000     
 rho                        :    1.00000000000000     
 mass                       :    18.0000000000000     
 surface tension            :    15.5689454083859     
 probe radius               :   0.975313790000000     
 vdW radii scaling          :    1.00000000000000     
 Gshift (Eh)                :   1.857443126794793E-003
 c1                         :    1.55243817000000     
 soset                      :   0.130326360000000     
 HB correction              :  T

            Z     q(EN)     CN     RAES       Cart. coordinates
     1  N   5.0   -0.20    3.20    1.95   112.52088    53.74948    71.60294
     2  C   4.0    0.04    4.28    4.15   110.66632    53.25208    69.65643
     3  C   4.0    0.08    3.19    3.04   110.14203    55.60846    68.07113
     4  O   6.0   -0.28    1.12    1.80   110.14614    55.39484    65.75662
     5  C   4.0    0.05    4.21    4.01   108.29426    51.95045    70.77789
     6  O   6.0   -0.26    2.13    1.84   108.99335    49.64195    71.89013
     7  C   4.0   -0.06    4.10    3.80   106.41412    51.34604    68.68269
     8  H   1.0    0.09    1.03    1.43   112.15963    53.07757    73.35717
     9  H   1.0    0.06    1.06    1.44   111.43947    51.88389    68.29783
    10  H   1.0    0.04    1.03    1.43   107.42440    53.21020    72.18239
    11  H   1.0    0.12    1.02    1.43   109.73031    49.91830    73.54358
    12  H   1.0    0.04    1.00    1.43   104.79243    50.38096    69.48905
    13  H   1.0    0.05    1.00    1.43   105.80686    53.05999    67.74204
    14  H   1.0    0.05    1.00    1.43   107.30334    50.09424    67.31734
    15  N   5.0   -0.21    3.24    1.96    73.30728    49.34392    67.49774
    16  C   4.0    0.03    4.31    4.21    74.46900    47.34741    66.05616
    17  C   4.0    0.08    3.21    3.04    72.78886    46.44187    63.89307
    18  O   6.0   -0.33    1.25    1.80    73.77291    45.78942    61.88492
    19  C   4.0   -0.04    4.12    3.84    75.10886    45.10232    67.73607
    20  S   6.0   -0.07    2.38    3.10    77.71900    45.87357    69.87114
    21  H   1.0    0.08    1.03    1.43    72.84691    48.96940    69.30898
    22  H   1.0    0.04    1.06    1.44    76.21397    48.08044    65.19270
    23  H   1.0    0.04    1.06    1.44    73.47677    44.54418    68.85245
    24  H   1.0    0.05    1.07    1.44    75.70354    43.52207    66.55972
    25  H   1.0    0.05    0.98    1.43    76.24975    46.70316    71.72425
    26  N   5.0   -0.20    3.26    1.97    72.40846    51.88924    59.19922
    27  C   4.0    0.03    4.34    4.27    74.92525    51.93744    58.13088
    28  C   4.0    0.16    3.52    3.13    75.25152    49.68406    56.38301
    29  O   6.0   -0.28    1.27    1.80    76.33906    49.86700    54.34366
    30  C   4.0   -0.04    4.36    4.30    76.85856    51.79939    60.27493
    31  C   4.0   -0.01    3.58    3.16    79.44999    50.94989    59.51068
    32  C   4.0   -0.04    3.47    3.10    80.81253    49.37176    61.10373
    33  C   4.0   -0.02    3.51    3.12    80.58994    51.81368    57.31752
    34  C   4.0   -0.04    3.39    3.08    83.30896    48.82033    60.59629
    35  C   4.0   -0.03    3.37    3.07    83.10808    51.30511    56.82067
    36  C   4.0   -0.04    3.40    3.08    84.48301    49.86201    58.49931
    37  H   1.0    0.09    1.03    1.43    72.33641    51.65195    61.10112
    38  H   1.0    0.05    1.05    1.44    75.17495    53.64486    56.98640
    39  H   1.0    0.04    1.03    1.43    76.98959    53.65829    61.17145
    40  H   1.0    0.05    1.04    1.43    76.14362    50.47876    61.67824
    41  H   1.0    0.05    1.03    1.43    79.92714    48.58562    62.76623
    42  H   1.0    0.07    1.03    1.43    79.49555    52.90404    55.99059
    43  H   1.0    0.06    1.04    1.43    84.34513    47.59566    61.84746
    44  H   1.0    0.06    1.03    1.43    83.98719    52.07033    55.15070
    45  H   1.0    0.05    1.03    1.43    86.47111    49.55894    58.17120
    46  N   5.0   -0.14    3.51    2.09    74.22947    47.52504    57.14884
    47  C   4.0    0.05    4.33    4.26    74.15655    45.44242    55.39765
    48  C   4.0    0.10    3.27    3.05    72.56011    46.19783    53.11848
    49  O   6.0   -0.26    1.12    1.80    73.01289    45.30832    51.02729
    50  C   4.0    0.04    4.15    3.90    73.07899    43.02192    56.56777
    51  O   6.0   -0.24    2.04    1.83    74.63836    41.94996    58.40791
    52  H   1.0    0.11    1.12    1.45    73.57909    47.26842    58.93461
    53  H   1.0    0.07    1.05    1.44    76.07435    45.04337    54.70305
    54  H   1.0    0.05    1.01    1.43    71.19231    43.45124    57.31380
    55  H   1.0    0.06    1.02    1.43    72.92399    41.63081    55.04968
    56  H   1.0    0.15    1.06    1.44    74.69261    43.08230    59.85409
    57  N   5.0   -0.21    3.19    1.95    85.40825    58.34970    86.19313
    58  C   4.0    0.03    4.30    4.20    85.86890    55.93384    87.39067
    59  C   4.0    0.08    3.20    3.04    88.08976    55.83456    89.23998
    60  O   6.0   -0.32    1.20    1.80    87.88851    54.33386    91.01217
    61  C   4.0   -0.02    4.32    4.23    86.00575    53.71865    85.49015
    62  C   4.0   -0.05    4.18    3.96    88.34311    53.76162    83.77900
    63  C   4.0   -0.08    4.13    3.85    83.60647    53.68434    83.88368
    64  C   4.0   -0.07    4.01    3.64    90.70856    52.62276    84.96037
    65  H   1.0    0.08    1.02    1.43    85.44462    58.44640    84.27892
    66  H   1.0    0.05    1.07    1.44    84.24425    55.52791    88.62543
    67  H   1.0    0.05    1.06    1.44    86.06782    51.99643    86.63637
    68  H   1.0    0.04    1.03    1.43    87.91032    52.64710    82.09628
    69  H   1.0    0.04    1.03    1.43    88.68748    55.69761    83.17410
    70  H   1.0    0.04    1.00    1.43    83.61263    52.02812    82.67013
    71  H   1.0    0.04    1.00    1.43    81.92216    53.61488    85.05085
    72  H   1.0    0.04    1.00    1.43    83.52219    55.36077    82.70090
    73  H   1.0    0.04    1.00    1.43    92.26182    52.66226    83.61613
    74  H   1.0    0.05    1.01    1.43    91.31750    53.63216    86.63149
    75  H   1.0    0.04    1.00    1.43    90.32495    50.67857    85.49666
    76  N   5.0   -0.20    3.20    1.96    87.34208    53.50465    96.20368
    77  C   4.0    0.03    4.19    3.97    88.47700    51.17470    97.12070
    78  C   4.0    0.09    3.20    3.04    90.37139    51.52810    99.27890
    79  O   6.0   -0.27    1.12    1.80    90.88204    49.80263   100.72377
    80  C   4.0    0.04    4.17    3.93    89.81246    49.87906    94.90209
    81  O   6.0   -0.24    2.05    1.83    91.96679    51.19545    94.06812
    82  H   1.0    0.12    1.08    1.44    87.61922    53.93676    94.34888
    83  H   1.0    0.05    1.05    1.44    87.02395    49.91980    97.90934
    84  H   1.0    0.05    1.01    1.43    90.45980    48.00366    95.47693
    85  H   1.0    0.05    1.01    1.43    88.44369    49.70835    93.34995
    86  H   1.0    0.13    1.03    1.43    91.69519    52.98963    94.30616
    87  N   5.0   -0.19    3.25    1.97    88.57450    41.89632   103.21562
    88  C   4.0    0.03    4.31    4.21    87.57050    39.68478   101.95535
    89  C   4.0    0.15    3.43    3.09    89.85850    38.23046   100.94439
    90  O   6.0   -0.29    1.26    1.80    91.96465    39.17026   100.79625
    91  C   4.0   -0.05    4.33    4.25    85.75567    40.43286    99.79456
    92  C   4.0   -0.03    4.16    3.93    84.03603    38.32836    98.78086
    93  C   4.0   -0.08    4.10    3.80    82.16448    37.38105   100.76144
    94  C   4.0   -0.08    4.11    3.81    82.59635    39.28228    96.46433
    95  H   1.0    0.11    1.05    1.44    90.30236    42.43216   102.59517
    96  H   1.0    0.04    1.05    1.44    86.52294    38.58057   103.35866
    97  H   1.0    0.04    1.03    1.43    84.57116    41.95055   100.53744
    98  H   1.0    0.05    1.03    1.43    86.89117    41.19945    98.24962
    99  H   1.0    0.04    1.06    1.44    85.20481    36.75084    98.13427
   100  H   1.0    0.04    1.00    1.43    81.01525    35.87330    99.97064
   101  H   1.0    0.04    1.00    1.43    83.10316    36.65526   102.43805
   102  H   1.0    0.04    1.00    1.43    80.92312    38.91234   101.34064
   103  H   1.0    0.04    1.00    1.43    81.38378    37.79298    95.73330
   104  H   1.0    0.04    1.00    1.43    81.41558    40.89619    96.93508
   105  H   1.0    0.04    1.00    1.43    83.91400    39.84782    94.99392
   106  N   5.0   -0.14    3.50    2.08    89.36749    35.85262   100.24840
   107  C   4.0    0.03    4.50    4.53    91.26462    34.15976    99.26305
   108  C   4.0    0.15    3.45    3.09    92.08364    34.92459    96.58685
   109  O   6.0   -0.30    1.23    1.80    90.60642    35.43317    94.89519
   110  C   4.0   -0.02    4.36    4.32    90.13131    31.48417    99.18255
   111  C   4.0   -0.05    4.20    4.00    89.25619    30.64860   101.81601
   112  C   4.0   -0.08    4.15    3.90    92.05900    29.63105    98.11675
   113  C   4.0   -0.08    4.01    3.64    87.61529    28.27911   101.75231
   114  H   1.0    0.07    1.08    1.44    87.55619    35.26541   100.22945
   115  H   1.0    0.05    1.05    1.44    92.90846    34.28461   100.51784
   116  H   1.0    0.05    1.05    1.44    88.49930    31.60437    97.90812
   117  H   1.0    0.04    1.03    1.43    90.91425    30.31708   102.99393
   118  H   1.0    0.04    1.03    1.43    88.16959    32.15043   102.71433
   119  H   1.0    0.04    1.01    1.43    91.23532    27.76588    98.06706
   120  H   1.0    0.04    1.01    1.43    92.56362    30.19878    96.21372
   121  H   1.0    0.04    1.00    1.43    93.72543    29.58365    99.31590
   122  H   1.0    0.05    1.00    1.43    86.73113    28.02636   103.58773
   123  H   1.0    0.04    1.00    1.43    86.13119    28.47058   100.34429
   124  H   1.0    0.04    1.00    1.43    88.73028    26.60368   101.37378
   125  N   5.0   -0.15    3.37    2.01    94.60366    34.70964    96.19260
   126  C   4.0    0.02    4.25    4.09    95.73057    35.57707    93.85330
   127  C   4.0    0.15    3.37    3.07    94.97039    34.01245    91.56449
   128  O   6.0   -0.32    1.35    1.80    94.73044    35.00162    89.47976
   129  H   1.0    0.08    1.07    1.44    95.74370    34.71333    97.72101
   130  H   1.0    0.06    1.02    1.43    95.19623    37.54067    93.45535
   131  H   1.0    0.04    1.03    1.43    97.78340    35.46904    94.02491
   132  N   5.0   -0.14    3.46    2.05    94.59697    31.53401    91.90273
   133  C   4.0    0.03    4.39    4.36    94.22266    29.90298    89.70731
   134  C   4.0    0.16    3.46    3.10    92.12063    30.93692    87.98730
   135  O   6.0   -0.31    1.25    1.80    92.36988    30.92827    85.69302
   136  C   4.0   -0.05    4.23    4.07    93.89147    27.12931    90.49817
   137  C   4.0   -0.05    4.17    3.94    91.39131    26.48432    91.79775
   138  C   4.0   -0.05    4.16    3.91    91.28885    23.70391    92.61588
   139  C   4.0   -0.04    4.10    3.80    92.59134    23.17379    95.14356
   140  N   5.0   -0.12    4.01    2.88    90.71707    23.03482    97.26199
   141  H   1.0    0.07    1.07    1.44    95.24166    30.71340    93.50629
   142  H   1.0    0.05    1.06    1.44    95.91915    30.00084    88.50922
   143  H   1.0    0.04    1.03    1.43    94.00661    25.99901    88.77718
   144  H   1.0    0.04    1.03    1.43    95.51441    26.63366    91.67196
   145  H   1.0    0.04    1.02    1.43    91.01360    27.73218    93.38707
   146  H   1.0    0.04    1.05    1.44    89.90992    26.78796    90.41598
   147  H   1.0    0.04    1.03    1.43    89.31888    23.11487    92.71416
   148  H   1.0    0.04    1.03    1.43    92.15451    22.57593    91.13043
   149  H   1.0    0.04    1.02    1.43    93.61717    21.39235    95.06991
   150  H   1.0    0.04    1.03    1.43    93.92236    24.68135    95.57978
   151  H   1.0    0.05    1.02    1.43    91.61058    23.28800    98.97678
   152  H   1.0    0.05    1.02    1.43    89.34870    24.40868    97.03845
   153  H   1.0    0.06    1.02    1.43    89.83064    21.29994    97.30895
   154  N   5.0   -0.14    3.52    2.09    90.01103    31.82489    89.09333
   155  C   4.0    0.04    4.45    4.46    87.92621    32.74875    87.55948
   156  C   4.0    0.16    3.43    3.09    88.62230    35.11032    86.03348
   157  O   6.0   -0.31    1.22    1.80    87.59741    35.62004    84.02117
   158  C   4.0   -0.04    4.32    4.23    85.63582    33.30632    89.24158
   159  C   4.0   -0.02    3.54    3.13    84.73674    31.06415    90.76785
   160  C   4.0   -0.05    3.46    3.10    82.97435    31.44004    92.69135
   161  C   4.0   -0.05    3.51    3.12    85.60480    28.62592    90.35495
   162  C   4.0   -0.04    3.43    3.09    82.21489    29.47977    94.23471
   163  C   4.0   -0.06    3.45    3.10    84.91180    26.65841    91.93618
   164  C   4.0    0.06    3.45    3.10    83.23520    27.07636    93.90764
   165  O   6.0   -0.25    2.11    1.84    82.57688    25.21136    95.54176
   166  H   1.0    0.09    1.06    1.44    89.86011    32.02523    90.98641
   167  H   1.0    0.06    1.05    1.44    87.44994    31.31853    86.13057
   168  H   1.0    0.05    1.03    1.43    86.12930    34.84459    90.53579
   169  H   1.0    0.05    1.03    1.43    84.10149    33.99923    88.04459
   170  H   1.0    0.05    1.03    1.43    82.15318    33.28863    92.96814
   171  H   1.0    0.05    1.04    1.43    86.81355    28.21548    88.76792
   172  H   1.0    0.06    1.03    1.43    80.82206    29.76578    95.69558
   173  H   1.0    0.04    1.03    1.43    85.62733    24.77942    91.58943
   174  H   1.0    0.11    1.04    1.43    83.16363    23.60114    94.90321
   175  N   5.0   -0.14    3.55    2.12    90.38475    36.58770    87.08263
   176  C   4.0    0.04    4.48    4.51    91.31230    38.84094    85.84877
   177  C   4.0    0.15    3.48    3.11    92.75245    38.16768    83.45049
   178  O   6.0   -0.33    1.36    1.80    92.49981    39.40100    81.48729
   179  C   4.0   -0.04    4.34    4.28    93.05258    40.30719    87.63322
   180  C   4.0   -0.03    4.06    3.74    91.71061    41.06769    90.06308
   181  S   6.0   -0.04    2.52    3.10    88.91137    43.00983    89.52103
   182  C   4.0   -0.07    3.88    3.44    90.40336    45.94438    88.57830
   183  H   1.0    0.11    1.12    1.45    91.44652    35.93626    88.53656
   184  H   1.0    0.05    1.07    1.44    89.69335    40.01611    85.29561
   185  H   1.0    0.06    1.03    1.43    94.66709    39.11821    88.11844
   186  H   1.0    0.04    1.03    1.43    93.75101    41.98069    86.65387
   187  H   1.0    0.06    1.07    1.44    91.01838    39.41805    91.08385
   188  H   1.0    0.05    1.07    1.44    92.97590    42.14886    91.27587
   189  H   1.0    0.04    1.05    1.44    88.89081    47.29473    88.27590
   190  H   1.0    0.05    1.04    1.43    91.63507    46.61018    90.08070
   191  H   1.0    0.04    1.04    1.43    91.44559    45.66712    86.83243
   192  N   5.0   -0.14    3.52    2.09    94.27296    36.17811    83.59865
   193  C   4.0    0.03    4.43    4.43    95.71777    35.34973    81.43033
   194  C   4.0    0.16    3.50    3.11    94.00889    34.99399    79.14134
   195  O   6.0   -0.33    1.32    1.80    94.83083    35.32135    76.99837
   196  C   4.0   -0.05    4.37    4.32    97.02741    32.81677    81.93198
   197  C   4.0   -0.02    4.18    3.95    98.87872    32.81238    84.16164
   198  C   4.0   -0.08    4.11    3.82   100.04407    30.17908    84.37875
   199  C   4.0   -0.07    4.11    3.83   100.96576    34.77378    83.87569
   200  H   1.0    0.10    1.08    1.44    94.45839    35.19970    85.23142
   201  H   1.0    0.05    1.06    1.44    97.10691    36.80944    80.91900
   202  H   1.0    0.06    1.03    1.43    95.56741    31.40293    82.29368
   203  H   1.0    0.04    1.03    1.43    98.03721    32.29025    80.21153
   204  H   1.0    0.05    1.05    1.44    97.82052    33.22034    85.89210
   205  H   1.0    0.04    1.00    1.43   101.30347    30.07769    85.99768
   206  H   1.0    0.04    1.00    1.43    98.57948    28.75220    84.56718
   207  H   1.0    0.04    1.00    1.43   101.14619    29.76212    82.69473
   208  H   1.0    0.04    1.00    1.43   102.21467    34.71532    85.50391
   209  H   1.0    0.04    1.00    1.43   102.08758    34.38709    82.20272
   210  H   1.0    0.04    1.00    1.43   100.21075    36.67428    83.71432
   211  N   5.0   -0.13    3.57    2.13    91.64923    34.20739    79.57048
   212  C   4.0    0.03    4.47    4.50    89.95147    33.66199    77.48362
   213  C   4.0    0.16    3.49    3.11    89.23618    36.11673    76.16149
   214  O   6.0   -0.31    1.30    1.80    89.20970    36.33951    73.85983
   215  C   4.0   -0.03    4.32    4.23    87.61264    32.21218    78.35128
   216  C   4.0   -0.01    3.56    3.14    88.26373    29.92086    79.92254
   217  C   4.0   -0.04    3.47    3.10    86.38596    28.88047    81.43876
   218  C   4.0   -0.03    3.51    3.12    90.65913    28.83922    79.96750
   219  C   4.0   -0.04    3.37    3.07    86.91471    26.89083    83.04760
   220  C   4.0   -0.03    3.38    3.07    91.19400    26.85879    81.59083
   221  C   4.0   -0.04    3.37    3.07    89.33678    25.90442    83.16030
   222  H   1.0    0.10    1.07    1.44    91.06376    33.72748    81.32174
   223  H   1.0    0.05    1.07    1.44    90.95943    32.52363    76.08162
   224  H   1.0    0.06    1.03    1.43    86.37847    33.44648    79.45866
   225  H   1.0    0.05    1.03    1.43    86.56187    31.65744    76.65850
   226  H   1.0    0.05    1.03    1.43    84.48926    29.63042    81.34070
   227  H   1.0    0.05    1.04    1.43    92.14404    29.51126    78.74110
   228  H   1.0    0.04    1.03    1.43    85.42126    26.12923    84.20861
   229  H   1.0    0.05    1.03    1.43    93.07789    26.07404    81.61860
   230  H   1.0    0.05    1.03    1.43    89.76543    24.37425    84.43543
   231  N   5.0   -0.14    3.54    2.10    88.64273    38.02656    77.70691
   232  C   4.0    0.04    4.49    4.52    88.15254    40.47470    76.59985
   233  C   4.0    0.17    3.51    3.12    90.42823    41.24161    74.99182
   234  O   6.0   -0.32    1.29    1.80    90.14789    42.08348    72.85494
   235  C   4.0    0.05    4.21    4.02    87.48856    42.52027    78.58126
   236  O   6.0   -0.26    2.12    1.84    89.59449    43.40360    79.92443
   237  C   4.0   -0.07    4.07    3.75    85.37101    41.59462    80.31958
   238  H   1.0    0.10    1.07    1.44    88.85022    37.85228    79.59565
   239  H   1.0    0.05    1.06    1.44    86.55737    40.29546    75.28174
   240  H   1.0    0.04    1.04    1.43    86.81981    44.16956    77.51803
   241  H   1.0    0.15    1.07    1.44    90.43124    42.00311    80.79001
   242  H   1.0    0.05    1.00    1.43    84.90371    43.07880    81.65879
   243  H   1.0    0.04    1.00    1.43    83.71360    41.16422    79.19189
   244  H   1.0    0.06    1.00    1.43    85.92476    39.92298    81.38190
   245  N   5.0   -0.13    3.50    2.08    92.69705    40.88079    76.04657
   246  C   4.0    0.03    4.41    4.40    94.95289    41.74096    74.74670
   247  C   4.0    0.16    3.51    3.12    95.25671    40.27970    72.26531
   248  O   6.0   -0.33    1.34    1.80    95.71110    41.41770    70.30056
   249  C   4.0   -0.04    4.30    4.19    97.31525    41.64453    76.44491
   250  C   4.0   -0.04    4.13    3.86    99.01775    39.41390    75.84212
   251  S   6.0   -0.05    2.47    3.10   101.44045    38.89299    78.23678
   252  C   4.0   -0.07    3.89    3.46   102.43997    35.81650    77.07746
   253  H   1.0    0.11    1.09    1.44    92.84311    40.38313    77.89073
   254  H   1.0    0.05    1.06    1.44    94.65609    43.70760    74.15367
   255  H   1.0    0.04    1.03    1.43    98.37206    43.39920    76.21425
   256  H   1.0    0.05    1.04    1.43    96.70389    41.52974    78.41340
   257  H   1.0    0.06    1.10    1.44    97.91487    37.68528    75.80449
   258  H   1.0    0.04    1.07    1.44    99.97648    39.68108    74.03676
   259  H   1.0    0.04    1.04    1.44   103.98596    35.19768    78.26847
   260  H   1.0    0.04    1.04    1.43   100.85821    34.51343    77.19971
   261  H   1.0    0.04    1.04    1.43   103.07354    35.99411    75.13312
   262  N   5.0   -0.14    3.53    2.10    95.01514    37.77079    72.31625
   263  C   4.0    0.03    4.54    4.59    95.51502    36.34661    70.03240
   264  C   4.0    0.16    3.52    3.12    93.57582    36.96522    68.01583
   265  O   6.0   -0.32    1.33    1.80    94.20066    37.03506    65.78333
   266  C   4.0   -0.02    4.33    4.25    95.62585    33.45692    70.40910
   267  C   4.0   -0.04    4.22    4.05    93.11299    32.49567    71.46506
   268  C   4.0   -0.08    4.11    3.82    97.86331    32.75961    72.07928
   269  C   4.0   -0.08    4.00    3.63    92.89199    29.63794    71.75186
   270  H   1.0    0.11    1.11    1.44    94.61479    36.83545    73.93889
   271  H   1.0    0.05    1.06    1.44    97.32434    36.99754    69.23518
   272  H   1.0    0.04    1.06    1.44    95.92270    32.64600    68.52749
   273  H   1.0    0.06    1.04    1.43    92.79338    33.41755    73.27026
   274  H   1.0    0.05    1.05    1.44    91.61000    33.09494    70.19520
   275  H   1.0    0.04    1.00    1.43    98.01948    30.72019    72.22403
   276  H   1.0    0.04    1.00    1.43    99.60507    33.48665    71.26806
   277  H   1.0    0.05    1.01    1.43    97.58835    33.55057    73.95103
   278  H   1.0    0.04    1.00    1.43    90.99135    29.17166    72.38560
   279  H   1.0    0.04    1.00    1.43    93.19145    28.74708    69.92809
   280  H   1.0    0.04    1.00    1.43    94.23415    28.85953    73.09593
   281  N   5.0   -0.14    3.53    2.10    91.20185    37.32769    68.77836
   282  C   4.0    0.04    4.45    4.46    89.30505    38.02743    66.92833
   283  C   4.0    0.16    3.57    3.15    89.97400    40.64541    65.93730
   284  O   6.0   -0.32    1.49    1.80    90.56137    40.87159    63.69253
   285  C   4.0   -0.03    4.31    4.22    86.67657    37.77696    68.08222
   286  C   4.0   -0.01    3.54    3.13    84.55336    39.25835    66.88822
   287  C   4.0   -0.04    3.48    3.11    82.30445    39.43274    68.24023
   288  C   4.0   -0.03    3.51    3.12    84.71591    40.48557    64.57372
   289  C   4.0   -0.04    3.43    3.09    80.35463    40.93673    67.38292
   290  C   4.0   -0.03    3.38    3.07    82.79426    42.06874    63.75520
   291  C   4.0   -0.04    3.39    3.08    80.63185    42.33640    65.18872
   292  H   1.0    0.11    1.09    1.44    90.72533    37.36041    70.63683
   293  H   1.0    0.06    1.06    1.44    89.52607    36.77283    65.28527
   294  H   1.0    0.05    1.03    1.43    86.21069    35.76560    68.07491
   295  H   1.0    0.06    1.04    1.43    86.79759    38.37594    70.05573
   296  H   1.0    0.05    1.03    1.43    82.06805    38.37507    69.97190
   297  H   1.0    0.07    1.05    1.44    86.33765    40.19278    63.38634
   298  H   1.0    0.05    1.05    1.44    78.64838    41.02698    68.48901
   299  H   1.0    0.05    1.03    1.43    82.95551    43.11933    62.01035
   300  H   1.0    0.05    1.03    1.43    79.18562    43.61933    64.54133
   301  N   5.0   -0.14    3.50    2.08    90.00508    42.57241    67.52227
   302  C   4.0    0.04    4.51    4.55    90.41826    45.11500    66.56852
   303  C   4.0    0.17    3.51    3.12    92.81486    45.19193    64.96243
   304  O   6.0   -0.32    1.32    1.80    92.88410    46.42721    63.00315
   305  C   4.0   -0.02    4.25    4.11    90.40311    47.01771    68.76992
   306  C   4.0   -0.07    4.14    3.88    92.82326    46.88245    70.32558
   307  C   4.0   -0.08    4.10    3.80    89.97999    49.70766    67.82383
   308  H   1.0    0.11    1.10    1.44    89.62793    42.36888    69.39049
   309  H   1.0    0.06    1.06    1.44    88.88243    45.56961    65.24246
   310  H   1.0    0.05    1.06    1.44    88.81975    46.47612    69.98943
   311  H   1.0    0.04    1.00    1.43    92.57682    47.92621    72.07743
   312  H   1.0    0.07    1.01    1.43    93.25938    44.93636    70.78267
   313  H   1.0    0.04    1.00    1.43    94.40788    47.68120    69.29186
   314  H   1.0    0.04    1.00    1.43    90.03970    51.02210    69.40309
   315  H   1.0    0.05    1.00    1.43    91.45415    50.23112    66.49196
   316  H   1.0    0.04    1.00    1.43    88.15705    49.89219    66.89639
   317  N   5.0   -0.14    3.54    2.10    94.79267    43.86127    65.79179
   318  C   4.0    0.04    4.53    4.58    97.08658    43.74453    64.32226
   319  C   4.0    0.16    3.53    3.13    96.63371    42.31593    61.88132
   320  O   6.0   -0.34    1.43    1.80    97.66923    43.08637    59.95310
   321  C   4.0   -0.02    4.35    4.29    99.32933    42.58971    65.75398
   322  C   4.0   -0.04    4.20    4.01   100.11007    44.32034    67.93421
   323  C   4.0   -0.07    4.16    3.91   101.56159    42.18276    63.97200
   324  C   4.0   -0.07    4.02    3.66   101.80902    42.95311    69.81014
   325  H   1.0    0.12    1.12    1.45    94.72073    42.82415    67.39715
   326  H   1.0    0.05    1.06    1.44    97.60617    45.66734    63.72659
   327  H   1.0    0.06    1.06    1.44    98.69763    40.77346    66.51193
   328  H   1.0    0.04    1.03    1.43   101.07405    45.97309    67.16427
   329  H   1.0    0.05    1.04    1.43    98.40878    44.94169    68.90925
   330  H   1.0    0.04    1.00    1.43   103.16010    41.40698    64.99526
   331  H   1.0    0.05    1.01    1.43   101.08416    40.89443    62.44845
   332  H   1.0    0.04    1.00    1.43   102.12531    43.97640    63.14055
   333  H   1.0    0.04    1.00    1.43   102.06905    44.08535    71.50183
   334  H   1.0    0.05    1.00    1.43   100.91730    41.17552    70.32742
   335  H   1.0    0.04    1.00    1.43   103.65354    42.54979    69.00700
   336  N   5.0   -0.13    3.53    2.10    95.18556    40.26789    61.90208
   337  C   4.0    0.04    4.42    4.41    94.66142    38.97469    59.55202
   338  C   4.0    0.17    3.53    3.13    93.13199    40.68152    57.81844
   339  O   6.0   -0.29    1.29    1.80    93.76003    40.97499    55.61081
   340  C   4.0    0.04    4.15    3.90    93.29795    36.44862    59.95174
   341  O   6.0   -0.25    2.06    1.83    90.72102    36.69789    60.49300
   342  H   1.0    0.13    1.12    1.45    94.49894    39.46583    63.50353
   343  H   1.0    0.05    1.06    1.44    96.45596    38.60697    58.58450
   344  H   1.0    0.05    1.02    1.43    93.40812    35.34649    58.20700
   345  H   1.0    0.05    1.01    1.43    94.28260    35.43158    61.47023
   346  H   1.0    0.15    1.08    1.44    90.53290    38.04771    61.73802
   347  N   5.0   -0.13    3.57    2.13    91.10205    41.80717    58.76194
   348  C   4.0    0.05    4.42    4.42    89.67610    43.51115    57.18807
   349  C   4.0    0.17    3.45    3.09    91.39519    45.61100    56.20338
   350  O   6.0   -0.27    1.22    1.80    91.07369    46.40767    54.04539
   351  C   4.0    0.03    4.15    3.91    87.37328    44.44406    58.67867
   352  O   6.0   -0.25    2.08    1.84    88.04384    45.68814    60.91426
   353  H   1.0    0.13    1.14    1.45    90.78464    41.84265    60.65123
   354  H   1.0    0.06    1.05    1.44    88.99057    42.52682    55.48997
   355  H   1.0    0.05    1.02    1.43    86.17526    45.61636    57.46260
   356  H   1.0    0.05    1.02    1.43    86.29573    42.77932    59.25271
   357  H   1.0    0.12    1.02    1.43    88.66732    47.37026    60.56969
   358  N   5.0   -0.13    3.51    2.08    93.20483    46.43566    57.73900
   359  C   4.0    0.04    4.48    4.50    95.11640    48.25590    57.01302
   360  C   4.0    0.16    3.53    3.13    96.93930    47.14315    55.08338
   361  O   6.0   -0.27    1.27    1.80    97.44878    48.42957    53.19895
   362  C   4.0   -0.02    4.34    4.28    96.52634    49.19932    59.38094
   363  C   4.0   -0.04    4.17    3.94    95.10746    51.34368    60.72394
   364  C   4.0   -0.07    4.16    3.92    99.24811    49.91957    58.77048
   365  C   4.0   -0.07    4.02    3.65    95.03242    53.84176    59.29850
   366  H   1.0    0.12    1.12    1.45    93.21858    45.97702    59.60554
   367  H   1.0    0.06    1.06    1.44    94.22908    49.85503    56.02752
   368  H   1.0    0.06    1.07    1.44    96.57779    47.61116    60.69644
   369  H   1.0    0.05    1.03    1.43    93.18668    50.71122    61.12486
   370  H   1.0    0.04    1.03    1.43    96.05401    51.65854    62.53054
   371  H   1.0    0.04    1.00    1.43   100.15709    50.68950    60.44100
   372  H   1.0    0.05    1.01    1.43   100.30288    48.26427    58.16516
   373  H   1.0    0.06    1.00    1.43    99.30570    51.31476    57.26731
   374  H   1.0    0.04    1.00    1.43    94.04338    55.25271    60.41623
   375  H   1.0    0.05    1.00    1.43    96.92978    54.53531    58.94866
   376  H   1.0    0.05    1.00    1.43    94.06535    53.67188    57.49591
   377  N   5.0   -0.14    3.49    2.07    97.95137    44.88478    55.41865
   378  C   4.0    0.04    4.47    4.50    99.66898    43.94794    53.50867
   379  C   4.0    0.10    3.33    3.06    98.20282    43.35419    51.11903
   380  O   6.0   -0.26    1.12    1.80    99.27145    43.41352    49.06159
   381  C   4.0   -0.02    4.33    4.26   101.15888    41.54116    54.19008
   382  C   4.0   -0.04    4.24    4.08    99.28226    39.35248    54.43271
   383  C   4.0   -0.07    4.11    3.81   102.79330    42.01246    56.50667
   384  C   4.0   -0.07    4.01    3.63   100.30945    36.85955    55.41810
   385  H   1.0    0.13    1.17    1.46    97.68005    43.91092    57.05750
   386  H   1.0    0.07    1.06    1.44   101.00074    45.46729    53.03369
   387  H   1.0    0.05    1.06    1.44   102.39387    41.16624    52.56932
   388  H   1.0    0.06    1.06    1.44    97.74207    39.95780    55.64149
   389  H   1.0    0.06    1.04    1.43    98.48651    39.00453    52.56282
   390  H   1.0    0.04    1.00    1.43   103.85345    40.32925    57.00418
   391  H   1.0    0.05    1.00    1.43   104.13847    43.51035    56.09719
   392  H   1.0    0.06    1.01    1.43   101.60703    42.57385    58.08108
   393  H   1.0    0.04    1.00    1.43    98.74521    35.53312    55.57251
   394  H   1.0    0.05    1.00    1.43   101.69207    36.10191    54.10626
   395  H   1.0    0.04    1.00    1.43   101.15865    37.06427    57.27377
   396  N   5.0   -0.21    3.22    1.96    84.09099    24.63680    59.28068
   397  C   4.0    0.03    4.30    4.20    85.18234    25.91776    61.44310
   398  C   4.0    0.08    3.24    3.04    83.07557    26.70128    63.25004
   399  O   6.0   -0.33    1.22    1.80    83.28304    26.41135    65.54760
   400  C   4.0   -0.02    4.33    4.25    86.71840    28.22023    60.55965
   401  C   4.0   -0.05    4.18    3.97    89.00040    27.46064    58.93573
   402  C   4.0   -0.07    4.13    3.86    87.54281    29.84241    62.79262
   403  C   4.0   -0.08    4.02    3.65    90.85948    25.64595    60.17091
   404  H   1.0    0.08    1.03    1.43    84.49447    25.33565    57.54225
   405  H   1.0    0.05    1.05    1.44    86.38560    24.59176    62.49651
   406  H   1.0    0.04    1.06    1.44    85.46172    29.34591    59.36138
   407  H   1.0    0.04    1.03    1.43    88.31910    26.60186    57.19690
   408  H   1.0    0.04    1.03    1.43    89.99543    29.19673    58.43384
   409  H   1.0    0.05    1.00    1.43    88.67594    31.41728    62.11620
   410  H   1.0    0.05    1.00    1.43    85.92382    30.59934    63.80353
   411  H   1.0    0.04    1.00    1.43    88.66071    28.73012    64.10411
   412  H   1.0    0.04    1.00    1.43    92.37590    25.24362    58.84629
   413  H   1.0    0.04    1.00    1.43    91.69055    26.44701    61.86743
   414  H   1.0    0.04    1.00    1.43    89.95038    23.86872    60.65029
   415  N   5.0   -0.21    3.22    1.96    81.79924    24.35719    70.07121
   416  C   4.0    0.03    4.18    3.96    81.73371    26.22406    72.07036
   417  C   4.0    0.08    3.20    3.04    79.21991    26.05646    73.48586
   418  O   6.0   -0.29    1.12    1.80    79.10999    26.28185    75.79218
   419  C   4.0    0.04    4.15    3.90    82.06315    28.89442    70.96880
   420  O   6.0   -0.26    2.04    1.83    84.44562    29.28048    69.89731
   421  H   1.0    0.12    1.07    1.44    81.72536    24.98703    68.25772
   422  H   1.0    0.05    1.05    1.44    83.24633    25.83516    73.43396
   423  H   1.0    0.05    1.01    1.43    80.54624    29.21188    69.58738
   424  H   1.0    0.05    1.02    1.43    81.87388    30.27577    72.49241
   425  H   1.0    0.14    1.06    1.44    84.58201    28.23067    68.39654
   426  N   5.0   -0.19    3.22    1.96    80.04911    20.18932    76.88360
   427  C   4.0    0.03    4.14    3.88    81.41044    20.75451    79.19155
   428  C   4.0    0.09    3.20    3.04    79.47532    21.70425    81.13059
   429  O   6.0   -0.32    1.17    1.80    79.27863    20.74257    83.22582
   430  C   4.0   -0.07    4.10    3.80    83.47133    22.67145    78.60463
   431  H   1.0    0.09    1.03    1.43    80.96118    20.58654    75.23530
   432  H   1.0    0.05    1.05    1.44    82.20098    18.98473    79.94818
   433  H   1.0    0.04    1.00    1.43    84.62236    23.03738    80.25977
   434  H   1.0    0.04    1.00    1.43    84.67685    21.96776    77.09489
   435  H   1.0    0.06    1.01    1.43    82.60495    24.42924    77.99429
   436  N   5.0   -0.20    3.25    1.97    77.38061    17.60151    87.23613
   437  C   4.0    0.03    4.33    4.26    77.50718    19.00683    89.56509
   438  C   4.0    0.09    3.21    3.04    74.84001    19.23056    90.67995
   439  O   6.0   -0.27    1.12    1.80    74.55648    19.02139    92.97914
   440  C   4.0   -0.02    4.33    4.26    78.94246    21.47631    89.07553
   441  C   4.0   -0.04    4.21    4.01    81.74816    20.78121    88.79286
   442  C   4.0   -0.06    4.12    3.83    78.44505    23.38960    91.16582
   443  C   4.0   -0.08    4.01    3.64    83.29799    22.77163    87.41148
   444  H   1.0    0.12    1.06    1.44    77.78944    18.55706    85.62167
   445  H   1.0    0.05    1.06    1.44    78.56239    17.89072    90.96951
   446  H   1.0    0.06    1.06    1.44    78.23853    22.25784    87.29905
   447  H   1.0    0.04    1.03    1.43    82.51069    20.41616    90.67239
   448  H   1.0    0.05    1.04    1.43    81.85242    19.03610    87.70221
   449  H   1.0    0.05    1.00    1.43    79.59697    25.06878    90.90617
   450  H   1.0    0.05    1.00    1.43    76.46635    23.96394    91.13144
   451  H   1.0    0.06    1.00    1.43    78.80715    22.57269    93.01564
   452  H   1.0    0.04    1.00    1.43    85.29443    22.29269    87.49805
   453  H   1.0    0.05    1.01    1.43    82.71587    22.80917    85.44578
   454  H   1.0    0.04    1.01    1.43    82.98726    24.63304    88.21213
   455  H   1.0    0.10    1.07    1.44   114.01109    53.06230    71.15618
   456  H   1.0    0.06    1.04    1.43   109.80845    57.26346    68.92013
   457  H   1.0    0.09    1.07    1.44    74.35894    50.67865    67.56903
   458  H   1.0    0.06    1.04    1.43    70.91309    46.38307    64.11456
   459  H   1.0    0.10    1.07    1.44    71.62096    53.35883    58.86351
   460  H   1.0    0.07    1.05    1.44    71.13697    47.42362    53.32625
   461  H   1.0    0.10    1.07    1.44    83.86225    58.91181    86.62498
   462  H   1.0    0.05    1.04    1.43    89.59230    56.94905    88.97285
   463  H   1.0    0.10    1.07    1.44    85.65543    53.43440    96.41064
   464  H   1.0    0.07    1.05    1.44    91.21920    53.19851    99.52790
   465  H   1.0    0.10    1.08    1.44    87.52585    43.21313   102.97290
   466  H   1.0    0.08    1.05    1.44    96.36766    42.91503    51.22099
   467  H   1.0    0.10    1.07    1.44    84.62257    23.02155    59.24986
   468  H   1.0    0.06    1.05    1.44    81.48643    27.46762    62.57298
   469  H   1.0    0.10    1.07    1.44    83.24358    23.46513    70.17459
   470  H   1.0    0.06    1.05    1.44    77.61644    25.75701    72.53177
   471  H   1.0    0.10    1.07    1.44    79.68912    18.52800    76.82915
   472  H   1.0    0.07    1.05    1.44    78.33240    23.14536    80.69697
   473  H   1.0    0.10    1.07    1.44    78.48216    16.30696    87.29362
   474  H   1.0    0.06    1.04    1.43    73.36349    19.54187    89.54239

  Z AO/shell   Hii/eV     exponent
  1     Wed Apr 25 08:07:45 CEST 2018   EN: 2.200 GM2: 0.406  GM3: 0.0800  RAES: 1.40
     1s    -10.707211    1.230000
  6     Wed Apr 25 08:07:45 CEST 2018   EN: 2.550 GM2: 0.538  GM3: 0.1500  RAES: 3.00
     2s    -13.970922    2.096432
     2p    -10.063292    1.800000
  7     Wed Apr 25 08:07:45 CEST 2018   EN: 3.040 GM2: 0.461  GM3:-0.0640  RAES: 1.90
     2s    -16.686243    2.339881
     2p    -12.523956    2.014332
  8     Wed Apr 25 08:07:45 CEST 2018   EN: 3.440 GM2: 0.452  GM3:-0.0517  RAES: 1.80
     2s    -20.229985    2.439742
     2p    -15.503117    2.137023
 16     Tue Apr 24 11:44:34 CEST 2018   EN: 2.580 GM2: 0.340  GM3:-0.0502  RAES: 3.10
     3s    -20.029654    1.981333
     3p    -11.377694    2.025643
     3d     -0.420282    1.702555
 no old-style atom pair restraining (fixing) potential

molecular fragmentation (1/2 indicates fragments):
111111111111112222222222222222222222222222222222222222222222222222222222
222222222222222222222222222222222222222222222222222222222222222222222222
222222222222222222222222222222222222222222222222222222222222222222222222
222222222222222222222222222222222222222222222222222222222222222222222222
222222222222222222222222222222222222222222222222222222222222222222222222
222222222222222222222222222222222222222222222222222222222222222222222222
222222222222222222222211222222222222222222
# atoms in fragment 1/2:    16   458
 fragment masses (1/2) :      103.12     3012.90
CMA distance (Bohr)    :  26.247
constraining FC (au)   :  0.0500
           ------------------------------------------------- 
          |        Self-Consistent Charge Iterations        |
           ------------------------------------------------- 

 Ncao       : 1140
 Nao        : 1137
 Nshell     : 693
 Nel        : 1228
 T(el)      :   500.0
 intcut     :    35.0
 scfconv/Eh :  0.100E-06
   qconv/e  :  0.100E-04
 intneglect :  0.100E-08
 broydamp   :      0.400
 iter      E             dE          RMSdq      gap      omega  full diag
   1   -696.2954547 -0.696295E+03  0.442E+00    2.82       0.0  T
   2   -697.7006005 -0.140515E+01  0.212E+00    1.50       1.0  T
   3   -697.7735173 -0.729168E-01  0.118E+00    1.68       1.0  T
   4   -697.8892473 -0.115730E+00  0.239E-01    1.04       1.0  T
   5   -697.8943528 -0.510550E-02  0.110E-01    1.22       1.0  T
   6   -697.8953546 -0.100173E-02  0.474E-02    1.18       1.0  T
   7   -697.8956286 -0.274060E-03  0.218E-02    1.16       1.0  T
   8   -697.8956648 -0.361229E-04  0.996E-03    1.15       1.0  T
   9   -697.8956745 -0.974025E-05  0.470E-03    1.15       1.0  T
  10   -697.8956764 -0.193598E-05  0.202E-03    1.15       2.3  T
  11   -697.8956767 -0.304231E-06  0.101E-03    1.15       4.6  T
  12   -697.8956768 -0.719899E-07  0.454E-04    1.15      10.1  T
  13   -697.8956768 -0.274305E-07  0.230E-04    1.15      20.0  T
  14   -697.8956768 -0.446369E-08  0.104E-04    1.15      44.3  T
  15   -697.8956768 -0.955765E-09  0.471E-05    1.15      97.6  T
  16   -697.8956768 -0.197360E-09  0.222E-05    1.15     206.7  T
speedup  1.00
cpu  time for SCC    9.84 s
wall time for SCC    9.84 s

   *** convergence criteria satisfied after 16 iterations ***

          eigenvalues
 #    :         602        603        604        605        606        607        608        609
 occ. :        2.000      2.000      2.000      2.000      2.000      2.000      2.000      2.000
 eps  :       -10.399    -10.264    -10.194    -10.141    -10.133    -10.104    -10.102     -9.987
 #    :         610        611        612        613        614        615        616        617
 occ. :        2.000      2.000      2.000      2.000      2.000      0.000      0.000      0.000
 eps  :        -9.945     -9.934     -9.909     -9.766     -9.651     -8.506     -8.050     -7.955
 #    :         618        619        620        621        622        623        624        625
 occ. :        0.000      0.000      0.000      0.000      0.000      0.000      0.000      0.000
 eps  :        -7.859     -7.857     -7.854     -7.764     -7.722     -7.557     -7.531     -6.927


   #   Z            q   n(s)   n(p)   n(d)      C6AA      α(0)
   1   7 N     -0.390  1.312  4.078  0.000    30.103     8.149
   2   6 C      0.023  1.063  2.914  0.000    20.200     6.402
   3   6 C      0.196  1.091  2.713  0.000    23.819     7.992
   4   8 O     -0.378  1.764  4.614  0.000    21.253     6.181
   5   6 C      0.121  1.047  2.832  0.000    18.712     6.177
   6   8 O     -0.469  1.722  4.747  0.000    22.228     6.365
   7   6 C     -0.124  1.041  3.083  0.000    22.941     6.830
   8   1 H      0.170  0.830  0.000  0.000     1.275     1.769
   9   1 H      0.052  0.948  0.000  0.000     2.290     2.367
  10   1 H      0.028  0.972  0.000  0.000     2.608     2.526
  11   1 H      0.334  0.666  0.000  0.000     0.626     1.243
  12   1 H      0.067  0.933  0.000  0.000     2.121     2.278
  13   1 H      0.041  0.959  0.000  0.000     2.430     2.438
  14   1 H      0.061  0.939  0.000  0.000     2.183     2.311
  15   7 N     -0.386  1.307  4.079  0.000    29.978     8.132
  16   6 C      0.046  1.051  2.903  0.000    19.796     6.332
  17   6 C      0.189  1.100  2.711  0.000    23.952     8.015
  18   8 O     -0.375  1.746  4.628  0.000    21.184     6.171
  19   6 C     -0.016  1.069  2.947  0.000    20.859     6.502
  20  16 S     -0.288  1.947  4.296  0.045   153.511    20.853
  21   1 H      0.176  0.824  0.000  0.000     1.237     1.742
  22   1 H      0.057  0.943  0.000  0.000     2.234     2.338
  23   1 H      0.076  0.924  0.000  0.000     2.018     2.221
  24   1 H      0.061  0.939  0.000  0.000     2.182     2.310
  25   1 H      0.200  0.800  0.000  0.000     1.101     1.641
  26   7 N     -0.397  1.323  4.074  0.000    30.300     8.175
  27   6 C      0.035  1.053  2.912  0.000    20.003     6.370
  28   6 C      0.275  1.044  2.681  0.000    22.359     7.744
  29   8 O     -0.523  1.763  4.760  0.000    24.290     6.608
  30   6 C     -0.076  1.057  3.019  0.000    21.936     6.666
  31   6 C      0.007  1.081  2.912  0.000    27.858     8.658
  32   6 C     -0.042  1.080  2.962  0.000    29.038     8.837
  33   6 C     -0.035  1.079  2.956  0.000    28.870     8.812
  34   6 C     -0.040  1.081  2.958  0.000    28.986     8.829
  35   6 C     -0.032  1.079  2.953  0.000    28.792     8.799
  36   6 C     -0.036  1.076  2.960  0.000    28.898     8.816
  37   1 H      0.167  0.833  0.000  0.000     1.292     1.781
  38   1 H      0.037  0.963  0.000  0.000     2.494     2.470
  39   1 H      0.064  0.936  0.000  0.000     2.148     2.292
  40   1 H      0.056  0.944  0.000  0.000     2.243     2.342
  41   1 H      0.042  0.958  0.000  0.000     2.426     2.436
  42   1 H      0.032  0.968  0.000  0.000     2.555     2.500
  43   1 H      0.056  0.944  0.000  0.000     2.250     2.346
  44   1 H      0.021  0.979  0.000  0.000     2.722     2.580
  45   1 H      0.015  0.985  0.000  0.000     2.803     2.618
  46   7 N     -0.178  1.242  3.936  0.000    24.848     7.403
  47   6 C      0.019  1.060  2.922  0.000    20.262     6.408
  48   6 C      0.203  1.087  2.710  0.000    23.676     7.969
  49   8 O     -0.373  1.758  4.614  0.000    21.141     6.165
  50   6 C      0.075  1.035  2.890  0.000    19.532     6.330
  51   8 O     -0.460  1.717  4.743  0.000    22.050     6.339
  52   1 H      0.241  0.759  0.000  0.000     0.920     1.503
  53   1 H      0.089  0.911  0.000  0.000     1.886     2.148
  54   1 H      0.053  0.947  0.000  0.000     2.285     2.364
  55   1 H      0.067  0.933  0.000  0.000     2.114     2.274
  56   1 H      0.342  0.658  0.000  0.000     0.607     1.223
  57   7 N     -0.390  1.309  4.081  0.000    30.090     8.147
  58   6 C      0.038  1.059  2.903  0.000    19.957     6.363
  59   6 C      0.198  1.093  2.708  0.000    23.776     7.985
  60   8 O     -0.386  1.748  4.638  0.000    21.409     6.203
  61   6 C     -0.016  1.068  2.948  0.000    20.829     6.491
  62   6 C     -0.069  1.050  3.018  0.000    21.815     6.650
  63   6 C     -0.115  1.041  3.074  0.000    22.758     6.802
  64   6 C     -0.109  1.036  3.073  0.000    22.652     6.787
  65   1 H      0.164  0.836  0.000  0.000     1.311     1.794
  66   1 H      0.053  0.947  0.000  0.000     2.279     2.361
  67   1 H      0.038  0.962  0.000  0.000     2.478     2.462
  68   1 H      0.051  0.949  0.000  0.000     2.308     2.376
  69   1 H      0.044  0.956  0.000  0.000     2.393     2.419
  70   1 H      0.051  0.949  0.000  0.000     2.311     2.377
  71   1 H      0.045  0.955  0.000  0.000     2.386     2.416
  72   1 H      0.046  0.954  0.000  0.000     2.376     2.411
  73   1 H      0.047  0.953  0.000  0.000     2.363     2.404
  74   1 H      0.033  0.967  0.000  0.000     2.550     2.497
  75   1 H      0.038  0.962  0.000  0.000     2.478     2.462
  76   7 N     -0.411  1.319  4.092  0.000    30.688     8.227
  77   6 C      0.028  1.058  2.915  0.000    20.132     6.392
  78   6 C      0.204  1.089  2.707  0.000    23.669     7.968
  79   8 O     -0.380  1.756  4.623  0.000    21.281     6.185
  80   6 C      0.085  1.038  2.877  0.000    19.363     6.302
  81   8 O     -0.478  1.718  4.760  0.000    22.422     6.392
  82   1 H      0.195  0.805  0.000  0.000     1.131     1.666
  83   1 H      0.057  0.943  0.000  0.000     2.230     2.335
  84   1 H      0.045  0.955  0.000  0.000     2.378     2.411
  85   1 H      0.049  0.951  0.000  0.000     2.332     2.388
  86   1 H      0.332  0.668  0.000  0.000     0.631     1.248
  87   7 N     -0.399  1.324  4.075  0.000    30.346     8.181
  88   6 C      0.026  1.061  2.913  0.000    20.150     6.394
  89   6 C      0.273  1.046  2.682  0.000    22.390     7.749
  90   8 O     -0.505  1.754  4.751  0.000    23.889     6.553
  91   6 C     -0.071  1.062  3.009  0.000    21.848     6.654
  92   6 C     -0.015  1.059  2.955  0.000    20.803     6.488
  93   6 C     -0.117  1.040  3.077  0.000    22.803     6.809
  94   6 C     -0.112  1.041  3.071  0.000    22.691     6.792
  95   1 H      0.160  0.840  0.000  0.000     1.332     1.808
  96   1 H      0.048  0.952  0.000  0.000     2.346     2.395
  97   1 H      0.040  0.960  0.000  0.000     2.448     2.447
  98   1 H      0.027  0.973  0.000  0.000     2.623     2.533
  99   1 H      0.039  0.961  0.000  0.000     2.458     2.452
 100   1 H      0.052  0.948  0.000  0.000     2.294     2.368
 101   1 H      0.037  0.963  0.000  0.000     2.488     2.467
 102   1 H      0.039  0.961  0.000  0.000     2.464     2.455
 103   1 H      0.047  0.953  0.000  0.000     2.360     2.403
 104   1 H      0.035  0.965  0.000  0.000     2.518     2.481
 105   1 H      0.037  0.963  0.000  0.000     2.483     2.464
 106   7 N     -0.179  1.243  3.936  0.000    24.876     7.408
 107   6 C      0.015  1.066  2.919  0.000    20.327     6.419
 108   6 C      0.275  1.048  2.677  0.000    22.354     7.742
 109   8 O     -0.466  1.745  4.721  0.000    23.047     6.436
 110   6 C     -0.034  1.069  2.965  0.000    21.141     6.539
 111   6 C     -0.071  1.050  3.020  0.000    21.850     6.655
 112   6 C     -0.147  1.044  3.103  0.000    23.394     6.896
 113   6 C     -0.125  1.040  3.085  0.000    22.963     6.834
 114   1 H      0.207  0.793  0.000  0.000     1.073     1.622
 115   1 H      0.064  0.936  0.000  0.000     2.158     2.297
 116   1 H      0.059  0.941  0.000  0.000     2.209     2.324
 117   1 H      0.053  0.947  0.000  0.000     2.289     2.366
 118   1 H      0.028  0.972  0.000  0.000     2.615     2.529
 119   1 H      0.089  0.911  0.000  0.000     1.893     2.152
 120   1 H      0.051  0.949  0.000  0.000     2.312     2.378
 121   1 H      0.068  0.932  0.000  0.000     2.109     2.271
 122   1 H      0.041  0.959  0.000  0.000     2.437     2.441
 123   1 H      0.053  0.947  0.000  0.000     2.278     2.361
 124   1 H      0.063  0.937  0.000  0.000     2.162     2.299
 125   7 N     -0.186  1.254  3.932  0.000    25.038     7.432
 126   6 C     -0.030  1.048  2.982  0.000    21.187     6.566
 127   6 C      0.275  1.042  2.684  0.000    22.355     7.742
 128   8 O     -0.497  1.745  4.752  0.000    23.718     6.530
 129   1 H      0.219  0.781  0.000  0.000     1.015     1.578
 130   1 H      0.073  0.927  0.000  0.000     2.050     2.239
 131   1 H      0.104  0.896  0.000  0.000     1.747     2.067
 132   7 N     -0.178  1.258  3.920  0.000    24.846     7.403
 133   6 C      0.009  1.068  2.923  0.000    20.433     6.437
 134   6 C      0.277  1.042  2.682  0.000    22.319     7.736
 135   8 O     -0.482  1.750  4.733  0.000    23.399     6.485
 136   6 C     -0.091  1.060  3.031  0.000    22.232     6.713
 137   6 C     -0.098  1.053  3.045  0.000    22.377     6.735
 138   6 C     -0.099  1.054  3.045  0.000    22.386     6.736
 139   6 C     -0.059  1.063  2.996  0.000    21.734     6.655
 140   7 N     -0.137  1.229  3.909  0.000    23.963     7.270
 141   1 H      0.234  0.766  0.000  0.000     0.948     1.526
 142   1 H      0.081  0.919  0.000  0.000     1.974     2.197
 143   1 H      0.074  0.926  0.000  0.000     2.037     2.232
 144   1 H      0.086  0.914  0.000  0.000     1.923     2.168
 145   1 H      0.070  0.930  0.000  0.000     2.085     2.258
 146   1 H      0.065  0.935  0.000  0.000     2.144     2.290
 147   1 H      0.088  0.912  0.000  0.000     1.900     2.156
 148   1 H      0.089  0.911  0.000  0.000     1.889     2.150
 149   1 H      0.125  0.875  0.000  0.000     1.573     1.962
 150   1 H      0.124  0.876  0.000  0.000     1.578     1.964
 151   1 H      0.291  0.709  0.000  0.000     0.741     1.348
 152   1 H      0.278  0.722  0.000  0.000     0.781     1.385
 153   1 H      0.300  0.700  0.000  0.000     0.713     1.323
 154   7 N     -0.177  1.240  3.937  0.000    24.823     7.400
 155   6 C      0.020  1.061  2.919  0.000    20.246     6.407
 156   6 C      0.272  1.045  2.683  0.000    22.400     7.750
 157   8 O     -0.503  1.748  4.754  0.000    23.840     6.546
 158   6 C     -0.073  1.052  3.021  0.000    21.890     6.660
 159   6 C     -0.001  1.078  2.923  0.000    28.046     8.687
 160   6 C     -0.039  1.081  2.957  0.000    28.961     8.825
 161   6 C     -0.049  1.079  2.969  0.000    29.206     8.863
 162   6 C     -0.059  1.074  2.984  0.000    29.457     8.900
 163   6 C     -0.084  1.079  3.005  0.000    30.109     8.998
 164   6 C      0.144  1.043  2.814  0.000    24.868     8.173
 165   8 O     -0.424  1.721  4.702  0.000    21.310     6.232
 166   1 H      0.213  0.787  0.000  0.000     1.040     1.598
 167   1 H      0.082  0.918  0.000  0.000     1.959     2.189
 168   1 H      0.060  0.940  0.000  0.000     2.196     2.317
 169   1 H      0.062  0.938  0.000  0.000     2.171     2.304
 170   1 H      0.030  0.970  0.000  0.000     2.585     2.514
 171   1 H      0.053  0.947  0.000  0.000     2.281     2.362
 172   1 H      0.044  0.956  0.000  0.000     2.401     2.423
 173   1 H      0.077  0.923  0.000  0.000     2.005     2.215
 174   1 H      0.346  0.654  0.000  0.000     0.598     1.215
 175   7 N     -0.187  1.250  3.937  0.000    25.052     7.434
 176   6 C      0.027  1.056  2.917  0.000    20.118     6.386
 177   6 C      0.268  1.046  2.686  0.000    22.476     7.764
 178   8 O     -0.510  1.740  4.771  0.000    24.013     6.570
 179   6 C     -0.074  1.053  3.020  0.000    21.884     6.656
 180   6 C     -0.013  1.064  2.949  0.000    20.811     6.496
 181  16 S     -0.221  1.917  4.256  0.048   150.476    20.646
 182   6 C     -0.053  1.051  3.002  0.000    21.597     6.629
 183   1 H      0.223  0.777  0.000  0.000     0.995     1.562
 184   1 H      0.080  0.920  0.000  0.000     1.976     2.198
 185   1 H      0.081  0.919  0.000  0.000     1.973     2.197
 186   1 H      0.058  0.942  0.000  0.000     2.222     2.331
 187   1 H      0.070  0.930  0.000  0.000     2.089     2.260
 188   1 H      0.054  0.946  0.000  0.000     2.270     2.356
 189   1 H      0.054  0.946  0.000  0.000     2.268     2.355
 190   1 H      0.054  0.946  0.000  0.000     2.273     2.358
 191   1 H      0.055  0.945  0.000  0.000     2.257     2.349
 192   7 N     -0.164  1.243  3.921  0.000    24.543     7.358
 193   6 C      0.022  1.060  2.918  0.000    20.205     6.400
 194   6 C      0.278  1.043  2.679  0.000    22.300     7.733
 195   8 O     -0.491  1.732  4.758  0.000    23.579     6.510
 196   6 C     -0.076  1.058  3.018  0.000    21.947     6.668
 197   6 C     -0.011  1.057  2.954  0.000    20.733     6.477
 198   6 C     -0.121  1.043  3.078  0.000    22.869     6.818
 199   6 C     -0.122  1.040  3.083  0.000    22.898     6.823
 200   1 H      0.230  0.770  0.000  0.000     0.964     1.538
 201   1 H      0.085  0.915  0.000  0.000     1.930     2.173
 202   1 H      0.070  0.930  0.000  0.000     2.084     2.258
 203   1 H      0.059  0.941  0.000  0.000     2.216     2.328
 204   1 H      0.038  0.962  0.000  0.000     2.472     2.459
 205   1 H      0.052  0.948  0.000  0.000     2.293     2.368
 206   1 H      0.050  0.950  0.000  0.000     2.326     2.385
 207   1 H      0.043  0.957  0.000  0.000     2.405     2.425
 208   1 H      0.046  0.954  0.000  0.000     2.365     2.405
 209   1 H      0.046  0.954  0.000  0.000     2.372     2.408
 210   1 H      0.037  0.963  0.000  0.000     2.482     2.464
 211   7 N     -0.171  1.240  3.932  0.000    24.709     7.383
 212   6 C      0.023  1.057  2.920  0.000    20.193     6.398
 213   6 C      0.272  1.042  2.686  0.000    22.404     7.752
 214   8 O     -0.484  1.741  4.743  0.000    23.437     6.491
 215   6 C     -0.078  1.053  3.025  0.000    21.975     6.673
 216   6 C      0.011  1.081  2.908  0.000    27.776     8.645
 217   6 C     -0.042  1.081  2.961  0.000    29.042     8.838
 218   6 C     -0.041  1.077  2.964  0.000    29.018     8.834
 219   6 C     -0.039  1.080  2.959  0.000    28.962     8.825
 220   6 C     -0.028  1.081  2.947  0.000    28.694     8.784
 221   6 C     -0.037  1.079  2.958  0.000    28.909     8.817
 222   1 H      0.209  0.791  0.000  0.000     1.062     1.614
 223   1 H      0.085  0.915  0.000  0.000     1.926     2.170
 224   1 H      0.066  0.934  0.000  0.000     2.129     2.282
 225   1 H      0.068  0.932  0.000  0.000     2.111     2.272
 226   1 H      0.033  0.967  0.000  0.000     2.539     2.492
 227   1 H      0.028  0.972  0.000  0.000     2.610     2.526
 228   1 H      0.052  0.948  0.000  0.000     2.298     2.371
 229   1 H      0.044  0.956  0.000  0.000     2.391     2.418
 230   1 H      0.054  0.946  0.000  0.000     2.267     2.354
 231   7 N     -0.176  1.242  3.934  0.000    24.816     7.399
 232   6 C      0.008  1.068  2.924  0.000    20.439     6.436
 233   6 C      0.281  1.041  2.678  0.000    22.247     7.724
 234   8 O     -0.492  1.735  4.757  0.000    23.605     6.514
 235   6 C      0.113  1.045  2.842  0.000    18.824     6.195
 236   8 O     -0.486  1.722  4.764  0.000    22.596     6.417
 237   6 C     -0.140  1.045  3.095  0.000    23.253     6.877
 238   1 H      0.214  0.786  0.000  0.000     1.039     1.597
 239   1 H      0.074  0.926  0.000  0.000     2.040     2.233
 240   1 H      0.052  0.948  0.000  0.000     2.300     2.372
 241   1 H      0.328  0.672  0.000  0.000     0.643     1.260
 242   1 H      0.071  0.929  0.000  0.000     2.074     2.252
 243   1 H      0.060  0.940  0.000  0.000     2.200     2.320
 244   1 H      0.060  0.940  0.000  0.000     2.204     2.321
 245   7 N     -0.186  1.254  3.932  0.000    25.037     7.431
 246   6 C      0.022  1.062  2.916  0.000    20.213     6.402
 247   6 C      0.276  1.043  2.681  0.000    22.335     7.739
 248   8 O     -0.490  1.737  4.753  0.000    23.565     6.508
 249   6 C     -0.070  1.054  3.017  0.000    21.826     6.648
 250   6 C     -0.020  1.067  2.953  0.000    20.931     6.515
 251  16 S     -0.217  1.918  4.252  0.048   150.310    20.635
 252   6 C     -0.061  1.056  3.005  0.000    21.752     6.653
 253   1 H      0.228  0.772  0.000  0.000     0.975     1.547
 254   1 H      0.075  0.925  0.000  0.000     2.032     2.229
 255   1 H      0.066  0.934  0.000  0.000     2.131     2.283
 256   1 H      0.071  0.929  0.000  0.000     2.078     2.254
 257   1 H      0.073  0.927  0.000  0.000     2.050     2.239
 258   1 H      0.033  0.967  0.000  0.000     2.539     2.492
 259   1 H      0.074  0.926  0.000  0.000     2.040     2.234
 260   1 H      0.063  0.937  0.000  0.000     2.169     2.303
 261   1 H      0.052  0.948  0.000  0.000     2.293     2.368
 262   7 N     -0.190  1.252  3.938  0.000    25.122     7.444
 263   6 C      0.026  1.062  2.912  0.000    20.125     6.386
 264   6 C      0.275  1.042  2.683  0.000    22.351     7.743
 265   8 O     -0.500  1.739  4.761  0.000    23.783     6.538
 266   6 C     -0.021  1.064  2.957  0.000    20.920     6.505
 267   6 C     -0.073  1.048  3.025  0.000    21.897     6.662
 268   6 C     -0.123  1.040  3.083  0.000    22.909     6.825
 269   6 C     -0.111  1.036  3.075  0.000    22.695     6.794
 270   1 H      0.237  0.763  0.000  0.000     0.935     1.515
 271   1 H      0.063  0.937  0.000  0.000     2.166     2.301
 272   1 H      0.045  0.955  0.000  0.000     2.377     2.411
 273   1 H      0.053  0.947  0.000  0.000     2.289     2.366
 274   1 H      0.036  0.964  0.000  0.000     2.509     2.477
 275   1 H      0.065  0.935  0.000  0.000     2.140     2.288
 276   1 H      0.041  0.959  0.000  0.000     2.437     2.441
 277   1 H      0.059  0.941  0.000  0.000     2.207     2.323
 278   1 H      0.048  0.952  0.000  0.000     2.349     2.397
 279   1 H      0.040  0.960  0.000  0.000     2.447     2.446
 280   1 H      0.049  0.951  0.000  0.000     2.335     2.390
 281   7 N     -0.182  1.252  3.930  0.000    24.943     7.418
 282   6 C      0.024  1.059  2.916  0.000    20.162     6.393
 283   6 C      0.278  1.041  2.681  0.000    22.294     7.733
 284   8 O     -0.506  1.738  4.767  0.000    23.908     6.556
 285   6 C     -0.085  1.055  3.030  0.000    22.112     6.693
 286   6 C      0.010  1.081  2.909  0.000    27.798     8.648
 287   6 C     -0.044  1.081  2.963  0.000    29.099     8.846
 288   6 C     -0.045  1.078  2.967  0.000    29.124     8.850
 289   6 C     -0.031  1.079  2.953  0.000    28.779     8.797
 290   6 C     -0.031  1.081  2.951  0.000    28.784     8.798
 291   6 C     -0.032  1.077  2.956  0.000    28.806     8.801
 292   1 H      0.228  0.772  0.000  0.000     0.972     1.544
 293   1 H      0.081  0.919  0.000  0.000     1.967     2.194
 294   1 H      0.082  0.918  0.000  0.000     1.955     2.187
 295   1 H      0.076  0.924  0.000  0.000     2.022     2.224
 296   1 H      0.045  0.955  0.000  0.000     2.386     2.415
 297   1 H      0.029  0.971  0.000  0.000     2.606     2.524
 298   1 H      0.049  0.951  0.000  0.000     2.333     2.389
 299   1 H      0.032  0.968  0.000  0.000     2.559     2.502
 300   1 H      0.034  0.966  0.000  0.000     2.533     2.489
 301   7 N     -0.172  1.251  3.921  0.000    24.729     7.386
 302   6 C      0.014  1.067  2.918  0.000    20.331     6.419
 303   6 C      0.286  1.039  2.674  0.000    22.147     7.707
 304   8 O     -0.499  1.740  4.759  0.000    23.753     6.534
 305   6 C     -0.019  1.063  2.956  0.000    20.882     6.500
 306   6 C     -0.125  1.040  3.085  0.000    22.944     6.830
 307   6 C     -0.121  1.040  3.080  0.000    22.866     6.818
 308   1 H      0.241  0.759  0.000  0.000     0.919     1.502
 309   1 H      0.086  0.914  0.000  0.000     1.920     2.167
 310   1 H      0.059  0.941  0.000  0.000     2.213     2.326
 311   1 H      0.053  0.947  0.000  0.000     2.280     2.361
 312   1 H      0.058  0.942  0.000  0.000     2.220     2.330
 313   1 H      0.039  0.961  0.000  0.000     2.462     2.454
 314   1 H      0.062  0.938  0.000  0.000     2.180     2.309
 315   1 H      0.043  0.957  0.000  0.000     2.412     2.429
 316   1 H      0.048  0.952  0.000  0.000     2.351     2.398
 317   7 N     -0.190  1.248  3.942  0.000    25.126     7.445
 318   6 C      0.027  1.059  2.914  0.000    20.119     6.385
 319   6 C      0.276  1.042  2.682  0.000    22.330     7.739
 320   8 O     -0.498  1.732  4.766  0.000    23.729     6.531
 321   6 C     -0.018  1.064  2.954  0.000    20.862     6.496
 322   6 C     -0.065  1.050  3.015  0.000    21.748     6.639
 323   6 C     -0.117  1.039  3.078  0.000    22.786     6.806
 324   6 C     -0.104  1.036  3.067  0.000    22.538     6.770
 325   1 H      0.232  0.768  0.000  0.000     0.957     1.533
 326   1 H      0.066  0.934  0.000  0.000     2.131     2.283
 327   1 H      0.045  0.955  0.000  0.000     2.388     2.416
 328   1 H      0.041  0.959  0.000  0.000     2.429     2.437
 329   1 H      0.050  0.950  0.000  0.000     2.321     2.382
 330   1 H      0.063  0.937  0.000  0.000     2.168     2.302
 331   1 H      0.034  0.966  0.000  0.000     2.526     2.486
 332   1 H      0.048  0.952  0.000  0.000     2.351     2.398
 333   1 H      0.047  0.953  0.000  0.000     2.363     2.404
 334   1 H      0.031  0.969  0.000  0.000     2.570     2.507
 335   1 H      0.046  0.954  0.000  0.000     2.376     2.410
 336   7 N     -0.188  1.251  3.936  0.000    25.066     7.436
 337   6 C      0.013  1.061  2.926  0.000    20.350     6.422
 338   6 C      0.283  1.035  2.681  0.000    22.201     7.717
 339   8 O     -0.514  1.755  4.759  0.000    24.101     6.582
 340   6 C      0.071  1.037  2.891  0.000    19.598     6.342
 341   8 O     -0.481  1.715  4.766  0.000    22.492     6.402
 342   1 H      0.241  0.759  0.000  0.000     0.921     1.503
 343   1 H      0.075  0.925  0.000  0.000     2.031     2.229
 344   1 H      0.054  0.946  0.000  0.000     2.270     2.356
 345   1 H      0.062  0.938  0.000  0.000     2.178     2.308
 346   1 H      0.327  0.673  0.000  0.000     0.645     1.262
 347   7 N     -0.196  1.254  3.942  0.000    25.250     7.463
 348   6 C      0.019  1.061  2.920  0.000    20.247     6.406
 349   6 C      0.283  1.037  2.680  0.000    22.211     7.717
 350   8 O     -0.530  1.760  4.770  0.000    24.461     6.631
 351   6 C      0.069  1.036  2.895  0.000    19.631     6.346
 352   8 O     -0.433  1.694  4.739  0.000    21.498     6.259
 353   1 H      0.251  0.749  0.000  0.000     0.879     1.469
 354   1 H      0.063  0.937  0.000  0.000     2.162     2.299
 355   1 H      0.042  0.958  0.000  0.000     2.425     2.435
 356   1 H      0.075  0.925  0.000  0.000     2.035     2.231
 357   1 H      0.309  0.691  0.000  0.000     0.695     1.310
 358   7 N     -0.197  1.255  3.942  0.000    25.286     7.468
 359   6 C      0.033  1.061  2.906  0.000    20.021     6.372
 360   6 C      0.281  1.043  2.676  0.000    22.237     7.723
 361   8 O     -0.545  1.760  4.785  0.000    24.795     6.676
 362   6 C     -0.023  1.066  2.957  0.000    20.946     6.509
 363   6 C     -0.062  1.051  3.011  0.000    21.689     6.631
 364   6 C     -0.114  1.037  3.077  0.000    22.745     6.800
 365   6 C     -0.111  1.035  3.076  0.000    22.682     6.792
 366   1 H      0.232  0.768  0.000  0.000     0.956     1.532
 367   1 H      0.055  0.945  0.000  0.000     2.258     2.350
 368   1 H      0.056  0.944  0.000  0.000     2.252     2.347
 369   1 H      0.042  0.958  0.000  0.000     2.418     2.432
 370   1 H      0.049  0.951  0.000  0.000     2.331     2.387
 371   1 H      0.061  0.939  0.000  0.000     2.192     2.315
 372   1 H      0.036  0.964  0.000  0.000     2.506     2.475
 373   1 H      0.041  0.959  0.000  0.000     2.437     2.441
 374   1 H      0.049  0.951  0.000  0.000     2.330     2.387
 375   1 H      0.046  0.954  0.000  0.000     2.376     2.410
 376   1 H      0.024  0.976  0.000  0.000     2.671     2.556
 377   7 N     -0.197  1.256  3.940  0.000    25.271     7.466
 378   6 C      0.038  1.057  2.905  0.000    19.934     6.355
 379   6 C      0.217  1.084  2.699  0.000    23.415     7.925
 380   8 O     -0.388  1.750  4.638  0.000    21.438     6.208
 381   6 C     -0.015  1.065  2.949  0.000    20.803     6.487
 382   6 C     -0.069  1.048  3.021  0.000    21.809     6.648
 383   6 C     -0.125  1.039  3.086  0.000    22.959     6.832
 384   6 C     -0.112  1.037  3.076  0.000    22.714     6.797
 385   1 H      0.253  0.747  0.000  0.000     0.873     1.464
 386   1 H      0.077  0.923  0.000  0.000     2.007     2.215
 387   1 H      0.049  0.951  0.000  0.000     2.331     2.388
 388   1 H      0.056  0.944  0.000  0.000     2.241     2.341
 389   1 H      0.022  0.978  0.000  0.000     2.700     2.569
 390   1 H      0.067  0.933  0.000  0.000     2.116     2.275
 391   1 H      0.047  0.953  0.000  0.000     2.356     2.400
 392   1 H      0.062  0.938  0.000  0.000     2.180     2.309
 393   1 H      0.041  0.959  0.000  0.000     2.441     2.443
 394   1 H      0.049  0.951  0.000  0.000     2.333     2.389
 395   1 H      0.050  0.950  0.000  0.000     2.316     2.380
 396   7 N     -0.390  1.313  4.077  0.000    30.083     8.146
 397   6 C      0.038  1.058  2.904  0.000    19.959     6.364
 398   6 C      0.200  1.099  2.701  0.000    23.739     7.979
 399   8 O     -0.380  1.739  4.641  0.000    21.289     6.186
 400   6 C     -0.019  1.067  2.952  0.000    20.882     6.499
 401   6 C     -0.059  1.049  3.011  0.000    21.638     6.622
 402   6 C     -0.116  1.038  3.078  0.000    22.766     6.803
 403   6 C     -0.111  1.035  3.076  0.000    22.684     6.792
 404   1 H      0.162  0.838  0.000  0.000     1.320     1.800
 405   1 H      0.058  0.942  0.000  0.000     2.221     2.331
 406   1 H      0.040  0.960  0.000  0.000     2.446     2.446
 407   1 H      0.035  0.965  0.000  0.000     2.518     2.481
 408   1 H      0.041  0.959  0.000  0.000     2.438     2.442
 409   1 H      0.048  0.952  0.000  0.000     2.351     2.398
 410   1 H      0.034  0.966  0.000  0.000     2.531     2.488
 411   1 H      0.053  0.947  0.000  0.000     2.279     2.361
 412   1 H      0.040  0.960  0.000  0.000     2.445     2.445
 413   1 H      0.045  0.955  0.000  0.000     2.382     2.413
 414   1 H      0.041  0.959  0.000  0.000     2.437     2.441
 415   7 N     -0.402  1.316  4.086  0.000    30.428     8.193
 416   6 C      0.026  1.060  2.913  0.000    20.149     6.395
 417   6 C      0.191  1.095  2.713  0.000    23.911     8.008
 418   8 O     -0.364  1.751  4.613  0.000    20.967     6.139
 419   6 C      0.081  1.035  2.884  0.000    19.447     6.317
 420   8 O     -0.461  1.713  4.748  0.000    22.068     6.342
 421   1 H      0.185  0.815  0.000  0.000     1.183     1.704
 422   1 H      0.064  0.936  0.000  0.000     2.152     2.294
 423   1 H      0.029  0.971  0.000  0.000     2.596     2.520
 424   1 H      0.044  0.956  0.000  0.000     2.391     2.418
 425   1 H      0.328  0.672  0.000  0.000     0.644     1.260
 426   7 N     -0.389  1.317  4.072  0.000    30.061     8.143
 427   6 C      0.048  1.053  2.899  0.000    19.789     6.337
 428   6 C      0.201  1.096  2.703  0.000    23.720     7.976
 429   8 O     -0.363  1.742  4.622  0.000    20.962     6.138
 430   6 C     -0.121  1.041  3.080  0.000    22.865     6.818
 431   1 H      0.159  0.841  0.000  0.000     1.340     1.813
 432   1 H      0.040  0.960  0.000  0.000     2.453     2.449
 433   1 H      0.060  0.940  0.000  0.000     2.202     2.321
 434   1 H      0.057  0.943  0.000  0.000     2.238     2.339
 435   1 H      0.065  0.935  0.000  0.000     2.136     2.286
 436   7 N     -0.410  1.322  4.087  0.000    30.643     8.221
 437   6 C      0.038  1.061  2.901  0.000    19.954     6.362
 438   6 C      0.202  1.093  2.705  0.000    23.710     7.974
 439   8 O     -0.391  1.761  4.631  0.000    21.512     6.218
 440   6 C     -0.023  1.068  2.954  0.000    20.941     6.508
 441   6 C     -0.063  1.053  3.010  0.000    21.697     6.631
 442   6 C     -0.112  1.038  3.074  0.000    22.691     6.792
 443   6 C     -0.115  1.036  3.078  0.000    22.755     6.803
 444   1 H      0.185  0.815  0.000  0.000     1.186     1.706
 445   1 H      0.051  0.949  0.000  0.000     2.308     2.376
 446   1 H      0.049  0.951  0.000  0.000     2.331     2.387
 447   1 H      0.045  0.955  0.000  0.000     2.380     2.412
 448   1 H      0.039  0.961  0.000  0.000     2.464     2.455
 449   1 H      0.054  0.946  0.000  0.000     2.265     2.354
 450   1 H      0.015  0.985  0.000  0.000     2.804     2.619
 451   1 H      0.050  0.950  0.000  0.000     2.315     2.379
 452   1 H      0.055  0.945  0.000  0.000     2.256     2.349
 453   1 H      0.028  0.972  0.000  0.000     2.622     2.532
 454   1 H      0.051  0.949  0.000  0.000     2.312     2.378
 455   1 H      0.188  0.812  0.000  0.000     1.166     1.692
 456   1 H      0.079  0.921  0.000  0.000     1.990     2.206
 457   1 H      0.190  0.810  0.000  0.000     1.161     1.688
 458   1 H      0.096  0.904  0.000  0.000     1.818     2.108
 459   1 H      0.188  0.812  0.000  0.000     1.167     1.692
 460   1 H      0.081  0.919  0.000  0.000     1.967     2.193
 461   1 H      0.182  0.818  0.000  0.000     1.200     1.716
 462   1 H      0.073  0.927  0.000  0.000     2.050     2.239
 463   1 H      0.182  0.818  0.000  0.000     1.201     1.717
 464   1 H      0.076  0.924  0.000  0.000     2.021     2.223
 465   1 H      0.174  0.826  0.000  0.000     1.250     1.751
 466   1 H      0.056  0.944  0.000  0.000     2.248     2.344
 467   1 H      0.185  0.815  0.000  0.000     1.186     1.706
 468   1 H      0.075  0.925  0.000  0.000     2.036     2.231
 469   1 H      0.183  0.817  0.000  0.000     1.197     1.714
 470   1 H      0.076  0.924  0.000  0.000     2.018     2.221
 471   1 H      0.179  0.821  0.000  0.000     1.221     1.731
 472   1 H      0.072  0.928  0.000  0.000     2.066     2.248
 473   1 H      0.178  0.822  0.000  0.000     1.228     1.736
 474   1 H      0.061  0.939  0.000  0.000     2.184     2.311

 Mol. C6AA /au·bohr⁶  :    2025151.161471
 Mol. C8AA /au·bohr⁸  :   45851284.473298
 Mol. α(0) /au        :       2143.889459

 
molecular dipole:
                 x           y           z       tot (Debye)
 q only:       89.384      12.474     123.055
   full:       89.169      13.540     123.975     389.686
molecular quadrupole (traceless):
                xx          xy          yy          xz          yz          zz
 q only:     1758.811    1398.380  -10615.379   16784.498    3863.440    8856.569
  q+dip:     1619.222    1483.198  -10562.710   16897.639    4075.442    8943.488
   full:     1617.634    1486.539  -10554.890   16902.532    4082.462    8937.256
speedup  1.00
cpu  time for grad   12.19 s
wall time for grad   12.19 s

SCC energy    :    -697.9253697
rep           :       8.8166521
ES            :       1.6607235
AES           :      -0.0341290
AXC           :       0.2665207
disp          :      -0.6054914
XB            :       0.0000000
fix           :       0.0000000
Gborn         :       0.0000000
Gsasa         :       0.0000000
Ghb           :       0.0000000
Gshift        :       0.0000000
Gsolv         :      -0.3888754     -244.02
Etot ala COSMO:    -697.9253697
grad norm     :       0.7040332
total E       :    -689.0580828
atomizationE  :     128.9612837    80924.43
(atE without considering molecular charge,
 total energy contains solvation terms)
H-L gap (eV)  :          1.1454

------------------------------------------------------------------------
 * finished run on 2019/03/14 at 15:08:31.999     
------------------------------------------------------------------------
 total:
 * wall-time:     0 d,  0 h,  0 min, 13.107 sec
 *  cpu-time:     0 d,  0 h,  0 min, 12.978 sec
 * ratio c/w:     0.990 speedup
 SCF:
 * wall-time:     0 d,  0 h,  0 min, 12.787 sec
 *  cpu-time:     0 d,  0 h,  0 min, 12.785 sec
 * ratio c/w:     1.000 speedup

