      -----------------------------------------------------------      
     |                   =====================                   |     
     |                           x T B                           |     
     |                   =====================                   |     
     |                         S. Grimme                         |     
     |          Mulliken Center for Theoretical Chemistry        |     
     |                    University of Bonn                     |     
     |                 Version 6.0.1 (SAW181210)                 |     
      -----------------------------------------------------------      

   This program is distributed in the hope that it will be useful,
   but WITHOUT ANY WARRANTY; without even the implied warranty of
   MERCHANTABILITY or FITNESS FOR A PARTICULAR PURPOSE.
   
   FOR NON-COMMERCIAL, ACADEMIA USE ONLY.
   
   Cite this work as:
   S. Grimme, C. Bannwarth, P. Shushkov, J. Comput. Theory Chem., 2017,
   13, 1989-2009.
   C. Bannwarth, S. Ehlert and S. Grimme., ChemRxiv, 2018, preprint.
   http://doi.org/10.26434/chemrxiv.7246238.v1
   
   for sTDA-xTB:
   S. Grimme and C. Bannwarth, J. Chem. Phys., 2016, 145, 054103.
   
   in the mass-spec context:
   V. Asgeirsson, C. Bauer and S. Grimme, Chem. Sci., 2017, 8, 4879.
   
   if GBSA is used:
   P. Shushkov, F. März and S. Grimme, unpublished.
   
   for ANC optimizer:
   S. Grimme, unpublished.
   Rational Function algorithm used in ANCopt:
   F. Eckert, P. Pulay, H.-J. Werner, J. Comput. Chem., 1997, 18, 1473.
   
   with help from (in alphabetical order)
   C. Bannwarth, F. Bohle, G. Brandenburg, E. Caldeweyher, M. Checinski,
   S. Dohm, S. Ehlert, S. Ehrlich, F. März, H. Neugebauer, J. Pisarek,
   P. Pracht, P. Shushkov, and S. Spicher.
   
 * started run on 2019/03/07 at 11:37:46.696     
========================================================================
 # omp threads = 1
========================================================================
number of atoms            : 651
number of electrons        : 1834
charge                     : -6
spin                       : .0
first test random number   : .1354
           ------------------------------------------------- 
          |                 G F N 2 - x T B                 |
          | Geometry, Frequencies, Noncovalent interactions |
          |            JCTC 2018 parametrisation            |
           ------------------------------------------------- 
 
      method parameters     
 k(s)        :  1.8500
 k(p)        :  2.2300
 k(d)        :  2.2300
 k(f)        :  2.0000
 kEN (H0ij)  : -2.0000
 D4 a1       :  0.5200
 D4 a2       :  5.0000
 D4 s6       :  1.0000
 D4 s8       :  2.7000
 D4 s9       :  5.0000
 alphaj      :  2.0000

 Solvent             : h2o
 Using internal parameter file: .param_gbsa2_h2o
 Gsolv ref. state (COSMO-RS): gsolv [1 M gas/solution]
 temperature (mdtemp)       :    298.150000000000     
 dielectric constant        :    80.2000000000000     
 rho                        :    1.00000000000000     
 mass                       :    18.0000000000000     
 surface tension            :    15.5689454083859     
 probe radius               :   0.975313790000000     
 vdW radii scaling          :    1.00000000000000     
 Gshift (Eh)                :   1.857443126794793E-003
 c1                         :    1.55243817000000     
 soset                      :   0.130326360000000     
 HB correction              :  T

            Z     q(EN)     CN     RAES       Cart. coordinates
     1  N   5.0   -0.23    3.27    1.97   380.10137   140.31593   204.82362
     2  C   4.0    0.03    4.37    4.33   381.11048   138.52069   206.63775
     3  C   4.0    0.15    3.42    3.09   379.58169   138.71533   209.10951
     4  O   6.0   -0.28    1.24    1.80   378.55746   140.73356   209.74068
     5  C   4.0   -0.04    4.38    4.35   383.92050   139.04793   207.14798
     6  C   4.0   -0.02    3.55    3.14   385.64582   138.42432   204.95590
     7  C   4.0   -0.07    3.49    3.11   385.62693   139.88129   202.73736
     8  C   4.0   -0.05    3.49    3.11   387.40705   136.43254   205.13542
     9  C   4.0   -0.06    3.45    3.10   387.35225   139.36162   200.78905
    10  C   4.0   -0.06    3.46    3.10   389.11536   135.91665   203.18900
    11  C   4.0    0.06    3.49    3.11   389.03599   137.36796   201.01393
    12  O   6.0   -0.30    2.14    1.84   390.74052   136.90309   199.07696
    13  H   1.0    0.11    1.08    1.44   380.06735   141.84283   205.38109
    14  H   1.0    0.05    1.12    1.45   380.96875   136.82561   205.95556
    15  H   1.0    0.05    1.09    1.44   384.12270   140.81860   207.57506
    16  H   1.0    0.05    1.10    1.44   384.44963   138.07850   208.61252
    17  H   1.0    0.04    1.09    1.44   384.47041   141.19276   202.55783
    18  H   1.0    0.06    1.09    1.44   387.43161   135.43855   206.58484
    19  H   1.0    0.04    1.09    1.44   387.36547   140.35939   199.34152
    20  H   1.0    0.05    1.09    1.44   390.28888   134.61841   203.35152
    21  H   1.0    0.13    1.10    1.44   391.64381   135.65398   199.45490
    22  N   5.0   -0.16    3.49    2.07   379.43240   136.65931   210.54949
    23  C   4.0    0.04    4.45    4.46   378.05668   136.65175   212.94188
    24  C   4.0    0.15    3.48    3.11   379.61004   135.21934   214.87885
    25  O   6.0   -0.32    1.30    1.80   380.92151   133.40709   214.26280
    26  C   4.0   -0.07    4.23    4.05   375.49422   135.40453   212.62252
    27  H   1.0    0.11    1.13    1.45   380.12215   135.23635   210.16965
    28  H   1.0    0.07    1.13    1.45   377.78456   138.37518   213.50124
    29  H   1.0    0.06    1.06    1.44   374.60415   135.41398   214.22500
    30  H   1.0    0.06    1.06    1.44   374.51534   136.32672   211.37719
    31  H   1.0    0.05    1.06    1.44   375.72098   133.67354   212.06127
    32  N   5.0   -0.15    3.52    2.09   379.48721   136.07350   217.23723
    33  C   4.0    0.04    4.51    4.55   380.89883   134.81683   219.24978
    34  C   4.0    0.17    3.47    3.10   379.37571   132.60774   220.22866
    35  O   6.0   -0.28    1.24    1.80   377.02867   132.70223   220.27402
    36  C   4.0   -0.03    4.33    4.25   381.48654   136.66687   221.43242
    37  C   4.0    0.25    3.15    3.03   379.11304   138.04826   222.41508
    38  O   6.0   -0.28    1.16    1.80   378.68029   140.26302   221.65163
    39  O   6.0   -0.27    1.17    1.80   377.73732   136.91065   223.95898
    40  H   1.0    0.11    1.13    1.45   378.61226   137.35851   217.70966
    41  H   1.0    0.06    1.13    1.45   382.49187   134.22157   218.56759
    42  H   1.0    0.06    1.09    1.44   382.26132   135.74468   222.81381
    43  H   1.0    0.07    1.09    1.44   382.71108   137.90464   220.85983
    44  N   5.0   -0.15    3.57    2.13   380.68718   130.59329   220.88629
    45  C   4.0    0.03    4.58    4.64   379.53634   128.31995   221.92942
    46  C   4.0    0.16    3.51    3.12   380.39994   128.08562   224.62983
    47  O   6.0   -0.28    1.26    1.80   381.70763   129.71835   225.61627
    48  C   4.0    0.04    4.39    4.37   380.33191   125.93701   220.50267
    49  O   6.0   -0.29    2.18    1.85   382.93974   125.37954   221.05258
    50  C   4.0   -0.08    4.26    4.12   380.09192   126.35086   217.73422
    51  H   1.0    0.12    1.15    1.45   382.30290   130.49880   220.73889
    52  H   1.0    0.05    1.13    1.45   377.71464   128.46924   221.78958
    53  H   1.0    0.03    1.11    1.45   379.25288   124.54995   221.02613
    54  H   1.0    0.17    1.09    1.44   383.85058   126.59085   220.58393
    55  H   1.0    0.04    1.06    1.44   380.60025   124.83152   216.84227
    56  H   1.0    0.04    1.06    1.44   378.34959   126.74581   217.32415
    57  H   1.0    0.06    1.07    1.44   381.16906   127.74547   217.22778
    58  N   5.0   -0.17    3.55    2.11   379.56468   126.03149   225.87327
    59  C   4.0    0.04    4.51    4.54   380.23554   125.57229   228.47921
    60  C   4.0    0.14    3.44    3.09   382.87171   124.35153   228.84392
    61  O   6.0   -0.32    1.26    1.80   383.85058   124.22491   230.95853
    62  C   4.0    0.04    4.33    4.26   378.26644   123.78650   229.76422
    63  O   6.0   -0.30    2.17    1.85   375.86271   124.08885   228.56613
    64  C   4.0   -0.10    4.20    4.00   378.04535   124.37420   232.53267
    65  H   1.0    0.09    1.14    1.45   378.60659   124.89577   225.21376
    66  H   1.0    0.06    1.13    1.45   380.26010   127.23525   229.24832
    67  H   1.0    0.03    1.11    1.45   378.82958   122.05173   229.58281
    68  H   1.0    0.12    1.08    1.44   374.80258   123.12698   229.25399
    69  H   1.0    0.02    1.06    1.44   376.81702   123.24982   233.29990
    70  H   1.0    0.04    1.06    1.44   379.67429   124.14177   233.33958
    71  H   1.0    0.04    1.06    1.44   377.50110   126.11086   232.74810
    72  N   5.0   -0.16    3.47    2.06   384.06412   123.65422   226.72554
    73  C   4.0    0.03    4.53    4.57   386.53210   122.46369   226.87105
    74  C   4.0    0.16    3.48    3.10   388.45774   124.11531   228.32047
    75  O   6.0   -0.31    1.24    1.80   389.11536   126.22802   227.55135
    76  C   4.0   -0.03    4.39    4.36   387.68484   121.74559   224.22732
    77  C   4.0   -0.06    4.25    4.11   386.01621   119.96547   222.65129
    78  C   4.0   -0.08    4.29    4.19   390.24164   120.51727   224.55802
    79  C   4.0   -0.09    4.12    3.84   387.43350   118.45558   220.50267
    80  H   1.0    0.10    1.14    1.45   383.48020   123.85453   225.22321
    81  H   1.0    0.04    1.13    1.45   386.22975   120.90656   227.78946
    82  H   1.0    0.05    1.13    1.45   387.81712   123.32918   223.31269
    83  H   1.0    0.03    1.09    1.44   385.21875   118.76172   223.78135
    84  H   1.0    0.05    1.08    1.44   384.67450   120.95191   221.88406
    85  H   1.0    0.05    1.07    1.44   390.92950   120.08453   222.91585
    86  H   1.0    0.06    1.06    1.44   391.37547   121.68134   225.40651
    87  H   1.0    0.05    1.06    1.44   390.06400   118.99604   225.56525
    88  H   1.0    0.03    1.05    1.44   386.23731   117.38789   219.61450
    89  H   1.0    0.05    1.05    1.44   388.19128   119.63666   219.32348
    90  H   1.0    0.05    1.05    1.44   388.74308   117.41245   221.24911
    91  N   5.0   -0.15    3.46    2.05   389.35347   123.08730   230.42184
    92  C   4.0    0.04    4.42    4.41   391.21862   124.42901   232.01866
    93  C   4.0    0.15    3.44    3.09   393.87558   124.31751   230.90372
    94  O   6.0   -0.29    1.24    1.80   394.51053   122.56007   229.50344
    95  C   4.0   -0.09    4.22    4.04   391.32256   123.29517   234.66428
    96  H   1.0    0.09    1.13    1.45   388.92261   121.62087   230.97553
    97  H   1.0    0.06    1.13    1.45   390.66116   126.17322   232.09236
    98  H   1.0    0.04    1.06    1.44   392.55466   124.20413   235.67150
    99  H   1.0    0.04    1.05    1.44   389.67283   123.42745   235.45229
   100  H   1.0    0.05    1.06    1.44   391.80633   121.53017   234.55467
   101  N   5.0   -0.16    3.48    2.06   395.45539   126.16566   231.54245
   102  C   4.0    0.03    4.49    4.52   398.03109   126.28283   230.57491
   103  C   4.0    0.15    3.46    3.10   399.89814   125.37954   232.54590
   104  O   6.0   -0.30    1.23    1.80   399.95672   126.40944   234.66050
   105  C   4.0   -0.05    4.48    4.51   398.67548   129.01159   229.80390
   106  C   4.0   -0.02    4.26    4.13   397.45661   130.21913   227.48521
   107  C   4.0   -0.08    4.23    4.05   398.65848   132.86474   227.23199
   108  C   4.0   -0.09    4.21    4.03   398.17093   128.65632   225.12305
   109  H   1.0    0.10    1.13    1.45   395.06422   127.38265   232.54590
   110  H   1.0    0.05    1.14    1.45   398.14636   125.18679   229.11037
   111  H   1.0    0.06    1.10    1.44   398.28242   130.08307   231.23821
   112  H   1.0    0.04    1.11    1.44   400.48962   129.08718   229.55824
   113  H   1.0    0.06    1.11    1.45   395.63114   130.29849   227.64017
   114  H   1.0    0.04    1.05    1.44   397.94794   133.72268   225.77690
   115  H   1.0    0.06    1.05    1.44   398.31455   133.83984   228.74566
   116  H   1.0    0.04    1.06    1.44   400.47072   132.69467   227.01467
   117  H   1.0    0.04    1.05    1.44   397.40559   129.40843   223.63773
   118  H   1.0    0.04    1.06    1.44   399.99262   128.63931   224.92841
   119  H   1.0    0.05    1.05    1.44   397.56243   126.93856   225.31958
   120  N   5.0   -0.17    3.51    2.08   401.43826   123.52572   231.87126
   121  C   4.0    0.04    4.52    4.56   403.29208   122.49204   233.58525
   122  C   4.0    0.16    3.46    3.10   405.89991   123.50682   232.84447
   123  O   6.0   -0.30    1.29    1.80   407.17169   122.41078   231.25143
   124  C   4.0   -0.03    4.40    4.39   403.29586   119.62154   233.32824
   125  C   4.0    0.24    3.15    3.03   404.99851   118.34787   235.25954
   126  O   6.0   -0.29    1.16    1.80   407.17736   117.66568   234.60948
   127  O   6.0   -0.31    1.17    1.80   404.19159   118.17212   237.48942
   128  H   1.0    0.11    1.16    1.45   401.43070   122.83597   230.39917
   129  H   1.0    0.06    1.13    1.45   402.89713   122.96447   235.31245
   130  H   1.0    0.05    1.09    1.44   401.58377   118.99415   233.52099
   131  H   1.0    0.06    1.10    1.44   403.84577   119.16423   231.64072
   132  N   5.0   -0.17    3.48    2.06   406.70871   125.52316   234.08224
   133  C   4.0    0.03    4.42    4.41   409.10488   126.77416   233.57013
   134  C   4.0    0.08    3.21    3.04   411.41413   125.68378   234.88349
   135  O   6.0   -0.30    1.13    1.80   413.52495   126.33763   234.21074
   136  C   4.0   -0.04    4.42    4.41   408.82331   129.58229   234.18807
   137  C   4.0    0.16    3.30    3.05   407.83687   131.12430   231.98276
   138  O   6.0   -0.31    1.23    1.80   409.05386   132.85529   231.05868
   139  N   5.0   -0.25    3.27    1.97   405.57676   130.51581   231.16451
   140  H   1.0    0.09    1.14    1.45   405.85833   126.22424   235.27655
   141  H   1.0    0.07    1.15    1.45   409.44503   126.48881   231.79190
   142  H   1.0    0.04    1.10    1.44   407.68570   129.77315   235.61292
   143  H   1.0    0.06    1.10    1.44   410.45037   130.24936   234.70774
   144  H   1.0    0.11    1.09    1.44   404.90591   131.34540   229.93807
   145  H   1.0    0.11    1.10    1.44   404.76607   129.28749   231.85426
   146  N   5.0   -0.23    3.26    1.97   419.07319   137.23379   233.48131
   147  C   4.0    0.02    4.44    4.45   417.50093   139.09895   232.10748
   148  C   4.0    0.15    3.48    3.10   416.48237   140.95088   234.07090
   149  O   6.0   -0.30    1.25    1.80   415.69436   140.20444   236.12882
   150  C   4.0   -0.03    4.43    4.43   415.27673   137.75724   230.78278
   151  C   4.0   -0.06    4.30    4.20   416.20647   135.73524   228.92896
   152  C   4.0   -0.08    4.28    4.15   413.64022   139.65264   229.36171
   153  C   4.0   -0.09    4.10    3.81   414.15990   134.08928   227.64017
   154  H   1.0    0.10    1.08    1.44   418.34942   135.80516   233.75343
   155  H   1.0    0.03    1.12    1.45   418.48926   139.96255   230.82813
   156  H   1.0    0.06    1.13    1.45   414.28273   136.94655   232.09236
   157  H   1.0    0.03    1.09    1.44   417.18157   136.56671   227.61749
   158  H   1.0    0.04    1.09    1.44   417.35353   134.62219   229.82469
   159  H   1.0    0.04    1.06    1.44   412.25505   138.77391   228.54346
   160  H   1.0    0.06    1.06    1.44   412.96937   140.88663   230.54090
   161  H   1.0    0.04    1.07    1.44   414.65312   140.50679   228.09559
   162  H   1.0    0.04    1.05    1.44   414.96303   132.88364   226.51578
   163  H   1.0    0.06    1.05    1.44   413.20370   133.18788   228.91951
   164  H   1.0    0.04    1.05    1.44   413.02795   135.16265   226.67641
   165  N   5.0   -0.16    3.53    2.10   416.39166   143.36406   233.43218
   166  C   4.0    0.03    4.54    4.59   415.48838   145.26323   235.17828
   167  C   4.0    0.15    3.47    3.10   412.70103   145.81503   234.67940
   168  O   6.0   -0.31    1.24    1.80   412.06797   146.83549   232.69896
   169  C   4.0   -0.05    4.39    4.37   417.00394   147.68964   234.87593
   170  C   4.0    0.23    3.18    3.03   419.81585   147.21910   234.73420
   171  O   6.0   -0.33    1.17    1.80   421.03094   147.30981   236.78077
   172  O   6.0   -0.32    1.17    1.80   420.81173   146.61439   232.66873
   173  H   1.0    0.10    1.14    1.45   416.84898   143.94043   231.98276
   174  H   1.0    0.05    1.14    1.45   415.69058   144.63018   236.88660
   175  H   1.0    0.05    1.10    1.44   416.45969   148.55703   233.35659
   176  H   1.0    0.03    1.09    1.44   416.64867   148.80458   236.28755
   177  N   5.0   -0.17    3.38    2.01   411.13256   145.29158   236.54267
   178  C   4.0    0.01    4.36    4.31   408.45104   145.73944   236.32724
   179  C   4.0    0.16    3.35    3.06   406.89957   144.05381   234.59247
   180  O   6.0   -0.28    1.24    1.80   406.35911   141.88440   235.26332
   181  H   1.0    0.09    1.13    1.45   411.59554   144.66608   237.96941
   182  H   1.0    0.04    1.10    1.44   407.73105   145.61661   238.00909
   183  H   1.0    0.04    1.10    1.44   408.22049   147.47043   235.76977
   184  N   5.0   -0.15    3.47    2.06   406.03975   145.01757   232.46275
   185  C   4.0    0.04    4.55    4.60   404.49206   143.56248   230.67696
   186  C   4.0    0.15    3.43    3.09   405.42369   143.49067   227.99166
   187  O   6.0   -0.30    1.24    1.80   406.67658   145.21032   227.10349
   188  C   4.0   -0.03    4.39    4.36   401.74440   144.44876   230.73743
   189  C   4.0    0.25    3.18    3.03   400.60300   144.18609   233.31501
   190  O   6.0   -0.27    1.19    1.80   400.67670   142.07338   234.34680
   191  O   6.0   -0.30    1.18    1.80   399.66759   146.09660   234.33547
   192  H   1.0    0.10    1.13    1.45   406.32887   146.54636   231.99032
   193  H   1.0    0.07    1.16    1.46   404.63379   141.83527   231.27600
   194  H   1.0    0.06    1.10    1.44   401.65747   146.20054   230.20830
   195  H   1.0    0.06    1.10    1.44   400.76363   143.47555   229.53367
   196  N   5.0   -0.16    3.52    2.09   404.58655   141.49890   226.68586
   197  C   4.0    0.04    4.48    4.51   405.25551   141.01324   224.03268
   198  C   4.0    0.15    3.46    3.10   403.54153   142.46266   222.27335
   199  O   6.0   -0.29    1.22    1.80   401.18693   142.61006   222.65507
   200  C   4.0   -0.05    4.48    4.50   405.07032   138.19566   223.50923
   201  C   4.0   -0.03    4.28    4.17   407.08287   136.36451   224.46921
   202  C   4.0   -0.08    4.25    4.10   407.60444   136.75758   227.27356
   203  C   4.0   -0.09    4.21    4.03   406.15124   133.63386   224.06292
   204  H   1.0    0.10    1.14    1.45   403.60011   140.37451   227.32269
   205  H   1.0    0.06    1.14    1.45   406.97327   141.57827   223.73788
   206  H   1.0    0.05    1.11    1.45   403.46405   137.62874   224.18575
   207  H   1.0    0.05    1.11    1.44   404.98528   137.99346   221.68942
   208  H   1.0    0.04    1.12    1.45   408.63245   136.67254   223.53946
   209  H   1.0    0.06    1.07    1.44   408.88756   135.57083   227.82914
   210  H   1.0    0.05    1.06    1.44   408.19592   138.46967   227.55135
   211  H   1.0    0.05    1.06    1.44   406.06431   136.48168   228.22787
   212  H   1.0    0.04    1.05    1.44   407.42114   132.45845   224.66763
   213  H   1.0    0.04    1.06    1.44   404.59033   133.37686   224.98699
   214  H   1.0    0.04    1.05    1.44   405.85644   133.34662   222.27713
   215  N   5.0   -0.16    3.55    2.12   404.64324   143.53980   220.31181
   216  C   4.0    0.04    4.52    4.56   403.30909   145.00056   218.43720
   217  C   4.0    0.16    3.46    3.10   402.54942   143.37351   216.20733
   218  O   6.0   -0.30    1.26    1.80   404.12545   142.56848   214.71255
   219  C   4.0   -0.05    4.40    4.38   404.88512   147.29280   217.65108
   220  C   4.0   -0.06    4.30    4.21   405.41803   149.12961   219.78269
   221  C   4.0   -0.05    4.32    4.24   407.63656   148.11861   221.36061
   222  C   4.0   -0.03    4.27    4.13   408.10144   149.80802   223.63017
   223  N   5.0   -0.17    4.11    3.17   410.37667   148.98032   225.12116
   224  H   1.0    0.11    1.16    1.46   406.24006   143.43398   220.03024
   225  H   1.0    0.06    1.15    1.45   401.75196   145.62984   219.17231
   226  H   1.0    0.05    1.10    1.44   406.47816   146.70887   216.95944
   227  H   1.0    0.04    1.09    1.44   404.01018   148.18097   216.30748
   228  H   1.0    0.03    1.09    1.44   405.82243   150.78501   219.10805
   229  H   1.0    0.06    1.09    1.44   403.93081   149.32992   220.83526
   230  H   1.0    0.06    1.11    1.45   407.27563   146.41030   221.91997
   231  H   1.0    0.04    1.09    1.44   409.14834   148.03546   220.32693
   232  H   1.0    0.03    1.08    1.44   408.33765   151.53712   223.06703
   233  H   1.0    0.07    1.08    1.44   406.62367   149.79480   224.71487
   234  H   1.0    0.06    1.08    1.44   410.98705   150.28802   225.98477
   235  H   1.0    0.09    1.09    1.44   409.93447   147.75956   226.19075
   236  H   1.0    0.06    1.09    1.44   411.55586   148.40207   224.07047
   237  N   5.0   -0.15    3.55    2.11   400.12301   142.77635   216.03536
   238  C   4.0    0.04    4.41    4.40   399.12146   141.25324   213.99446
   239  C   4.0    0.09    3.29    3.05   399.04209   142.96533   211.69655
   240  O   6.0   -0.30    1.15    1.80   398.47895   145.21032   211.93277
   241  C   4.0   -0.04    4.44    4.44   396.42860   140.33672   214.60295
   242  C   4.0   -0.02    3.63    3.19   395.25508   138.75124   212.59228
   243  C   4.0   -0.04    3.53    3.13   395.69917   136.16420   212.40520
   244  C   4.0   -0.05    3.55    3.14   393.67338   139.86240   210.88964
   245  C   4.0   -0.03    3.46    3.10   394.57667   134.77148   210.50980
   246  C   4.0   -0.05    3.46    3.10   392.52254   138.45644   208.98857
   247  C   4.0   -0.05    3.45    3.09   392.96473   135.89775   208.78637
   248  H   1.0    0.12    1.17    1.46   399.00430   143.25257   217.11439
   249  H   1.0    0.06    1.12    1.45   400.16081   139.76791   213.72234
   250  H   1.0    0.04    1.10    1.44   396.47017   139.37485   216.16386
   251  H   1.0    0.05    1.11    1.44   395.36090   141.79748   214.90152
   252  H   1.0    0.06    1.10    1.44   396.75741   135.37241   213.56360
   253  H   1.0    0.05    1.10    1.44   393.35779   141.58772   211.00113
   254  H   1.0    0.07    1.10    1.44   394.90737   133.04993   210.38886
   255  H   1.0    0.05    1.10    1.44   391.44728   139.24824   207.84718
   256  H   1.0    0.05    1.10    1.44   392.19750   134.95100   207.52026
   257  N   5.0   -0.26    3.20    1.96   397.85723   135.77870   202.28571
   258  C   4.0   -0.00    4.26    4.12   397.44905   134.03259   204.37953
   259  C   4.0    0.15    3.38    3.07   399.79231   133.37686   205.85163
   260  O   6.0   -0.30    1.21    1.80   399.73373   131.81594   207.60340
   261  H   1.0    0.10    1.07    1.44   397.14103   137.22812   202.45768
   262  H   1.0    0.05    1.10    1.44   396.22073   134.76392   205.52470
   263  H   1.0    0.04    1.09    1.44   396.71584   132.48680   203.72191
   264  N   5.0   -0.16    3.58    2.14   401.83511   134.72612   205.23558
   265  C   4.0    0.03    4.50    4.53   404.21427   134.33495   206.53193
   266  C   4.0    0.16    3.47    3.10   404.10089   135.60106   209.13786
   267  O   6.0   -0.29    1.24    1.80   402.53430   137.25835   209.60462
   268  C   4.0   -0.06    4.42    4.41   406.36478   135.56138   205.04093
   269  C   4.0   -0.06    4.35    4.30   406.74650   134.62219   202.36886
   270  C   4.0   -0.06    4.35    4.29   408.89323   136.01303   201.13676
   271  C   4.0   -0.06    4.30    4.19   409.36377   135.10974   198.47792
   272  N   5.0   -0.17    4.16    3.33   409.76817   132.33751   198.45713
   273  H   1.0    0.08    1.15    1.45   401.86723   135.86563   204.07717
   274  H   1.0    0.05    1.12    1.45   404.50907   132.53215   206.69444
   275  H   1.0    0.05    1.10    1.44   406.06431   137.36796   204.97857
   276  H   1.0    0.05    1.10    1.44   407.92569   135.30816   205.96879
   277  H   1.0    0.04    1.10    1.44   407.09610   132.82317   202.38398
   278  H   1.0    0.03    1.09    1.44   405.21016   134.86029   201.39754
   279  H   1.0    0.04    1.10    1.44   408.52285   137.80826   201.11408
   280  H   1.0    0.06    1.10    1.44   410.41446   135.79193   202.13454
   281  H   1.0    0.02    1.09    1.44   407.93703   135.54059   197.41022
   282  H   1.0    0.02    1.08    1.44   410.83020   135.96011   197.78061
   283  H   1.0    0.04    1.09    1.44   410.92280   131.94633   197.29684
   284  H   1.0    0.07    1.10    1.44   410.30297   131.83673   199.97080
   285  H   1.0    0.05    1.09    1.44   408.32064   131.56272   198.09052
   286  N   5.0   -0.16    3.53    2.10   405.62023   134.60140   210.87074
   287  C   4.0    0.04    4.52    4.57   405.77896   135.67098   213.37085
   288  C   4.0    0.15    3.45    3.09   408.38490   136.90876   213.66186
   289  O   6.0   -0.31    1.27    1.80   410.27273   135.90720   212.75102
   290  C   4.0   -0.04    4.42    4.41   405.44448   133.61496   215.35506
   291  C   4.0   -0.02    3.60    3.16   402.76674   132.64175   215.49112
   292  C   4.0   -0.04    3.52    3.12   401.83700   130.96935   213.67698
   293  C   4.0   -0.06    3.50    3.12   401.13591   133.41654   217.42053
   294  C   4.0   -0.04    3.46    3.10   399.36523   130.12464   213.71856
   295  C   4.0   -0.06    3.47    3.10   398.65092   132.60774   217.49612
   296  C   4.0    0.06    3.51    3.12   397.77597   130.95801   215.63096
   297  O   6.0   -0.28    2.15    1.85   395.27965   130.18700   215.60072
   298  H   1.0    0.10    1.13    1.45   406.56887   133.30505   210.62319
   299  H   1.0    0.06    1.14    1.45   404.45427   136.91631   213.60517
   300  H   1.0    0.07    1.10    1.44   406.57454   132.22223   214.97900
   301  H   1.0    0.04    1.10    1.44   405.93203   134.27259   216.99534
   302  H   1.0    0.06    1.10    1.44   402.91036   130.40621   212.40331
   303  H   1.0    0.05    1.10    1.44   401.73117   134.49369   218.67531
   304  H   1.0    0.06    1.10    1.44   398.77753   129.01726   212.48645
   305  H   1.0    0.05    1.09    1.44   397.57566   133.15576   218.77357
   306  H   1.0    0.13    1.10    1.44   394.51809   130.81061   216.84605
   307  N   5.0   -0.15    3.49    2.07   408.49828   139.04415   214.96389
   308  C   4.0    0.03    4.46    4.48   410.90012   140.34995   215.40419
   309  C   4.0    0.14    3.44    3.09   411.12878   141.01324   218.21610
   310  O   6.0   -0.32    1.29    1.80   409.25795   140.93576   219.59938
   311  C   4.0   -0.04    4.37    4.33   411.02673   142.80848   213.83005
   312  C   4.0   -0.01    3.56    3.15   411.13445   142.40597   210.98979
   313  C   4.0   -0.05    3.50    3.11   408.98205   142.76691   209.52147
   314  C   4.0   -0.06    3.49    3.11   413.36432   141.57071   209.75769
   315  C   4.0   -0.05    3.48    3.11   409.05197   142.37762   206.97034
   316  C   4.0   -0.06    3.46    3.10   413.42857   141.14174   207.16121
   317  C   4.0    0.06    3.50    3.11   411.26484   141.54992   205.77982
   318  O   6.0   -0.30    2.13    1.84   411.27996   141.10017   203.19278
   319  H   1.0    0.12    1.14    1.45   407.20382   139.77925   215.61584
   320  H   1.0    0.05    1.13    1.45   412.27395   139.24635   214.90152
   321  H   1.0    0.05    1.10    1.44   409.56030   143.83649   214.22311
   322  H   1.0    0.03    1.09    1.44   412.50450   143.76279   214.34595
   323  H   1.0    0.06    1.10    1.44   407.48350   143.27713   210.28303
   324  H   1.0    0.04    1.09    1.44   414.81941   141.30237   210.70633
   325  H   1.0    0.05    1.10    1.44   407.60822   142.66675   206.01036
   326  H   1.0    0.04    1.09    1.44   414.90256   140.59183   206.37886
   327  H   1.0    0.13    1.10    1.44   412.72560   140.61829   202.74681
   328  N   5.0   -0.17    3.47    2.06   413.39834   141.62551   219.10805
   329  C   4.0    0.03    4.35    4.29   413.76306   142.28881   221.76501
   330  C   4.0    0.05    3.23    3.04   416.25749   143.61161   222.22988
   331  O   6.0   -0.32    1.13    1.80   418.05084   143.38296   220.70298
   332  C   4.0   -0.08    4.25    4.09   413.60054   139.92665   223.39017
   333  H   1.0    0.10    1.13    1.45   414.75138   141.66897   218.20855
   334  H   1.0    0.05    1.13    1.45   412.42891   143.46044   222.22043
   335  H   1.0    0.04    1.09    1.44   413.84431   140.37640   225.14951
   336  H   1.0    0.05    1.06    1.44   411.95270   139.15186   223.18041
   337  H   1.0    0.04    1.06    1.44   414.90067   138.74179   222.87806
   338  N   5.0   -0.23    3.26    1.97   419.63443   136.81049   212.79637
   339  C   4.0    0.02    4.42    4.41   417.18724   135.66721   212.25591
   340  C   4.0    0.15    3.48    3.11   416.88866   133.30883   213.84328
   341  O   6.0   -0.32    1.27    1.80   418.68768   131.94256   214.24390
   342  C   4.0   -0.06    4.38    4.34   416.94535   135.03415   209.45911
   343  C   4.0   -0.03    4.30    4.19   414.23360   134.25936   208.76181
   344  C   4.0    0.24    3.14    3.03   414.07108   132.81372   206.29193
   345  O   6.0   -0.30    1.18    1.80   413.03929   130.71045   206.35807
   346  O   6.0   -0.33    1.17    1.80   414.90634   133.81338   204.31150
   347  H   1.0    0.09    1.08    1.44   420.86843   136.31349   211.86285
   348  H   1.0    0.04    1.13    1.45   415.86065   136.86151   212.67354
   349  H   1.0    0.04    1.09    1.44   417.44235   136.48735   208.45756
   350  H   1.0    0.05    1.09    1.44   418.09809   133.67165   209.03771
   351  H   1.0    0.07    1.10    1.44   413.54007   133.22757   210.10729
   352  H   1.0    0.06    1.09    1.44   413.19047   135.76169   208.64653
   353  N   5.0   -0.17    3.53    2.10   414.58887   132.78915   214.68043
   354  C   4.0    0.03    4.56    4.62   414.05785   130.54605   216.19410
   355  C   4.0    0.15    3.45    3.10   412.00561   128.80939   215.20388
   356  O   6.0   -0.30    1.25    1.80   409.95904   129.64654   214.45744
   357  C   4.0   -0.03    4.34    4.28   413.50227   131.35296   218.94932
   358  C   4.0   -0.09    4.23    4.06   415.56963   133.18600   219.85072
   359  C   4.0   -0.08    4.21    4.01   410.84721   132.62097   219.16097
   360  H   1.0    0.12    1.14    1.45   413.29062   133.72268   214.39130
   361  H   1.0    0.05    1.16    1.46   415.57341   129.51993   216.09205
   362  H   1.0    0.04    1.12    1.45   413.50038   129.86197   220.01512
   363  H   1.0    0.03    1.05    1.44   415.22570   133.69433   221.57793
   364  H   1.0    0.04    1.05    1.44   417.20047   132.35452   219.77324
   365  H   1.0    0.05    1.06    1.44   415.58853   134.66754   218.76979
   366  H   1.0    0.04    1.05    1.44   410.53918   133.11041   220.90140
   367  H   1.0    0.06    1.05    1.44   410.79241   134.10818   218.08949
   368  H   1.0    0.05    1.06    1.44   409.55842   131.43422   218.62428
   369  N   5.0   -0.15    3.52    2.09   412.55552   126.36786   215.12073
   370  C   4.0    0.04    4.48    4.51   410.71304   124.48759   214.25335
   371  C   4.0    0.15    3.48    3.11   408.90268   123.82807   216.35661
   372  O   6.0   -0.30    1.26    1.80   409.58487   123.87532   218.59405
   373  C   4.0    0.02    4.26    4.13   412.00939   122.07441   213.32171
   374  O   6.0   -0.29    2.14    1.84   414.63800   122.17645   213.72989
   375  H   1.0    0.10    1.14    1.45   413.99171   125.74614   215.55915
   376  H   1.0    0.05    1.13    1.45   409.79463   125.23214   212.85306
   377  H   1.0    0.04    1.08    1.44   411.30641   120.62121   214.19099
   378  H   1.0    0.03    1.07    1.44   411.67113   121.84386   211.53403
   379  H   1.0    0.12    1.08    1.44   415.30696   120.83475   213.20833
   380  N   5.0   -0.16    3.49    2.07   406.53674   123.35564   215.67442
   381  C   4.0    0.04    4.56    4.61   404.65836   122.70935   217.58683
   382  C   4.0    0.15    3.48    3.10   403.73995   120.04106   217.00857
   383  O   6.0   -0.32    1.26    1.80   403.12390   119.44958   214.84483
   384  C   4.0   -0.03    4.36    4.30   402.42470   124.66900   217.69832
   385  C   4.0   -0.09    4.23    4.06   400.31199   123.69957   219.42742
   386  C   4.0   -0.08    4.25    4.11   403.38846   127.14643   218.64507
   387  H   1.0    0.09    1.13    1.45   405.98494   123.39721   214.14563
   388  H   1.0    0.07    1.14    1.45   405.41614   122.77361   219.25545
   389  H   1.0    0.05    1.12    1.45   401.74062   124.88632   216.01268
   390  H   1.0    0.04    1.05    1.44   398.95138   124.92600   219.47655
   391  H   1.0    0.05    1.06    1.44   399.67515   122.10653   218.78113
   392  H   1.0    0.06    1.06    1.44   400.97150   123.45202   221.11872
   393  H   1.0    0.04    1.06    1.44   402.01085   128.35397   218.71310
   394  H   1.0    0.05    1.06    1.44   404.09144   126.92911   220.32315
   395  H   1.0    0.05    1.06    1.44   404.69048   127.77004   217.51502
   396  N   5.0   -0.16    3.55    2.11   403.79853   118.35921   218.87184
   397  C   4.0    0.04    4.51    4.55   402.93115   115.78351   218.55814
   398  C   4.0    0.16    3.48    3.11   400.06632   115.94603   218.77168
   399  O   6.0   -0.31    1.34    1.80   398.97406   115.61910   220.78046
   400  C   4.0   -0.03    4.39    4.37   404.07821   114.16779   220.66708
   401  C   4.0    0.25    3.14    3.03   403.51318   111.35966   220.38551
   402  O   6.0   -0.31    1.18    1.80   405.18937   110.00095   219.43876
   403  O   6.0   -0.29    1.19    1.80   401.43259   110.52440   221.02613
   404  H   1.0    0.13    1.18    1.46   404.35033   118.69369   220.36472
   405  H   1.0    0.05    1.12    1.45   403.42059   115.02006   216.96511
   406  H   1.0    0.05    1.09    1.44   405.89424   114.41346   220.68976
   407  H   1.0    0.07    1.09    1.44   403.43759   114.74983   222.28279
   408  N   5.0   -0.17    3.47    2.06   398.85123   116.54129   216.62495
   409  C   4.0    0.03    4.40    4.38   396.10168   116.87010   216.46055
   410  C   4.0    0.08    3.25    3.04   394.52187   115.01061   218.01390
   411  O   6.0   -0.32    1.12    1.80   392.42805   115.62855   218.83026
   412  C   4.0   -0.07    4.42    4.41   395.23429   116.76995   213.73556
   413  C   4.0   -0.07    4.37    4.32   395.24374   119.25305   212.40898
   414  C   4.0   -0.06    4.34    4.27   397.86479   120.31696   211.98568
   415  C   4.0   -0.05    4.33    4.25   397.73062   122.89833   210.90664
   416  N   5.0   -0.17    4.15    3.29   396.30010   124.75593   212.41842
   417  H   1.0    0.10    1.14    1.45   399.61657   116.76617   215.20955
   418  H   1.0    0.05    1.14    1.45   395.80688   118.52172   217.19943
   419  H   1.0    0.03    1.10    1.44   396.31333   115.60776   212.81716
   420  H   1.0    0.04    1.11    1.45   393.53732   116.08020   213.68265
   421  H   1.0    0.03    1.10    1.44   394.40659   119.06785   210.78948
   422  H   1.0    0.04    1.10    1.44   394.26297   120.45491   213.38596
   423  H   1.0    0.06    1.10    1.44   398.77942   120.35665   213.57305
   424  H   1.0    0.04    1.10    1.44   398.80210   119.22092   210.85373
   425  H   1.0    0.04    1.09    1.44   399.43893   123.52383   210.67988
   426  H   1.0    0.03    1.09    1.44   396.97095   122.79439   209.24180
   427  H   1.0    0.07    1.09    1.44   396.42860   126.27527   211.70978
   428  H   1.0    0.07    1.09    1.44   394.68249   124.30239   212.48079
   429  H   1.0    0.07    1.09    1.44   396.92560   124.81073   213.97934
   430  N   5.0   -0.23    3.27    1.97   395.60090   112.72593   223.77379
   431  C   4.0    0.03    4.39    4.37   395.58011   113.30041   226.46098
   432  C   4.0    0.16    3.43    3.09   396.49852   115.92335   227.33214
   433  O   6.0   -0.29    1.23    1.80   395.99585   116.68491   229.45808
   434  C   4.0   -0.05    4.41    4.40   396.99363   111.19147   227.84237
   435  C   4.0    0.17    3.33    3.06   399.79231   111.13289   227.25655
   436  O   6.0   -0.31    1.32    1.80   401.09622   113.01506   227.59103
   437  N   5.0   -0.24    3.25    1.97   400.72773   108.99183   226.42885
   438  H   1.0    0.14    1.11    1.44   396.84434   113.39679   222.97065
   439  H   1.0    0.04    1.14    1.45   393.80188   113.38356   226.90128
   440  H   1.0    0.04    1.09    1.44   396.76308   111.39934   229.64895
   441  H   1.0    0.02    1.10    1.44   396.25285   109.57765   227.39072
   442  H   1.0    0.14    1.09    1.44   402.31510   108.87278   226.09815
   443  H   1.0    0.09    1.10    1.44   399.75452   107.70871   226.21720
   444  N   5.0   -0.15    3.44    2.04   397.79109   117.28962   225.68241
   445  C   4.0    0.02    4.37    4.32   398.78887   119.78595   226.28901
   446  C   4.0    0.15    3.41    3.08   401.59322   120.02027   226.56302
   447  O   6.0   -0.31    1.31    1.80   402.55698   122.13866   226.58003
   448  H   1.0    0.12    1.16    1.46   398.11801   116.79640   224.16874
   449  H   1.0    0.05    1.10    1.44   398.24652   120.94813   224.97943
   450  H   1.0    0.08    1.11    1.45   398.01597   120.34342   227.85560
   451  N   5.0   -0.16    3.51    2.08   402.92359   117.92646   226.84837
   452  C   4.0    0.04    4.51    4.55   405.69204   118.08520   227.09026
   453  C   4.0    0.18    3.52    3.12   406.83154   119.99193   225.22510
   454  O   6.0   -0.31    1.32    1.80   406.21360   119.94846   223.01034
   455  C   4.0   -0.04    4.38    4.34   406.94114   115.56052   226.73877
   456  C   4.0   -0.03    4.26    4.13   406.35344   113.57631   228.78723
   457  C   4.0    0.25    3.12    3.03   407.63278   111.01762   228.27134
   458  O   6.0   -0.30    1.18    1.80   406.87500   109.64379   226.54413
   459  O   6.0   -0.31    1.18    1.80   409.48850   110.39212   229.58281
   460  H   1.0    0.12    1.16    1.45   402.30187   116.42602   226.90884
   461  H   1.0    0.06    1.14    1.45   406.01518   118.66345   228.79857
   462  H   1.0    0.06    1.10    1.44   406.43848   114.88400   225.11171
   463  H   1.0    0.06    1.10    1.44   408.75528   115.81185   226.67641
   464  H   1.0    0.06    1.09    1.44   406.90335   114.20937   230.41617
   465  H   1.0    0.07    1.12    1.45   404.53930   113.33442   228.89117
   466  N   5.0   -0.15    3.56    2.12   408.39245   121.71347   226.20020
   467  C   4.0    0.05    4.50    4.54   409.63211   123.50115   224.54669
   468  C   4.0    0.08    3.23    3.04   412.36466   122.66211   224.23110
   469  O   6.0   -0.29    1.14    1.80   413.47204   121.69835   226.02256
   470  C   4.0   -0.02    4.36    4.31   409.35621   126.21858   225.61060
   471  C   4.0   -0.09    4.22    4.04   410.44470   128.13476   223.73788
   472  C   4.0   -0.08    4.23    4.06   406.55186   126.75526   226.12650
   473  H   1.0    0.13    1.15    1.45   408.74394   121.86465   227.78001
   474  H   1.0    0.07    1.14    1.45   408.85355   123.53705   222.88751
   475  H   1.0    0.06    1.12    1.45   410.29163   126.36786   227.18096
   476  H   1.0    0.04    1.06    1.44   410.26328   129.82606   224.41818
   477  H   1.0    0.04    1.06    1.44   412.22104   127.77571   223.45820
   478  H   1.0    0.05    1.06    1.44   409.54141   128.01759   222.14673
   479  H   1.0    0.04    1.06    1.44   406.36667   128.45223   226.79357
   480  H   1.0    0.05    1.06    1.44   405.60322   126.60597   224.56558
   481  H   1.0    0.07    1.06    1.44   405.91313   125.54772   227.34726
   482  N   5.0   -0.22    3.25    1.97   395.57066   149.63984   215.33994
   483  C   4.0    0.04    4.42    4.41   394.09668   148.22254   217.16353
   484  C   4.0    0.15    3.46    3.10   395.56499   147.11705   219.41797
   485  O   6.0   -0.31    1.32    1.80   396.64403   145.05914   219.25356
   486  C   4.0   -0.04    4.40    4.38   392.65293   146.14385   215.84828
   487  C   4.0   -0.04    4.28    4.16   390.99564   147.02635   213.62785
   488  C   4.0    0.24    3.16    3.03   389.36669   149.30725   214.28358
   489  O   6.0   -0.29    1.17    1.80   387.59602   149.09749   215.82182
   490  O   6.0   -0.32    1.19    1.80   389.87692   151.34626   213.25368
   491  H   1.0    0.11    1.09    1.44   395.63680   148.98032   213.85651
   492  H   1.0    0.05    1.14    1.45   392.97040   149.46598   217.90241
   493  H   1.0    0.05    1.10    1.44   393.84723   144.89852   215.23034
   494  H   1.0    0.05    1.09    1.44   391.58712   145.30103   217.07849
   495  H   1.0    0.05    1.09    1.44   392.07089   147.44398   212.20300
   496  H   1.0    0.04    1.09    1.44   389.91282   145.64496   213.09684
   497  N   5.0   -0.16    3.50    2.08   395.74641   148.57592   221.42297
   498  C   4.0    0.04    4.51    4.55   396.98985   147.56303   223.70198
   499  C   4.0    0.17    3.51    3.12   395.09445   145.62417   224.70164
   500  O   6.0   -0.30    1.26    1.80   393.22740   146.27046   225.89784
   501  C   4.0   -0.03    4.37    4.33   397.44905   149.60960   225.69375
   502  C   4.0    0.24    3.15    3.03   399.26697   151.63728   224.80936
   503  O   6.0   -0.30    1.18    1.80   401.54787   151.51256   225.33092
   504  O   6.0   -0.31    1.19    1.80   398.36179   153.45331   223.61694
   505  H   1.0    0.10    1.13    1.45   395.19650   150.10093   221.53446
   506  H   1.0    0.07    1.12    1.45   398.64147   146.86194   223.32214
   507  H   1.0    0.06    1.09    1.44   395.85034   150.38628   226.13972
   508  H   1.0    0.05    1.09    1.44   398.10857   148.83104   227.21687
   509  N   5.0   -0.14    3.55    2.11   395.49696   143.24501   224.07047
   510  C   4.0    0.04    4.57    4.63   393.81700   141.22678   224.84148
   511  C   4.0    0.15    3.45    3.10   394.49352   139.97578   227.33214
   512  O   6.0   -0.28    1.22    1.80   396.68749   140.14208   228.16740
   513  C   4.0   -0.02    4.38    4.35   393.76598   139.12351   222.76656
   514  C   4.0   -0.07    4.21    4.03   392.85135   140.26869   220.23055
   515  C   4.0   -0.08    4.27    4.13   396.33789   137.96511   222.43586
   516  H   1.0    0.12    1.15    1.45   396.76119   142.75179   223.17663
   517  H   1.0    0.06    1.14    1.45   392.18616   142.03180   225.06825
   518  H   1.0    0.06    1.12    1.45   392.60757   137.80638   223.29758
   519  H   1.0    0.04    1.05    1.44   392.82111   138.96289   218.94554
   520  H   1.0    0.06    1.05    1.44   391.16571   140.95655   220.44220
   521  H   1.0    0.06    1.06    1.44   393.99463   141.60472   219.71466
   522  H   1.0    0.04    1.06    1.44   396.26230   136.66876   221.14329
   523  H   1.0    0.06    1.06    1.44   397.53220   139.26146   221.93131
   524  H   1.0    0.05    1.06    1.44   396.88024   137.21678   224.01945
   525  N   5.0   -0.17    3.61    2.17   392.60190   138.84194   228.54157
   526  C   4.0    0.03    4.50    4.53   392.90426   137.49457   230.91695
   527  C   4.0    0.15    3.52    3.12   392.08034   134.84140   230.26689
   528  O   6.0   -0.30    1.23    1.80   393.01575   133.01592   231.36104
   529  C   4.0   -0.05    4.39    4.37   391.11658   138.54526   232.89738
   530  C   4.0   -0.05    4.25    4.10   392.08979   140.81671   234.45263
   531  C   4.0   -0.06    4.26    4.13   390.09424   141.66331   236.37070
   532  C   4.0   -0.06    4.22    4.04   390.98430   143.83460   238.08657
   533  N   5.0   -0.17    4.09    3.13   390.51376   146.36872   236.80912
   534  H   1.0    0.09    1.16    1.46   391.07501   138.83817   227.98599
   535  H   1.0    0.06    1.12    1.45   394.60690   137.61551   231.58592
   536  H   1.0    0.05    1.10    1.44   389.56322   139.04415   232.06213
   537  H   1.0    0.05    1.10    1.44   390.68950   137.19410   234.05957
   538  H   1.0    0.05    1.09    1.44   393.63369   140.35562   235.32568
   539  H   1.0    0.05    1.09    1.44   392.50175   142.20566   233.33013
   540  H   1.0    0.04    1.09    1.44   388.58624   142.19054   235.47119
   541  H   1.0    0.03    1.09    1.44   389.62181   140.23089   237.41383
   542  H   1.0    0.02    1.08    1.44   390.09424   143.76846   239.68717
   543  H   1.0    0.04    1.08    1.44   392.77009   143.64563   238.45696
   544  H   1.0    0.05    1.08    1.44   391.03532   147.61027   237.81634
   545  H   1.0    0.07    1.08    1.44   391.36224   146.43108   235.35781
   546  H   1.0    0.05    1.08    1.44   388.86970   146.54825   236.50487
   547  N   5.0   -0.15    3.60    2.16   390.37581   134.59951   228.46031
   548  C   4.0    0.04    4.46    4.47   389.45173   132.16365   227.56647
   549  C   4.0    0.15    3.42    3.08   389.73141   132.14854   224.65818
   550  O   6.0   -0.29    1.23    1.80   389.54055   134.13086   223.42608
   551  C   4.0   -0.02    4.37    4.33   386.64171   131.83106   228.19764
   552  C   4.0    0.17    3.27    3.05   386.05022   131.74224   231.04167
   553  O   6.0   -0.30    1.20    1.80   386.11259   133.65654   232.36259
   554  N   5.0   -0.24    3.22    1.96   385.26788   129.52371   231.98654
   555  H   1.0    0.10    1.16    1.46   389.70495   135.86941   227.69875
   556  H   1.0    0.07    1.12    1.45   390.40037   130.81439   228.36582
   557  H   1.0    0.07    1.09    1.44   385.70063   133.21056   227.44175
   558  H   1.0    0.07    1.10    1.44   386.04078   130.28338   227.42096
   559  H   1.0    0.11    1.08    1.44   384.79923   129.42166   233.53989
   560  H   1.0    0.13    1.10    1.44   385.23575   128.20279   231.03978
   561  N   5.0   -0.16    3.44    2.04   389.97330   129.87897   223.53379
   562  C   4.0    0.03    4.53    4.57   390.38904   129.55205   220.80881
   563  C   4.0    0.16    3.46    3.10   388.33868   130.54038   218.98333
   564  O   6.0   -0.30    1.22    1.80   386.06912   129.92244   219.27246
   565  C   4.0   -0.03    4.40    4.38   390.81800   126.73258   220.20410
   566  C   4.0   -0.08    4.28    4.16   390.90115   126.26960   217.37329
   567  C   4.0   -0.09    4.23    4.07   393.28976   125.83685   221.38895
   568  H   1.0    0.11    1.15    1.45   389.89771   128.47491   224.35015
   569  H   1.0    0.04    1.14    1.45   391.85357   130.61219   220.50078
   570  H   1.0    0.05    1.13    1.45   389.41016   125.78961   220.90518
   571  H   1.0    0.04    1.06    1.44   391.17327   124.48570   217.05203
   572  H   1.0    0.06    1.07    1.44   389.31189   126.78927   216.62118
   573  H   1.0    0.06    1.06    1.44   392.27120   127.23714   216.63440
   574  H   1.0    0.04    1.06    1.44   393.54677   124.06429   221.00156
   575  H   1.0    0.04    1.06    1.44   394.68249   126.81762   220.71243
   576  H   1.0    0.05    1.06    1.44   393.21229   126.05984   223.20687
   577  N   5.0   -0.15    3.49    2.07   389.20040   131.88019   217.01613
   578  C   4.0    0.04    4.50    4.54   387.55823   132.89498   215.04325
   579  C   4.0    0.15    3.46    3.10   387.14627   130.87675   213.08739
   580  O   6.0   -0.30    1.26    1.80   388.91127   129.46512   212.53370
   581  C   4.0   -0.05    4.43    4.44   388.62403   135.24391   213.72045
   582  C   4.0   -0.04    4.34    4.27   388.94151   137.54937   215.28514
   583  C   4.0    0.15    3.32    3.06   386.60202   138.26936   216.73267
   584  O   6.0   -0.29    1.19    1.80   386.66816   138.70022   219.06837
   585  N   5.0   -0.24    3.26    1.97   384.45530   138.43187   215.40230
   586  H   1.0    0.09    1.13    1.45   390.77265   132.22412   216.79692
   587  H   1.0    0.06    1.14    1.45   385.98597   133.40709   215.83505
   588  H   1.0    0.05    1.11    1.44   390.25675   134.80738   213.01180
   589  H   1.0    0.04    1.10    1.44   387.52232   135.65587   212.31449
   590  H   1.0    0.05    1.10    1.44   390.31723   137.28481   216.46811
   591  H   1.0    0.04    1.10    1.44   389.42528   138.94588   214.20233
   592  H   1.0    0.11    1.09    1.44   384.46285   138.12763   213.80548
   593  H   1.0    0.12    1.09    1.44   383.06824   138.84194   216.14496
   594  N   5.0   -0.16    3.48    2.06   384.90316   130.75581   211.92332
   595  C   4.0    0.03    4.45    4.47   384.24932   128.80561   210.06194
   596  C   4.0    0.06    3.29    3.05   383.44240   130.04338   207.57128
   597  O   6.0   -0.31    1.14    1.80   382.50888   132.18444   207.58073
   598  C   4.0   -0.03    4.40    4.37   382.01188   127.12186   210.96145
   599  C   4.0   -0.08    4.31    4.22   379.64027   128.60908   210.92365
   600  C   4.0   -0.10    4.22    4.04   381.86826   124.75026   209.30416
   601  H   1.0    0.12    1.15    1.45   383.70507   131.81972   212.19733
   602  H   1.0    0.05    1.13    1.45   385.74409   127.76815   209.84462
   603  H   1.0    0.04    1.13    1.45   382.27455   126.57006   212.68866
   604  H   1.0    0.04    1.06    1.44   378.24944   127.55650   211.48490
   605  H   1.0    0.07    1.07    1.44   379.80468   130.05094   212.04237
   606  H   1.0    0.05    1.08    1.44   379.31335   129.19489   209.21723
   607  H   1.0    0.04    1.05    1.44   380.47553   123.69768   209.86163
   608  H   1.0    0.03    1.06    1.44   381.60370   125.23970   207.55805
   609  H   1.0    0.03    1.05    1.44   383.43673   123.81106   209.44400
   610  N   5.0   -0.26    3.26    1.97   372.37617   120.34720   206.36941
   611  C   4.0    0.03    4.34    4.28   372.53113   118.83353   208.63519
   612  C   4.0    0.05    3.24    3.04   369.83638   118.30440   209.60462
   613  O   6.0   -0.36    1.11    1.80   368.95009   116.16712   209.61218
   614  C   4.0    0.04    4.35    4.30   373.89173   120.23381   210.79326
   615  O   6.0   -0.31    2.17    1.85   375.86271   121.77772   209.86163
   616  C   4.0   -0.10    4.19    3.99   374.91407   118.27039   212.64519
   617  H   1.0    0.10    1.09    1.44   373.40229   121.60575   206.32595
   618  H   1.0    0.03    1.12    1.45   373.44953   117.30852   208.19867
   619  H   1.0    0.03    1.11    1.45   372.70498   121.34119   211.64553
   620  H   1.0    0.13    1.08    1.44   376.39939   122.71313   211.02759
   621  H   1.0    0.03    1.05    1.44   375.77956   119.11888   214.02091
   622  H   1.0    0.03    1.06    1.44   373.52512   117.28017   213.31604
   623  H   1.0    0.03    1.06    1.44   376.08759   117.16301   211.77592
   624  N   5.0   -0.27    3.24    1.97   368.63262   145.66575   212.07260
   625  C   4.0    0.03    4.29    4.18   371.22721   145.49000   211.28081
   626  C   4.0    0.07    3.18    3.03   371.71098   144.32782   208.65409
   627  O   6.0   -0.31    1.11    1.80   373.72165   144.82482   207.54860
   628  C   4.0   -0.04    4.30    4.19   372.89017   144.14641   213.31982
   629  C   4.0    0.24    3.13    3.03   371.89618   141.49701   214.01335
   630  O   6.0   -0.32    1.22    1.80   370.04236   140.64285   212.81527
   631  O   6.0   -0.29    1.16    1.80   372.94120   140.31593   215.78592
   632  H   1.0    0.11    1.10    1.44   368.12050   144.42042   212.98345
   633  H   1.0    0.03    1.14    1.45   371.72799   147.24367   211.10318
   634  H   1.0    0.06    1.08    1.44   374.60982   144.00279   212.69999
   635  H   1.0    0.04    1.08    1.44   372.95064   145.18387   214.82972
   636  H   1.0    0.08    1.09    1.44   381.06140   140.30486   203.41977
   637  H   1.0    0.05    1.04    1.44   411.20178   124.43895   236.28932
   638  H   1.0    0.08    1.07    1.44   420.48116   136.90801   232.58463
   639  H   1.0    0.06    1.04    1.43   399.44755   142.27093   209.98644
   640  H   1.0    0.09    1.12    1.45   399.52289   136.07328   202.10862
   641  H   1.0    0.04    1.04    1.43   416.48657   144.68230   223.77008
   642  H   1.0    0.08    1.08    1.44   419.53175   138.49558   212.59026
   643  H   1.0    0.06    1.04    1.44   395.18540   113.27833   218.37447
   644  H   1.0    0.09    1.09    1.44   395.70680   111.04279   223.55387
   645  H   1.0    0.06    1.04    1.43   413.24037   122.89907   222.57338
   646  H   1.0    0.10    1.08    1.44   394.90385   151.19351   215.15550
   647  H   1.0    0.04    1.04    1.43   383.67119   129.11888   205.93909
   648  H   1.0    0.07    1.08    1.44   372.72566   119.37950   205.01517
   649  H   1.0    0.03    1.05    1.44   368.76771   119.72419   210.24745
   650  H   1.0    0.07    1.08    1.44   368.41554   147.07659   212.99724
   651  H   1.0    0.04    1.04    1.43   370.41753   143.19571   207.86900

  Z AO/shell   Hii/eV     exponent
  1     Wed Apr 25 08:07:45 CEST 2018   EN: 2.200 GM2: 0.406  GM3: 0.0800  RAES: 1.40
     1s    -10.707211    1.230000
  6     Wed Apr 25 08:07:45 CEST 2018   EN: 2.550 GM2: 0.538  GM3: 0.1500  RAES: 3.00
     2s    -13.970922    2.096432
     2p    -10.063292    1.800000
  7     Wed Apr 25 08:07:45 CEST 2018   EN: 3.040 GM2: 0.461  GM3:-0.0640  RAES: 1.90
     2s    -16.686243    2.339881
     2p    -12.523956    2.014332
  8     Wed Apr 25 08:07:45 CEST 2018   EN: 3.440 GM2: 0.452  GM3:-0.0517  RAES: 1.80
     2s    -20.229985    2.439742
     2p    -15.503117    2.137023
 no old-style atom pair restraining (fixing) potential

molecular fragmentation (1/2 indicates fragments):
111111111111111111111111111111111111111111111111111111111111111111111111
111111111111111111111111111111111111111111111111111111111111111111111111
122222222222222222222222222222222222222222222222222222222222222222222222
222222222222222222222222222222222222222222222222222222222222222222222222
222222222222222222222222222222222222222222222222222222222222222222222222
222222222222222222222222222222222222222222222222222222222222222222222222
222222222222222222222222222222222222222222222222222222222222222222222222
222222222222222222222222222222222222222222222222222222222222222222222222
222222222222222222222222222222222222222222222222222222222221122222222222
222
# atoms in fragment 1/2:   147   504
 fragment masses (1/2) :     1078.14     3566.95
CMA distance (Bohr)    :  12.040
constraining FC (au)   :  0.0500
           ------------------------------------------------- 
          |        Self-Consistent Charge Iterations        |
           ------------------------------------------------- 

 Ncao       : 1632
 Nao        : 1632
 Nshell     : 978
 Nel        : 1834
 T(el)      :   500.0
 intcut     :    35.0
 scfconv/Eh :  0.100E-06
   qconv/e  :  0.100E-04
 intneglect :  0.100E-08
 broydamp   :      0.400
 iter      E             dE          RMSdq      gap      omega  full diag
   1  -1061.3638863 -0.106136E+04  0.485E+00    3.03       0.0  T
   2  -1064.3866987 -0.302281E+01  0.225E+00    1.73       1.0  T
   3  -1064.5652086 -0.178510E+00  0.133E+00    1.92       1.0  T
   4  -1064.7209915 -0.155783E+00  0.281E-01    0.88       1.0  T
   5  -1064.7359400 -0.149485E-01  0.140E-01    1.05       1.0  T
   6  -1064.7378894 -0.194933E-02  0.688E-02    1.03       1.0  T
   7  -1064.7385761 -0.686775E-03  0.271E-02    1.06       1.0  T
   8  -1064.7386859 -0.109708E-03  0.146E-02    1.06       1.0  T
   9  -1064.7387166 -0.307226E-04  0.672E-03    1.06       1.0  T
  10  -1064.7387235 -0.693187E-05  0.288E-03    1.06       1.4  T
  11  -1064.7387248 -0.129939E-05  0.122E-03    1.06       3.2  T
  12  -1064.7387250 -0.189950E-06  0.605E-04    1.06       6.5  T
  13  -1064.7387251 -0.674461E-07  0.261E-04    1.06      15.0  T
  14  -1064.7387251 -0.937143E-08  0.122E-04    1.05      32.0  T
  15  -1064.7387251 -0.245973E-08  0.490E-05    1.05      80.0  T
  16  -1064.7387251 -0.362888E-09  0.234E-05    1.05     167.6  T
speedup  1.00
cpu  time for SCC   22.85 s
wall time for SCC   22.85 s

   *** convergence criteria satisfied after 16 iterations ***

          eigenvalues
 #    :         905        906        907        908        909        910        911        912
 occ. :        2.000      2.000      2.000      2.000      2.000      2.000      2.000      2.000
 eps  :        -9.906     -9.889     -9.877     -9.872     -9.845     -9.795     -9.782     -9.781
 #    :         913        914        915        916        917        918        919        920
 occ. :        2.000      2.000      2.000      2.000      2.000      0.000      0.000      0.000
 eps  :        -9.771     -9.750     -9.743     -9.732     -9.331     -8.276     -8.241     -7.950
 #    :         921        922        923        924        925        926        927        928
 occ. :        0.000      0.000      0.000      0.000      0.000      0.000      0.000      0.000
 eps  :        -7.881     -7.877     -7.707     -7.645     -7.545     -6.772     -6.766     -6.718


   #   Z            q   n(s)   n(p)   n(d)      C6AA      α(0)
   1   7 N     -0.414  1.287  4.126  0.000    30.752     8.236
   2   6 C      0.026  1.038  2.936  0.000    20.147     6.393
   3   6 C      0.267  1.053  2.680  0.000    22.495     7.767
   4   8 O     -0.533  1.779  4.753  0.000    24.520     6.639
   5   6 C     -0.088  1.006  3.083  0.000    22.167     6.700
   6   6 C     -0.013  1.089  2.924  0.000    28.337     8.731
   7   6 C     -0.062  1.063  2.999  0.000    29.548     8.914
   8   6 C     -0.061  1.063  2.998  0.000    29.522     8.910
   9   6 C     -0.077  1.055  3.022  0.000    29.916     8.969
  10   6 C     -0.089  1.055  3.035  0.000    30.241     9.018
  11   6 C      0.138  1.050  2.812  0.000    24.993     8.193
  12   8 O     -0.444  1.681  4.763  0.000    21.718     6.291
  13   1 H      0.169  0.831  0.000  0.000     1.276     1.769
  14   1 H      0.087  0.913  0.000  0.000     1.911     2.162
  15   1 H      0.044  0.956  0.000  0.000     2.397     2.421
  16   1 H      0.040  0.960  0.000  0.000     2.453     2.449
  17   1 H      0.056  0.944  0.000  0.000     2.251     2.346
  18   1 H      0.064  0.936  0.000  0.000     2.146     2.291
  19   1 H      0.080  0.920  0.000  0.000     1.974     2.197
  20   1 H      0.091  0.909  0.000  0.000     1.866     2.136
  21   1 H      0.353  0.647  0.000  0.000     0.580     1.195
  22   7 N     -0.196  1.212  3.984  0.000    25.248     7.463
  23   6 C      0.034  1.026  2.940  0.000    20.001     6.367
  24   6 C      0.265  1.045  2.689  0.000    22.522     7.772
  25   8 O     -0.468  1.711  4.757  0.000    23.084     6.442
  26   6 C     -0.135  0.974  3.160  0.000    23.118     6.851
  27   1 H      0.236  0.764  0.000  0.000     0.938     1.517
  28   1 H      0.051  0.949  0.000  0.000     2.302     2.372
  29   1 H      0.056  0.944  0.000  0.000     2.250     2.346
  30   1 H      0.070  0.930  0.000  0.000     2.086     2.258
  31   1 H      0.091  0.909  0.000  0.000     1.870     2.138
  32   7 N     -0.186  1.211  3.975  0.000    25.024     7.430
  33   6 C      0.044  1.031  2.925  0.000    19.834     6.340
  34   6 C      0.281  1.037  2.682  0.000    22.246     7.724
  35   8 O     -0.517  1.762  4.755  0.000    24.161     6.590
  36   6 C     -0.113  1.018  3.094  0.000    22.643     6.773
  37   6 C      0.370  1.024  2.607  0.000    20.735     7.452
  38   8 O     -0.671  1.786  4.885  0.000    27.928     7.085
  39   8 O     -0.635  1.770  4.864  0.000    26.992     6.966
  40   1 H      0.182  0.818  0.000  0.000     1.202     1.717
  41   1 H      0.076  0.924  0.000  0.000     2.022     2.223
  42   1 H      0.047  0.953  0.000  0.000     2.355     2.399
  43   1 H      0.056  0.944  0.000  0.000     2.242     2.342
  44   7 N     -0.168  1.197  3.970  0.000    24.626     7.370
  45   6 C     -0.003  1.038  2.965  0.000    20.623     6.464
  46   6 C      0.275  1.038  2.687  0.000    22.348     7.742
  47   8 O     -0.499  1.759  4.740  0.000    23.770     6.537
  48   6 C      0.088  1.030  2.883  0.000    19.203     6.253
  49   8 O     -0.477  1.662  4.814  0.000    22.397     6.389
  50   6 C     -0.170  0.977  3.193  0.000    23.844     6.958
  51   1 H      0.225  0.775  0.000  0.000     0.986     1.555
  52   1 H      0.100  0.900  0.000  0.000     1.785     2.089
  53   1 H      0.093  0.907  0.000  0.000     1.852     2.128
  54   1 H      0.321  0.679  0.000  0.000     0.661     1.277
  55   1 H      0.111  0.889  0.000  0.000     1.690     2.033
  56   1 H      0.070  0.930  0.000  0.000     2.088     2.259
  57   1 H      0.066  0.934  0.000  0.000     2.133     2.284
  58   7 N     -0.189  1.204  3.985  0.000    25.108     7.442
  59   6 C     -0.003  1.048  2.955  0.000    20.629     6.467
  60   6 C      0.253  1.052  2.695  0.000    22.748     7.810
  61   8 O     -0.487  1.748  4.739  0.000    23.507     6.500
  62   6 C      0.106  1.026  2.868  0.000    18.928     6.210
  63   8 O     -0.510  1.692  4.819  0.000    23.111     6.490
  64   6 C     -0.172  0.981  3.192  0.000    23.890     6.965
  65   1 H      0.235  0.765  0.000  0.000     0.945     1.523
  66   1 H      0.095  0.905  0.000  0.000     1.830     2.115
  67   1 H      0.062  0.938  0.000  0.000     2.174     2.305
  68   1 H      0.357  0.643  0.000  0.000     0.572     1.188
  69   1 H      0.088  0.912  0.000  0.000     1.895     2.153
  70   1 H      0.079  0.921  0.000  0.000     1.993     2.207
  71   1 H      0.070  0.930  0.000  0.000     2.083     2.257
  72   7 N     -0.177  1.208  3.969  0.000    24.829     7.401
  73   6 C     -0.002  1.050  2.952  0.000    20.618     6.465
  74   6 C      0.275  1.046  2.679  0.000    22.349     7.741
  75   8 O     -0.515  1.751  4.765  0.000    24.124     6.585
  76   6 C     -0.039  1.044  2.995  0.000    21.227     6.553
  77   6 C     -0.106  1.015  3.091  0.000    22.513     6.754
  78   6 C     -0.156  0.977  3.179  0.000    23.547     6.914
  79   6 C     -0.164  0.988  3.176  0.000    23.737     6.946
  80   1 H      0.226  0.774  0.000  0.000     0.983     1.553
  81   1 H      0.083  0.917  0.000  0.000     1.947     2.182
  82   1 H      0.066  0.934  0.000  0.000     2.129     2.281
  83   1 H      0.057  0.943  0.000  0.000     2.238     2.339
  84   1 H      0.069  0.931  0.000  0.000     2.097     2.265
  85   1 H      0.093  0.907  0.000  0.000     1.854     2.129
  86   1 H      0.044  0.956  0.000  0.000     2.397     2.421
  87   1 H      0.054  0.946  0.000  0.000     2.266     2.354
  88   1 H      0.072  0.928  0.000  0.000     2.065     2.247
  89   1 H      0.071  0.929  0.000  0.000     2.078     2.254
  90   1 H      0.069  0.931  0.000  0.000     2.096     2.264
  91   7 N     -0.167  1.212  3.955  0.000    24.622     7.370
  92   6 C      0.013  1.037  2.950  0.000    20.361     6.425
  93   6 C      0.267  1.043  2.690  0.000    22.500     7.768
  94   8 O     -0.489  1.752  4.737  0.000    23.537     6.505
  95   6 C     -0.165  0.982  3.183  0.000    23.728     6.941
  96   1 H      0.227  0.773  0.000  0.000     0.976     1.548
  97   1 H      0.086  0.914  0.000  0.000     1.920     2.167
  98   1 H      0.076  0.924  0.000  0.000     2.018     2.221
  99   1 H      0.101  0.899  0.000  0.000     1.775     2.083
 100   1 H      0.077  0.923  0.000  0.000     2.010     2.217
 101   7 N     -0.180  1.206  3.974  0.000    24.889     7.410
 102   6 C      0.011  1.036  2.953  0.000    20.393     6.429
 103   6 C      0.262  1.044  2.694  0.000    22.590     7.783
 104   8 O     -0.498  1.751  4.747  0.000    23.750     6.534
 105   6 C     -0.102  1.014  3.087  0.000    22.416     6.737
 106   6 C     -0.030  1.039  2.991  0.000    21.081     6.530
 107   6 C     -0.149  0.980  3.168  0.000    23.397     6.892
 108   6 C     -0.167  0.984  3.184  0.000    23.790     6.951
 109   1 H      0.218  0.782  0.000  0.000     1.019     1.581
 110   1 H      0.088  0.912  0.000  0.000     1.893     2.151
 111   1 H      0.074  0.926  0.000  0.000     2.038     2.232
 112   1 H      0.068  0.932  0.000  0.000     2.109     2.271
 113   1 H      0.049  0.951  0.000  0.000     2.331     2.387
 114   1 H      0.059  0.941  0.000  0.000     2.214     2.326
 115   1 H      0.040  0.960  0.000  0.000     2.449     2.447
 116   1 H      0.062  0.938  0.000  0.000     2.176     2.306
 117   1 H      0.074  0.926  0.000  0.000     2.045     2.236
 118   1 H      0.071  0.929  0.000  0.000     2.074     2.252
 119   1 H      0.056  0.944  0.000  0.000     2.250     2.345
 120   7 N     -0.186  1.214  3.972  0.000    25.032     7.431
 121   6 C      0.033  1.032  2.935  0.000    20.017     6.369
 122   6 C      0.270  1.042  2.688  0.000    22.436     7.757
 123   8 O     -0.481  1.748  4.733  0.000    23.367     6.481
 124   6 C     -0.103  1.010  3.093  0.000    22.442     6.742
 125   6 C      0.365  1.023  2.612  0.000    20.816     7.467
 126   8 O     -0.652  1.784  4.869  0.000    27.443     7.024
 127   8 O     -0.646  1.768  4.878  0.000    27.285     7.003
 128   1 H      0.212  0.788  0.000  0.000     1.047     1.603
 129   1 H      0.079  0.921  0.000  0.000     1.994     2.208
 130   1 H      0.045  0.955  0.000  0.000     2.376     2.410
 131   1 H      0.043  0.957  0.000  0.000     2.413     2.429
 132   7 N     -0.195  1.210  3.985  0.000    25.240     7.462
 133   6 C      0.021  1.034  2.945  0.000    20.226     6.404
 134   6 C      0.202  1.080  2.717  0.000    23.698     7.972
 135   8 O     -0.336  1.747  4.589  0.000    20.438     6.061
 136   6 C     -0.129  1.019  3.111  0.000    22.960     6.818
 137   6 C      0.283  1.028  2.689  0.000    22.204     7.715
 138   8 O     -0.452  1.737  4.715  0.000    22.756     6.396
 139   7 N     -0.274  1.180  4.095  0.000    27.092     7.730
 140   1 H      0.225  0.775  0.000  0.000     0.987     1.556
 141   1 H      0.119  0.881  0.000  0.000     1.622     1.991
 142   1 H      0.102  0.898  0.000  0.000     1.766     2.078
 143   1 H      0.116  0.884  0.000  0.000     1.648     2.007
 144   1 H      0.233  0.767  0.000  0.000     0.953     1.529
 145   1 H      0.209  0.791  0.000  0.000     1.060     1.613
 146   7 N     -0.423  1.296  4.127  0.000    31.017     8.271
 147   6 C      0.019  1.041  2.940  0.000    20.265     6.411
 148   6 C      0.274  1.047  2.679  0.000    22.365     7.745
 149   8 O     -0.516  1.753  4.763  0.000    24.139     6.587
 150   6 C     -0.035  1.041  2.994  0.000    21.162     6.542
 151   6 C     -0.091  1.008  3.083  0.000    22.220     6.709
 152   6 C     -0.158  0.980  3.178  0.000    23.589     6.921
 153   6 C     -0.157  0.981  3.177  0.000    23.594     6.924
 154   1 H      0.186  0.814  0.000  0.000     1.182     1.703
 155   1 H      0.053  0.947  0.000  0.000     2.287     2.364
 156   1 H      0.048  0.952  0.000  0.000     2.342     2.393
 157   1 H      0.059  0.941  0.000  0.000     2.209     2.324
 158   1 H      0.047  0.953  0.000  0.000     2.360     2.402
 159   1 H      0.079  0.921  0.000  0.000     1.987     2.204
 160   1 H      0.030  0.970  0.000  0.000     2.586     2.515
 161   1 H      0.064  0.936  0.000  0.000     2.157     2.296
 162   1 H      0.060  0.940  0.000  0.000     2.194     2.316
 163   1 H      0.055  0.945  0.000  0.000     2.254     2.348
 164   1 H      0.065  0.935  0.000  0.000     2.145     2.290
 165   7 N     -0.191  1.210  3.981  0.000    25.138     7.446
 166   6 C      0.031  1.031  2.938  0.000    20.041     6.372
 167   6 C      0.261  1.044  2.695  0.000    22.597     7.785
 168   8 O     -0.480  1.731  4.749  0.000    23.339     6.477
 169   6 C     -0.115  1.014  3.101  0.000    22.673     6.776
 170   6 C      0.368  1.021  2.610  0.000    20.752     7.455
 171   8 O     -0.659  1.780  4.878  0.000    27.603     7.044
 172   8 O     -0.643  1.771  4.872  0.000    27.200     6.992
 173   1 H      0.217  0.783  0.000  0.000     1.022     1.584
 174   1 H      0.065  0.935  0.000  0.000     2.142     2.289
 175   1 H      0.066  0.934  0.000  0.000     2.126     2.280
 176   1 H      0.055  0.945  0.000  0.000     2.261     2.351
 177   7 N     -0.175  1.206  3.969  0.000    24.783     7.394
 178   6 C     -0.042  1.001  3.041  0.000    21.367     6.590
 179   6 C      0.279  1.035  2.686  0.000    22.286     7.730
 180   8 O     -0.502  1.760  4.742  0.000    23.828     6.545
 181   1 H      0.225  0.775  0.000  0.000     0.985     1.554
 182   1 H      0.104  0.896  0.000  0.000     1.745     2.066
 183   1 H      0.096  0.904  0.000  0.000     1.825     2.113
 184   7 N     -0.184  1.210  3.974  0.000    24.995     7.425
 185   6 C      0.026  1.031  2.943  0.000    20.130     6.387
 186   6 C      0.259  1.043  2.697  0.000    22.631     7.790
 187   8 O     -0.473  1.710  4.763  0.000    23.193     6.457
 188   6 C     -0.102  1.012  3.091  0.000    22.433     6.740
 189   6 C      0.373  1.015  2.612  0.000    20.672     7.441
 190   8 O     -0.637  1.771  4.867  0.000    27.054     6.974
 191   8 O     -0.655  1.762  4.892  0.000    27.509     7.032
 192   1 H      0.224  0.776  0.000  0.000     0.990     1.558
 193   1 H      0.084  0.916  0.000  0.000     1.940     2.178
 194   1 H      0.039  0.961  0.000  0.000     2.465     2.455
 195   1 H      0.047  0.953  0.000  0.000     2.351     2.397
 196   7 N     -0.180  1.208  3.972  0.000    24.901     7.411
 197   6 C      0.012  1.038  2.950  0.000    20.382     6.428
 198   6 C      0.262  1.046  2.693  0.000    22.591     7.784
 199   8 O     -0.537  1.778  4.759  0.000    24.609     6.651
 200   6 C     -0.100  1.009  3.091  0.000    22.383     6.732
 201   6 C     -0.037  1.039  2.998  0.000    21.197     6.548
 202   6 C     -0.162  0.980  3.182  0.000    23.675     6.933
 203   6 C     -0.163  0.984  3.179  0.000    23.696     6.937
 204   1 H      0.205  0.795  0.000  0.000     1.082     1.630
 205   1 H      0.107  0.893  0.000  0.000     1.723     2.053
 206   1 H      0.066  0.934  0.000  0.000     2.133     2.284
 207   1 H      0.079  0.921  0.000  0.000     1.990     2.206
 208   1 H      0.067  0.933  0.000  0.000     2.122     2.278
 209   1 H      0.084  0.916  0.000  0.000     1.937     2.176
 210   1 H      0.043  0.957  0.000  0.000     2.411     2.428
 211   1 H      0.040  0.960  0.000  0.000     2.443     2.444
 212   1 H      0.069  0.931  0.000  0.000     2.100     2.266
 213   1 H      0.051  0.949  0.000  0.000     2.305     2.374
 214   1 H      0.069  0.931  0.000  0.000     2.091     2.261
 215   7 N     -0.166  1.206  3.961  0.000    24.602     7.367
 216   6 C      0.010  1.031  2.959  0.000    20.399     6.430
 217   6 C      0.264  1.043  2.693  0.000    22.543     7.775
 218   8 O     -0.480  1.728  4.752  0.000    23.346     6.478
 219   6 C     -0.098  1.008  3.090  0.000    22.353     6.728
 220   6 C     -0.092  1.007  3.086  0.000    22.251     6.714
 221   6 C     -0.122  1.012  3.109  0.000    22.814     6.798
 222   6 C     -0.067  1.021  3.046  0.000    21.857     6.670
 223   7 N     -0.138  1.145  3.994  0.000    23.987     7.274
 224   1 H      0.242  0.758  0.000  0.000     0.914     1.497
 225   1 H      0.067  0.933  0.000  0.000     2.122     2.278
 226   1 H      0.092  0.908  0.000  0.000     1.858     2.131
 227   1 H      0.074  0.926  0.000  0.000     2.046     2.237
 228   1 H      0.088  0.912  0.000  0.000     1.894     2.152
 229   1 H      0.049  0.951  0.000  0.000     2.335     2.390
 230   1 H      0.078  0.922  0.000  0.000     2.001     2.212
 231   1 H      0.103  0.897  0.000  0.000     1.759     2.074
 232   1 H      0.136  0.864  0.000  0.000     1.488     1.908
 233   1 H      0.116  0.884  0.000  0.000     1.644     2.005
 234   1 H      0.299  0.701  0.000  0.000     0.716     1.326
 235   1 H      0.279  0.721  0.000  0.000     0.779     1.382
 236   1 H      0.287  0.713  0.000  0.000     0.754     1.360
 237   7 N     -0.176  1.211  3.965  0.000    24.811     7.398
 238   6 C      0.029  1.032  2.939  0.000    20.088     6.381
 239   6 C      0.206  1.083  2.710  0.000    23.623     7.960
 240   8 O     -0.375  1.766  4.610  0.000    21.197     6.173
 241   6 C     -0.094  1.008  3.085  0.000    22.263     6.714
 242   6 C     -0.006  1.077  2.929  0.000    28.164     8.705
 243   6 C     -0.062  1.057  3.004  0.000    29.538     8.913
 244   6 C     -0.062  1.052  3.010  0.000    29.545     8.915
 245   6 C     -0.055  1.060  2.996  0.000    29.371     8.888
 246   6 C     -0.057  1.056  3.001  0.000    29.422     8.896
 247   6 C     -0.064  1.058  3.006  0.000    29.593     8.921
 248   1 H      0.220  0.780  0.000  0.000     1.010     1.574
 249   1 H      0.109  0.891  0.000  0.000     1.707     2.043
 250   1 H      0.082  0.918  0.000  0.000     1.959     2.189
 251   1 H      0.056  0.944  0.000  0.000     2.249     2.345
 252   1 H      0.073  0.927  0.000  0.000     2.054     2.241
 253   1 H      0.032  0.968  0.000  0.000     2.563     2.503
 254   1 H      0.102  0.898  0.000  0.000     1.769     2.080
 255   1 H      0.060  0.940  0.000  0.000     2.201     2.320
 256   1 H      0.090  0.910  0.000  0.000     1.878     2.143
 257   7 N     -0.418  1.279  4.139  0.000    30.876     8.253
 258   6 C     -0.046  1.004  3.042  0.000    21.467     6.608
 259   6 C      0.258  1.046  2.696  0.000    22.655     7.794
 260   8 O     -0.497  1.754  4.743  0.000    23.729     6.531
 261   1 H      0.180  0.820  0.000  0.000     1.214     1.726
 262   1 H      0.078  0.922  0.000  0.000     2.002     2.212
 263   1 H      0.107  0.893  0.000  0.000     1.721     2.051
 264   7 N     -0.182  1.198  3.984  0.000    24.953     7.419
 265   6 C      0.006  1.040  2.955  0.000    20.477     6.442
 266   6 C      0.269  1.043  2.688  0.000    22.462     7.762
 267   8 O     -0.495  1.754  4.740  0.000    23.666     6.522
 268   6 C     -0.093  1.004  3.089  0.000    22.255     6.713
 269   6 C     -0.108  1.003  3.105  0.000    22.543     6.757
 270   6 C     -0.112  1.003  3.109  0.000    22.623     6.769
 271   6 C     -0.073  1.015  3.058  0.000    21.964     6.685
 272   7 N     -0.139  1.143  3.997  0.000    24.002     7.276
 273   1 H      0.217  0.783  0.000  0.000     1.024     1.585
 274   1 H      0.091  0.909  0.000  0.000     1.873     2.140
 275   1 H      0.066  0.934  0.000  0.000     2.126     2.280
 276   1 H      0.055  0.945  0.000  0.000     2.253     2.347
 277   1 H      0.072  0.928  0.000  0.000     2.063     2.246
 278   1 H      0.084  0.916  0.000  0.000     1.942     2.179
 279   1 H      0.104  0.896  0.000  0.000     1.748     2.068
 280   1 H      0.076  0.924  0.000  0.000     2.018     2.221
 281   1 H      0.142  0.858  0.000  0.000     1.448     1.881
 282   1 H      0.133  0.867  0.000  0.000     1.513     1.923
 283   1 H      0.298  0.702  0.000  0.000     0.720     1.329
 284   1 H      0.274  0.726  0.000  0.000     0.797     1.399
 285   1 H      0.298  0.702  0.000  0.000     0.720     1.329
 286   7 N     -0.173  1.202  3.972  0.000    24.748     7.389
 287   6 C      0.018  1.033  2.949  0.000    20.270     6.409
 288   6 C      0.265  1.046  2.690  0.000    22.536     7.774
 289   8 O     -0.492  1.744  4.748  0.000    23.610     6.515
 290   6 C     -0.105  1.009  3.096  0.000    22.480     6.747
 291   6 C     -0.011  1.087  2.925  0.000    28.298     8.726
 292   6 C     -0.053  1.063  2.990  0.000    29.311     8.879
 293   6 C     -0.061  1.061  3.000  0.000    29.515     8.909
 294   6 C     -0.083  1.052  3.031  0.000    30.085     8.994
 295   6 C     -0.096  1.052  3.044  0.000    30.408     9.043
 296   6 C      0.115  1.054  2.831  0.000    25.453     8.269
 297   8 O     -0.409  1.649  4.760  0.000    21.020     6.189
 298   1 H      0.218  0.782  0.000  0.000     1.020     1.582
 299   1 H      0.081  0.919  0.000  0.000     1.965     2.192
 300   1 H      0.100  0.900  0.000  0.000     1.788     2.091
 301   1 H      0.066  0.934  0.000  0.000     2.133     2.284
 302   1 H      0.087  0.913  0.000  0.000     1.906     2.159
 303   1 H      0.058  0.942  0.000  0.000     2.223     2.331
 304   1 H      0.111  0.889  0.000  0.000     1.684     2.029
 305   1 H      0.054  0.946  0.000  0.000     2.274     2.358
 306   1 H      0.305  0.695  0.000  0.000     0.705     1.318
 307   7 N     -0.169  1.203  3.966  0.000    24.654     7.374
 308   6 C      0.010  1.042  2.948  0.000    20.418     6.434
 309   6 C      0.255  1.048  2.697  0.000    22.704     7.803
 310   8 O     -0.487  1.746  4.741  0.000    23.499     6.499
 311   6 C     -0.102  1.013  3.089  0.000    22.440     6.742
 312   6 C     -0.011  1.087  2.923  0.000    28.278     8.722
 313   6 C     -0.055  1.059  2.996  0.000    29.367     8.887
 314   6 C     -0.061  1.062  2.999  0.000    29.518     8.910
 315   6 C     -0.077  1.049  3.028  0.000    29.921     8.970
 316   6 C     -0.085  1.051  3.034  0.000    30.141     9.003
 317   6 C      0.132  1.052  2.816  0.000    25.117     8.214
 318   8 O     -0.437  1.670  4.767  0.000    21.575     6.270
 319   1 H      0.216  0.784  0.000  0.000     1.026     1.587
 320   1 H      0.091  0.909  0.000  0.000     1.868     2.137
 321   1 H      0.077  0.923  0.000  0.000     2.010     2.217
 322   1 H      0.086  0.914  0.000  0.000     1.920     2.167
 323   1 H      0.064  0.936  0.000  0.000     2.149     2.292
 324   1 H      0.062  0.938  0.000  0.000     2.178     2.307
 325   1 H      0.076  0.924  0.000  0.000     2.015     2.220
 326   1 H      0.069  0.931  0.000  0.000     2.099     2.265
 327   1 H      0.343  0.657  0.000  0.000     0.604     1.220
 328   7 N     -0.166  1.197  3.969  0.000    24.598     7.366
 329   6 C      0.015  1.034  2.950  0.000    20.319     6.418
 330   6 C      0.181  1.091  2.729  0.000    24.113     8.042
 331   8 O     -0.363  1.771  4.592  0.000    20.964     6.139
 332   6 C     -0.167  0.984  3.184  0.000    23.782     6.949
 333   1 H      0.224  0.776  0.000  0.000     0.991     1.559
 334   1 H      0.106  0.894  0.000  0.000     1.726     2.054
 335   1 H      0.091  0.909  0.000  0.000     1.872     2.139
 336   1 H      0.094  0.906  0.000  0.000     1.843     2.123
 337   1 H      0.086  0.914  0.000  0.000     1.919     2.166
 338   7 N     -0.420  1.287  4.132  0.000    30.922     8.259
 339   6 C      0.026  1.031  2.942  0.000    20.135     6.389
 340   6 C      0.278  1.041  2.682  0.000    22.304     7.734
 341   8 O     -0.504  1.743  4.761  0.000    23.875     6.551
 342   6 C     -0.068  1.005  3.063  0.000    21.792     6.644
 343   6 C     -0.118  1.014  3.104  0.000    22.752     6.789
 344   6 C      0.366  1.023  2.611  0.000    20.794     7.463
 345   8 O     -0.654  1.770  4.884  0.000    27.492     7.030
 346   8 O     -0.652  1.761  4.892  0.000    27.438     7.023
 347   1 H      0.183  0.817  0.000  0.000     1.197     1.713
 348   1 H      0.049  0.951  0.000  0.000     2.330     2.387
 349   1 H      0.055  0.945  0.000  0.000     2.257     2.349
 350   1 H      0.028  0.972  0.000  0.000     2.621     2.531
 351   1 H      0.033  0.967  0.000  0.000     2.543     2.493
 352   1 H      0.047  0.953  0.000  0.000     2.355     2.400
 353   7 N     -0.186  1.207  3.979  0.000    25.040     7.432
 354   6 C      0.010  1.035  2.955  0.000    20.413     6.432
 355   6 C      0.265  1.045  2.691  0.000    22.534     7.773
 356   8 O     -0.486  1.737  4.749  0.000    23.468     6.495
 357   6 C     -0.037  1.047  2.990  0.000    21.205     6.549
 358   6 C     -0.154  0.980  3.174  0.000    23.516     6.911
 359   6 C     -0.160  0.982  3.177  0.000    23.638     6.930
 360   1 H      0.215  0.785  0.000  0.000     1.030     1.590
 361   1 H      0.075  0.925  0.000  0.000     2.026     2.226
[...]
 365   1 H      0.059  0.941  0.000  0.000     2.210     2.325
 366   1 H      0.072  0.928  0.000  0.000     2.059     2.243
 367   1 H      0.056  0.944  0.000  0.000     2.241     2.341
 368   1 H      0.061  0.939  0.000  0.000     2.182     2.310
 369   7 N     -0.169  1.203  3.966  0.000    24.662     7.376
 370   6 C      0.005  1.037  2.958  0.000    20.487     6.444
 371   6 C      0.264  1.041  2.696  0.000    22.553     7.777
 372   8 O     -0.497  1.757  4.740  0.000    23.727     6.531
 373   6 C      0.060  0.992  2.948  0.000    19.743     6.358
 374   8 O     -0.500  1.677  4.822  0.000    22.886     6.458
 375   1 H      0.222  0.778  0.000  0.000     1.002     1.568
 376   1 H      0.104  0.896  0.000  0.000     1.753     2.070
 377   1 H      0.050  0.950  0.000  0.000     2.315     2.379
 378   1 H      0.078  0.922  0.000  0.000     2.002     2.212
 379   1 H      0.355  0.645  0.000  0.000     0.576     1.191
 380   7 N     -0.174  1.208  3.966  0.000    24.773     7.392
 381   6 C     -0.006  1.047  2.959  0.000    20.687     6.475
 382   6 C      0.258  1.047  2.695  0.000    22.647     7.793
 383   8 O     -0.470  1.719  4.751  0.000    23.125     6.447
 384   6 C     -0.046  1.046  3.000  0.000    21.359     6.573
 385   6 C     -0.163  0.980  3.183  0.000    23.689     6.936
 386   6 C     -0.160  0.976  3.184  0.000    23.632     6.926
 387   1 H      0.239  0.761  0.000  0.000     0.927     1.508
 388   1 H      0.088  0.912  0.000  0.000     1.894     2.152
 389   1 H      0.094  0.906  0.000  0.000     1.839     2.120
 390   1 H      0.092  0.908  0.000  0.000     1.857     2.131
 391   1 H      0.053  0.947  0.000  0.000     2.285     2.364
 392   1 H      0.042  0.958  0.000  0.000     2.416     2.430
 393   1 H      0.083  0.917  0.000  0.000     1.945     2.181
 394   1 H      0.051  0.949  0.000  0.000     2.309     2.376
 395   1 H      0.064  0.936  0.000  0.000     2.148     2.292
 396   7 N     -0.197  1.224  3.974  0.000    25.282     7.468
 397   6 C      0.034  1.031  2.935  0.000    19.995     6.366
 398   6 C      0.271  1.045  2.684  0.000    22.414     7.753
 399   8 O     -0.501  1.751  4.750  0.000    23.810     6.542
 400   6 C     -0.096  1.009  3.087  0.000    22.311     6.722
 401   6 C      0.372  1.019  2.609  0.000    20.690     7.444
 402   8 O     -0.664  1.772  4.892  0.000    27.752     7.063
 403   8 O     -0.631  1.754  4.877  0.000    26.905     6.954
 404   1 H      0.217  0.783  0.000  0.000     1.022     1.584
 405   1 H      0.074  0.926  0.000  0.000     2.045     2.236
 406   1 H      0.022  0.978  0.000  0.000     2.703     2.571
 407   1 H      0.029  0.971  0.000  0.000     2.593     2.518
 408   7 N     -0.198  1.219  3.979  0.000    25.300     7.470
 409   6 C      0.005  1.042  2.953  0.000    20.493     6.446
 410   6 C      0.200  1.082  2.717  0.000    23.733     7.978
 411   8 O     -0.345  1.749  4.596  0.000    20.616     6.088
 412   6 C     -0.104  1.005  3.099  0.000    22.461     6.744
 413   6 C     -0.125  1.008  3.117  0.000    22.884     6.807
 414   6 C     -0.131  1.005  3.126  0.000    22.994     6.824
 415   6 C     -0.085  1.011  3.074  0.000    22.188     6.718
 416   7 N     -0.123  1.135  3.988  0.000    23.665     7.225
 417   1 H      0.244  0.756  0.000  0.000     0.907     1.492
 418   1 H      0.120  0.880  0.000  0.000     1.613     1.986
 419   1 H      0.091  0.909  0.000  0.000     1.864     2.135
 420   1 H      0.102  0.898  0.000  0.000     1.766     2.078
 421   1 H      0.113  0.887  0.000  0.000     1.669     2.020
 422   1 H      0.087  0.913  0.000  0.000     1.905     2.158
 423   1 H      0.082  0.918  0.000  0.000     1.961     2.190
 424   1 H      0.113  0.887  0.000  0.000     1.673     2.022
 425   1 H      0.134  0.866  0.000  0.000     1.504     1.918
 426   1 H      0.150  0.850  0.000  0.000     1.391     1.844
 427   1 H      0.285  0.715  0.000  0.000     0.759     1.364
 428   1 H      0.289  0.711  0.000  0.000     0.746     1.353
 429   1 H      0.269  0.731  0.000  0.000     0.814     1.414
 430   7 N     -0.410  1.275  4.134  0.000    30.639     8.221
 431   6 C      0.022  1.034  2.944  0.000    20.212     6.403
 432   6 C      0.276  1.043  2.680  0.000    22.326     7.737
 433   8 O     -0.508  1.751  4.758  0.000    23.966     6.564
 434   6 C     -0.123  1.016  3.106  0.000    22.833     6.800
 435   6 C      0.299  1.030  2.671  0.000    21.923     7.666
 436   8 O     -0.543  1.756  4.787  0.000    24.764     6.672
 437   7 N     -0.282  1.195  4.087  0.000    27.275     7.756
 438   1 H      0.177  0.823  0.000  0.000     1.228     1.736
 439   1 H      0.101  0.899  0.000  0.000     1.777     2.084
 440   1 H      0.089  0.911  0.000  0.000     1.887     2.148
 441   1 H      0.089  0.911  0.000  0.000     1.884     2.146
 442   1 H      0.207  0.793  0.000  0.000     1.070     1.620
 443   1 H      0.252  0.748  0.000  0.000     0.876     1.466
 444   7 N     -0.190  1.207  3.983  0.000    25.126     7.445
 445   6 C     -0.046  1.005  3.042  0.000    21.454     6.603
 446   6 C      0.271  1.035  2.694  0.000    22.426     7.755
 447   8 O     -0.502  1.736  4.767  0.000    23.838     6.546
 448   1 H      0.227  0.773  0.000  0.000     0.977     1.549
 449   1 H      0.115  0.885  0.000  0.000     1.652     2.010
 450   1 H      0.118  0.882  0.000  0.000     1.627     1.995
 451   7 N     -0.199  1.222  3.978  0.000    25.326     7.474
 452   6 C      0.035  1.031  2.933  0.000    19.977     6.363
 453   6 C      0.283  1.041  2.675  0.000    22.205     7.717
 454   8 O     -0.487  1.717  4.770  0.000    23.507     6.500
 455   6 C     -0.054  0.995  3.059  0.000    21.529     6.603
 456   6 C     -0.116  1.015  3.100  0.000    22.703     6.782
 457   6 C      0.373  1.025  2.602  0.000    20.681     7.442
 458   8 O     -0.650  1.763  4.887  0.000    27.384     7.016
 459   8 O     -0.663  1.769  4.895  0.000    27.731     7.060
 460   1 H      0.220  0.780  0.000  0.000     1.009     1.574
 461   1 H      0.060  0.940  0.000  0.000     2.193     2.316
 462   1 H      0.045  0.955  0.000  0.000     2.382     2.413
 463   1 H      0.030  0.970  0.000  0.000     2.581     2.512
 464   1 H      0.018  0.982  0.000  0.000     2.759     2.597
 465   1 H      0.058  0.942  0.000  0.000     2.224     2.332
 466   7 N     -0.168  1.205  3.963  0.000    24.634     7.371
 467   6 C      0.010  1.040  2.950  0.000    20.397     6.429
 468   6 C      0.198  1.088  2.715  0.000    23.782     7.987
 469   8 O     -0.385  1.764  4.620  0.000    21.379     6.199
 470   6 C     -0.026  1.042  2.984  0.000    20.995     6.517
 471   6 C     -0.163  0.982  3.181  0.000    23.709     6.939
 472   6 C     -0.160  0.980  3.179  0.000    23.628     6.927
 473   1 H      0.216  0.784  0.000  0.000     1.025     1.586
 474   1 H      0.126  0.874  0.000  0.000     1.561     1.954
 475   1 H      0.051  0.949  0.000  0.000     2.311     2.377
 476   1 H      0.085  0.915  0.000  0.000     1.923     2.168
 477   1 H      0.059  0.941  0.000  0.000     2.209     2.324
 478   1 H      0.082  0.918  0.000  0.000     1.960     2.189
 479   1 H      0.075  0.925  0.000  0.000     2.035     2.231
 480   1 H      0.076  0.924  0.000  0.000     2.022     2.223
 481   1 H      0.049  0.951  0.000  0.000     2.327     2.385
 482   7 N     -0.411  1.268  4.142  0.000    30.669     8.225
 483   6 C      0.045  1.020  2.935  0.000    19.829     6.341
 484   6 C      0.263  1.053  2.685  0.000    22.573     7.780
 485   8 O     -0.491  1.726  4.766  0.000    23.596     6.513
 486   6 C     -0.063  1.000  3.063  0.000    21.690     6.628
 487   6 C     -0.109  1.013  3.096  0.000    22.580     6.764
 488   6 C      0.373  1.021  2.606  0.000    20.675     7.441
 489   8 O     -0.684  1.784  4.899  0.000    28.265     7.128
 490   8 O     -0.652  1.762  4.890  0.000    27.441     7.023
 491   1 H      0.198  0.802  0.000  0.000     1.115     1.654
 492   1 H      0.014  0.986  0.000  0.000     2.830     2.631
 493   1 H      0.065  0.935  0.000  0.000     2.139     2.287
 494   1 H      0.025  0.975  0.000  0.000     2.651     2.546
 495   1 H      0.047  0.953  0.000  0.000     2.353     2.399
 496   1 H      0.035  0.965  0.000  0.000     2.513     2.479
 497   7 N     -0.189  1.219  3.970  0.000    25.106     7.442
 498   6 C      0.040  1.035  2.925  0.000    19.896     6.350
 499   6 C      0.275  1.043  2.683  0.000    22.353     7.743
 500   8 O     -0.519  1.742  4.776  0.000    24.200     6.596
 501   6 C     -0.110  1.011  3.099  0.000    22.581     6.763
 502   6 C      0.368  1.018  2.614  0.000    20.759     7.456
 503   8 O     -0.623  1.752  4.871  0.000    26.701     6.928
 504   8 O     -0.653  1.769  4.883  0.000    27.448     7.024
 505   1 H      0.208  0.792  0.000  0.000     1.065     1.616
 506   1 H      0.072  0.928  0.000  0.000     2.063     2.246
 507   1 H      0.049  0.951  0.000  0.000     2.337     2.391
 508   1 H      0.041  0.959  0.000  0.000     2.439     2.442
 509   7 N     -0.169  1.208  3.962  0.000    24.667     7.376
 510   6 C      0.012  1.036  2.952  0.000    20.366     6.424
 511   6 C      0.269  1.043  2.689  0.000    22.465     7.762
 512   8 O     -0.499  1.761  4.737  0.000    23.754     6.535
 513   6 C     -0.031  1.042  2.989  0.000    21.093     6.532
 514   6 C     -0.151  0.980  3.171  0.000    23.456     6.902
 515   6 C     -0.151  0.974  3.178  0.000    23.452     6.900
 516   1 H      0.236  0.764  0.000  0.000     0.940     1.519
 517   1 H      0.069  0.931  0.000  0.000     2.100     2.266
 518   1 H      0.065  0.935  0.000  0.000     2.145     2.290
 519   1 H      0.074  0.926  0.000  0.000     2.042     2.234
 520   1 H      0.038  0.962  0.000  0.000     2.473     2.459
 521   1 H      0.063  0.937  0.000  0.000     2.161     2.299
 522   1 H      0.079  0.921  0.000  0.000     1.991     2.206
 523   1 H      0.068  0.932  0.000  0.000     2.103     2.267
 524   1 H      0.055  0.945  0.000  0.000     2.252     2.347
 525   7 N     -0.199  1.208  3.991  0.000    25.314     7.472
 526   6 C      0.013  1.039  2.948  0.000    20.355     6.423
 527   6 C      0.271  1.039  2.690  0.000    22.416     7.755
 528   8 O     -0.484  1.741  4.743  0.000    23.429     6.490
 529   6 C     -0.102  1.011  3.091  0.000    22.422     6.738
 530   6 C     -0.098  1.008  3.090  0.000    22.363     6.732
 531   6 C     -0.119  1.015  3.104  0.000    22.765     6.791
 532   6 C     -0.072  1.028  3.044  0.000    21.963     6.688
 533   7 N     -0.147  1.149  3.998  0.000    24.167     7.301
 534   1 H      0.204  0.796  0.000  0.000     1.086     1.632
 535   1 H      0.105  0.895  0.000  0.000     1.735     2.060
 536   1 H      0.070  0.930  0.000  0.000     2.083     2.257
 537   1 H      0.088  0.912  0.000  0.000     1.897     2.154
 538   1 H      0.068  0.932  0.000  0.000     2.105     2.268
 539   1 H      0.055  0.945  0.000  0.000     2.261     2.351
 540   1 H      0.097  0.903  0.000  0.000     1.807     2.102
 541   1 H      0.109  0.891  0.000  0.000     1.703     2.041
 542   1 H      0.154  0.846  0.000  0.000     1.367     1.828
 543   1 H      0.127  0.873  0.000  0.000     1.555     1.950
 544   1 H      0.300  0.700  0.000  0.000     0.712     1.322
 545   1 H      0.271  0.729  0.000  0.000     0.805     1.406
 546   1 H      0.298  0.702  0.000  0.000     0.720     1.329
 547   7 N     -0.177  1.198  3.980  0.000    24.839     7.402
 548   6 C      0.022  1.040  2.938  0.000    20.213     6.402
 549   6 C      0.259  1.051  2.690  0.000    22.641     7.792
 550   8 O     -0.501  1.762  4.739  0.000    23.812     6.542
 551   6 C     -0.112  1.015  3.097  0.000    22.622     6.769
 552   6 C      0.282  1.044  2.675  0.000    22.232     7.720
 553   8 O     -0.490  1.747  4.742  0.000    23.554     6.507
 554   7 N     -0.291  1.196  4.095  0.000    27.502     7.789
 555   1 H      0.205  0.795  0.000  0.000     1.078     1.627
 556   1 H      0.103  0.897  0.000  0.000     1.757     2.073
 557   1 H      0.073  0.927  0.000  0.000     2.053     2.241
 558   1 H      0.091  0.909  0.000  0.000     1.869     2.138
 559   1 H      0.254  0.746  0.000  0.000     0.868     1.460
 560   1 H      0.218  0.782  0.000  0.000     1.017     1.580
 561   7 N     -0.181  1.214  3.967  0.000    24.930     7.416
 562   6 C      0.003  1.046  2.951  0.000    20.525     6.451
 563   6 C      0.269  1.053  2.677  0.000    22.453     7.759
 564   8 O     -0.519  1.757  4.762  0.000    24.218     6.598
 565   6 C     -0.043  1.042  3.001  0.000    21.307     6.564
 566   6 C     -0.183  0.984  3.199  0.000    24.101     6.995
 567   6 C     -0.170  0.983  3.186  0.000    23.832     6.956
 568   1 H      0.234  0.766  0.000  0.000     0.949     1.526
 569   1 H      0.078  0.922  0.000  0.000     2.000     2.212
 570   1 H      0.074  0.926  0.000  0.000     2.040     2.234
 571   1 H      0.101  0.899  0.000  0.000     1.780     2.086
 572   1 H      0.068  0.932  0.000  0.000     2.104     2.268
 573   1 H      0.092  0.908  0.000  0.000     1.858     2.131
 574   1 H      0.088  0.912  0.000  0.000     1.902     2.156
 575   1 H      0.076  0.924  0.000  0.000     2.025     2.225
 576   1 H      0.047  0.953  0.000  0.000     2.359     2.402
 577   7 N     -0.167  1.203  3.963  0.000    24.604     7.367
 578   6 C      0.010  1.030  2.960  0.000    20.405     6.431
 579   6 C      0.255  1.042  2.703  0.000    22.706     7.803
 580   8 O     -0.440  1.719  4.721  0.000    22.503     6.360
 581   6 C     -0.098  1.005  3.093  0.000    22.356     6.728
 582   6 C     -0.118  1.005  3.113  0.000    22.742     6.787
 583   6 C      0.281  1.044  2.675  0.000    22.240     7.722
 584   8 O     -0.520  1.783  4.737  0.000    24.232     6.600
 585   7 N     -0.295  1.187  4.108  0.000    27.595     7.802
 586   1 H      0.227  0.773  0.000  0.000     0.980     1.551
 587   1 H      0.059  0.941  0.000  0.000     2.204     2.322
 588   1 H      0.112  0.888  0.000  0.000     1.675     2.024
 589   1 H      0.074  0.926  0.000  0.000     2.043     2.235
 590   1 H      0.093  0.907  0.000  0.000     1.849     2.126
 591   1 H      0.095  0.905  0.000  0.000     1.831     2.116
 592   1 H      0.227  0.773  0.000  0.000     0.976     1.548
 593   1 H      0.193  0.807  0.000  0.000     1.141     1.673
 594   7 N     -0.174  1.204  3.970  0.000    24.777     7.393
 595   6 C     -0.002  1.051  2.951  0.000    20.626     6.467
 596   6 C      0.196  1.090  2.714  0.000    23.818     7.993
 597   8 O     -0.384  1.771  4.613  0.000    21.356     6.196
 598   6 C     -0.033  1.039  2.994  0.000    21.127     6.537
 599   6 C     -0.156  0.972  3.184  0.000    23.539     6.913
 600   6 C     -0.175  0.985  3.190  0.000    23.938     6.972
 601   1 H      0.207  0.793  0.000  0.000     1.069     1.619
 602   1 H      0.135  0.865  0.000  0.000     1.495     1.912
 603   1 H      0.078  0.922  0.000  0.000     1.997     2.210
 604   1 H      0.062  0.938  0.000  0.000     2.176     2.306
 605   1 H      0.053  0.947  0.000  0.000     2.287     2.365
 606   1 H      0.055  0.945  0.000  0.000     2.255     2.348
 607   1 H      0.083  0.917  0.000  0.000     1.949     2.183
 608   1 H      0.070  0.930  0.000  0.000     2.081     2.256
 609   1 H      0.086  0.914  0.000  0.000     1.920     2.167
 610   7 N     -0.412  1.275  4.137  0.000    30.696     8.229
 611   6 C      0.021  1.039  2.940  0.000    20.231     6.406
 612   6 C      0.195  1.097  2.707  0.000    23.830     7.995
 613   8 O     -0.368  1.755  4.613  0.000    21.048     6.151
 614   6 C      0.102  1.024  2.874  0.000    18.985     6.217
 615   8 O     -0.479  1.665  4.814  0.000    22.449     6.396
 616   6 C     -0.170  0.983  3.187  0.000    23.843     6.959
 617   1 H      0.203  0.797  0.000  0.000     1.093     1.637
 618   1 H      0.077  0.923  0.000  0.000     2.006     2.215
 619   1 H      0.038  0.962  0.000  0.000     2.474     2.459
 620   1 H      0.320  0.680  0.000  0.000     0.663     1.279
 621   1 H      0.072  0.928  0.000  0.000     2.068     2.249
 622   1 H      0.057  0.943  0.000  0.000     2.229     2.334
 623   1 H      0.079  0.921  0.000  0.000     1.989     2.205
 624   7 N     -0.407  1.270  4.137  0.000    30.555     8.210
 625   6 C      0.039  1.034  2.927  0.000    19.943     6.361
 626   6 C      0.200  1.095  2.705  0.000    23.747     7.980
 627   8 O     -0.392  1.764  4.628  0.000    21.514     6.219
 628   6 C     -0.108  1.023  3.085  0.000    22.550     6.760
 629   6 C      0.368  1.026  2.605  0.000    20.756     7.456
 630   8 O     -0.629  1.761  4.868  0.000    26.831     6.945
 631   8 O     -0.676  1.792  4.884  0.000    28.068     7.103
 632   1 H      0.177  0.823  0.000  0.000     1.232     1.739
 633   1 H      0.078  0.922  0.000  0.000     1.996     2.209
 634   1 H      0.035  0.965  0.000  0.000     2.521     2.483
 635   1 H      0.043  0.957  0.000  0.000     2.414     2.430
 636   1 H      0.202  0.798  0.000  0.000     1.093     1.638
 637   1 H      0.077  0.923  0.000  0.000     2.012     2.218
 638   1 H      0.186  0.814  0.000  0.000     1.181     1.702
 639   1 H      0.091  0.909  0.000  0.000     1.868     2.137
 640   1 H      0.176  0.824  0.000  0.000     1.238     1.743
 641   1 H      0.097  0.903  0.000  0.000     1.812     2.105
 642   1 H      0.187  0.813  0.000  0.000     1.176     1.699
 643   1 H      0.057  0.943  0.000  0.000     2.235     2.338
 644   1 H      0.185  0.815  0.000  0.000     1.184     1.705
 645   1 H      0.091  0.909  0.000  0.000     1.872     2.139
 646   1 H      0.173  0.827  0.000  0.000     1.253     1.753
 647   1 H      0.106  0.894  0.000  0.000     1.727     2.055
 648   1 H      0.192  0.808  0.000  0.000     1.146     1.676
 649   1 H      0.072  0.928  0.000  0.000     2.064     2.247
 650   1 H      0.194  0.806  0.000  0.000     1.137     1.670
 651   1 H      0.078  0.922  0.000  0.000     1.996     2.209

 Mol. C6AA /au·bohr⁶  :    4039794.426322
 Mol. C8AA /au·bohr⁸  :   90381504.872977
 Mol. α(0) /au        :       2999.855135

 
molecular dipole:
                 x           y           z       tot (Debye)
 q only:    -2386.255    -801.958   -1371.081
   full:    -2386.224    -800.821   -1367.748    7281.321
molecular quadrupole (traceless):
                xx          xy          yy          xz          yz          zz
 q only:  -739952.559 -477193.592  523111.685 -819272.700 -274092.525  216840.874
  q+dip:  -740824.914 -476611.241  522742.507 -817339.918 -273089.752  218082.407
   full:  -740825.215 -476607.646  522744.909 -817338.349 -273090.668  218080.306
speedup  1.00
cpu  time for grad   28.27 s
wall time for grad   28.27 s

SCC energy    :   -1064.7461518
rep           :      21.3957154
ES            :       5.3596571
AES           :      -0.2314833
AXC           :       0.0901589
disp          :      -0.8886927
XB            :       0.0000000
fix           :       0.0000000
Gborn         :       0.0000000
Gsasa         :       0.0000000
Ghb           :       0.0000000
Gshift        :       0.0000000
Gsolv         :      -2.0769768    -1303.32
Etot ala COSMO:   -1064.7461518
grad norm     :       3.2401461
total E       :   -1043.2500030
atomizationE  :     183.2574811   114995.81
(atE without considering molecular charge,
 total energy contains solvation terms)
H-L gap (eV)  :          1.0549

------------------------------------------------------------------------
 * finished run on 2019/03/07 at 11:38:17.273     
------------------------------------------------------------------------
 total:
 * wall-time:     0 d,  0 h,  0 min, 30.575 sec
 *  cpu-time:     0 d,  0 h,  0 min, 30.412 sec
 * ratio c/w:     0.995 speedup
 SCF:
 * wall-time:     0 d,  0 h,  0 min, 29.592 sec
 *  cpu-time:     0 d,  0 h,  0 min, 29.588 sec
 * ratio c/w:     1.000 speedup

