      -----------------------------------------------------------      
     |                   =====================                   |     
     |                           x T B                           |     
     |                   =====================                   |     
     |                         S. Grimme                         |     
     |          Mulliken Center for Theoretical Chemistry        |     
     |                    University of Bonn                     |     
     |                 Version 6.0.1 (SAW181210)                 |     
      -----------------------------------------------------------      

   This program is distributed in the hope that it will be useful,
   but WITHOUT ANY WARRANTY; without even the implied warranty of
   MERCHANTABILITY or FITNESS FOR A PARTICULAR PURPOSE.
   
   FOR NON-COMMERCIAL, ACADEMIA USE ONLY.
   
   Cite this work as:
   S. Grimme, C. Bannwarth, P. Shushkov, J. Comput. Theory Chem., 2017,
   13, 1989-2009.
   C. Bannwarth, S. Ehlert and S. Grimme., ChemRxiv, 2018, preprint.
   http://doi.org/10.26434/chemrxiv.7246238.v1
   
   for sTDA-xTB:
   S. Grimme and C. Bannwarth, J. Chem. Phys., 2016, 145, 054103.
   
   in the mass-spec context:
   V. Asgeirsson, C. Bauer and S. Grimme, Chem. Sci., 2017, 8, 4879.
   
   if GBSA is used:
   P. Shushkov, F. März and S. Grimme, unpublished.
   
   for ANC optimizer:
   S. Grimme, unpublished.
   Rational Function algorithm used in ANCopt:
   F. Eckert, P. Pulay, H.-J. Werner, J. Comput. Chem., 1997, 18, 1473.
   
   with help from (in alphabetical order)
   C. Bannwarth, F. Bohle, G. Brandenburg, E. Caldeweyher, M. Checinski,
   S. Dohm, S. Ehlert, S. Ehrlich, F. März, H. Neugebauer, J. Pisarek,
   P. Pracht, P. Shushkov, and S. Spicher.
   
 * started run on 2019/02/13 at 00:17:59.027     
========================================================================
 # omp threads = 16
========================================================================
number of atoms            : 392
number of electrons        : 1104
charge                     : -2
spin                       : .0
first test random number   : .5856

########################################################################
# WARNING! Please study the warnings concerning your input carefully
#  - Process number higher than OMP_NUM_THREADS, I hope you know what you are doing.
########################################################################

           ------------------------------------------------- 
          |                 G F N 2 - x T B                 |
          | Geometry, Frequencies, Noncovalent interactions |
          |            JCTC 2018 parametrisation            |
           ------------------------------------------------- 
 
      method parameters     
 k(s)        :  1.8500
 k(p)        :  2.2300
 k(d)        :  2.2300
 k(f)        :  2.0000
 kEN (H0ij)  : -2.0000
 D4 a1       :  0.5200
 D4 a2       :  5.0000
 D4 s6       :  1.0000
 D4 s8       :  2.7000
 D4 s9       :  5.0000
 alphaj      :  2.0000

 Solvent             : h2o
 Using internal parameter file: .param_gbsa2_h2o
 Gsolv ref. state (COSMO-RS): gsolv [1 M gas/solution]
 temperature (mdtemp)       :    298.150000000000     
 dielectric constant        :    80.2000000000000     
 rho                        :    1.00000000000000     
 mass                       :    18.0000000000000     
 surface tension            :    15.5689454083859     
 probe radius               :   0.975313790000000     
 vdW radii scaling          :    1.00000000000000     
 Gshift (Eh)                :   1.857443126794793E-003
 c1                         :    1.55243817000000     
 soset                      :   0.130326360000000     
 HB correction              :  T

            Z     q(EN)     CN     RAES       Cart. coordinates
     1  N   5.0   -0.20    3.24    1.97   370.53910   137.13059   189.61219
     2  C   4.0    0.02    4.39    4.37   370.71563   138.53712   191.95961
     3  C   4.0    0.14    3.42    3.08   373.42181   138.22392   192.95926
     4  O   6.0   -0.30    1.23    1.80   374.47352   136.16515   192.96968
     5  C   4.0   -0.02    4.26    4.12   368.80700   137.52814   193.90351
     6  C   4.0   -0.07    4.12    3.84   368.99315   139.02246   196.36752
     7  C   4.0   -0.09    4.12    3.83   366.11100   137.67442   192.87996
     8  H   1.0    0.07    1.02    1.43   369.29409   135.67526   189.49560
     9  H   1.0    0.03    1.05    1.44   370.35389   140.54209   191.57434
    10  H   1.0    0.05    1.05    1.44   369.30622   135.55257   194.27582
    11  H   1.0    0.05    1.00    1.43   367.82066   138.14611   197.80820
    12  H   1.0    0.06    1.00    1.43   370.91814   139.07854   197.08329
    13  H   1.0    0.04    1.00    1.43   368.33776   140.95163   196.09630
    14  H   1.0    0.03    1.00    1.43   364.80304   137.05120   194.33475
    15  H   1.0    0.03    1.00    1.43   365.65029   139.61597   192.39314
    16  H   1.0    0.03    1.00    1.43   365.85097   136.49099   191.22107
    17  N   5.0   -0.14    3.51    2.08   374.50583   140.34741   193.79569
    18  C   4.0    0.04    4.47    4.49   377.03915   140.48072   194.78151
    19  C   4.0    0.16    3.40    3.08   376.96224   141.12716   197.61112
    20  O   6.0   -0.31    1.27    1.80   375.01804   141.65613   198.72349
    21  C   4.0    0.05    4.24    4.08   378.51966   142.53294   193.31022
    22  O   6.0   -0.25    2.14    1.85   377.08890   144.77807   193.51109
    23  C   4.0   -0.08    4.07    3.74   378.95511   141.72968   190.57463
    24  H   1.0    0.09    1.07    1.44   373.56885   142.00843   193.79891
    25  H   1.0    0.05    1.06    1.44   377.90819   138.62182   194.51680
    26  H   1.0    0.04    1.03    1.43   380.36532   142.81340   194.23545
    27  H   1.0    0.11    1.03    1.43   377.68533   145.96122   192.25363
    28  H   1.0    0.03    1.00    1.43   379.87779   143.24132   189.53310
    29  H   1.0    0.04    1.00    1.43   380.15922   140.06627   190.51905
    30  H   1.0    0.04    1.00    1.43   377.17571   141.26424   189.65656
    31  N   5.0   -0.14    3.39    2.02   379.25644   141.15454   198.70460
    32  C   4.0    0.02    4.25    4.11   379.66524   141.73687   201.33525
    33  C   4.0    0.15    3.34    3.06   380.24006   139.35153   202.86026
    34  O   6.0   -0.31    1.29    1.80   380.37224   137.27174   201.85063
    35  H   1.0    0.08    1.07    1.44   380.75070   140.40910   197.78366
    36  H   1.0    0.04    1.02    1.43   381.26581   143.03446   201.51119
    37  H   1.0    0.06    1.03    1.43   377.97134   142.65126   202.08105
    38  N   5.0   -0.14    3.49    2.07   380.68699   139.77445   205.30385
    39  C   4.0    0.04    4.44    4.44   381.35907   137.83374   207.09046
    40  C   4.0    0.15    3.42    3.09   379.85313   138.23853   209.52647
    41  O   6.0   -0.29    1.23    1.80   379.29339   140.37336   210.23112
    42  C   4.0   -0.03    4.33    4.25   384.19569   137.98723   207.77268
    43  C   4.0   -0.01    3.56    3.14   385.83665   137.50281   205.51167
    44  C   4.0   -0.04    3.48    3.11   386.32352   139.41768   203.77964
    45  C   4.0   -0.04    3.46    3.10   386.84805   135.12320   205.06907
    46  C   4.0   -0.03    3.44    3.09   387.74351   138.97048   201.64015
    47  C   4.0   -0.05    3.43    3.09   388.28204   134.65199   202.93388
    48  C   4.0    0.07    3.45    3.09   388.72101   136.56917   201.18830
    49  O   6.0   -0.23    2.11    1.84   390.09087   136.19669   199.05566
    50  H   1.0    0.10    1.08    1.44   380.31508   141.47715   206.09126
    51  H   1.0    0.07    1.06    1.44   380.92880   135.98515   206.28055
    52  H   1.0    0.05    1.03    1.43   384.56029   139.86838   208.54810
    53  H   1.0    0.04    1.03    1.43   384.54486   136.55993   209.21885
    54  H   1.0    0.06    1.03    1.43   385.59656   141.29585   204.12192
    55  H   1.0    0.06    1.03    1.43   386.51183   133.62189   206.41355
    56  H   1.0    0.08    1.03    1.43   388.15356   140.47548   200.32834
    57  H   1.0    0.05    1.03    1.43   389.05812   132.78791   202.62889
    58  H   1.0    0.12    1.04    1.43   390.51104   134.42246   198.88443
    59  N   5.0   -0.13    3.47    2.06   379.42107   136.12238   210.81694
    60  C   4.0    0.05    4.34    4.27   377.91012   136.03747   213.09619
    61  C   4.0    0.16    3.46    3.10   379.46095   134.86613   215.21750
    62  O   6.0   -0.32    1.31    1.80   380.66652   132.90445   214.87862
    63  C   4.0   -0.05    4.11    3.83   375.54875   134.43140   212.67452
    64  H   1.0    0.11    1.10    1.44   379.88551   134.43468   210.02151
    65  H   1.0    0.08    1.07    1.44   377.36253   137.96736   213.58612
    66  H   1.0    0.07    1.00    1.43   374.28260   134.67999   214.27004
    67  H   1.0    0.07    1.00    1.43   374.60482   135.05519   210.95693
    68  H   1.0    0.05    1.00    1.43   376.06386   132.45327   212.48646
    69  N   5.0   -0.13    3.49    2.07   379.50368   136.08211   217.41668
    70  C   4.0    0.05    4.46    4.48   380.70206   134.87326   219.55731
    71  C   4.0    0.16    3.44    3.09   379.26840   132.46360   220.25773
    72  O   6.0   -0.28    1.22    1.80   376.96198   132.29453   220.18353
    73  C   4.0   -0.02    4.26    4.12   380.85623   136.61798   221.84724
    74  C   4.0    0.26    3.13    3.03   378.29130   137.94116   222.42745
    75  O   6.0   -0.28    1.22    1.80   377.52097   139.47748   220.80148
    76  O   6.0   -0.28    1.16    1.80   377.25343   137.42002   224.47068
    77  H   1.0    0.12    1.10    1.44   378.32992   137.54792   217.83259
    78  H   1.0    0.06    1.06    1.44   382.63233   134.35525   218.99776
    79  H   1.0    0.06    1.03    1.43   381.43992   135.53345   223.50282
    80  H   1.0    0.06    1.02    1.43   382.26043   138.08404   221.47129
    81  N   5.0   -0.13    3.51    2.08   380.79384   130.54857   220.87674
    82  C   4.0    0.03    4.34    4.28   379.92424   128.20468   221.95486
    83  C   4.0    0.09    3.25    3.04   380.73399   128.09328   224.73202
    84  O   6.0   -0.29    1.14    1.80   382.29625   129.53157   225.63512
    85  C   4.0    0.05    4.23    4.06   381.15722   125.89121   220.62129
    86  O   6.0   -0.25    2.13    1.84   383.64460   125.53046   221.51013
    87  C   4.0   -0.07    4.08    3.76   381.05056   126.14315   217.75480
    88  H   1.0    0.08    1.07    1.44   382.68002   130.85927   220.96548
    89  H   1.0    0.05    1.05    1.44   377.86661   128.17947   221.76895
    90  H   1.0    0.04    1.04    1.43   380.13301   124.19287   221.21506
    91  H   1.0    0.12    1.02    1.43   384.61836   127.03298   221.07220
    92  H   1.0    0.04    1.00    1.43   381.89117   124.47575   216.90249
    93  H   1.0    0.04    1.00    1.43   379.10056   126.33424   217.14957
    94  H   1.0    0.06    1.00    1.43   382.07691   127.81953   217.15545
    95  N   5.0   -0.20    3.22    1.96   400.78632   142.30252   216.53890
    96  C   4.0    0.03    4.22    4.03   399.76055   140.99491   214.36133
    97  C   4.0    0.08    3.22    3.04   399.44358   142.85002   212.16501
    98  O   6.0   -0.29    1.13    1.80   399.10273   145.12556   212.49728
    99  C   4.0   -0.04    4.32    4.23   397.22821   139.77089   215.06074
   100  C   4.0   -0.02    3.55    3.14   395.88299   138.54805   212.87400
   101  C   4.0   -0.04    3.47    3.10   396.51353   136.11278   212.11734
   102  C   4.0   -0.04    3.46    3.10   393.92139   139.78113   211.63471
   103  C   4.0   -0.04    3.37    3.07   395.18141   134.90891   210.21734
   104  C   4.0   -0.05    3.37    3.07   392.58367   138.58184   209.73198
   105  C   4.0   -0.04    3.37    3.07   393.19510   136.13544   209.03350
   106  H   1.0    0.08    1.03    1.43   399.47964   143.06192   217.72235
   107  H   1.0    0.03    1.05    1.44   401.11473   139.54675   213.75941
   108  H   1.0    0.03    1.03    1.43   397.61632   138.35321   216.50603
   109  H   1.0    0.05    1.03    1.43   396.03320   141.23300   215.89110
   110  H   1.0    0.05    1.03    1.43   398.05788   135.14697   213.03357
   111  H   1.0    0.05    1.03    1.43   393.42431   141.69580   212.16945
   112  H   1.0    0.06    1.03    1.43   395.71455   133.01788   209.67090
   113  H   1.0    0.05    1.03    1.43   391.05658   139.57104   208.79867
   114  H   1.0    0.05    1.03    1.43   392.10997   135.21751   207.56990
   115  N   5.0   -0.21    3.28    1.98   395.52054   143.94932   205.52826
   116  C   4.0    0.03    4.34    4.27   393.12526   143.30704   204.39783
   117  C   4.0    0.16    3.40    3.08   393.01514   143.81304   201.54779
   118  O   6.0   -0.29    1.24    1.80   390.99971   143.89845   200.42076
   119  C   4.0   -0.03    4.27    4.14   390.97444   144.64863   205.75166
   120  C   4.0    0.26    3.11    3.03   391.13237   147.59377   205.52396
   121  O   6.0   -0.29    1.23    1.80   393.23339   148.53039   205.00382
   122  O   6.0   -0.28    1.16    1.80   389.12008   148.75248   205.89814
   123  H   1.0    0.11    1.06    1.44   395.71489   145.82204   205.89947
   124  H   1.0    0.04    1.05    1.44   392.90847   141.24280   204.59498
   125  H   1.0    0.06    1.03    1.43   389.17125   144.06120   204.95356
   126  H   1.0    0.04    1.02    1.43   390.99907   144.20573   207.77006
   127  N   5.0   -0.13    3.54    2.11   395.26112   143.84142   200.39717
   128  C   4.0    0.04    4.47    4.50   395.54952   143.78851   197.68436
   129  C   4.0    0.14    3.42    3.08   396.50313   141.18347   196.83654
   130  O   6.0   -0.30    1.22    1.80   395.90364   140.25165   194.81689
   131  C   4.0    0.05    4.23    4.05   397.35254   145.89434   196.79768
   132  O   6.0   -0.24    2.12    1.84   396.19835   148.20918   197.48791
   133  C   4.0   -0.08    4.08    3.77   397.83397   145.77691   193.95710
   134  H   1.0    0.08    1.08    1.44   396.83762   144.08788   201.45030
   135  H   1.0    0.07    1.06    1.44   393.67599   144.11426   196.86752
   136  H   1.0    0.03    1.03    1.43   399.13621   145.67981   197.86246
   137  H   1.0    0.11    1.03    1.43   397.04126   149.55265   196.57902
   138  H   1.0    0.03    1.00    1.43   399.17780   147.23605   193.42345
   139  H   1.0    0.05    1.01    1.43   398.58555   143.94253   193.43563
   140  H   1.0    0.05    1.00    1.43   396.06102   146.06997   192.96278
   141  N   5.0   -0.15    3.52    2.09   398.07919   140.07606   198.47759
   142  C   4.0    0.04    4.45    4.46   399.43809   137.78413   197.91060
   143  C   4.0    0.16    3.41    3.08   398.69279   135.49077   199.50694
   144  O   6.0   -0.30    1.22    1.80   398.89919   133.35710   198.64812
   145  C   4.0    0.05    4.25    4.10   402.31313   138.18471   198.34238
   146  O   6.0   -0.26    2.12    1.84   402.78950   138.76085   200.91082
   147  C   4.0   -0.08    4.07    3.74   403.36684   140.20023   196.57880
   148  H   1.0    0.07    1.08    1.44   398.58273   141.05382   200.03846
   149  H   1.0    0.06    1.06    1.44   399.07130   137.32351   195.92722
   150  H   1.0    0.05    1.04    1.43   403.25257   136.36905   198.01626
   151  H   1.0    0.11    1.03    1.43   402.16345   140.45316   201.24938
   152  H   1.0    0.04    1.00    1.43   405.38480   140.40482   196.89616
   153  H   1.0    0.03    1.00    1.43   403.01600   139.68551   194.62616
   154  H   1.0    0.04    1.00    1.43   402.46173   142.00543   196.97617
   155  N   5.0   -0.14    3.36    2.00   397.99218   135.97245   201.88671
   156  C   4.0    0.02    4.16    3.91   397.56743   133.99216   203.70408
   157  C   4.0    0.08    3.10    3.02   399.86828   133.36048   205.34081
   158  O   6.0   -0.30    1.12    1.80   399.71726   131.81363   207.04597
   159  H   1.0    0.08    1.06    1.44   397.84380   137.75333   202.55746
   160  H   1.0    0.05    1.03    1.43   396.03243   134.53940   204.96689
   161  H   1.0    0.06    1.03    1.43   397.05659   132.26900   202.67998
   162  N   5.0   -0.20    3.24    1.97   388.60012   130.67486   216.51622
   163  C   4.0    0.03    4.32    4.23   386.73248   131.67135   214.78019
   164  C   4.0    0.15    3.41    3.08   386.13228   129.63469   212.77756
   165  O   6.0   -0.30    1.24    1.80   387.74332   128.11421   212.14171
   166  C   4.0   -0.04    4.28    4.15   387.81722   133.97186   213.37991
   167  C   4.0   -0.04    4.22    4.04   388.62090   136.11942   215.14707
   168  C   4.0    0.15    3.22    3.04   386.42113   137.32316   216.53269
   169  O   6.0   -0.31    1.20    1.80   386.21963   137.26581   218.83197
   170  N   5.0   -0.18    3.19    1.95   384.68891   138.43841   215.03550
   171  H   1.0    0.09    1.03    1.43   390.34777   130.46568   215.77169
   172  H   1.0    0.06    1.05    1.44   385.03240   132.18207   215.83590
   173  H   1.0    0.05    1.03    1.43   389.47176   133.38353   212.29424
   174  H   1.0    0.04    1.03    1.43   386.38035   134.65395   212.07187
   175  H   1.0    0.05    1.03    1.43   389.92560   135.43156   216.58621
   176  H   1.0    0.04    1.03    1.43   389.56913   137.58830   214.05106
   177  H   1.0    0.08    1.03    1.43   384.95539   138.65484   213.16757
   178  H   1.0    0.10    1.03    1.43   383.17786   139.29485   215.81196
   179  N   5.0   -0.14    3.49    2.07   383.82068   129.75637   211.78034
   180  C   4.0    0.03    4.49    4.52   383.04994   128.16739   209.69106
   181  C   4.0    0.15    3.48    3.11   382.33588   129.88066   207.49022
   182  O   6.0   -0.31    1.31    1.80   381.29227   131.93495   207.84523
   183  C   4.0   -0.02    4.25    4.10   380.89279   126.37169   210.47939
   184  C   4.0   -0.06    4.12    3.85   378.53330   127.80725   211.30559
   185  C   4.0   -0.07    4.13    3.85   380.25354   124.57929   208.32620
   186  H   1.0    0.11    1.10    1.44   382.54774   131.01946   212.45129
   187  H   1.0    0.06    1.07    1.44   384.70086   127.04076   209.15330
   188  H   1.0    0.04    1.06    1.44   381.61190   125.29292   212.09063
   189  H   1.0    0.04    1.00    1.43   377.07595   126.47358   211.86498
   190  H   1.0    0.06    1.00    1.43   378.92885   129.05359   212.89032
   191  H   1.0    0.06    1.00    1.43   377.80663   128.94416   209.74974
   192  H   1.0    0.05    1.01    1.43   378.89120   123.17623   208.94519
   193  H   1.0    0.07    1.01    1.43   379.43665   125.64239   206.76726
   194  H   1.0    0.06    1.00    1.43   381.92860   123.62535   207.61956
   195  N   5.0   -0.14    3.46    2.05   383.08333   129.14579   205.18297
   196  C   4.0    0.04    4.38    4.34   382.27701   130.67343   203.04656
   197  C   4.0    0.16    3.51    3.12   379.42946   130.34763   202.78335
   198  O   6.0   -0.30    1.34    1.80   378.39833   128.29086   203.08333
   199  C   4.0   -0.06    4.10    3.80   383.63813   129.90305   200.63212
   200  H   1.0    0.11    1.09    1.44   383.39503   127.27857   204.78027
   201  H   1.0    0.06    1.06    1.44   382.68538   132.65675   203.48563
   202  H   1.0    0.05    1.00    1.43   383.09168   131.15801   199.10317
   203  H   1.0    0.05    1.00    1.43   385.66188   130.04142   200.92761
   204  H   1.0    0.08    1.01    1.43   383.18858   127.96441   200.12014
   205  N   5.0   -0.14    3.51    2.08   378.10186   132.39958   202.13424
   206  C   4.0    0.05    4.48    4.51   375.36121   132.20378   202.13154
   207  C   4.0    0.16    3.46    3.10   374.56596   130.13463   200.26300
   208  O   6.0   -0.31    1.24    1.80   372.88015   128.62905   200.74568
   209  C   4.0   -0.03    4.30    4.19   374.18948   134.77813   201.60302
   210  C   4.0    0.17    3.25    3.04   374.47179   136.44668   203.94416
   211  O   6.0   -0.29    1.22    1.80   374.43735   135.56659   206.08298
   212  N   5.0   -0.17    3.24    1.96   374.79928   138.90698   203.48307
   213  H   1.0    0.11    1.10    1.44   378.91642   134.13966   202.13704
   214  H   1.0    0.07    1.06    1.44   374.71852   131.58499   204.01164
   215  H   1.0    0.06    1.03    1.43   375.06134   135.67689   199.96901
   216  H   1.0    0.06    1.03    1.43   372.16011   134.58966   201.27339
   217  H   1.0    0.13    1.06    1.44   374.75320   140.12638   204.97213
   218  H   1.0    0.11    1.06    1.44   374.60297   139.65094   201.72811
   219  N   5.0   -0.14    3.51    2.08   375.88911   130.12356   198.11392
   220  C   4.0    0.04    4.31    4.22   375.52715   128.36390   196.04405
   221  C   4.0    0.15    3.44    3.09   375.76567   125.57876   196.79370
   222  O   6.0   -0.31    1.25    1.80   374.96392   123.93167   195.38242
   223  C   4.0   -0.07    4.12    3.85   377.45530   128.92104   193.97668
   224  H   1.0    0.08    1.09    1.44   377.25676   131.43352   197.88963
   225  H   1.0    0.05    1.05    1.44   373.60600   128.59851   195.29676
   226  H   1.0    0.05    1.00    1.43   377.16783   127.61781   192.41769
   227  H   1.0    0.05    1.00    1.43   377.22509   130.84816   193.30207
   228  H   1.0    0.05    1.00    1.43   379.35863   128.65665   194.71230
   229  N   5.0   -0.13    3.58    2.14   376.86181   125.04488   198.99791
   230  C   4.0    0.04    4.45    4.47   377.19620   122.44530   199.77057
   231  C   4.0    0.15    3.44    3.09   374.66992   121.27913   200.53372
   232  O   6.0   -0.33    1.30    1.80   374.30328   118.99353   200.35412
   233  C   4.0   -0.03    4.26    4.12   379.06166   122.28315   201.96095
   234  C   4.0    0.25    3.12    3.03   381.65536   123.56102   201.30302
   235  O   6.0   -0.31    1.21    1.80   383.04927   124.07175   203.13678
   236  O   6.0   -0.30    1.20    1.80   382.11941   123.97470   199.03649
   237  H   1.0    0.12    1.11    1.45   377.57137   126.38549   200.15534
   238  H   1.0    0.06    1.05    1.44   377.95039   121.38913   198.15041
   239  H   1.0    0.06    1.03    1.43   378.32238   123.26010   203.61511
   240  H   1.0    0.05    1.02    1.43   379.42825   120.31892   202.45991
   241  N   5.0   -0.14    3.50    2.08   372.97023   122.88617   201.48640
   242  C   4.0    0.04    4.41    4.39   370.35837   122.23555   202.01802
   243  C   4.0    0.15    3.44    3.09   370.03635   120.56980   204.34462
   244  O   6.0   -0.31    1.36    1.80   368.04435   119.44589   204.71777
   245  C   4.0   -0.03    4.39    4.36   369.00822   120.95542   199.78210
   246  C   4.0   -0.02    4.18    3.97   369.19859   122.39837   197.28509
   247  C   4.0   -0.08    4.11    3.82   367.52539   121.11231   195.31213
   248  C   4.0   -0.07    4.13    3.85   368.38400   125.14420   197.59222
   249  H   1.0    0.11    1.10    1.44   373.33794   124.76231   201.36654
   250  H   1.0    0.05    1.06    1.44   369.39756   124.01468   202.46311
   251  H   1.0    0.05    1.03    1.43   369.80114   119.07248   199.55188
   252  H   1.0    0.04    1.03    1.43   367.02551   120.77309   200.31308
   253  H   1.0    0.07    1.06    1.44   371.15555   122.36948   196.62098
   254  H   1.0    0.03    1.00    1.43   367.63676   122.13093   193.53448
   255  H   1.0    0.03    1.00    1.43   368.10956   119.17862   194.95420
   256  H   1.0    0.03    1.00    1.43   365.56460   121.10723   195.92758
   257  H   1.0    0.04    1.00    1.43   368.46300   126.08753   195.77614
   258  H   1.0    0.03    1.00    1.43   366.45946   125.23785   198.30438
   259  H   1.0    0.06    1.00    1.43   369.61358   126.17981   198.86995
   260  N   5.0   -0.14    3.47    2.06   371.94131   120.44469   205.98873
   261  C   4.0    0.04    4.37    4.33   371.84049   118.83003   208.20151
   262  C   4.0    0.09    3.30    3.05   369.16802   118.62045   209.27706
   263  O   6.0   -0.30    1.12    1.80   368.18889   116.55875   209.61966
   264  C   4.0    0.05    4.23    4.06   373.72089   119.86388   210.19099
   265  O   6.0   -0.27    2.14    1.85   376.12263   120.08732   209.07253
   266  C   4.0   -0.08    4.07    3.75   373.76845   118.21973   212.55350
   267  H   1.0    0.09    1.08    1.44   373.60461   121.33321   205.67794
   268  H   1.0    0.05    1.05    1.44   372.41781   116.90245   207.67684
   269  H   1.0    0.04    1.04    1.43   373.16570   121.80190   210.68134
   270  H   1.0    0.11    1.03    1.43   376.92992   118.44880   209.04279
   271  H   1.0    0.04    1.00    1.43   375.16236   118.95629   213.87024
   272  H   1.0    0.04    1.00    1.43   371.93082   118.22320   213.46734
   273  H   1.0    0.04    1.00    1.43   374.25913   116.28334   212.06936
   274  N   5.0   -0.20    3.21    1.96   364.29331   115.49242   204.70194
   275  C   4.0    0.03    4.23    4.06   364.98732   112.87625   204.29449
   276  C   4.0    0.08    3.20    3.04   364.39316   111.27812   206.61781
   277  O   6.0   -0.31    1.11    1.80   363.38362   109.19242   206.38033
   278  C   4.0   -0.05    4.26    4.12   367.77464   112.66807   203.56583
   279  C   4.0   -0.05    4.19    3.97   368.17661   113.40468   200.80003
   280  C   4.0   -0.05    4.17    3.94   370.98831   113.59103   200.16667
   281  C   4.0   -0.04    4.12    3.85   371.39257   114.12171   197.35786
   282  N   5.0   -0.12    4.03    2.93   374.01913   115.01275   196.91107
   283  H   1.0    0.12    1.06    1.44   365.68391   116.81334   204.72790
   284  H   1.0    0.04    1.06    1.44   363.80350   112.10740   202.77209
   285  H   1.0    0.06    1.03    1.43   368.86157   113.90488   204.80807
   286  H   1.0    0.04    1.03    1.43   368.40197   110.72931   203.87186
   287  H   1.0    0.03    1.03    1.43   367.28336   111.98970   199.59789
   288  H   1.0    0.04    1.03    1.43   367.26986   115.22130   200.44738
   289  H   1.0    0.06    1.03    1.43   371.81580   115.12632   201.26745
   290  H   1.0    0.03    1.03    1.43   371.91628   111.83252   200.70345
   291  H   1.0    0.03    1.02    1.43   371.05045   112.42312   196.24340
   292  H   1.0    0.03    1.02    1.43   370.09443   115.59403   196.72568
   293  H   1.0    0.05    1.02    1.43   374.27091   115.54097   195.05812
   294  H   1.0    0.09    1.07    1.44   374.37345   116.57064   198.08412
   295  H   1.0    0.05    1.02    1.43   375.29304   113.61697   197.36519
   296  N   5.0   -0.18    3.30    1.98   361.19386   140.44518   208.56584
   297  C   4.0    0.03    4.31    4.21   361.29394   141.55897   211.06253
   298  C   4.0    0.15    3.40    3.08   363.52200   143.42504   211.12844
   299  O   6.0   -0.30    1.32    1.80   364.68061   143.91898   209.18418
   300  C   4.0   -0.04    4.27    4.14   361.29870   139.51997   213.14442
   301  C   4.0    0.15    3.29    3.05   359.64775   137.30554   212.28632
   302  O   6.0   -0.30    1.23    1.80   360.52131   135.34473   211.40077
   303  N   5.0   -0.20    3.19    1.95   357.16502   137.64463   212.60707
   304  H   1.0    0.13    1.05    1.44   362.63232   139.31992   207.98437
   305  H   1.0    0.03    1.05    1.44   359.55066   142.69070   211.18605
   306  H   1.0    0.07    1.05    1.44   363.21112   138.81514   213.43080
   307  H   1.0    0.03    1.03    1.43   360.53800   140.27036   214.90211
   308  H   1.0    0.09    1.03    1.43   355.96984   136.28583   212.00064
   309  H   1.0    0.07    1.03    1.43   356.44136   139.33537   213.09352
   310  N   5.0   -0.16    3.44    2.04   364.02135   144.57533   213.34347
   311  C   4.0    0.03    4.39    4.36   365.38564   146.95950   213.36724
   312  C   4.0    0.15    3.41    3.08   368.02320   146.93635   212.15844
   313  O   6.0   -0.31    1.24    1.80   368.95801   148.97578   211.57066
   314  C   4.0   -0.05    4.24    4.07   365.50735   148.14035   216.03736
   315  C   4.0   -0.05    4.18    3.97   365.40349   146.30988   218.27556
   316  C   4.0   -0.04    4.17    3.94   367.48491   144.30200   218.23479
   317  C   4.0   -0.04    4.12    3.84   367.03291   142.19275   220.14481
   318  N   5.0   -0.12    4.02    2.91   367.09914   143.17215   222.78672
   319  H   1.0    0.06    1.07    1.44   362.80400   144.30783   214.78810
   320  H   1.0    0.05    1.06    1.44   364.37343   148.29574   212.13250
   321  H   1.0    0.05    1.03    1.43   367.24374   149.24971   216.11224
   322  H   1.0    0.03    1.03    1.43   363.93447   149.45946   216.22515
   323  H   1.0    0.03    1.03    1.43   365.58003   147.49514   219.95321
   324  H   1.0    0.03    1.03    1.43   363.55511   145.39556   218.33320
   325  H   1.0    0.05    1.04    1.43   367.57538   143.42847   216.37325
   326  H   1.0    0.04    1.02    1.43   369.32150   145.18062   218.55248
   327  H   1.0    0.04    1.02    1.43   365.19520   141.31997   219.80467
   328  H   1.0    0.05    1.02    1.43   368.49311   140.75748   219.91299
   329  H   1.0    0.05    1.02    1.43   366.86795   141.71290   224.05302
   330  H   1.0    0.05    1.02    1.43   368.80703   144.03897   223.13264
   331  H   1.0    0.04    1.02    1.43   365.67226   144.47207   223.03253
   332  N   5.0   -0.14    3.55    2.11   369.25560   144.75340   211.86939
   333  C   4.0    0.04    4.45    4.47   371.76387   144.62755   210.80303
   334  C   4.0    0.16    3.45    3.10   371.84053   143.22924   208.28001
   335  O   6.0   -0.30    1.28    1.80   373.87359   142.66899   207.29292
   336  C   4.0   -0.02    4.28    4.16   373.57315   143.31642   212.63302
   337  C   4.0    0.25    3.14    3.03   372.57087   140.64880   213.35916
   338  O   6.0   -0.31    1.33    1.80   370.69190   139.85788   212.14858
   339  O   6.0   -0.29    1.17    1.80   373.65540   139.53134   215.10805
   340  H   1.0    0.11    1.09    1.44   368.52809   143.04166   212.31702
   341  H   1.0    0.06    1.06    1.44   372.38866   146.57455   210.45203
   342  H   1.0    0.07    1.03    1.43   375.40788   143.03372   211.73093
   343  H   1.0    0.05    1.02    1.43   373.86106   144.41590   214.35176
   344  N   5.0   -0.14    3.42    2.03   369.61334   142.81730   207.16037
   345  C   4.0    0.02    4.26    4.13   369.40752   141.35644   204.88403
   346  C   4.0    0.17    3.37    3.07   369.02531   138.51099   205.27880
   347  O   6.0   -0.29    1.25    1.80   368.82286   137.12228   203.43213
   348  H   1.0    0.12    1.11    1.45   367.98408   143.21157   208.09531
   349  H   1.0    0.05    1.03    1.43   367.80524   142.02692   203.77753
   350  H   1.0    0.06    1.04    1.43   371.11376   141.62817   203.75846
   351  N   5.0   -0.11    3.52    2.09   368.83866   137.73039   207.66611
   352  C   4.0    0.04    4.40    4.38   368.09060   135.16748   208.22936
   353  C   4.0    0.16    3.51    3.12   365.55937   134.69237   206.92164
   354  O   6.0   -0.29    1.32    1.80   364.20817   136.46342   206.26274
   355  C   4.0    0.04    4.16    3.92   367.79563   134.79152   211.08934
   356  O   6.0   -0.24    2.08    1.84   365.74198   136.11992   212.09723
   357  H   1.0    0.12    1.12    1.45   369.38139   138.81113   209.16398
   358  H   1.0    0.05    1.05    1.44   369.48979   133.81032   207.51400
   359  H   1.0    0.04    1.01    1.43   367.64027   132.76445   211.46967
   360  H   1.0    0.07    1.02    1.43   369.48043   135.53393   212.02913
   361  H   1.0    0.15    1.05    1.44   364.15972   135.27795   211.64978
   362  N   5.0   -0.14    3.46    2.05   364.95711   132.28104   206.55305
   363  C   4.0    0.04    4.42    4.41   362.63288   131.67149   205.24394
   364  C   4.0    0.07    3.23    3.04   361.40451   129.35261   206.42160
   365  O   6.0   -0.29    1.12    1.80   362.43227   127.29138   206.63332
   366  C   4.0   -0.02    4.33    4.25   363.08501   131.37721   202.37419
   367  C   4.0   -0.05    4.19    3.99   360.57429   130.77458   201.06462
   368  C   4.0   -0.06    4.12    3.85   365.11399   129.41158   201.82459
   369  C   4.0   -0.09    4.01    3.64   360.72616   131.03592   198.20083
   370  H   1.0    0.08    1.06    1.44   365.92727   130.87314   207.44529
   371  H   1.0    0.06    1.07    1.44   361.36011   133.28367   205.52423
   372  H   1.0    0.05    1.05    1.44   363.76954   133.22069   201.71638
   373  H   1.0    0.04    1.03    1.43   360.00613   128.85606   201.57422
   374  H   1.0    0.03    1.03    1.43   359.13665   132.06414   201.79821
   375  H   1.0    0.04    1.00    1.43   365.42843   129.25538   199.80524
   376  H   1.0    0.06    1.00    1.43   366.89124   129.95647   202.70464
   377  H   1.0    0.06    1.00    1.43   364.56213   127.58408   202.58247
   378  H   1.0    0.03    1.00    1.43   358.86128   130.81910   197.37341
   379  H   1.0    0.03    1.00    1.43   361.45474   132.89163   197.70913
   380  H   1.0    0.03    1.00    1.43   361.96854   129.61286   197.40480
   381  H   1.0    0.08    1.07    1.44   370.08807   138.18142   188.35326
   382  H   1.0    0.05    1.05    1.44   379.97539   126.80373   225.88642
   383  H   1.0    0.08    1.07    1.44   401.71103   141.21901   217.46813
   384  H   1.0    0.05    1.05    1.44   399.51044   142.22479   210.38296
   385  H   1.0    0.10    1.07    1.44   395.69379   143.11834   207.00204
   386  H   1.0    0.06    1.05    1.44   401.52087   134.21872   205.01920
   387  H   1.0    0.09    1.07    1.44   388.75427   131.72257   217.84705
   388  H   1.0    0.06    1.05    1.44   368.19838   120.18366   209.70979
   389  H   1.0    0.09    1.07    1.44   363.23681   115.99818   203.46883
   390  H   1.0    0.06    1.04    1.43   364.82268   111.92125   208.34204
   391  H   1.0    0.10    1.09    1.44   359.81120   139.46320   208.43726
   392  H   1.0    0.05    1.05    1.44   359.63871   129.45393   207.08696

  Z AO/shell   Hii/eV     exponent
  1     Wed Apr 25 08:07:45 CEST 2018   EN: 2.200 GM2: 0.406  GM3: 0.0800  RAES: 1.40
     1s    -10.707211    1.230000
  6     Wed Apr 25 08:07:45 CEST 2018   EN: 2.550 GM2: 0.538  GM3: 0.1500  RAES: 3.00
     2s    -13.970922    2.096432
     2p    -10.063292    1.800000
  7     Wed Apr 25 08:07:45 CEST 2018   EN: 3.040 GM2: 0.461  GM3:-0.0640  RAES: 1.90
     2s    -16.686243    2.339881
     2p    -12.523956    2.014332
  8     Wed Apr 25 08:07:45 CEST 2018   EN: 3.440 GM2: 0.452  GM3:-0.0517  RAES: 1.80
     2s    -20.229985    2.439742
     2p    -15.503117    2.137023
 no old-style atom pair restraining (fixing) potential

molecular fragmentation (1/2 indicates fragments):
111111111111111111111111111111111111111111111111111111111111111111111111
111111111111111111111122222222222222222222222222222222222222222222222222
222222222222222222222222222222222222222222222222222222222222222222222222
222222222222222222222222222222222222222222222222222222222222222222222222
222222222222222222222222222222222222222222222222222222222222222222222222
22222222222222222222112222222222
# atoms in fragment 1/2:    96   296
 fragment masses (1/2) :      708.74     2086.30
CMA distance (Bohr)    :   3.498
constraining FC (au)   :  0.0500
           ------------------------------------------------- 
          |        Self-Consistent Charge Iterations        |
           ------------------------------------------------- 

 Ncao       : 980
 Nao        : 980
 Nshell     : 588
 Nel        : 1104
 T(el)      :   500.0
 intcut     :    35.0
 scfconv/Eh :  0.100E-06
   qconv/e  :  0.100E-04
 intneglect :  0.100E-08
 broydamp   :      0.400
 iter      E             dE          RMSdq      gap      omega  full diag
   1   -637.8124755 -0.637812E+03  0.493E+00    3.60       0.0  T
   2   -639.5385245 -0.172605E+01  0.229E+00    1.82       1.0  T
   3   -639.6452465 -0.106722E+00  0.129E+00    1.82       1.0  T
   4   -639.7440905 -0.988440E-01  0.275E-01    1.19       1.0  T
   5   -639.7504179 -0.632741E-02  0.135E-01    1.31       1.0  T
   6   -639.7515309 -0.111301E-02  0.603E-02    1.26       1.0  T
   7   -639.7519323 -0.401422E-03  0.278E-02    1.23       1.0  T
   8   -639.7519894 -0.570738E-04  0.142E-02    1.22       1.0  T
   9   -639.7520103 -0.209281E-04  0.664E-03    1.21       1.0  T
  10   -639.7520143 -0.393458E-05  0.308E-03    1.21       1.6  T
  11   -639.7520153 -0.100255E-05  0.134E-03    1.21       3.8  T
  12   -639.7520154 -0.144700E-06  0.637E-04    1.21       7.9  T
  13   -639.7520155 -0.478944E-07  0.300E-04    1.21      16.8  T
  14   -639.7520155 -0.682144E-08  0.122E-04    1.21      41.3  T
  15   -639.7520155 -0.128091E-08  0.506E-05    1.21      99.9  T
  16   -639.7520155 -0.198497E-09  0.241E-05    1.21     209.7  T
speedup 13.67
cpu  time for SCC   33.79 s
wall time for SCC    2.47 s

   *** convergence criteria satisfied after 16 iterations ***

          eigenvalues
 #    :         540        541        542        543        544        545        546        547
 occ. :        2.000      2.000      2.000      2.000      2.000      2.000      2.000      2.000
 eps  :       -10.545    -10.475    -10.410    -10.340    -10.209    -10.195    -10.147    -10.023
 #    :         548        549        550        551        552        553        554        555
 occ. :        2.000      2.000      2.000      2.000      2.000      0.000      0.000      0.000
 eps  :        -9.967     -9.841     -9.826     -9.806     -9.366     -8.160     -8.027     -7.893
 #    :         556        557        558        559        560        561        562        563
 occ. :        0.000      0.000      0.000      0.000      0.000      0.000      0.000      0.000
 eps  :        -7.880     -7.613     -7.390     -6.800     -6.719     -6.657     -6.604     -6.580


   #   Z            q   n(s)   n(p)   n(d)      C6AA      α(0)
   1   7 N     -0.388  1.314  4.073  0.000    30.028     8.138
   2   6 C      0.030  1.064  2.906  0.000    20.079     6.382
   3   6 C      0.271  1.050  2.680  0.000    22.426     7.755
   4   8 O     -0.484  1.745  4.739  0.000    23.439     6.491
   5   6 C     -0.014  1.062  2.953  0.000    20.797     6.486
   6   6 C     -0.115  1.039  3.076  0.000    22.749     6.801
   7   6 C     -0.115  1.041  3.074  0.000    22.763     6.803
   8   1 H      0.166  0.834  0.000  0.000     1.296     1.784
   9   1 H      0.027  0.973  0.000  0.000     2.625     2.534
  10   1 H      0.034  0.966  0.000  0.000     2.524     2.485
  11   1 H      0.040  0.960  0.000  0.000     2.443     2.444
  12   1 H      0.018  0.982  0.000  0.000     2.766     2.601
  13   1 H      0.046  0.954  0.000  0.000     2.371     2.408
  14   1 H      0.048  0.952  0.000  0.000     2.350     2.397
  15   1 H      0.049  0.951  0.000  0.000     2.330     2.387
  16   1 H      0.053  0.947  0.000  0.000     2.288     2.366
  17   7 N     -0.165  1.231  3.934  0.000    24.578     7.363
  18   6 C      0.011  1.063  2.926  0.000    20.395     6.431
  19   6 C      0.273  1.045  2.682  0.000    22.377     7.746
  20   8 O     -0.469  1.741  4.728  0.000    23.117     6.446
  21   6 C      0.112  1.050  2.839  0.000    18.848     6.199
  22   8 O     -0.491  1.732  4.759  0.000    22.694     6.431
  23   6 C     -0.141  1.046  3.095  0.000    23.283     6.881
  24   1 H      0.214  0.786  0.000  0.000     1.038     1.596
  25   1 H      0.081  0.919  0.000  0.000     1.967     2.193
  26   1 H      0.025  0.975  0.000  0.000     2.658     2.550
  27   1 H      0.354  0.646  0.000  0.000     0.578     1.194
  28   1 H      0.074  0.926  0.000  0.000     2.043     2.235
  29   1 H      0.061  0.939  0.000  0.000     2.186     2.312
  30   1 H      0.069  0.931  0.000  0.000     2.093     2.262
  31   7 N     -0.163  1.233  3.931  0.000    24.532     7.356
  32   6 C     -0.036  1.050  2.986  0.000    21.288     6.582
  33   6 C      0.275  1.041  2.684  0.000    22.346     7.741
  34   8 O     -0.482  1.729  4.753  0.000    23.379     6.483
  35   1 H      0.215  0.785  0.000  0.000     1.032     1.592
  36   1 H      0.091  0.909  0.000  0.000     1.872     2.140
  37   1 H      0.098  0.902  0.000  0.000     1.805     2.101
  38   7 N     -0.169  1.239  3.931  0.000    24.667     7.376
  39   6 C      0.030  1.059  2.912  0.000    20.080     6.380
  40   6 C      0.274  1.040  2.686  0.000    22.374     7.746
  41   8 O     -0.506  1.751  4.756  0.000    23.921     6.557
  42   6 C     -0.059  1.053  3.006  0.000    21.625     6.619
  43   6 C     -0.002  1.074  2.928  0.000    28.072     8.691
  44   6 C     -0.035  1.079  2.956  0.000    28.879     8.813
  45   6 C     -0.037  1.079  2.958  0.000    28.930     8.821
  46   6 C     -0.057  1.076  2.982  0.000    29.428     8.896
  47   6 C     -0.077  1.077  2.999  0.000    29.914     8.969
  48   6 C      0.147  1.044  2.809  0.000    24.801     8.162
  49   8 O     -0.424  1.719  4.705  0.000    21.319     6.233
  50   1 H      0.206  0.794  0.000  0.000     1.076     1.625
  51   1 H      0.073  0.927  0.000  0.000     2.058     2.243
  52   1 H      0.040  0.960  0.000  0.000     2.455     2.450
  53   1 H      0.041  0.959  0.000  0.000     2.438     2.442
  54   1 H      0.017  0.983  0.000  0.000     2.776     2.605
  55   1 H      0.033  0.967  0.000  0.000     2.545     2.495
  56   1 H      0.059  0.941  0.000  0.000     2.213     2.327
  57   1 H      0.059  0.941  0.000  0.000     2.205     2.322
  58   1 H      0.360  0.640  0.000  0.000     0.565     1.180
  59   7 N     -0.188  1.255  3.933  0.000    25.081     7.438
  60   6 C      0.043  1.050  2.907  0.000    19.853     6.345
  61   6 C      0.274  1.045  2.681  0.000    22.371     7.746
  62   8 O     -0.494  1.726  4.768  0.000    23.653     6.521
  63   6 C     -0.104  1.036  3.068  0.000    22.530     6.767
  64   1 H      0.231  0.769  0.000  0.000     0.962     1.537
  65   1 H      0.058  0.942  0.000  0.000     2.228     2.334
  66   1 H      0.058  0.942  0.000  0.000     2.224     2.332
  67   1 H      0.051  0.949  0.000  0.000     2.311     2.377
  68   1 H      0.059  0.941  0.000  0.000     2.206     2.323
  69   7 N     -0.178  1.258  3.920  0.000    24.848     7.403
  70   6 C      0.049  1.055  2.897  0.000    19.753     6.327
  71   6 C      0.281  1.042  2.677  0.000    22.246     7.724
  72   8 O     -0.495  1.750  4.745  0.000    23.675     6.524
  73   6 C     -0.100  1.069  3.032  0.000    22.413     6.740
  74   6 C      0.375  1.021  2.604  0.000    20.641     7.435
  75   8 O     -0.636  1.775  4.861  0.000    27.009     6.968
  76   8 O     -0.619  1.762  4.858  0.000    26.603     6.915
  77   1 H      0.213  0.787  0.000  0.000     1.043     1.600
  78   1 H      0.049  0.951  0.000  0.000     2.333     2.389
  79   1 H      0.037  0.963  0.000  0.000     2.486     2.466
  80   1 H      0.047  0.953  0.000  0.000     2.363     2.404
  81   7 N     -0.159  1.233  3.926  0.000    24.445     7.343
  82   6 C      0.007  1.067  2.927  0.000    20.479     6.445
  83   6 C      0.204  1.085  2.711  0.000    23.662     7.967
  84   8 O     -0.361  1.755  4.606  0.000    20.918     6.132
  85   6 C      0.108  1.051  2.841  0.000    18.905     6.207
  86   8 O     -0.458  1.718  4.740  0.000    22.017     6.334
  87   6 C     -0.134  1.043  3.092  0.000    23.145     6.861
  88   1 H      0.200  0.800  0.000  0.000     1.108     1.649
  89   1 H      0.104  0.896  0.000  0.000     1.748     2.068
  90   1 H      0.084  0.916  0.000  0.000     1.935     2.175
  91   1 H      0.320  0.680  0.000  0.000     0.663     1.279
  92   1 H      0.082  0.918  0.000  0.000     1.954     2.186
  93   1 H      0.059  0.941  0.000  0.000     2.205     2.322
  94   1 H      0.043  0.957  0.000  0.000     2.403     2.424
  95   7 N     -0.379  1.320  4.059  0.000    29.800     8.108
  96   6 C      0.041  1.056  2.903  0.000    19.911     6.356
  97   6 C      0.200  1.087  2.713  0.000    23.732     7.978
  98   8 O     -0.375  1.765  4.610  0.000    21.187     6.171
  99   6 C     -0.073  1.058  3.015  0.000    21.893     6.660
 100   6 C      0.005  1.084  2.911  0.000    27.905     8.665
 101   6 C     -0.041  1.083  2.958  0.000    29.028     8.835
 102   6 C     -0.041  1.078  2.963  0.000    29.012     8.833
 103   6 C     -0.034  1.083  2.952  0.000    28.854     8.809
 104   6 C     -0.034  1.078  2.956  0.000    28.837     8.806
 105   6 C     -0.039  1.078  2.961  0.000    28.961     8.825
 106   1 H      0.162  0.838  0.000  0.000     1.325     1.803
 107   1 H      0.071  0.929  0.000  0.000     2.072     2.251
 108   1 H      0.073  0.927  0.000  0.000     2.049     2.238
 109   1 H      0.045  0.955  0.000  0.000     2.379     2.412
 110   1 H      0.063  0.937  0.000  0.000     2.162     2.300
 111   1 H      0.008  0.992  0.000  0.000     2.928     2.676
 112   1 H      0.061  0.939  0.000  0.000     2.187     2.312
 113   1 H      0.007  0.993  0.000  0.000     2.944     2.683
 114   1 H      0.029  0.971  0.000  0.000     2.594     2.518
 115   7 N     -0.391  1.302  4.090  0.000    30.134     8.153
 116   6 C      0.048  1.054  2.898  0.000    19.778     6.334
 117   6 C      0.280  1.047  2.673  0.000    22.261     7.726
 118   8 O     -0.507  1.750  4.756  0.000    23.932     6.559
 119   6 C     -0.084  1.063  3.021  0.000    22.108     6.694
 120   6 C      0.374  1.024  2.602  0.000    20.660     7.438
 121   8 O     -0.628  1.764  4.864  0.000    26.822     6.944
 122   8 O     -0.656  1.777  4.879  0.000    27.539     7.036
 123   1 H      0.171  0.829  0.000  0.000     1.264     1.761
 124   1 H      0.028  0.972  0.000  0.000     2.613     2.528
 125   1 H      0.011  0.989  0.000  0.000     2.874     2.651
 126   1 H      0.005  0.995  0.000  0.000     2.974     2.697
 127   7 N     -0.180  1.238  3.942  0.000    24.898     7.411
 128   6 C      0.012  1.065  2.924  0.000    20.384     6.429
 129   6 C      0.270  1.043  2.687  0.000    22.437     7.757
 130   8 O     -0.457  1.742  4.715  0.000    22.858     6.410
 131   6 C      0.120  1.049  2.831  0.000    18.712     6.177
 132   8 O     -0.504  1.750  4.754  0.000    22.977     6.471
 133   6 C     -0.140  1.045  3.095  0.000    23.257     6.877
 134   1 H      0.210  0.790  0.000  0.000     1.058     1.612
 135   1 H      0.089  0.911  0.000  0.000     1.891     2.150
 136   1 H      0.025  0.975  0.000  0.000     2.662     2.552
 137   1 H      0.350  0.650  0.000  0.000     0.588     1.204
 138   1 H      0.076  0.924  0.000  0.000     2.018     2.222
 139   1 H      0.065  0.935  0.000  0.000     2.145     2.290
 140   1 H      0.066  0.934  0.000  0.000     2.134     2.285
 141   7 N     -0.175  1.235  3.940  0.000    24.787     7.394
 142   6 C     -0.005  1.069  2.936  0.000    20.680     6.476
 143   6 C      0.275  1.039  2.686  0.000    22.351     7.742
 144   8 O     -0.475  1.746  4.729  0.000    23.236     6.463
 145   6 C      0.105  1.051  2.844  0.000    18.942     6.213
 146   8 O     -0.472  1.728  4.744  0.000    22.307     6.376
 147   6 C     -0.140  1.045  3.095  0.000    23.266     6.878
 148   1 H      0.192  0.808  0.000  0.000     1.145     1.677
 149   1 H      0.102  0.898  0.000  0.000     1.768     2.080
 150   1 H      0.069  0.931  0.000  0.000     2.097     2.264
 151   1 H      0.325  0.675  0.000  0.000     0.650     1.266
 152   1 H      0.083  0.917  0.000  0.000     1.948     2.183
 153   1 H      0.066  0.934  0.000  0.000     2.133     2.284
 154   1 H      0.050  0.950  0.000  0.000     2.320     2.382
 155   7 N     -0.158  1.227  3.931  0.000    24.418     7.339
 156   6 C     -0.033  1.049  2.984  0.000    21.245     6.576
 157   6 C      0.202  1.084  2.714  0.000    23.704     7.973
 158   8 O     -0.357  1.752  4.605  0.000    20.842     6.121
 159   1 H      0.201  0.799  0.000  0.000     1.101     1.644
 160   1 H      0.101  0.899  0.000  0.000     1.778     2.085
 161   1 H      0.129  0.871  0.000  0.000     1.546     1.945
 162   7 N     -0.381  1.316  4.065  0.000    29.849     8.114
 163   6 C      0.032  1.057  2.911  0.000    20.050     6.378
 164   6 C      0.270  1.045  2.685  0.000    22.443     7.758
 165   8 O     -0.475  1.737  4.738  0.000    23.227     6.462
 166   6 C     -0.060  1.055  3.005  0.000    21.655     6.624
 167   6 C     -0.095  1.056  3.039  0.000    22.306     6.723
 168   6 C      0.292  1.039  2.669  0.000    22.044     7.688
 169   8 O     -0.487  1.747  4.740  0.000    23.498     6.499
 170   7 N     -0.279  1.255  4.024  0.000    27.198     7.746
 171   1 H      0.176  0.824  0.000  0.000     1.240     1.744
 172   1 H      0.028  0.972  0.000  0.000     2.620     2.531
 173   1 H      0.059  0.941  0.000  0.000     2.209     2.324
 174   1 H      0.016  0.984  0.000  0.000     2.794     2.614
 175   1 H      0.081  0.919  0.000  0.000     1.966     2.193
 176   1 H      0.064  0.936  0.000  0.000     2.154     2.295
 177   1 H      0.197  0.803  0.000  0.000     1.123     1.660
 178   1 H      0.196  0.804  0.000  0.000     1.126     1.662
 179   7 N     -0.188  1.246  3.942  0.000    25.074     7.437
 180   6 C      0.021  1.062  2.917  0.000    20.228     6.404
 181   6 C      0.282  1.046  2.672  0.000    22.234     7.722
 182   8 O     -0.519  1.748  4.771  0.000    24.216     6.598
 183   6 C     -0.015  1.062  2.952  0.000    20.805     6.488
 184   6 C     -0.108  1.036  3.072  0.000    22.615     6.781
 185   6 C     -0.125  1.040  3.085  0.000    22.941     6.829
 186   1 H      0.211  0.789  0.000  0.000     1.050     1.605
 187   1 H      0.077  0.923  0.000  0.000     2.014     2.219
 188   1 H      0.058  0.942  0.000  0.000     2.225     2.333
 189   1 H      0.058  0.942  0.000  0.000     2.228     2.334
 190   1 H      0.040  0.960  0.000  0.000     2.446     2.446
 191   1 H      0.017  0.983  0.000  0.000     2.776     2.606
 192   1 H      0.081  0.919  0.000  0.000     1.965     2.192
 193   1 H      0.029  0.971  0.000  0.000     2.602     2.523
 194   1 H      0.054  0.946  0.000  0.000     2.270     2.356
 195   7 N     -0.188  1.275  3.913  0.000    25.071     7.437
 196   6 C      0.039  1.052  2.909  0.000    19.914     6.353
 197   6 C      0.281  1.046  2.673  0.000    22.245     7.724
 198   8 O     -0.494  1.740  4.754  0.000    23.654     6.521
 199   6 C     -0.124  1.040  3.084  0.000    22.932     6.828
 200   1 H      0.240  0.760  0.000  0.000     0.924     1.506
 201   1 H      0.053  0.947  0.000  0.000     2.287     2.365
 202   1 H      0.058  0.942  0.000  0.000     2.226     2.333
 203   1 H      0.072  0.928  0.000  0.000     2.061     2.245
 204   1 H      0.076  0.924  0.000  0.000     2.019     2.222
 205   7 N     -0.208  1.266  3.942  0.000    25.526     7.504
 206   6 C      0.045  1.053  2.902  0.000    19.810     6.336
 207   6 C      0.278  1.041  2.681  0.000    22.300     7.733
 208   8 O     -0.478  1.728  4.750  0.000    23.303     6.472
 209   6 C     -0.095  1.058  3.036  0.000    22.302     6.723
 210   6 C      0.300  1.036  2.664  0.000    21.903     7.663
 211   8 O     -0.519  1.755  4.764  0.000    24.199     6.595
 212   7 N     -0.308  1.285  4.023  0.000    27.924     7.848
 213   1 H      0.218  0.782  0.000  0.000     1.019     1.581
 214   1 H      0.063  0.937  0.000  0.000     2.163     2.300
 215   1 H      0.062  0.938  0.000  0.000     2.173     2.305
 216   1 H      0.094  0.906  0.000  0.000     1.837     2.119
 217   1 H      0.219  0.781  0.000  0.000     1.015     1.579
 218   1 H      0.227  0.773  0.000  0.000     0.979     1.550
 219   7 N     -0.178  1.243  3.934  0.000    24.844     7.403
 220   6 C      0.025  1.060  2.916  0.000    20.169     6.396
 221   6 C      0.277  1.039  2.684  0.000    22.321     7.737
 222   8 O     -0.472  1.727  4.745  0.000    23.171     6.454
 223   6 C     -0.130  1.043  3.088  0.000    23.056     6.846
 224   1 H      0.197  0.803  0.000  0.000     1.123     1.660
 225   1 H      0.087  0.913  0.000  0.000     1.913     2.163
 226   1 H      0.091  0.909  0.000  0.000     1.868     2.138
 227   1 H      0.079  0.921  0.000  0.000     1.991     2.207
 228   1 H      0.052  0.948  0.000  0.000     2.300     2.372
 229   7 N     -0.178  1.242  3.936  0.000    24.860     7.405
 230   6 C      0.035  1.057  2.908  0.000    19.983     6.364
 231   6 C      0.267  1.050  2.684  0.000    22.498     7.767
 232   8 O     -0.459  1.701  4.758  0.000    22.898     6.416
 233   6 C     -0.104  1.071  3.033  0.000    22.484     6.751
 234   6 C      0.375  1.023  2.602  0.000    20.648     7.436
 235   8 O     -0.626  1.766  4.860  0.000    26.776     6.938
 236   8 O     -0.622  1.768  4.853  0.000    26.656     6.922
 237   1 H      0.190  0.810  0.000  0.000     1.160     1.687
 238   1 H      0.084  0.916  0.000  0.000     1.943     2.180
 239   1 H      0.035  0.965  0.000  0.000     2.510     2.478
 240   1 H      0.056  0.944  0.000  0.000     2.251     2.346
 241   7 N     -0.174  1.246  3.928  0.000    24.778     7.393
 242   6 C      0.024  1.059  2.917  0.000    20.187     6.399
 243   6 C      0.274  1.042  2.684  0.000    22.367     7.745
 244   8 O     -0.454  1.734  4.720  0.000    22.797     6.402
 245   6 C     -0.077  1.057  3.021  0.000    21.963     6.671
 246   6 C     -0.016  1.055  2.961  0.000    20.830     6.492
 247   6 C     -0.123  1.044  3.079  0.000    22.903     6.823
 248   6 C     -0.116  1.038  3.078  0.000    22.771     6.804
 249   1 H      0.195  0.805  0.000  0.000     1.131     1.666
 250   1 H      0.075  0.925  0.000  0.000     2.032     2.229
 251   1 H      0.080  0.920  0.000  0.000     1.981     2.201
 252   1 H      0.073  0.927  0.000  0.000     2.050     2.239
 253   1 H      0.041  0.959  0.000  0.000     2.431     2.438
 254   1 H      0.047  0.953  0.000  0.000     2.363     2.404
 255   1 H      0.054  0.946  0.000  0.000     2.265     2.353
 256   1 H      0.049  0.951  0.000  0.000     2.330     2.387
 257   1 H      0.034  0.966  0.000  0.000     2.537     2.491
 258   1 H      0.043  0.957  0.000  0.000     2.414     2.430
 259   1 H      0.025  0.975  0.000  0.000     2.659     2.550
 260   7 N     -0.164  1.237  3.928  0.000    24.552     7.359
 261   6 C      0.012  1.068  2.920  0.000    20.382     6.429
 262   6 C      0.209  1.075  2.716  0.000    23.568     7.950
 263   8 O     -0.350  1.743  4.606  0.000    20.698     6.100
 264   6 C      0.111  1.048  2.842  0.000    18.862     6.201
 265   8 O     -0.479  1.730  4.749  0.000    22.436     6.394
 266   6 C     -0.142  1.045  3.097  0.000    23.302     6.884
 267   1 H      0.201  0.799  0.000  0.000     1.102     1.644
 268   1 H      0.089  0.911  0.000  0.000     1.890     2.150
 269   1 H      0.045  0.955  0.000  0.000     2.384     2.415
 270   1 H      0.347  0.653  0.000  0.000     0.594     1.211
 271   1 H      0.074  0.926  0.000  0.000     2.041     2.234
 272   1 H      0.057  0.943  0.000  0.000     2.238     2.339
 273   1 H      0.072  0.928  0.000  0.000     2.060     2.244
 274   7 N     -0.405  1.318  4.088  0.000    30.523     8.205
 275   6 C      0.041  1.056  2.904  0.000    19.910     6.356
 276   6 C      0.202  1.095  2.704  0.000    23.712     7.975
 277   8 O     -0.392  1.759  4.633  0.000    21.531     6.221
 278   6 C     -0.067  1.056  3.011  0.000    21.787     6.645
 279   6 C     -0.071  1.052  3.019  0.000    21.847     6.654
 280   6 C     -0.092  1.054  3.038  0.000    22.246     6.715
 281   6 C     -0.042  1.057  2.985  0.000    21.425     6.607
 282   7 N     -0.160  1.235  3.925  0.000    24.452     7.344
 283   1 H      0.183  0.817  0.000  0.000     1.198     1.715
 284   1 H      0.054  0.946  0.000  0.000     2.272     2.357
 285   1 H      0.051  0.949  0.000  0.000     2.306     2.375
 286   1 H      0.045  0.955  0.000  0.000     2.385     2.415
 287   1 H      0.061  0.939  0.000  0.000     2.188     2.313
 288   1 H      0.053  0.947  0.000  0.000     2.281     2.362
 289   1 H      0.069  0.931  0.000  0.000     2.096     2.264
 290   1 H      0.076  0.924  0.000  0.000     2.024     2.225
 291   1 H      0.121  0.879  0.000  0.000     1.604     1.980
 292   1 H      0.101  0.899  0.000  0.000     1.775     2.083
 293   1 H      0.292  0.708  0.000  0.000     0.738     1.345
 294   1 H      0.290  0.710  0.000  0.000     0.745     1.352
 295   1 H      0.293  0.707  0.000  0.000     0.736     1.344
 296   7 N     -0.386  1.307  4.079  0.000    29.988     8.133
 297   6 C      0.030  1.064  2.905  0.000    20.080     6.383
 298   6 C      0.269  1.051  2.681  0.000    22.463     7.761
 299   8 O     -0.489  1.757  4.731  0.000    23.533     6.504
 300   6 C     -0.130  1.069  3.060  0.000    22.984     6.825
 301   6 C      0.295  1.037  2.667  0.000    21.986     7.678
 302   8 O     -0.512  1.761  4.751  0.000    24.046     6.575
 303   7 N     -0.281  1.267  4.015  0.000    27.270     7.756
 304   1 H      0.159  0.841  0.000  0.000     1.339     1.813
 305   1 H      0.076  0.924  0.000  0.000     2.021     2.223
 306   1 H      0.080  0.920  0.000  0.000     1.981     2.201
 307   1 H      0.083  0.917  0.000  0.000     1.951     2.184
 308   1 H      0.239  0.761  0.000  0.000     0.929     1.510
 309   1 H      0.242  0.758  0.000  0.000     0.914     1.498
 310   7 N     -0.195  1.265  3.930  0.000    25.233     7.461
 311   6 C      0.018  1.064  2.918  0.000    20.288     6.414
 312   6 C      0.282  1.042  2.676  0.000    22.227     7.720
 313   8 O     -0.505  1.751  4.753  0.000    23.888     6.553
 314   6 C     -0.083  1.055  3.028  0.000    22.082     6.690
 315   6 C     -0.094  1.058  3.036  0.000    22.292     6.722
 316   6 C     -0.085  1.046  3.039  0.000    22.125     6.697
 317   6 C     -0.045  1.057  2.988  0.000    21.479     6.616
 318   7 N     -0.146  1.229  3.917  0.000    24.146     7.298
 319   1 H      0.235  0.765  0.000  0.000     0.945     1.523
 320   1 H      0.079  0.921  0.000  0.000     1.986     2.204
 321   1 H      0.064  0.936  0.000  0.000     2.148     2.292
 322   1 H      0.090  0.910  0.000  0.000     1.879     2.144
 323   1 H      0.094  0.906  0.000  0.000     1.844     2.124
 324   1 H      0.082  0.918  0.000  0.000     1.957     2.188
 325   1 H      0.054  0.946  0.000  0.000     2.275     2.359
 326   1 H      0.057  0.943  0.000  0.000     2.231     2.336
 327   1 H      0.127  0.873  0.000  0.000     1.554     1.950
 328   1 H      0.091  0.909  0.000  0.000     1.866     2.136
 329   1 H      0.306  0.694  0.000  0.000     0.694     1.305
 330   1 H      0.290  0.710  0.000  0.000     0.742     1.350
 331   1 H      0.311  0.689  0.000  0.000     0.681     1.292
 332   7 N     -0.178  1.239  3.939  0.000    24.850     7.404
 333   6 C      0.038  1.054  2.909  0.000    19.946     6.359
 334   6 C      0.280  1.045  2.676  0.000    22.269     7.728
 335   8 O     -0.525  1.751  4.774  0.000    24.346     6.615
 336   6 C     -0.093  1.064  3.030  0.000    22.275     6.719
 337   6 C      0.373  1.022  2.604  0.000    20.671     7.440
 338   8 O     -0.619  1.752  4.866  0.000    26.584     6.913
 339   8 O     -0.617  1.775  4.842  0.000    26.543     6.907
 340   1 H      0.206  0.794  0.000  0.000     1.078     1.627
 341   1 H      0.073  0.927  0.000  0.000     2.054     2.241
 342   1 H      0.034  0.966  0.000  0.000     2.525     2.485
 343   1 H      0.037  0.963  0.000  0.000     2.495     2.470
 344   7 N     -0.181  1.247  3.934  0.000    24.922     7.414
 345   6 C     -0.031  1.048  2.982  0.000    21.188     6.565
 346   6 C      0.284  1.039  2.677  0.000    22.188     7.713
 347   8 O     -0.508  1.740  4.768  0.000    23.955     6.562
 348   1 H      0.233  0.767  0.000  0.000     0.950     1.527
 349   1 H      0.103  0.897  0.000  0.000     1.759     2.074
 350   1 H      0.082  0.918  0.000  0.000     1.954     2.186
 351   7 N     -0.181  1.244  3.936  0.000    24.915     7.413
 352   6 C      0.031  1.054  2.914  0.000    20.048     6.375
 353   6 C      0.283  1.037  2.680  0.000    22.201     7.717
 354   8 O     -0.467  1.738  4.728  0.000    23.056     6.438
 355   6 C      0.078  1.036  2.886  0.000    19.491     6.323
 356   8 O     -0.461  1.707  4.754  0.000    22.077     6.343
 357   1 H      0.224  0.776  0.000  0.000     0.992     1.560
 358   1 H      0.031  0.969  0.000  0.000     2.574     2.509
 359   1 H      0.029  0.971  0.000  0.000     2.599     2.521
 360   1 H      0.056  0.944  0.000  0.000     2.250     2.346
 361   1 H      0.336  0.664  0.000  0.000     0.623     1.240
 362   7 N     -0.163  1.239  3.924  0.000    24.532     7.356
 363   6 C      0.025  1.060  2.915  0.000    20.158     6.392
 364   6 C      0.200  1.085  2.715  0.000    23.743     7.980
 365   8 O     -0.351  1.752  4.599  0.000    20.735     6.105
 366   6 C     -0.013  1.065  2.948  0.000    20.772     6.482
 367   6 C     -0.065  1.052  3.014  0.000    21.753     6.640
 368   6 C     -0.113  1.035  3.079  0.000    22.723     6.797
 369   6 C     -0.115  1.037  3.077  0.000    22.752     6.802
 370   1 H      0.197  0.803  0.000  0.000     1.119     1.657
 371   1 H      0.084  0.916  0.000  0.000     1.941     2.179
 372   1 H      0.045  0.955  0.000  0.000     2.384     2.415
 373   1 H      0.046  0.954  0.000  0.000     2.370     2.407
 374   1 H      0.043  0.957  0.000  0.000     2.413     2.429
 375   1 H      0.062  0.938  0.000  0.000     2.173     2.305
 376   1 H      0.022  0.978  0.000  0.000     2.698     2.569
 377   1 H      0.059  0.941  0.000  0.000     2.216     2.328
 378   1 H      0.059  0.941  0.000  0.000     2.210     2.325
 379   1 H      0.039  0.961  0.000  0.000     2.465     2.455
 380   1 H      0.050  0.950  0.000  0.000     2.319     2.381
 381   1 H      0.189  0.811  0.000  0.000     1.164     1.690
 382   1 H      0.099  0.901  0.000  0.000     1.794     2.094
 383   1 H      0.196  0.804  0.000  0.000     1.127     1.663
 384   1 H      0.061  0.939  0.000  0.000     2.184     2.311
 385   1 H      0.171  0.829  0.000  0.000     1.268     1.763
 386   1 H      0.091  0.909  0.000  0.000     1.871     2.139
 387   1 H      0.179  0.821  0.000  0.000     1.220     1.730
 388   1 H      0.065  0.935  0.000  0.000     2.140     2.288
 389   1 H      0.178  0.822  0.000  0.000     1.225     1.734
 390   1 H      0.069  0.931  0.000  0.000     2.094     2.263
 391   1 H      0.177  0.823  0.000  0.000     1.228     1.736
 392   1 H      0.090  0.910  0.000  0.000     1.875     2.141

 Mol. C6AA /au·bohr⁶  :    1451946.415745
 Mol. C8AA /au·bohr⁸  :   32196948.554192
 Mol. α(0) /au        :       1798.043086

 
molecular dipole:
                 x           y           z       tot (Debye)
 q only:     -778.332    -284.825    -420.695
   full:     -777.739    -280.908    -419.483    2356.829
molecular quadrupole (traceless):
                xx          xy          yy          xz          yz          zz
 q only:  -238110.151 -166283.689  155001.637 -245669.155  -89556.878   83108.514
  q+dip:  -238442.208 -163959.598  155570.031 -244797.893  -88107.102   82872.177
   full:  -238439.988 -163958.034  155563.253 -244797.952  -88107.026   82876.736
speedup 13.85
cpu  time for grad   37.12 s
wall time for grad    2.68 s

SCC energy    :    -639.7616834
rep           :       7.3086531
ES            :       2.5259633
AES           :      -0.1183075
AXC           :       0.1622689
disp          :      -0.5103581
XB            :       0.0000000
fix           :       0.0000000
Gborn         :       0.0000000
Gsasa         :       0.0000000
Ghb           :       0.0000000
Gshift        :       0.0000000
Gsolv         :      -0.7322061     -459.47
Etot ala COSMO:    -639.7616834
grad norm     :       0.5468553
total E       :    -632.4108730
atomizationE  :     111.7232734    70107.41
(atE without considering molecular charge,
 total energy contains solvation terms)
H-L gap (eV)  :          1.2067

------------------------------------------------------------------------
 * finished run on 2019/02/13 at 00:18:02.027     
------------------------------------------------------------------------
 total:
 * wall-time:     0 d,  0 h,  0 min,  2.998 sec
 *  cpu-time:     0 d,  0 h,  0 min, 41.913 sec
 * ratio c/w:    13.978 speedup
 SCF:
 * wall-time:     0 d,  0 h,  0 min,  2.833 sec
 *  cpu-time:     0 d,  0 h,  0 min, 39.578 sec
 * ratio c/w:    13.968 speedup

