      -----------------------------------------------------------      
     |                   =====================                   |     
     |                           x T B                           |     
     |                   =====================                   |     
     |                         S. Grimme                         |     
     |          Mulliken Center for Theoretical Chemistry        |     
     |                    University of Bonn                     |     
     |                Version 6.1 RC1 (SAW190329)                |     
      -----------------------------------------------------------      

   This program is distributed in the hope that it will be useful,
   but WITHOUT ANY WARRANTY; without even the implied warranty of
   MERCHANTABILITY or FITNESS FOR A PARTICULAR PURPOSE.
   
   FOR NON-COMMERCIAL, ACADEMIA USE ONLY.
   
   Cite this work as:
   S. Grimme, C. Bannwarth, P. Shushkov, J. Comput. Theory Chem., 2017,
   13, 1989-2009. DOI: 10.1021/acs.jctc.7b00118
   C. Bannwarth, S. Ehlert and S. Grimme., J. Comput. Theory Chem., 2019,
   just accepted. DOI: 10.1021/acs.jctc.8b01176
   
   for sTDA-xTB:
   S. Grimme and C. Bannwarth, J. Chem. Phys., 2016, 145, 054103.
   DOI: 10.1063/1.4959605
   
   in the mass-spec context:
   V. Asgeirsson, C. Bauer and S. Grimme, Chem. Sci., 2017, 8, 4879.
   DOI: 10.1039/c7sc00601b
   
   for metadynamics refer to:
   S. Grimme, ChemRxiv, Preprint. DOI: 10.26434/chemrxiv.7660532.v1
   
   with help from (in alphabetical order)
   C. Bannwarth, F. Bohle, G. Brandenburg, E. Caldeweyher, M. Checinski,
   S. Dohm, S. Ehlert, S. Ehrlich, F. März, H. Neugebauer, J. Pisarek,
   P. Pracht, P. Shushkov, and S. Spicher.
   
 * started run on 2019/05/31 at 06:33:39.863     

           -------------------------------------------------
          |                Calculation Setup                |
           -------------------------------------------------

          program call               : /home/lum/qr/xtb-190329/bin/xtb xtb_tmp.xyz --chrg 3 --grad --gfn 2 --etemp 500 --acc 0.1 --gbsa h2o --parallel 2
          hostname                   : cu39
          coordinate file            : xtb_tmp.xyz
          omp threads                :                     2
          number of atoms            :                   385
          number of electrons        :                  1018
          charge                     :                     3
          spin                       :                   0.0
          first test random number   :      0.79689070290686


molecular fragmentation (1/2 indicates fragments):
111111111111111111111111111111111111111111111111111111111111111111111111
111111111111111111111111111111111111111111111111111111222222222222222222
222222222222222222222222222222222222222222222222222222222222222222222222
222222222222222222222222222222222222222222222222222222222222222222222222
222222222222222222222222222222222222222222222222222222222222222222222222
2222222222222112222222222
# atoms in fragment 1/2:   128   257
 fragment masses (1/2) :      910.08     1671.10
CMA distance (Bohr)    :  12.234
constraining FC (au)   :  0.0500

########################################################################
# WARNING! Please study the warnings concerning your input carefully
#  - XTBPATH is not set, using XTBHOME instead
#  - Process number higher than OMP_NUM_THREADS, I hope you know what you are doing.
########################################################################

           ------------------------------------------------- 
          |                 G F N 2 - x T B                 |
          | Geometry, Frequencies, Noncovalent interactions |
          |            JCTC 2018 parametrisation            |
           ------------------------------------------------- 
 
             k(s)              :                1.8500
             k(p)              :                2.2300
             k(d)              :                2.2300
             k(f)              :                2.0000
             kEN (H0ij)        :               -2.0000
             D4 a1             :                0.5200
             D4 a2             :                5.0000
             D4 s6             :                1.0000
             D4 s8             :                2.7000
             D4 s9             :                5.0000
             alphaj            :                2.0000

  Z AO/shell   Hii/eV     exponent
  1     Wed Apr 25 08:07:45 CEST 2018   EN: 2.200 GM2: 0.406  GM3: 0.0800  RAES: 1.40
     1s    -10.707211    1.230000
  6     Wed Apr 25 08:07:45 CEST 2018   EN: 2.550 GM2: 0.538  GM3: 0.1500  RAES: 3.00
     2s    -13.970922    2.096432
     2p    -10.063292    1.800000
  7     Wed Apr 25 08:07:45 CEST 2018   EN: 3.040 GM2: 0.461  GM3:-0.0640  RAES: 1.90
     2s    -16.686243    2.339881
     2p    -12.523956    2.014332
  8     Wed Apr 25 08:07:45 CEST 2018   EN: 3.440 GM2: 0.452  GM3:-0.0517  RAES: 1.80
     2s    -20.229985    2.439742
     2p    -15.503117    2.137023
 16     Tue Apr 24 11:44:34 CEST 2018   EN: 2.580 GM2: 0.340  GM3:-0.0502  RAES: 3.10
     3s    -20.029654    1.981333
     3p    -11.377694    2.025643
     3d     -0.420282    1.702555

 Solvent             : h2o
 Using internal parameter file: .param_gbsa2_h2o
 Gsolv ref. state (COSMO-RS): gsolv [1 M gas/solution]
 temperature (mdtemp)       :    298.150000000000     
 dielectric constant        :    80.2000000000000     
 rho                        :    1.00000000000000     
 mass                       :    18.0000000000000     
 surface tension            :    15.5689454083859     
 probe radius               :   0.975313790000000     
 vdW radii scaling          :    1.00000000000000     
 Gshift (Eh)                :   1.857443126794793E-003
 c1                         :    1.55243817000000     
 soset                      :   0.130326360000000     
 HB correction              :  T
 Number of grid points      :          230

            Z     q(EN)     CN     RAES       Cart. coordinates
     1  N   5.0   -0.66    3.00    1.93    40.97537    18.39121    65.35023
     2  C   4.0    0.07    3.98    3.59    41.65080    20.40909    67.07318
     3  C   4.0    0.28    3.01    3.02    43.28131    19.37603    69.24098
     4  O   6.0   -0.35    1.00    1.80    43.19942    17.16964    69.91988
     5  C   4.0   -0.18    3.99    3.60    39.26999    21.58059    68.18368
     6  H   1.0    0.28    1.00    1.43    39.17212    17.73346    65.38972
     7  H   1.0    0.12    0.99    1.43    42.74881    21.83330    66.05058
     8  H   1.0    0.14    0.99    1.43    39.75216    23.09451    69.48253
     9  H   1.0    0.11    0.99    1.43    38.09302    22.34411    66.68860
    10  H   1.0    0.14    0.99    1.43    38.20923    20.16135    69.22286
    11  N   5.0   -0.50    3.01    1.93    44.76484    21.13753    70.29376
    12  C   4.0    0.08    3.99    3.61    46.32485    20.66688    72.48932
    13  C   4.0    0.28    3.01    3.02    45.31344    22.30910    74.63935
    14  O   6.0   -0.46    1.00    1.80    44.95201    24.57064    74.36094
    15  C   4.0   -0.14    3.98    3.59    49.11019    21.33614    72.03815
    16  C   4.0   -0.14    3.98    3.59    50.35461    19.55185    70.14207
    17  C   4.0   -0.02    3.99    3.60    49.54483    20.08993    67.41120
    18  N   5.0   -0.48    3.02    1.93    51.71315    20.70685    65.84464
    19  C   4.0    0.39    3.01    3.02    51.67269    20.80398    63.33595
    20  N   5.0   -0.61    3.01    1.93    49.64521    20.10265    62.04032
    21  N   5.0   -0.63    3.02    1.93    53.72345    21.62383    62.11647
    22  H   1.0    0.29    1.00    1.43    44.66551    22.96176    69.69824
    23  H   1.0    0.14    0.99    1.43    46.13640    18.65750    72.93954
    24  H   1.0    0.12    0.99    1.43    49.22420    23.28428    71.37460
    25  H   1.0    0.12    0.99    1.43    50.08561    21.21961    73.85193
    26  H   1.0    0.12    0.99    1.43    52.39796    19.73087    70.32115
    27  H   1.0    0.13    0.99    1.43    49.87447    17.61482    70.64880
    28  H   1.0    0.14    0.99    1.43    48.57906    18.44264    66.63123
    29  H   1.0    0.14    0.99    1.43    48.21965    21.67735    67.37399
    30  H   1.0    0.24    1.00    1.43    53.25781    21.36576    66.75545
    31  H   1.0    0.28    1.00    1.43    48.07118    19.42066    62.88746
    32  H   1.0    0.30    1.00    1.43    49.63180    20.23087    60.14409
    33  H   1.0    0.28    1.00    1.43    55.28065    22.18699    63.05270
    34  H   1.0    0.30    1.00    1.43    53.84306    21.52023    60.22284
    35  N   5.0   -0.49    3.01    1.93    44.85878    21.06710    76.79387
    36  C   4.0    0.07    3.99    3.60    43.51980    22.11827    78.93768
    37  C   4.0    0.27    3.01    3.02    45.22814    22.01836    81.27314
    38  O   6.0   -0.37    1.00    1.80    46.19184    20.03209    81.96586
    39  C   4.0   -0.12    4.01    3.63    41.08936    20.57438    79.39531
    40  C   4.0   -0.14    3.98    3.58    38.88020    22.22973    80.17472
    41  S   6.0   -0.13    2.01    3.10    36.05175    20.40983    80.95635
    42  C   4.0   -0.18    3.98    3.58    35.47869    18.93580    77.91195
    43  H   1.0    0.26    1.00    1.43    45.31451    19.22165    76.94821
    44  H   1.0    0.13    0.99    1.43    43.07990    24.08092    78.49223
    45  H   1.0    0.13    0.99    1.43    40.60286    19.62146    77.62948
    46  H   1.0    0.14    0.99    1.43    41.45144    19.12887    80.82424
    47  H   1.0    0.12    0.99    1.43    39.30777    23.32672    81.85927
    48  H   1.0    0.12    0.99    1.43    38.36398    23.47256    78.62638
    49  H   1.0    0.13    0.99    1.43    33.54696    18.25049    77.93058
    50  H   1.0    0.14    0.99    1.43    35.73646    20.32485    76.42159
    51  H   1.0    0.13    0.99    1.43    36.75901    17.35051    77.65372
    52  N   5.0   -0.49    3.01    1.93    45.55005    24.24030    82.43090
    53  C   4.0    0.09    3.99    3.61    47.10066    24.51246    84.67139
    54  C   4.0    0.27    3.02    3.02    45.75419    26.27085    86.51364
    55  O   6.0   -0.45    1.00    1.80    45.25936    28.44921    85.90993
    56  C   4.0   -0.12    3.99    3.60    49.64283    25.73372    83.96629
    57  C   4.0   -0.11    3.98    3.59    51.19730    26.45400    86.30488
    58  C   4.0    0.29    3.00    3.02    51.89645    24.11331    87.81261
    59  O   6.0   -0.36    1.00    1.80    50.35024    22.94865    89.08191
    60  N   5.0   -0.62    3.00    1.93    54.29989    23.34616    87.53921
    61  H   1.0    0.29    1.00    1.43    44.84037    25.88635    81.72912
    62  H   1.0    0.17    0.99    1.43    47.38146    22.64360    85.49716
    63  H   1.0    0.13    0.99    1.43    50.69923    24.42197    82.77929
    64  H   1.0    0.13    0.99    1.43    49.21136    27.43543    82.88673
    65  H   1.0    0.11    0.99    1.43    52.89528    27.47177    85.74472
    66  H   1.0    0.14    0.99    1.43    50.07361    27.66931    87.53649
    67  H   1.0    0.28    1.00    1.43    55.59608    24.41103    86.64420
    68  H   1.0    0.32    1.00    1.43    54.91379    21.86798    88.56945
    69  N   5.0   -0.48    3.01    1.93    45.13834    25.33377    88.77387
    70  C   4.0    0.09    4.01    3.63    44.32050    27.06650    90.71966
    71  C   4.0    0.28    3.01    3.02    44.84728    25.93318    93.30492
    72  O   6.0   -0.36    1.00    1.80    45.26698    23.68615    93.62717
    73  C   4.0   -0.11    3.99    3.60    41.50249    27.80239    90.44833
    74  C   4.0   -0.02    3.03    3.02    39.71879    26.28694    92.04281
    75  C   4.0   -0.09    3.03    3.02    38.95950    27.22266    94.37793
    76  C   4.0   -0.08    3.03    3.02    38.75121    23.99113    91.23156
    77  C   4.0   -0.07    3.03    3.02    37.30999    25.88539    95.88685
    78  C   4.0   -0.08    3.03    3.02    37.07815    22.64367    92.71970
    79  C   4.0    0.11    3.03    3.02    36.36149    23.57254    95.06899
    80  O   6.0   -0.44    1.99    1.83    34.73023    22.32376    96.61468
    81  H   1.0    0.30    1.00    1.43    45.81479    23.65523    89.39757
    82  H   1.0    0.15    0.99    1.43    45.43608    28.80552    90.53039
    83  H   1.0    0.11    0.99    1.43    41.32732    29.77137    91.01290
    84  H   1.0    0.14    0.99    1.43    41.02522    27.62901    88.45201
    85  H   1.0    0.13    1.00    1.43    39.68193    29.01927    95.02357
    86  H   1.0    0.13    1.00    1.43    39.30372    23.24879    89.41356
    87  H   1.0    0.13    1.00    1.43    36.74020    26.60032    97.70595
    88  H   1.0    0.13    0.99    1.43    36.33540    20.85908    92.06032
    89  H   1.0    0.27    0.99    1.43    34.23280    20.73248    95.87020
    90  N   5.0   -0.49    3.02    1.93    44.68541    27.65584    95.14829
    91  C   4.0    0.08    3.99    3.61    45.16784    27.14230    97.76991
    92  C   4.0    0.26    3.01    3.02    43.81060    29.16386    99.30078
    93  O   6.0   -0.45    1.00    1.80    43.30265    31.24864    98.43075
    94  C   4.0   -0.11    3.98    3.59    48.02098    27.12583    98.36534
    95  C   4.0   -0.09    3.97    3.58    49.32747    29.61627    97.77397
    96  C   4.0    0.32    2.99    3.02    52.25256    29.22425    97.64656
    97  O   6.0   -0.30    1.00    1.80    53.56730    30.56488    99.07118
    98  O   6.0   -0.33    1.00    1.80    53.02371    27.61328    96.10969
    99  H   1.0    0.28    1.00    1.43    44.48581    29.50504    94.69479
   100  H   1.0    0.14    0.99    1.43    44.40904    25.26491    98.20455
   101  H   1.0    0.14    0.99    1.43    48.31979    26.64026   100.34994
   102  H   1.0    0.17    0.99    1.43    48.91256    25.67216    97.19713
   103  H   1.0    0.14    0.99    1.43    48.75301    30.28384    95.90681
   104  H   1.0    0.14    0.99    1.43    48.91019    31.06623    99.18024
   105  N   5.0   -0.48    3.01    1.93    43.13675    28.40120   101.60719
   106  C   4.0    0.06    3.99    3.60    42.03515    30.05310   103.48143
   107  C   4.0    0.08    3.00    3.02    43.83505    30.16345   105.73095
   108  O   6.0   -0.34    1.00    1.80    44.92619    28.26639   106.47589
   109  C   4.0   -0.14    3.98    3.59    39.48306    28.99991   104.40673
   110  C   4.0   -0.18    3.98    3.59    37.69069    31.12597   105.16812
   111  C   4.0   -0.15    3.98    3.59    35.36744    30.10445   106.54624
   112  C   4.0   -0.05    3.98    3.59    33.40143    32.18880   106.85216
   113  N   5.0   -0.72    3.98    2.82    31.33905    31.36523   108.57185
   114  H   1.0    0.26    1.00    1.43    43.82271    26.75096   102.28241
   115  H   1.0    0.13    0.99    1.43    41.81411    31.91025   102.60867
   116  H   1.0    0.12    0.99    1.43    38.66050    27.88370   102.88051
   117  H   1.0    0.14    0.99    1.43    39.83669    27.73136   105.99577
   118  H   1.0    0.12    0.99    1.43    38.69471    32.46210   106.37405
   119  H   1.0    0.10    0.99    1.43    37.11600    32.12738   103.46201
   120  H   1.0    0.12    0.99    1.43    34.59304    28.53073   105.46431
   121  H   1.0    0.13    0.99    1.43    35.96570    29.39253   108.38506
   122  H   1.0    0.12    0.99    1.43    34.25874    33.89222   107.63674
   123  H   1.0    0.11    0.99    1.43    32.59379    32.65433   105.01605
   124  H   1.0    0.26    1.00    1.43    30.08395    32.82921   108.83533
   125  H   1.0    0.26    1.00    1.43    30.40977    29.81982   107.83111
   126  H   1.0    0.27    1.00    1.43    32.08224    30.87246   110.30226
   127  N   5.0   -0.68    3.00    1.93    40.62912    40.00575   101.17343
   128  C   4.0    0.08    3.99    3.60    40.16003    38.10780    99.26422
   129  C   4.0    0.28    3.01    3.02    41.71273    38.81085    96.92750
   130  O   6.0   -0.36    1.00    1.80    41.76035    40.96294    96.08899
   131  C   4.0   -0.09    3.98    3.58    37.33640    37.82500    98.59782
   132  C   4.0   -0.23    3.98    3.59    36.97351    35.34474    97.16914
   133  C   4.0   -0.22    3.98    3.59    35.73310    37.87155   100.99586
   134  H   1.0    0.30    1.00    1.43    40.45170    41.83908   100.64895
   135  H   1.0    0.12    0.99    1.43    40.85068    36.32345   100.05149
   136  H   1.0    0.13    0.99    1.43    36.78553    39.40501    97.38210
   137  H   1.0    0.09    0.99    1.43    34.98666    35.04675    96.76430
   138  H   1.0    0.12    0.99    1.43    38.01261    35.36151    95.39778
   139  H   1.0    0.10    0.99    1.43    37.66930    33.77123    98.29363
   140  H   1.0    0.11    0.99    1.43    33.75689    37.60249   100.51377
   141  H   1.0    0.10    0.99    1.43    36.33519    36.37575   102.26706
   142  H   1.0    0.12    0.99    1.43    35.93763    39.66742   101.97325
   143  N   5.0   -0.50    3.02    1.93    42.93947    36.84388    95.90292
   144  C   4.0    0.08    3.99    3.60    44.87429    37.04726    93.96673
   145  C   4.0    0.27    3.01    3.02    44.15116    35.09135    91.94059
   146  O   6.0   -0.46    1.00    1.80    44.87028    32.89373    92.12011
   147  C   4.0   -0.08    3.99    3.60    47.43340    36.39591    95.19156
   148  C   4.0    0.29    3.00    3.02    49.72870    37.66266    94.03493
   149  O   6.0   -0.32    1.00    1.80    51.17915    38.92931    95.31116
   150  N   5.0   -0.63    3.00    1.93    50.02167    37.34267    91.53997
   151  H   1.0    0.26    1.00    1.43    42.92865    35.15964    96.81801
   152  H   1.0    0.17    0.99    1.43    44.83742    38.97777    93.22357
   153  H   1.0    0.15    0.99    1.43    47.39721    36.94532    97.17903
   154  H   1.0    0.13    0.99    1.43    47.70604    34.34761    95.11713
   155  H   1.0    0.31    1.00    1.43    51.49238    38.19804    90.66819
   156  H   1.0    0.29    1.00    1.43    48.96458    36.08954    90.58536
   157  N   5.0   -0.48    3.00    1.93    42.61653    35.90731    90.11221
   158  C   4.0    0.08    4.00    3.61    41.76027    34.21821    88.12240
   159  C   4.0    0.28    3.01    3.02    42.81731    35.07870    85.57899
   160  O   6.0   -0.46    1.00    1.80    42.86163    37.29188    84.91396
   161  C   4.0   -0.13    3.99    3.60    38.84396    34.06500    88.02117
   162  C   4.0   -0.04    3.03    3.02    37.93756    32.11298    86.15794
   163  C   4.0   -0.07    3.03    3.02    38.06328    32.56466    83.57266
   164  C   4.0   -0.10    3.03    3.02    36.93819    29.82995    86.98572
   165  C   4.0   -0.09    3.03    3.02    37.29900    30.73758    81.86486
   166  C   4.0   -0.10    3.03    3.02    36.17487    28.00082    85.27659
   167  C   4.0   -0.10    3.03    3.02    36.37076    28.43814    82.70519
   168  H   1.0    0.30    1.00    1.43    42.16915    37.77399    89.96072
   169  H   1.0    0.14    0.99    1.43    42.52964    32.35720    88.56445
   170  H   1.0    0.10    0.99    1.43    38.14584    33.61796    89.90886
   171  H   1.0    0.11    0.99    1.43    38.12943    35.92394    87.49989
   172  H   1.0    0.13    1.00    1.43    38.74979    34.36283    82.90061
   173  H   1.0    0.11    1.00    1.43    36.74960    29.46987    88.98360
   174  H   1.0    0.12    1.00    1.43    37.44307    31.11702    79.86979
   175  H   1.0    0.11    1.00    1.43    35.43214    26.22967    85.96498
   176  H   1.0    0.11    1.00    1.43    35.77991    26.98916    81.39753
   177  N   5.0   -0.49    3.01    1.93    43.62586    33.21131    84.08977
   178  C   4.0    0.08    3.99    3.61    44.59648    33.67730    81.57338
   179  C   4.0    0.27    3.01    3.02    43.94960    31.49788    79.79544
   180  O   6.0   -0.44    1.00    1.80    44.12353    29.28181    80.41934
   181  C   4.0   -0.13    3.98    3.59    47.50384    33.89165    81.64073
   182  C   4.0   -0.16    3.98    3.58    48.67426    34.18983    79.00492
   183  C   4.0   -0.16    3.98    3.58    51.15315    35.68555    79.02507
   184  C   4.0   -0.05    3.98    3.58    53.09080    34.69586    80.92574
   185  N   5.0   -0.72    3.98    2.81    54.91300    36.73784    81.57054
   186  H   1.0    0.30    1.00    1.43    43.83508    31.41475    84.73171
   187  H   1.0    0.14    0.99    1.43    43.76410    35.43929    80.88952
   188  H   1.0    0.12    0.99    1.43    47.96881    35.49942    82.84416
   189  H   1.0    0.13    0.99    1.43    48.20077    32.18077    82.55530
   190  H   1.0    0.12    0.99    1.43    48.98423    32.32683    78.18080
   191  H   1.0    0.13    0.99    1.43    47.35267    35.20311    77.78995
   192  H   1.0    0.10    0.99    1.43    51.94136    35.65871    77.12329
   193  H   1.0    0.12    0.99    1.43    50.72534    37.64140    79.49979
   194  H   1.0    0.12    0.99    1.43    52.14826    34.13286    82.66687
   195  H   1.0    0.11    0.99    1.43    54.11162    33.07566    80.16681
   196  H   1.0    0.27    1.00    1.43    56.08279    36.20113    83.02146
   197  H   1.0    0.26    1.00    1.43    56.00016    37.22456    80.03705
   198  H   1.0    0.32    0.99    1.43    53.90757    38.35286    82.19165
   199  N   5.0   -0.50    3.01    1.93    43.33881    32.22812    77.44335
   200  C   4.0    0.07    4.00    3.62    43.35533    30.45223    75.36894
   201  C   4.0    0.25    3.00    3.02    44.75932    31.51029    73.07349
   202  O   6.0   -0.47    1.00    1.80    44.92648    33.77156    72.62989
   203  C   4.0   -0.13    3.98    3.59    40.66928    29.66962    74.53870
   204  C   4.0   -0.12    3.99    3.60    39.89824    27.27172    75.95223
   205  C   4.0    0.26    3.00    3.02    37.55674    25.99391    74.90148
   206  O   6.0   -0.42    1.00    1.80    37.61354    23.85853    74.01217
   207  N   5.0   -0.65    3.00    1.93    35.43387    27.36282    75.05403
   208  H   1.0    0.28    1.00    1.43    43.12811    34.09021    77.02174
   209  H   1.0    0.15    0.99    1.43    44.36645    28.77192    76.02667
   210  H   1.0    0.12    0.99    1.43    39.39227    31.23914    74.91265
   211  H   1.0    0.13    0.99    1.43    40.66266    29.26909    72.51734
   212  H   1.0    0.15    0.99    1.43    41.43155    25.92314    75.71765
   213  H   1.0    0.11    0.99    1.43    39.66707    27.68175    77.95965
   214  H   1.0    0.27    1.00    1.43    35.42676    29.06866    75.89107
   215  H   1.0    0.29    1.00    1.43    33.82918    26.66178    74.30700
   216  N   5.0   -0.50    3.01    1.93    45.69750    29.66391    71.63153
   217  C   4.0    0.07    3.99    3.60    46.95692    29.91753    69.21603
   218  C   4.0    0.27    3.01    3.02    45.59119    28.20469    67.31905
   219  O   6.0   -0.46    1.00    1.80    44.88394    26.08124    67.90543
   220  C   4.0   -0.08    3.98    3.58    49.76289    29.08947    69.50750
   221  C   4.0   -0.16    3.98    3.59    51.28118    31.29297    70.62626
   222  C   4.0   -0.21    3.98    3.59    50.86135    28.13876    67.01411
   223  C   4.0   -0.23    3.98    3.58    53.82713    30.50048    71.72423
   224  H   1.0    0.28    1.00    1.43    45.39035    27.84897    72.17378
   225  H   1.0    0.11    0.99    1.43    46.85400    31.89281    68.61741
   226  H   1.0    0.12    0.99    1.43    49.78671    27.52811    70.86788
   227  H   1.0    0.10    0.99    1.43    51.56752    32.72365    69.16848
   228  H   1.0    0.12    0.99    1.43    50.15129    32.14654    72.12514
   229  H   1.0    0.11    0.99    1.43    52.85895    27.73870    67.24281
   230  H   1.0    0.14    0.99    1.43    49.91288    26.41665    66.42183
   231  H   1.0    0.12    0.99    1.43    50.63384    29.53544    65.52553
   232  H   1.0    0.10    0.99    1.43    54.74258    32.11674    72.60338
   233  H   1.0    0.11    0.99    1.43    53.57393    29.03040    73.13869
   234  H   1.0    0.11    0.99    1.43    55.07733    29.79559    70.25750
   235  N   5.0   -0.50    3.00    1.93    45.37081    29.16291    64.98770
   236  C   4.0    0.07    3.99    3.60    44.18257    27.79339    62.94342
   237  C   4.0    0.07    3.00    3.02    45.81892    27.59265    60.55078
   238  O   6.0   -0.37    1.00    1.80    46.40838    25.57153    59.61991
   239  C   4.0   -0.12    3.99    3.61    41.66185    29.02410    62.11734
   240  C   4.0   -0.01    3.03    3.02    39.86239    29.20072    64.29245
   241  C   4.0   -0.08    3.04    3.02    40.12205    31.18583    65.98181
   242  C   4.0   -0.09    3.03    3.02    37.98446    27.42044    64.70434
   243  C   4.0   -0.09    3.03    3.02    38.54588    31.39911    68.04380
   244  C   4.0   -0.06    3.03    3.02    36.36125    27.63717    66.73557
   245  C   4.0    0.11    3.03    3.02    36.63465    29.63804    68.41055
   246  O   6.0   -0.44    1.99    1.83    34.99621    29.85756    70.37640
   247  H   1.0    0.22    1.00    1.43    45.85568    30.99240    64.68643
   248  H   1.0    0.15    0.99    1.43    43.81110    25.88803    63.65619
   249  H   1.0    0.12    0.99    1.43    42.04240    30.92446    61.41608
   250  H   1.0    0.13    0.99    1.43    40.85582    27.90970    60.58326
   251  H   1.0    0.12    1.00    1.43    41.57112    32.58147    65.66253
   252  H   1.0    0.12    1.00    1.43    37.77639    25.86239    63.40788
   253  H   1.0    0.11    0.99    1.43    38.79460    32.94702    69.35305
   254  H   1.0    0.14    1.00    1.43    34.88444    26.27191    67.05894
   255  H   1.0    0.26    0.99    1.43    35.57857    31.20399    71.46913
   256  N   5.0   -0.69    3.00    1.92    45.27772    38.38485    66.15512
   257  C   4.0    0.02    3.98    3.59    43.60154    37.34693    68.05341
   258  C   4.0    0.26    3.00    3.02    42.29090    39.41639    69.56569
   259  O   6.0   -0.37    1.00    1.80    41.63878    41.40717    68.58218
   260  H   1.0    0.29    1.00    1.43    45.61051    40.26920    66.20608
   261  H   1.0    0.12    0.99    1.43    42.11251    36.23962    67.12714
   262  H   1.0    0.12    0.99    1.43    44.65420    36.09447    69.31886
   263  N   5.0   -0.50    3.01    1.93    41.87976    38.78191    71.98653
   264  C   4.0    0.08    3.99    3.60    40.64913    40.41945    73.79124
   265  C   4.0    0.26    3.01    3.02    41.81780    39.95057    76.38078
   266  O   6.0   -0.47    1.00    1.80    42.14456    37.82042    77.21103
   267  C   4.0   -0.13    3.98    3.59    37.76804    39.96341    73.85518
   268  C   4.0   -0.14    3.98    3.58    36.98792    37.17996    73.96371
   269  C   4.0   -0.04    3.99    3.60    34.09154    37.05605    73.93832
   270  N   5.0   -0.48    3.01    1.93    33.08630    34.50418    73.64942
   271  C   4.0    0.36    3.01    3.02    32.16976    33.12438    75.55820
   272  N   5.0   -0.64    3.02    1.93    30.73545    31.12151    75.08788
   273  N   5.0   -0.65    3.02    1.93    32.98999    33.52902    77.91213
   274  H   1.0    0.27    1.00    1.43    42.54231    37.10490    72.63327
   275  H   1.0    0.13    0.99    1.43    40.99395    42.36783    73.18355
   276  H   1.0    0.11    0.99    1.43    36.96066    41.00089    75.44567
   277  H   1.0    0.13    0.99    1.43    36.98869    40.77083    72.12864
   278  H   1.0    0.12    0.99    1.43    37.72717    36.22134    72.29563
   279  H   1.0    0.13    0.99    1.43    37.76234    36.29543    75.65498
   280  H   1.0    0.12    0.99    1.43    33.33337    37.92138    75.65287
   281  H   1.0    0.12    0.99    1.43    33.38085    38.18432    72.36397
   282  H   1.0    0.25    1.00    1.43    32.36897    34.09115    71.92458
   283  H   1.0    0.27    1.00    1.43    29.99401    30.81376    73.33602
   284  H   1.0    0.25    1.00    1.43    29.70922    30.37563    76.51810
   285  H   1.0    0.25    1.00    1.43    34.04149    35.06862    78.31050
   286  H   1.0    0.25    1.00    1.43    32.10888    32.67559    79.37254
   287  N   5.0   -0.50    3.01    1.93    42.48117    42.04225    77.64070
   288  C   4.0    0.07    4.00    3.61    43.48198    41.97354    80.17957
   289  C   4.0    0.27    3.01    3.02    41.64193    43.40661    81.89687
   290  O   6.0   -0.38    1.00    1.80    40.76531    45.46922    81.28631
   291  C   4.0   -0.14    3.98    3.58    46.16668    43.09431    80.30801
   292  C   4.0   -0.11    3.98    3.59    47.85888    41.43777    81.94888
   293  C   4.0    0.28    3.00    3.02    50.62910    42.10641    81.95037
   294  O   6.0   -0.44    1.01    1.80    52.15350    40.75336    83.09892
   295  N   5.0   -0.64    3.00    1.93    51.40869    44.11282    80.66115
   296  H   1.0    0.25    1.00    1.43    42.18589    43.75932    76.86772
   297  H   1.0    0.14    0.99    1.43    43.52320    39.98067    80.72625
   298  H   1.0    0.12    0.99    1.43    46.90871    43.15287    78.38119
   299  H   1.0    0.14    0.99    1.43    46.06199    45.00913    81.06754
   300  H   1.0    0.14    0.99    1.43    47.21012    41.45069    83.91096
   301  H   1.0    0.10    0.99    1.43    47.69818    39.47877    81.31151
   302  H   1.0    0.27    1.00    1.43    50.21458    45.38328    79.89797
   303  H   1.0    0.30    1.00    1.43    53.27147    44.53389    80.65482
   304  N   5.0   -0.49    3.01    1.93    41.07564    42.17722    84.00435
   305  C   4.0    0.08    3.99    3.60    39.23671    42.99734    85.84733
   306  C   4.0    0.08    3.00    3.02    40.61501    43.21294    88.37814
   307  O   6.0   -0.41    1.00    1.80    41.53940    41.37150    89.43164
   308  C   4.0   -0.08    3.98    3.59    37.12704    41.00725    86.07643
   309  C   4.0   -0.22    3.98    3.59    35.21417    41.82284    88.06932
   310  C   4.0   -0.21    3.98    3.59    35.86162    40.52242    83.53405
   311  H   1.0    0.30    1.00    1.43    41.88198    40.47460    84.40055
   312  H   1.0    0.14    0.99    1.43    38.48491    44.83260    85.26240
   313  H   1.0    0.13    0.99    1.43    38.05238    39.27157    86.71285
   314  H   1.0    0.11    0.99    1.43    33.67275    40.46936    88.17256
   315  H   1.0    0.13    0.99    1.43    36.10773    41.93094    89.91675
   316  H   1.0    0.12    0.99    1.43    34.44153    43.67330    87.62361
   317  H   1.0    0.10    0.99    1.43    34.48639    39.01196    83.73042
   318  H   1.0    0.12    0.99    1.43    34.89570    42.21747    82.89214
   319  H   1.0    0.13    0.99    1.43    37.25559    39.97659    82.12755
   320  N   5.0   -0.69    3.00    1.93    26.33102    34.22579    92.37509
   321  C   4.0    0.07    3.98    3.59    27.63418    32.35875    90.86417
   322  C   4.0    0.09    3.00    3.02    25.75360    30.53418    89.65361
   323  O   6.0   -0.46    1.00    1.80    25.92846    29.94047    87.43724
   324  C   4.0   -0.09    3.98    3.58    29.74226    30.97840    92.32562
   325  C   4.0   -0.23    3.98    3.59    31.91143    32.81547    92.84081
   326  C   4.0   -0.21    3.98    3.59    28.83621    29.77864    94.79029
   327  H   1.0    0.27    1.00    1.43    26.50030    34.15174    94.27079
   328  H   1.0    0.12    0.99    1.43    28.49216    33.35452    89.25965
   329  H   1.0    0.11    0.99    1.43    30.41553    29.47591    91.07363
   330  H   1.0    0.10    0.99    1.43    33.46194    31.82141    93.75111
   331  H   1.0    0.10    0.99    1.43    32.58539    33.64004    91.08519
   332  H   1.0    0.10    0.99    1.43    31.27046    34.33150    94.06868
   333  H   1.0    0.11    0.99    1.43    30.38156    28.71431    95.62426
   334  H   1.0    0.11    0.99    1.43    28.25536    31.20168    96.15482
   335  H   1.0    0.12    0.99    1.43    27.27596    28.48466    94.46473
   336  N   5.0   -0.70    3.00    1.93    25.31946    29.57524    81.85899
   337  C   4.0    0.08    3.98    3.58    26.06059    27.11065    80.90398
   338  C   4.0    0.09    3.00    3.02    23.78076    25.38352    80.48322
   339  O   6.0   -0.38    1.00    1.80    23.93890    23.08839    80.42593
   340  C   4.0   -0.08    3.98    3.58    28.24952    25.92964    82.42346
   341  C   4.0   -0.15    3.98    3.59    29.66532    23.89197    80.91437
   342  C   4.0   -0.19    3.98    3.59    27.35687    24.82017    84.93193
   343  C   4.0   -0.22    3.98    3.58    30.73624    24.78647    78.39582
   344  H   1.0    0.32    1.00    1.43    24.64515    29.67424    83.64412
   345  H   1.0    0.12    0.99    1.43    26.73071    27.47678    78.96951
   346  H   1.0    0.11    0.99    1.43    29.55162    27.48619    82.83295
   347  H   1.0    0.11    0.99    1.43    31.22121    23.23566    82.09856
   348  H   1.0    0.15    0.99    1.43    28.39803    22.30014    80.61118
   349  H   1.0    0.11    0.99    1.43    28.97473    24.18042    86.02226
   350  H   1.0    0.15    0.99    1.43    26.34016    26.22533    86.02609
   351  H   1.0    0.15    0.99    1.43    26.10212    23.22765    84.60744
   352  H   1.0    0.12    0.99    1.43    31.87415    23.28148    77.58717
   353  H   1.0    0.12    0.99    1.43    29.23498    25.23481    77.06375
   354  H   1.0    0.11    0.99    1.43    31.91949    26.43606    78.69513
   355  N   5.0   -0.67    3.00    1.93    52.93340    43.48420    66.69542
   356  C   4.0    0.07    3.98    3.59    53.71281    42.81101    69.22929
   357  C   4.0    0.09    3.00    3.02    56.60426    42.65204    69.33829
   358  O   6.0   -0.34    1.00    1.80    57.86628    44.09287    70.62627
   359  C   4.0   -0.10    3.98    3.58    52.53224    40.28529    70.07621
   360  C   4.0   -0.16    3.98    3.58    49.64318    40.46824    70.29500
   361  C   4.0   -0.22    3.98    3.59    53.74128    39.36815    72.53221
   362  C   4.0   -0.21    3.98    3.58    48.67614    42.11181    72.45464
   363  H   1.0    0.27    1.00    1.43    52.98987    42.06710    65.40855
   364  H   1.0    0.14    0.99    1.43    53.13908    44.36261    70.47348
   365  H   1.0    0.11    0.99    1.43    52.92775    38.90602    68.58289
   366  H   1.0    0.11    0.99    1.43    48.91617    41.24260    68.53203
   367  H   1.0    0.11    0.99    1.43    48.90773    38.55089    70.51344
   368  H   1.0    0.10    0.99    1.43    52.84133    37.61529    73.10537
   369  H   1.0    0.12    0.99    1.43    55.74879    39.02455    72.27390
   370  H   1.0    0.12    0.99    1.43    53.51847    40.77833    74.00334
   371  H   1.0    0.13    0.99    1.43    46.62115    42.12928    72.42341
   372  H   1.0    0.11    0.99    1.43    49.31176    41.39918    74.26989
   373  H   1.0    0.12    0.99    1.43    49.30916    44.05123    72.20960
   374  H   1.0    0.31    1.00    1.43    41.22006    18.90693    63.74813
   375  H   1.0    0.15    1.00    1.43    44.13732    31.80357   106.61961
   376  H   1.0    0.30    1.00    1.43    39.53951    39.79591   102.46233
   377  H   1.0    0.14    1.00    1.43    46.44196    29.15969    59.69796
   378  H   1.0    0.28    1.00    1.43    46.80793    37.65460    66.28850
   379  H   1.0    0.15    1.00    1.43    40.78248    44.89521    89.22253
   380  H   1.0    0.30    1.00    1.43    26.88027    35.77972    91.95537
   381  H   1.0    0.15    1.00    1.43    24.34771    29.80466    90.68431
   382  H   1.0    0.30    1.00    1.43    26.66035    30.62112    81.83236
   383  H   1.0    0.17    1.00    1.43    22.06199    26.13015    80.23937
   384  H   1.0    0.31    1.00    1.43    51.32605    44.03930    66.72448
   385  H   1.0    0.15    1.00    1.43    57.51679    41.33700    68.33380

           ------------------------------------------------- 
          |        Self-Consistent Charge Iterations        |
           ------------------------------------------------- 

          ...................................................
          :                      SETUP                      :
          :.................................................:
          :  # basis functions                 934          :
          :  # atomic orbitals                 933          :
          :  # shells                          567          :
          :  # electrons                      1018          :
          :  max. iterations                   250          :
          :  Hamiltonian                  GFN2-xTB          :
          :  restarted?                      false          :
          :  GBSA solvation                   true          :
          :  PC potential                    false          :
          :  electronic temp.          500.0000000     K    :
          :  accuracy                    0.1000000          :
          :  -> integral cutoff          0.3500000E+02      :
          :  -> integral neglect         0.1000000E-08      :
          :  -> SCF convergence          0.1000000E-06 Eh   :
          :  -> wf. convergence          0.1000000E-04 e    :
          :  Broyden damping             0.4000000          :
          ...................................................

 iter      E             dE          RMSdq      gap      omega  full diag
   1   -579.4593838 -0.579459E+03  0.417E+00    1.97       0.0  T
   2   -580.9543828 -0.149500E+01  0.216E+00    1.50       1.0  T
   3   -581.0054330 -0.510502E-01  0.114E+00    1.71       1.0  T
   4   -581.0212850 -0.158520E-01  0.287E-01    1.18       1.0  T
   5   -581.0368025 -0.155176E-01  0.115E-01    1.37       1.0  T
   6   -581.0374849 -0.682391E-03  0.540E-02    1.38       1.0  T
   7   -581.0376025 -0.117570E-03  0.269E-02    1.40       1.0  T
   8   -581.0376813 -0.788283E-04  0.109E-02    1.41       1.0  T
   9   -581.0376894 -0.812539E-05  0.590E-03    1.41       1.0  T
  10   -581.0376923 -0.283605E-05  0.273E-03    1.41       1.9  T
  11   -581.0376929 -0.607433E-06  0.121E-03    1.41       4.2  T
  12   -581.0376930 -0.139363E-06  0.607E-04    1.40       8.4  T
  13   -581.0376931 -0.320606E-07  0.285E-04    1.40      17.9  T
  14   -581.0376931 -0.542218E-08  0.112E-04    1.40      45.5  T
  15   -581.0376931 -0.908926E-09  0.530E-05    1.40      96.1  T
  16   -581.0376931 -0.185651E-09  0.250E-05    1.40     203.6  T

   *** convergence criteria satisfied after 16 iterations ***

         #    Occupation            Energy/Eh            Energy/eV
      -------------------------------------------------------------
         1        2.0000           -0.7443751             -20.2555
       ...           ...                  ...                  ...
       503        2.0000           -0.3640650              -9.9067
       504        2.0000           -0.3635285              -9.8921
       505        2.0000           -0.3630397              -9.8788
       506        2.0000           -0.3601197              -9.7994
       507        2.0000           -0.3583207              -9.7504
       508        2.0000           -0.3555879              -9.6760
       509        2.0000           -0.3523263              -9.5873 (HOMO)
       510        0.0000           -0.3007128              -8.1828 (LUMO)
       511        0.0000           -0.3005119              -8.1773
       512                         -0.2968307              -8.0772
       513                         -0.2826205              -7.6905
       514                         -0.2805421              -7.6339
       ...                                ...                  ...
       933                          0.6674617              18.1626
      -------------------------------------------------------------
                  HL-Gap            0.0516135 Eh            1.4045 eV
             Fermi-level           -0.3269376 Eh           -8.8964 eV

 SCC (total)                   0 d,  0 h,  0 min,  6.093 sec
 SCC setup                      ...        0 min,  0.166 sec (  2.723%)
 Dispersion                     ...        0 min,  0.147 sec (  2.420%)
 integral evaluation            ...        0 min,  0.613 sec ( 10.067%)
 zeroth order Hamiltonian       ...        0 min,  0.024 sec (  0.399%)
 iterations                     ...        0 min,  4.277 sec ( 70.200%)
 molecular gradient             ...        0 min,  0.838 sec ( 13.747%)
 printout                       ...        0 min,  0.027 sec (  0.440%)

         :::::::::::::::::::::::::::::::::::::::::::::::::::::
         ::                     SUMMARY                     ::
         :::::::::::::::::::::::::::::::::::::::::::::::::::::
         :: total energy             -573.688102959107 Eh   ::
         :: total w/o Gsasa/hb       -573.606987932074 Eh   ::
         :: gradient norm               0.539468719646 Eh/α ::
         :: HOMO-LUMO gap               1.404475330804 eV   ::
         ::.................................................::
         :: SCC energy               -581.056270488590 Eh   ::
         :: -> isotropic ES             1.927925101219 Eh   ::
         :: -> anisotropic ES          -0.088239606130 Eh   ::
         :: -> anisotropic XC           0.221824849251 Eh   ::
         :: -> dispersion              -0.477738278398 Eh   ::
         :: -> Gsolv                   -0.758212306232 Eh   ::
         ::    -> Gborn                -0.677097279200 Eh   ::
         ::    -> Gsasa                -0.020434869484 Eh   ::
         ::    -> Ghb                  -0.062537600676 Eh   ::
         ::    -> Gshift                0.001857443127 Eh   ::
         :: repulsion energy            7.319081376342 Eh   ::
         :: add. restraining            0.000000000000 Eh   ::
         :::::::::::::::::::::::::::::::::::::::::::::::::::::

           -------------------------------------------------
          |                Property Printout                |
           -------------------------------------------------

    * Orbital Energies and Occupations

         #    Occupation            Energy/Eh            Energy/eV
      -------------------------------------------------------------
         1        2.0000           -0.7443751             -20.2555
       ...           ...                  ...                  ...
       497        2.0000           -0.3922258             -10.6730
       498        2.0000           -0.3904472             -10.6246
       499        2.0000           -0.3846122             -10.4658
       500        2.0000           -0.3802040             -10.3459
       501        2.0000           -0.3780100             -10.2862
       502        2.0000           -0.3693648             -10.0509
       503        2.0000           -0.3640650              -9.9067
       504        2.0000           -0.3635285              -9.8921
       505        2.0000           -0.3630397              -9.8788
       506        2.0000           -0.3601197              -9.7994
       507        2.0000           -0.3583207              -9.7504
       508        2.0000           -0.3555879              -9.6760
       509        2.0000           -0.3523263              -9.5873 (HOMO)
       510        0.0000           -0.3007128              -8.1828 (LUMO)
       511        0.0000           -0.3005119              -8.1773
       512                         -0.2968307              -8.0772
       513                         -0.2826205              -7.6905
       514                         -0.2805421              -7.6339
       515                         -0.2687595              -7.3133
       516                         -0.2459018              -6.6913
       517                         -0.2411809              -6.5629
       518                         -0.2385865              -6.4923
       519                         -0.2379379              -6.4746
       520                         -0.2378100              -6.4711
       ...                                ...                  ...
       933                          0.6674617              18.1626
      -------------------------------------------------------------
                  HL-Gap            0.0516135 Eh            1.4045 eV
             Fermi-level           -0.3269376 Eh           -8.8964 eV

   #   Z        covCN         q      C6AA      α(0)
   1   7 N      2.636    -0.391    30.118     8.151
   2   6 C      3.787     0.032    20.044     6.377
   3   6 C      2.755     0.271    22.424     7.754
   4   8 O      0.858    -0.501    23.804     6.541
   5   6 C      3.759    -0.113    22.705     6.793
   6   1 H      0.860     0.151     1.398     1.852
   7   1 H      0.924     0.045     2.380     2.413
   8   1 H      0.925     0.053     2.286     2.364
   9   1 H      0.925     0.052     2.296     2.370
  10   1 H      0.925     0.038     2.481     2.463
  11   7 N      2.693    -0.185    24.999     7.426
  12   6 C      3.796     0.013    20.371     6.427
  13   6 C      2.758     0.267    22.489     7.766
  14   8 O      0.858    -0.454    22.793     6.401
  15   6 C      3.806    -0.081    22.043     6.684
  16   6 C      3.803    -0.083    22.085     6.691
  17   6 C      3.739    -0.025    21.106     6.555
  18   7 N      2.701    -0.141    24.053     7.284
  19   6 C      2.737     0.232    23.141     7.876
  20   7 N      2.650    -0.236    26.167     7.597
  21   7 N      2.654    -0.259    26.734     7.679
  22   1 H      0.860     0.234     0.948     1.525
  23   1 H      0.924     0.062     2.172     2.305
  24   1 H      0.924     0.082     1.955     2.187
  25   1 H      0.924     0.062     2.170     2.304
  26   1 H      0.925     0.083     1.948     2.182
  27   1 H      0.925     0.063     2.169     2.303
  28   1 H      0.924     0.075     2.035     2.231
  29   1 H      0.924     0.084     1.942     2.179
  30   1 H      0.860     0.235     0.944     1.522
  31   1 H      0.860     0.236     0.940     1.519
  32   1 H      0.860     0.248     0.893     1.480
  33   1 H      0.860     0.251     0.880     1.470
  34   1 H      0.860     0.249     0.886     1.475
  35   7 N      2.692    -0.169    24.649     7.374
  36   6 C      3.794     0.009    20.441     6.438
  37   6 C      2.756     0.273    22.388     7.748
  38   8 O      0.858    -0.502    23.829     6.545
  39   6 C      3.829    -0.064    21.696     6.628
  40   6 C      3.796    -0.021    20.957     6.519
  41  16 S      1.964    -0.216   150.290    20.633
  42   6 C      3.744    -0.057    21.669     6.640
  43   1 H      0.860     0.199     1.113     1.653
  44   1 H      0.925     0.094     1.842     2.122
  45   1 H      0.924     0.059     2.216     2.328
  46   1 H      0.924     0.044     2.393     2.419
  47   1 H      0.925     0.062     2.178     2.308
  48   1 H      0.925     0.076     2.026     2.226
  49   1 H      0.925     0.056     2.251     2.346
  50   1 H      0.925     0.075     2.033     2.229
  51   1 H      0.925     0.034     2.530     2.487
  52   7 N      2.692    -0.181    24.910     7.413
  53   6 C      3.796     0.023    20.193     6.399
  54   6 C      2.770     0.272    22.406     7.752
  55   8 O      0.859    -0.454    22.794     6.401
  56   6 C      3.809    -0.070    21.831     6.651
  57   6 C      3.806    -0.102    22.437     6.743
  58   6 C      2.744     0.289    22.098     7.697
  59   8 O      0.858    -0.522    24.272     6.605
  60   7 N      2.638    -0.291    27.511     7.790
  61   1 H      0.860     0.248     0.890     1.478
  62   1 H      0.924     0.058     2.224     2.332
  63   1 H      0.924     0.068     2.105     2.269
  64   1 H      0.924     0.096     1.824     2.112
  65   1 H      0.925     0.084     1.940     2.178
  66   1 H      0.924     0.057     2.233     2.337
  67   1 H      0.860     0.240     0.923     1.505
  68   1 H      0.860     0.216     1.027     1.588
  69   7 N      2.690    -0.167    24.620     7.369
  70   6 C      3.810     0.025    20.143     6.389
  71   6 C      2.756     0.281    22.251     7.724
  72   8 O      0.858    -0.498    23.732     6.531
  73   6 C      3.810    -0.078    21.974     6.673
  74   6 C      2.968    -0.004    28.127     8.699
  75   6 C      2.926    -0.047    29.165     8.856
  76   6 C      2.924    -0.037    28.908     8.817
  77   6 C      2.919    -0.063    29.561     8.916
  78   6 C      2.918    -0.074    29.857     8.960
  79   6 C      2.847     0.143    24.878     8.175
  80   8 O      1.659    -0.431    21.451     6.252
  81   1 H      0.860     0.200     1.106     1.647
  82   1 H      0.924     0.073     2.053     2.241
  83   1 H      0.925     0.072     2.067     2.248
  84   1 H      0.925     0.081     1.974     2.197
  85   1 H      0.926     0.041     2.437     2.441
  86   1 H      0.926     0.040     2.451     2.448
  87   1 H      0.926     0.058     2.225     2.333
  88   1 H      0.926     0.038     2.479     2.462
  89   1 H      0.805     0.344     0.602     1.219
  90   7 N      2.699    -0.175    24.782     7.394
  91   6 C      3.797     0.024    20.180     6.396
  92   6 C      2.760     0.270    22.438     7.757
  93   8 O      0.858    -0.469    23.109     6.445
  94   6 C      3.804    -0.046    21.393     6.585
  95   6 C      3.797    -0.085    22.126     6.698
  96   6 C      2.684     0.371    20.712     7.448
  97   8 O      0.856    -0.654    27.483     7.029
  98   8 O      0.856    -0.647    27.314     7.007
  99   1 H      0.860     0.222     1.001     1.567
 100   1 H      0.924     0.064     2.157     2.297
 101   1 H      0.924     0.024     2.680     2.560
 102   1 H      0.924     0.043     2.410     2.428
 103   1 H      0.924     0.026     2.643     2.542
 104   1 H      0.924     0.010     2.884     2.656
 105   7 N      2.696    -0.162    24.507     7.352
 106   6 C      3.792     0.021    20.225     6.404
 107   6 C      2.771     0.200    23.742     7.980
 108   8 O      0.856    -0.371    21.112     6.160
 109   6 C      3.807    -0.076    21.952     6.670
 110   6 C      3.805    -0.078    21.985     6.675
 111   6 C      3.803    -0.095    22.307     6.724
 112   6 C      3.733    -0.053    21.610     6.635
 113   7 N      3.483    -0.148    24.191     7.305
 114   1 H      0.860     0.204     1.087     1.634
 115   1 H      0.924     0.095     1.828     2.115
 116   1 H      0.924     0.082     1.962     2.190
 117   1 H      0.924     0.066     2.131     2.283
 118   1 H      0.924     0.058     2.221     2.331
 119   1 H      0.925     0.069     2.099     2.266
 120   1 H      0.924     0.086     1.923     2.169
 121   1 H      0.924     0.077     2.013     2.219
 122   1 H      0.924     0.118     1.630     1.997
 123   1 H      0.925     0.126     1.567     1.958
 124   1 H      0.859     0.304     0.702     1.313
 125   1 H      0.859     0.301     0.710     1.320
 126   1 H      0.859     0.295     0.729     1.338
 127   7 N      2.637    -0.401    30.388     8.187
 128   6 C      3.793     0.026    20.151     6.393
 129   6 C      2.754     0.278    22.304     7.733
 130   8 O      0.858    -0.487    23.501     6.500
 131   6 C      3.851    -0.022    20.932     6.507
 132   6 C      3.757    -0.124    22.921     6.826
 133   6 C      3.756    -0.123    22.922     6.826
 134   1 H      0.860     0.149     1.408     1.859
 135   1 H      0.924     0.039     2.463     2.454
 136   1 H      0.924     0.030     2.589     2.516
 137   1 H      0.925     0.067     2.115     2.274
 138   1 H      0.925     0.026     2.638     2.540
 139   1 H      0.925     0.047     2.361     2.403
 140   1 H      0.925     0.064     2.156     2.296
 141   1 H      0.925     0.055     2.264     2.353
 142   1 H      0.925     0.039     2.462     2.454
 143   7 N      2.698    -0.184    24.996     7.425
 144   6 C      3.789     0.022    20.218     6.404
 145   6 C      2.761     0.266    22.512     7.770
 146   8 O      0.858    -0.497    23.728     6.531
 147   6 C      3.809    -0.097    22.337     6.728
 148   6 C      2.742     0.290    22.074     7.693
 149   8 O      0.859    -0.510    24.000     6.568
 150   7 N      2.638    -0.292    27.537     7.794
 151   1 H      0.860     0.211     1.051     1.606
 152   1 H      0.924     0.079     1.993     2.208
 153   1 H      0.924     0.059     2.215     2.327
 154   1 H      0.924     0.069     2.093     2.262
 155   1 H      0.860     0.250     0.884     1.473
 156   1 H      0.861     0.225     0.989     1.557
 157   7 N      2.688    -0.167    24.622     7.370
 158   6 C      3.799     0.007    20.458     6.440
 159   6 C      2.757     0.267    22.494     7.767
 160   8 O      0.859    -0.473    23.203     6.458
 161   6 C      3.809    -0.079    21.994     6.676
 162   6 C      2.968     0.004    27.925     8.668
 163   6 C      2.924    -0.050    29.232     8.866
 164   6 C      2.925    -0.040    28.989     8.830
 165   6 C      2.920    -0.047    29.162     8.856
 166   6 C      2.919    -0.031    28.773     8.796
 167   6 C      2.918    -0.042    29.043     8.837
 168   1 H      0.860     0.233     0.952     1.528
 169   1 H      0.924     0.077     2.012     2.218
 170   1 H      0.924     0.054     2.265     2.353
 171   1 H      0.925     0.073     2.054     2.241
 172   1 H      0.926     0.054     2.267     2.355
 173   1 H      0.926     0.031     2.571     2.508
 174   1 H      0.926     0.068     2.105     2.269
 175   1 H      0.926     0.028     2.609     2.526
 176   1 H      0.926     0.055     2.253     2.347
 177   7 N      2.691    -0.163    24.536     7.357
 178   6 C      3.797    -0.002    20.614     6.465
 179   6 C      2.761     0.269    22.465     7.762
 180   8 O      0.858    -0.472    23.173     6.454
 181   6 C      3.807    -0.088    22.168     6.703
 182   6 C      3.800    -0.081    22.056     6.687
 183   6 C      3.802    -0.094    22.294     6.722
 184   6 C      3.730    -0.051    21.587     6.632
 185   7 N      3.481    -0.169    24.636     7.372
 186   1 H      0.860     0.230     0.967     1.540
 187   1 H      0.924     0.097     1.810     2.104
 188   1 H      0.924     0.069     2.102     2.267
 189   1 H      0.924     0.058     2.217     2.329
 190   1 H      0.924     0.057     2.230     2.335
 191   1 H      0.924     0.072     2.061     2.245
 192   1 H      0.925     0.082     1.961     2.190
 193   1 H      0.925     0.074     2.040     2.234
 194   1 H      0.925     0.105     1.738     2.061
 195   1 H      0.925     0.115     1.655     2.012
 196   1 H      0.859     0.280     0.775     1.379
 197   1 H      0.859     0.285     0.760     1.366
 198   1 H      0.856     0.302     0.706     1.317
 199   7 N      2.689    -0.163    24.536     7.357
 200   6 C      3.804    -0.006    20.685     6.475
 201   6 C      2.751     0.264    22.549     7.776
 202   8 O      0.858    -0.469    23.106     6.445
 203   6 C      3.804    -0.078    21.986     6.675
 204   6 C      3.809    -0.119    22.773     6.793
 205   6 C      2.743     0.282    22.229     7.720
 206   8 O      0.859    -0.510    24.000     6.568
 207   7 N      2.639    -0.265    26.876     7.700
 208   1 H      0.860     0.233     0.951     1.527
 209   1 H      0.924     0.097     1.815     2.107
 210   1 H      0.925     0.080     1.982     2.202
 211   1 H      0.924     0.058     2.228     2.334
 212   1 H      0.925     0.080     1.984     2.202
 213   1 H      0.924     0.077     2.010     2.217
 214   1 H      0.860     0.223     0.997     1.564
 215   1 H      0.860     0.223     0.994     1.562
 216   7 N      2.697    -0.167    24.613     7.368
 217   6 C      3.791     0.003    20.538     6.454
 218   6 C      2.757     0.270    22.447     7.758
 219   8 O      0.858    -0.467    23.062     6.439
 220   6 C      3.851    -0.031    21.085     6.531
 221   6 C      3.803    -0.067    21.790     6.646
 222   6 C      3.753    -0.128    23.016     6.841
 223   6 C      3.751    -0.119    22.851     6.817
 224   1 H      0.860     0.225     0.988     1.557
 225   1 H      0.924     0.075     2.033     2.230
 226   1 H      0.924     0.060     2.199     2.319
 227   1 H      0.924     0.044     2.394     2.420
 228   1 H      0.924     0.048     2.341     2.393
 229   1 H      0.925     0.068     2.111     2.272
 230   1 H      0.925     0.043     2.416     2.431
 231   1 H      0.925     0.045     2.381     2.413
 232   1 H      0.925     0.047     2.360     2.403
 233   1 H      0.925     0.047     2.359     2.402
 234   1 H      0.925     0.041     2.436     2.441
 235   7 N      2.687    -0.157    24.396     7.336
 236   6 C      3.791     0.020    20.252     6.409
 237   6 C      2.766     0.195    23.842     7.997
 238   8 O      0.856    -0.349    20.687     6.098
 239   6 C      3.815    -0.078    21.980     6.673
 240   6 C      2.972     0.001    28.003     8.680
 241   6 C      2.929    -0.048    29.204     8.862
 242   6 C      2.926    -0.038    28.944     8.823
 243   6 C      2.918    -0.082    30.062     8.991
 244   6 C      2.919    -0.058    29.448     8.899
 245   6 C      2.850     0.138    24.993     8.194
 246   8 O      1.659    -0.412    21.090     6.199
 247   1 H      0.860     0.211     1.052     1.607
 248   1 H      0.924     0.098     1.803     2.100
 249   1 H      0.924     0.068     2.111     2.272
 250   1 H      0.924     0.058     2.226     2.333
 251   1 H      0.926     0.049     2.334     2.389
 252   1 H      0.926     0.034     2.535     2.490
 253   1 H      0.926     0.056     2.243     2.342
 254   1 H      0.926     0.048     2.341     2.393
 255   1 H      0.805     0.340     0.612     1.229
 256   7 N      2.632    -0.383    29.898     8.121
 257   6 C      3.737    -0.024    21.090     6.553
 258   6 C      2.751     0.272    22.397     7.749
 259   8 O      0.858    -0.507    23.945     6.561
 260   1 H      0.860     0.143     1.453     1.888
 261   1 H      0.924     0.064     2.158     2.297
 262   1 H      0.924     0.067     2.113     2.273
 263   7 N      2.693    -0.178    24.864     7.406
 264   6 C      3.794     0.015    20.322     6.420
 265   6 C      2.758     0.263    22.574     7.781
 266   8 O      0.859    -0.450    22.697     6.388
 267   6 C      3.806    -0.078    21.991     6.676
 268   6 C      3.800    -0.089    22.197     6.708
 269   6 C      3.741    -0.034    21.253     6.577
 270   7 N      2.697    -0.149    24.224     7.310
 271   6 C      2.737     0.215    23.448     7.928
 272   7 N      2.651    -0.237    26.190     7.601
 273   7 N      2.651    -0.225    25.928     7.563
 274   1 H      0.860     0.229     0.969     1.542
 275   1 H      0.924     0.059     2.216     2.328
 276   1 H      0.924     0.060     2.200     2.320
 277   1 H      0.925     0.062     2.172     2.305
 278   1 H      0.924     0.069     2.094     2.263
 279   1 H      0.925     0.085     1.932     2.173
 280   1 H      0.924     0.087     1.913     2.163
 281   1 H      0.924     0.088     1.896     2.153
 282   1 H      0.860     0.238     0.931     1.512
 283   1 H      0.860     0.251     0.878     1.468
 284   1 H      0.860     0.239     0.927     1.508
 285   1 H      0.860     0.245     0.901     1.487
 286   1 H      0.860     0.243     0.911     1.495
 287   7 N      2.693    -0.159    24.432     7.341
 288   6 C      3.799     0.000    20.576     6.458
 289   6 C      2.755     0.270    22.441     7.757
 290   8 O      0.858    -0.502    23.830     6.545
 291   6 C      3.802    -0.084    22.093     6.692
 292   6 C      3.806    -0.112    22.644     6.774
 293   6 C      2.743     0.282    22.232     7.720
 294   8 O      0.861    -0.505    23.899     6.554
 295   7 N      2.637    -0.264    26.850     7.696
 296   1 H      0.860     0.202     1.095     1.639
 297   1 H      0.924     0.104     1.749     2.068
 298   1 H      0.924     0.081     1.964     2.192
 299   1 H      0.924     0.055     2.262     2.352
 300   1 H      0.924     0.084     1.942     2.179
 301   1 H      0.924     0.110     1.699     2.038
 302   1 H      0.860     0.225     0.988     1.557
 303   1 H      0.860     0.239     0.928     1.509
 304   7 N      2.697    -0.173    24.741     7.387
 305   6 C      3.794     0.021    20.234     6.406
 306   6 C      2.771     0.203    23.687     7.971
 307   8 O      0.856    -0.355    20.797     6.114
 308   6 C      3.855    -0.020    20.892     6.501
 309   6 C      3.756    -0.121    22.879     6.820
 310   6 C      3.755    -0.128    23.009     6.840
 311   1 H      0.860     0.248     0.891     1.478
 312   1 H      0.924     0.077     2.014     2.219
 313   1 H      0.924     0.061     2.192     2.315
 314   1 H      0.925     0.067     2.118     2.276
 315   1 H      0.925     0.028     2.608     2.525
 316   1 H      0.925     0.045     2.387     2.416
 317   1 H      0.925     0.072     2.062     2.246
 318   1 H      0.925     0.051     2.307     2.375
 319   1 H      0.925     0.054     2.272     2.357
 320   7 N      2.634    -0.394    30.198     8.161
 321   6 C      3.785     0.033    20.039     6.376
 322   6 C      2.765     0.200    23.748     7.981
 323   8 O      0.856    -0.370    21.088     6.157
 324   6 C      3.850    -0.016    20.833     6.492
 325   6 C      3.756    -0.116    22.783     6.805
 326   6 C      3.754    -0.117    22.789     6.807
 327   1 H      0.860     0.165     1.301     1.787
 328   1 H      0.924     0.062     2.173     2.305
 329   1 H      0.924     0.035     2.510     2.478
 330   1 H      0.925     0.050     2.324     2.384
 331   1 H      0.925     0.048     2.340     2.392
 332   1 H      0.925     0.047     2.356     2.400
 333   1 H      0.925     0.052     2.289     2.366
 334   1 H      0.925     0.050     2.321     2.383
 335   1 H      0.925     0.033     2.542     2.493
 336   7 N      2.633    -0.392    30.140     8.154
 337   6 C      3.782     0.026    20.162     6.396
 338   6 C      2.762     0.204    23.669     7.967
 339   8 O      0.856    -0.395    21.589     6.230
 340   6 C      3.849    -0.023    20.950     6.510
 341   6 C      3.804    -0.069    21.815     6.649
 342   6 C      3.756    -0.108    22.624     6.782
 343   6 C      3.751    -0.126    22.975     6.836
 344   1 H      0.860     0.159     1.338     1.812
 345   1 H      0.923     0.091     1.872     2.140
 346   1 H      0.924     0.052     2.290     2.367
 347   1 H      0.924     0.043     2.415     2.430
 348   1 H      0.925     0.032     2.554     2.499
 349   1 H      0.925     0.033     2.545     2.495
 350   1 H      0.925     0.047     2.356     2.400
 351   1 H      0.925     0.020     2.735     2.586
 352   1 H      0.925     0.045     2.386     2.416
 353   1 H      0.925     0.039     2.464     2.455
 354   1 H      0.925     0.064     2.150     2.293
 355   7 N      2.635    -0.397    30.281     8.173
 356   6 C      3.784     0.033    20.035     6.376
 357   6 C      2.766     0.207    23.611     7.958
 358   8 O      0.856    -0.384    21.359     6.196
 359   6 C      3.852    -0.032    21.104     6.534
 360   6 C      3.802    -0.059    21.641     6.623
 361   6 C      3.755    -0.126    22.983     6.836
 362   6 C      3.751    -0.114    22.736     6.800
 363   1 H      0.860     0.161     1.326     1.804
 364   1 H      0.924     0.060     2.199     2.319
 365   1 H      0.924     0.039     2.465     2.455
 366   1 H      0.925     0.026     2.651     2.546
 367   1 H      0.924     0.054     2.271     2.357
 368   1 H      0.925     0.070     2.089     2.260
 369   1 H      0.925     0.034     2.526     2.485
 370   1 H      0.925     0.056     2.245     2.343
 371   1 H      0.925     0.032     2.561     2.503
 372   1 H      0.925     0.059     2.210     2.325
 373   1 H      0.925     0.030     2.585     2.515
 374   1 H      0.862     0.183     1.198     1.714
 375   1 H      0.930     0.085     1.926     2.170
 376   1 H      0.862     0.196     1.124     1.661
 377   1 H      0.930     0.084     1.936     2.176
 378   1 H      0.862     0.181     1.209     1.722
 379   1 H      0.930     0.068     2.108     2.270
 380   1 H      0.862     0.185     1.185     1.705
 381   1 H      0.930     0.057     2.228     2.334
 382   1 H      0.862     0.194     1.137     1.671
 383   1 H      0.930     0.061     2.189     2.313
 384   1 H      0.862     0.185     1.184     1.704
 385   1 H      0.930     0.067     2.118     2.275

 Mol. C6AA /au·bohr⁶  :    1339688.810861
 Mol. C8AA /au·bohr⁸  :   30066773.405128
 Mol. α(0) /au        :       1742.208256


Wiberg/Mayer (AO) data.
largest (>0.10) Wiberg bond orders for each atom
          total WBO             WBO to atom ...
     1  N   2.995        C    2 1.018    H    6 0.960    H  374 0.956
     2  C   3.985        N    1 1.018    C    5 0.989    H    7 0.958    C    3 0.933
     3  C   3.941        O    4 1.648    N   11 1.285    C    2 0.933
     4  O   1.956        C    3 1.648    N   11 0.194
     5  C   3.993        C    2 0.989    H   10 0.986    H    8 0.982    H    9 0.980
     6  H   0.977        N    1 0.960
     7  H   0.998        C    2 0.958
     8  H   0.997        C    5 0.982
     9  H   0.997        C    5 0.980
    10  H   0.999        C    5 0.986
    11  N   3.456        C    3 1.285    C   12 0.985    H   22 0.886    O    4 0.194
    12  C   3.969        N   11 0.985    C   15 0.971    H   23 0.956    C   13 0.934
    13  C   3.945        O   14 1.626    N   35 1.298    C   12 0.934
    14  O   1.980        C   13 1.626    N   35 0.194
    15  C   3.985        C   16 1.008    H   25 0.972    C   12 0.971    H   24 0.964
    16  C   3.988        C   15 1.008    C   17 1.003    H   27 0.975    H   26 0.964
    17  C   3.957        C   16 1.003    N   18 0.984    H   28 0.963    H   29 0.954
    18  N   3.466        C   19 1.315    C   17 0.984    H   30 0.909    N   20 0.103    N   21 0.100
    19  C   3.977        N   20 1.326    N   18 1.315    N   21 1.305
    20  N   3.412        C   19 1.326    H   32 0.919    H   31 0.918    N   18 0.103    N   21 0.101
    21  N   3.381        C   19 1.305    H   34 0.918    H   33 0.918    N   20 0.101    N   18 0.100
    22  H   0.945        N   11 0.886
    23  H   0.996        C   12 0.956
    24  H   0.993        C   15 0.964
    25  H   0.995        C   15 0.972
    26  H   0.993        C   16 0.964
    27  H   0.996        C   16 0.975
    28  H   0.994        C   17 0.963
    29  H   0.993        C   17 0.954
    30  H   0.945        N   18 0.909
    31  H   0.944        N   20 0.918
    32  H   0.939        N   20 0.919
    33  H   0.937        N   21 0.918
    34  H   0.937        N   21 0.918
    35  N   3.479        C   13 1.298    C   36 0.981    H   43 0.928    O   14 0.194
    36  C   3.961        N   35 0.981    C   39 0.963    H   44 0.944    C   37 0.932
    37  C   3.947        O   38 1.632    N   52 1.310    C   36 0.932
    38  O   1.953        C   37 1.632    N   52 0.204
    39  C   3.990        C   40 1.014    H   46 0.976    H   45 0.969    C   36 0.963
    40  C   3.978        C   39 1.014    S   41 0.990    H   47 0.971    H   48 0.963
    41  S   2.081        C   42 1.010    C   40 0.990
    42  C   3.978        S   41 1.010    H   51 0.986    H   49 0.982    H   50 0.976
    43  H   0.960        N   35 0.928
    44  H   0.991        C   36 0.944
    45  H   0.996        C   39 0.969
    46  H   0.998        C   39 0.976
    47  H   0.996        C   40 0.971
    48  H   0.994        C   40 0.963
    49  H   0.997        C   42 0.982
    50  H   0.994        C   42 0.976
    51  H   0.999        C   42 0.986
    52  N   3.473        C   37 1.310    C   53 0.983    H   61 0.883    O   38 0.204
    53  C   3.970        N   52 0.983    C   56 0.969    H   62 0.960    C   54 0.941
    54  C   3.947        O   55 1.616    N   69 1.309    C   53 0.941
    55  O   1.972        C   54 1.616    N   69 0.195
    56  C   3.985        C   57 0.990    H   63 0.974    C   53 0.969    H   64 0.965
    57  C   3.992        C   56 0.990    H   65 0.969    C   58 0.967    H   66 0.963
    58  C   3.934        O   59 1.638    N   60 1.303    C   57 0.967
    59  O   1.940        C   58 1.638    N   60 0.196
    60  N   3.389        C   58 1.303    H   68 0.932    H   67 0.922    O   59 0.196
    61  H   0.938        N   52 0.883
    62  H   0.996        C   53 0.960
    63  H   0.995        C   56 0.974
    64  H   0.991        C   56 0.965
    65  H   0.992        C   57 0.969
    66  H   0.997        C   57 0.963
    67  H   0.942        N   60 0.922
    68  H   0.953        N   60 0.932
    69  N   3.479        C   54 1.309    C   70 0.987    H   81 0.916    O   55 0.195
    70  C   3.964        N   69 0.987    C   71 0.949    C   73 0.943    H   82 0.940
    71  C   3.943        O   72 1.640    N   90 1.288    C   70 0.949
    72  O   1.962        C   71 1.640    N   90 0.192
    73  C   3.983        C   74 1.012    H   83 0.960    H   84 0.960    C   70 0.943
    74  C   3.988        C   76 1.414    C   75 1.397    C   73 1.012
    75  C   3.990        C   77 1.464    C   74 1.397    H   85 0.966    C   78 0.105
    76  C   3.991        C   78 1.448    C   74 1.414    H   86 0.969    C   77 0.106
    77  C   3.987        C   75 1.464    C   79 1.360    H   87 0.967    C   76 0.106
    78  C   3.988        C   76 1.448    C   79 1.375    H   88 0.966    C   75 0.105
    79  C   3.939        C   78 1.375    C   77 1.360    O   80 1.074
    80  O   2.094        C   79 1.074    H   89 0.861
    81  H   0.960        N   69 0.916
    82  H   0.994        C   70 0.940
    83  H   0.994        C   73 0.960
    84  H   0.993        C   73 0.960
    85  H   0.998        C   75 0.966
    86  H   0.998        C   76 0.969
    87  H   0.996        C   77 0.967
    88  H   0.998        C   78 0.966
    89  H   0.882        O   80 0.861
    90  N   3.462        C   71 1.288    C   91 0.996    H   99 0.903    O   72 0.192
    91  C   3.974        N   90 0.996    C   94 0.956    H  100 0.952    C   92 0.947
    92  C   3.956        O   93 1.629    N  105 1.306    C   91 0.947
    93  O   1.965        C   92 1.629    N  105 0.196
    94  C   3.993        C   95 1.009    H  101 0.976    H  102 0.970    C   91 0.956
    95  C   3.992        C   94 1.009    H  104 0.983    H  103 0.964    C   96 0.908
    96  C   3.932        O   97 1.502    O   98 1.500    C   95 0.908
    97  O   1.792        C   96 1.502    O   98 0.217
    98  O   1.793        C   96 1.500    O   97 0.217
    99  H   0.951        N   90 0.903
   100  H   0.995        C   91 0.952
   101  H   0.999        C   94 0.976
   102  H   0.998        C   94 0.970
   103  H   0.999        C   95 0.964
   104  H   1.000        C   95 0.983
   105  N   3.473        C   92 1.306    C  106 0.974    H  114 0.923    O   93 0.196
   106  C   3.952        C  107 0.976    N  105 0.974    H  115 0.951    C  109 0.944
   107  C   3.893        O  108 1.901    C  106 0.976    H  375 0.951
   108  O   2.047        C  107 1.901
   109  C   3.975        C  110 1.005    H  117 0.972    H  116 0.966    C  106 0.944
   110  C   3.989        C  109 1.005    C  111 1.003    H  118 0.975    H  119 0.970
   111  C   3.985        C  112 1.011    C  110 1.003    H  121 0.970    H  120 0.970
   112  C   3.912        C  111 1.011    H  122 0.964    H  123 0.963    N  113 0.957
   113  N   3.663        C  112 0.957    H  126 0.897    H  125 0.895    H  124 0.895
   114  H   0.958        N  105 0.923
   115  H   0.991        C  106 0.951
   116  H   0.993        C  109 0.966
   117  H   0.996        C  109 0.972
   118  H   0.997        C  110 0.975
   119  H   0.995        C  110 0.970
   120  H   0.993        C  111 0.970
   121  H   0.994        C  111 0.970
   122  H   0.986        C  112 0.964
   123  H   0.984        C  112 0.963
   124  H   0.907        N  113 0.895
   125  H   0.909        N  113 0.895
   126  H   0.913        N  113 0.897
   127  N   2.993        C  128 1.018    H  134 0.959    H  376 0.938
   128  C   3.980        N  127 1.018    H  135 0.956    C  131 0.950    C  129 0.942
   129  C   3.936        O  130 1.654    N  143 1.271    C  128 0.942
   130  O   1.963        C  129 1.654    N  143 0.189
   131  C   3.992        C  132 1.009    C  133 1.008    H  136 0.969    C  128 0.950
   132  C   3.993        C  131 1.009    H  138 0.986    H  139 0.984    H  137 0.980
   133  C   3.993        C  131 1.008    H  141 0.982    H  140 0.982    H  142 0.979
   134  H   0.978        N  127 0.959
   135  H   0.998        C  128 0.956
   136  H   0.999        C  131 0.969
   137  H   0.995        C  132 0.980
   138  H   0.999        C  132 0.986
   139  H   0.998        C  132 0.984
   140  H   0.995        C  133 0.982
   141  H   0.997        C  133 0.982
   142  H   0.998        C  133 0.979
   143  N   3.449        C  129 1.271    C  144 0.976    H  151 0.916    O  130 0.189
   144  C   3.966        N  143 0.976    C  147 0.974    H  152 0.956    C  145 0.930
   145  C   3.954        O  146 1.606    N  157 1.335    C  144 0.930
   146  O   1.955        C  145 1.606    N  157 0.204
   147  C   3.990        C  144 0.974    H  153 0.972    C  148 0.970    H  154 0.946
   148  C   3.945        O  149 1.647    N  150 1.302    C  147 0.970
   149  O   1.945        C  148 1.647    N  150 0.197
   150  N   3.380        C  148 1.302    H  156 0.930    H  155 0.916    O  149 0.197
   151  H   0.955        N  143 0.916
   152  H   0.994        C  144 0.956
   153  H   0.996        C  147 0.972
   154  H   0.995        C  147 0.946
   155  H   0.937        N  150 0.916
   156  H   0.950        N  150 0.930
   157  N   3.493        C  145 1.335    C  158 0.973    H  168 0.891    O  146 0.204
   158  C   3.952        N  157 0.973    C  161 0.951    H  169 0.945    C  159 0.938
   159  C   3.956        O  160 1.595    N  177 1.336    C  158 0.938
   160  O   1.974        C  159 1.595    N  177 0.203
   161  C   3.983        C  162 1.008    H  170 0.970    C  158 0.951    H  171 0.947
   162  C   3.986        C  164 1.415    C  163 1.409    C  161 1.008    C  167 0.109
   163  C   3.988        C  165 1.445    C  162 1.409    H  172 0.966    C  166 0.112
   164  C   3.990        C  166 1.440    C  162 1.415    H  173 0.967    C  165 0.110
   165  C   3.988        C  163 1.445    C  167 1.436    H  174 0.962    C  164 0.110
   166  C   3.991        C  164 1.440    C  167 1.440    H  175 0.971    C  163 0.112
   167  C   3.989        C  166 1.440    C  165 1.436    H  176 0.966    C  162 0.109
   168  H   0.945        N  157 0.891
   169  H   0.994        C  158 0.945
   170  H   0.996        C  161 0.970
   171  H   0.994        C  161 0.947
   172  H   0.997        C  163 0.966
   173  H   0.999        C  164 0.967
   174  H   0.995        C  165 0.962
   175  H   0.999        C  166 0.971
   176  H   0.996        C  167 0.966
   177  N   3.501        C  159 1.336    C  178 0.982    H  186 0.887    O  160 0.203
   178  C   3.957        N  177 0.982    C  181 0.957    H  187 0.946    C  179 0.943
   179  C   3.951        O  180 1.635    N  199 1.297    C  178 0.943
   180  O   1.991        C  179 1.635    N  199 0.200
   181  C   3.986        C  182 1.004    H  189 0.973    H  188 0.966    C  178 0.957
   182  C   3.991        C  183 1.005    C  181 1.004    H  190 0.977    H  191 0.969
   183  C   3.986        C  184 1.007    C  182 1.005    H  192 0.970    H  193 0.963
   184  C   3.914        C  183 1.007    H  195 0.966    H  194 0.964    N  185 0.957
   185  N   3.646        C  184 0.957    H  196 0.907    H  197 0.905    H  198 0.812
   186  H   0.947        N  177 0.887
   187  H   0.990        C  178 0.946
   188  H   0.995        C  181 0.966
   189  H   0.996        C  181 0.973
   190  H   0.997        C  182 0.977
   191  H   0.995        C  182 0.969
   192  H   0.993        C  183 0.970
   193  H   0.994        C  183 0.963
   194  H   0.989        C  184 0.964
   195  H   0.986        C  184 0.966
   196  H   0.921        N  185 0.907
   197  H   0.919        N  185 0.905
   198  H   0.909        N  185 0.812
   199  N   3.472        C  179 1.297    C  200 0.994    H  208 0.894    O  180 0.200
   200  C   3.964        N  199 0.994    C  203 0.961    H  209 0.941    C  201 0.937
   201  C   3.952        O  202 1.620    N  216 1.312    C  200 0.937
   202  O   1.973        C  201 1.620    N  216 0.199
   203  C   3.988        C  204 0.994    H  211 0.972    H  210 0.969    C  200 0.961
   204  C   3.987        C  203 0.994    C  205 0.965    H  213 0.953    H  212 0.950
   205  C   3.943        O  206 1.636    N  207 1.308    C  204 0.965
   206  O   1.948        C  205 1.636    N  207 0.201
   207  N   3.405        C  205 1.308    H  214 0.927    H  215 0.926    O  206 0.201
   208  H   0.945        N  199 0.894
   209  H   0.990        C  200 0.941
   210  H   0.993        C  203 0.969
   211  H   0.996        C  203 0.972
   212  H   0.994        C  204 0.950
   213  H   0.994        C  204 0.953
   214  H   0.950        N  207 0.927
   215  H   0.950        N  207 0.926
   216  N   3.485        C  201 1.312    C  217 0.987    H  224 0.900    O  202 0.199
   217  C   3.963        N  216 0.987    H  225 0.955    C  220 0.944    C  218 0.937
   218  C   3.947        O  219 1.632    N  235 1.290    C  217 0.937
   219  O   1.992        C  218 1.632    N  235 0.193
   220  C   3.984        C  222 1.010    C  221 0.995    H  226 0.959    C  217 0.944
   221  C   3.994        C  223 1.019    C  220 0.995    H  227 0.976    H  228 0.975
   222  C   3.992        C  220 1.010    H  231 0.985    H  230 0.982    H  229 0.979
   223  C   3.993        C  221 1.019    H  233 0.986    H  232 0.985    H  234 0.985
   224  H   0.949        N  216 0.900
   225  H   0.994        C  217 0.955
   226  H   0.996        C  220 0.959
   227  H   0.998        C  221 0.976
   228  H   0.998        C  221 0.975
   229  H   0.995        C  222 0.979
   230  H   0.998        C  222 0.982
   231  H   0.998        C  222 0.985
   232  H   0.997        C  223 0.985
   233  H   0.998        C  223 0.986
   234  H   0.998        C  223 0.985
   235  N   3.478        C  218 1.290    C  236 0.987    H  247 0.921    O  219 0.193
   236  C   3.963        N  235 0.987    C  237 0.965    H  248 0.951    C  239 0.938
   237  C   3.897        O  238 1.914    C  236 0.965    H  377 0.951
   238  O   2.049        C  237 1.914
   239  C   3.987        C  240 1.009    H  250 0.969    H  249 0.967    C  236 0.938
   240  C   3.988        C  242 1.406    C  241 1.404    C  239 1.009
   241  C   3.989        C  243 1.453    C  240 1.404    H  251 0.959    C  244 0.107
   242  C   3.990        C  244 1.457    C  240 1.406    H  252 0.968    C  243 0.104
   243  C   3.984        C  241 1.453    C  245 1.369    H  253 0.960    C  242 0.104
   244  C   3.989        C  242 1.457    C  245 1.368    H  254 0.968    C  241 0.107
   245  C   3.947        C  243 1.369    C  244 1.368    O  246 1.080
   246  O   2.100        C  245 1.080    H  255 0.855
   247  H   0.955        N  235 0.921
   248  H   0.990        C  236 0.951
   249  H   0.995        C  239 0.967
   250  H   0.996        C  239 0.969
   251  H   0.998        C  241 0.959
   252  H   0.999        C  242 0.968
   253  H   0.996        C  243 0.960
   254  H   0.997        C  244 0.968
   255  H   0.884        O  246 0.855
   256  N   2.985        C  257 1.022    H  260 0.956    H  378 0.956
   257  C   3.982        N  256 1.022    C  258 0.959    H  262 0.956    H  261 0.940
   258  C   3.943        O  259 1.641    N  263 1.286    C  257 0.959
   259  O   1.952        C  258 1.641    N  263 0.195
   260  H   0.979        N  256 0.956
   261  H   0.996        C  257 0.940
   262  H   0.995        C  257 0.956
   263  N   3.457        C  258 1.286    C  264 0.987    H  274 0.902    O  259 0.195
   264  C   3.971        N  263 0.987    C  267 0.961    H  275 0.956    C  265 0.946
   265  C   3.952        O  266 1.630    N  287 1.300    C  264 0.946
   266  O   1.983        C  265 1.630    N  287 0.199
   267  C   3.987        C  268 1.006    H  276 0.972    H  277 0.972    C  264 0.961
   268  C   3.987        C  267 1.006    C  269 0.996    H  278 0.970    H  279 0.969
   269  C   3.949        C  268 0.996    N  270 0.979    H  281 0.965    H  280 0.960
   270  N   3.450        C  271 1.298    C  269 0.979    H  282 0.913
   271  C   3.978        N  273 1.325    N  272 1.322    N  270 1.298
   272  N   3.400        C  271 1.322    H  284 0.916    H  283 0.915    N  273 0.104
   273  N   3.410        C  271 1.325    H  286 0.920    H  285 0.913    N  272 0.104
   274  H   0.947        N  263 0.902
   275  H   0.996        C  264 0.956
   276  H   0.996        C  267 0.972
   277  H   0.996        C  267 0.972
   278  H   0.995        C  268 0.970
   279  H   0.993        C  268 0.969
   280  H   0.992        C  269 0.960
   281  H   0.992        C  269 0.965
   282  H   0.943        N  270 0.913
   283  H   0.937        N  272 0.915
   284  H   0.943        N  272 0.916
   285  H   0.940        N  273 0.913
   286  H   0.941        N  273 0.920
   287  N   3.487        C  265 1.300    C  288 0.986    H  296 0.926    O  266 0.199
   288  C   3.961        N  287 0.986    C  291 0.968    H  297 0.944    C  289 0.928
   289  C   3.949        O  290 1.624    N  304 1.320    C  288 0.928
   290  O   1.949        C  289 1.624    N  304 0.203
   291  C   3.988        C  292 1.010    H  299 0.973    C  288 0.968    H  298 0.965
   292  C   3.989        C  291 1.010    C  293 0.988    H  300 0.948    H  301 0.934
   293  C   3.944        O  294 1.551    N  295 1.354    C  292 0.988
   294  O   1.939        C  293 1.551    N  295 0.185
   295  N   3.435        C  293 1.354    H  302 0.924    H  303 0.921    O  294 0.185
   296  H   0.959        N  287 0.926
   297  H   0.989        C  288 0.944
   298  H   0.993        C  291 0.965
   299  H   0.997        C  291 0.973
   300  H   0.993        C  292 0.948
   301  H   0.988        C  292 0.934
   302  H   0.949        N  295 0.924
   303  H   0.943        N  295 0.921
   304  N   3.488        C  289 1.320    C  305 0.976    H  311 0.866    O  290 0.203
   305  C   3.964        N  304 0.976    C  306 0.967    H  312 0.960    C  308 0.946
   306  C   3.892        O  307 1.891    C  305 0.967    H  379 0.956
   307  O   2.068        C  306 1.891
   308  C   3.984        C  310 1.009    C  309 1.008    C  305 0.946    H  313 0.944
   309  C   3.993        C  308 1.008    H  316 0.985    H  315 0.983    H  314 0.982
   310  C   3.991        C  308 1.009    H  318 0.986    H  319 0.984    H  317 0.980
   311  H   0.938        N  304 0.866
   312  H   0.993        C  305 0.960
   313  H   0.996        C  308 0.944
   314  H   0.995        C  309 0.982
   315  H   0.999        C  309 0.983
   316  H   0.998        C  309 0.985
   317  H   0.995        C  310 0.980
   318  H   0.997        C  310 0.986
   319  H   0.997        C  310 0.984
   320  N   3.001        C  321 1.016    H  380 0.954    H  327 0.948
   321  C   3.983        N  320 1.016    C  322 0.978    H  328 0.956    C  324 0.943
   322  C   3.893        O  323 1.877    C  321 0.978    H  381 0.955
   323  O   2.043        C  322 1.877
   324  C   3.992        C  326 1.010    C  325 1.005    H  329 0.968    C  321 0.943
   325  C   3.994        C  324 1.005    H  331 0.985    H  332 0.983    H  330 0.982
   326  C   3.995        C  324 1.010    H  335 0.987    H  333 0.983    H  334 0.979
   327  H   0.973        N  320 0.948
   328  H   0.996        C  321 0.956
   329  H   0.999        C  324 0.968
   330  H   0.996        C  325 0.982
   331  H   0.998        C  325 0.985
   332  H   0.998        C  325 0.983
   333  H   0.997        C  326 0.983
   334  H   0.998        C  326 0.979
   335  H   0.999        C  326 0.987
   336  N   2.996        C  337 1.022    H  382 0.949    H  344 0.948
   337  C   3.983        N  336 1.022    C  338 0.992    C  340 0.960    H  345 0.906
   338  C   3.892        O  339 1.875    C  337 0.992    H  383 0.955
   339  O   2.029        C  338 1.875
   340  C   3.993        C  342 1.010    C  341 0.994    H  346 0.964    C  337 0.960
   341  C   3.993        C  343 1.019    C  340 0.994    H  348 0.976    H  347 0.973
   342  C   3.996        C  340 1.010    H  351 0.986    H  349 0.986    H  350 0.971
   343  C   3.995        C  341 1.019    H  352 0.983    H  354 0.981    H  353 0.980
   344  H   0.975        N  336 0.948
   345  H   0.992        C  337 0.906
   346  H   0.997        C  340 0.964
   347  H   0.998        C  341 0.973
   348  H   0.999        C  341 0.976
   349  H   0.999        C  342 0.986
   350  H   0.998        C  342 0.971
   351  H   1.000        C  342 0.986
   352  H   0.998        C  343 0.983
   353  H   0.998        C  343 0.980
   354  H   0.996        C  343 0.981
   355  N   3.000        C  356 1.007    H  363 0.956    H  384 0.949
   356  C   3.977        N  355 1.007    C  357 0.970    H  364 0.960    C  359 0.951
   357  C   3.886        O  358 1.899    C  356 0.970    H  385 0.954
   358  O   2.030        C  357 1.899
   359  C   3.992        C  361 1.008    C  360 0.994    H  365 0.965    C  356 0.951
   360  C   3.996        C  362 1.020    C  359 0.994    H  367 0.972    H  366 0.968
   361  C   3.993        C  359 1.008    H  370 0.983    H  369 0.980    H  368 0.980
   362  C   3.995        C  360 1.020    H  371 0.986    H  373 0.985    H  372 0.983
   363  H   0.974        N  355 0.956
   364  H   0.996        C  356 0.960
   365  H   0.998        C  359 0.965
   366  H   0.999        C  360 0.968
   367  H   0.996        C  360 0.972
   368  H   0.995        C  361 0.980
   369  H   0.999        C  361 0.980
   370  H   0.997        C  361 0.983
   371  H   0.999        C  362 0.986
   372  H   0.997        C  362 0.983
   373  H   0.999        C  362 0.985
   374  H   0.966        N    1 0.956
   375  H   0.992        C  107 0.951
   376  H   0.961        N  127 0.938
   377  H   0.993        C  237 0.951
   378  H   0.967        N  256 0.956
   379  H   0.995        C  306 0.956
   380  H   0.966        N  320 0.954
   381  H   0.997        C  322 0.955
   382  H   0.962        N  336 0.949
   383  H   0.996        C  338 0.955
   384  H   0.966        N  355 0.949
   385  H   0.996        C  357 0.954
 
molecular dipole:
                 x           y           z       tot (Debye)
 q only:      113.861      99.041     230.472
   full:      114.378      99.199     231.470     703.032
molecular quadrupole (traceless):
                xx          xy          yy          xz          yz          zz
 q only:    -6272.895    5532.945   -8305.218   12025.194   11696.521   14578.112
  q+dip:    -6350.022    5569.081   -8381.677   12162.955   11751.371   14731.699
   full:    -6338.170    5567.845   -8392.556   12162.064   11751.583   14730.725


           -------------------------------------------------
          | TOTAL ENERGY             -573.688102959107 Eh   |
          | GRADIENT NORM               0.539468719646 Eh/α |
          | HOMO-LUMO GAP               1.404475330804 eV   |
           -------------------------------------------------

------------------------------------------------------------------------
 * finished run on 2019/05/31 at 06:33:46.325     
------------------------------------------------------------------------
 total:
 * wall-time:     0 d,  0 h,  0 min,  6.461 sec
 *  cpu-time:     0 d,  0 h,  0 min, 12.349 sec
 * ratio c/w:     1.911 speedup
 SCF:
 * wall-time:     0 d,  0 h,  0 min,  6.095 sec
 *  cpu-time:     0 d,  0 h,  0 min, 11.753 sec
 * ratio c/w:     1.928 speedup

