      -----------------------------------------------------------      
     |                   =====================                   |     
     |                           x T B                           |     
     |                   =====================                   |     
     |                         S. Grimme                         |     
     |          Mulliken Center for Theoretical Chemistry        |     
     |                    University of Bonn                     |     
     |                 Version 6.0.1 (SAW181210)                 |     
      -----------------------------------------------------------      

   This program is distributed in the hope that it will be useful,
   but WITHOUT ANY WARRANTY; without even the implied warranty of
   MERCHANTABILITY or FITNESS FOR A PARTICULAR PURPOSE.
   
   FOR NON-COMMERCIAL, ACADEMIA USE ONLY.
   
   Cite this work as:
   S. Grimme, C. Bannwarth, P. Shushkov, J. Comput. Theory Chem., 2017,
   13, 1989-2009.
   C. Bannwarth, S. Ehlert and S. Grimme., ChemRxiv, 2018, preprint.
   http://doi.org/10.26434/chemrxiv.7246238.v1
   
   for sTDA-xTB:
   S. Grimme and C. Bannwarth, J. Chem. Phys., 2016, 145, 054103.
   
   in the mass-spec context:
   V. Asgeirsson, C. Bauer and S. Grimme, Chem. Sci., 2017, 8, 4879.
   
   if GBSA is used:
   P. Shushkov, F. März and S. Grimme, unpublished.
   
   for ANC optimizer:
   S. Grimme, unpublished.
   Rational Function algorithm used in ANCopt:
   F. Eckert, P. Pulay, H.-J. Werner, J. Comput. Chem., 1997, 18, 1473.
   
   with help from (in alphabetical order)
   C. Bannwarth, F. Bohle, G. Brandenburg, E. Caldeweyher, M. Checinski,
   S. Dohm, S. Ehlert, S. Ehrlich, F. März, H. Neugebauer, J. Pisarek,
   P. Pracht, P. Shushkov, and S. Spicher.
   
 * started run on 2019/03/07 at 11:37:45.665     
========================================================================
 # omp threads = 1
========================================================================
number of atoms            : 327
number of electrons        : 930
charge                     : -2
spin                       : .0
first test random number   : .2844
           ------------------------------------------------- 
          |                 G F N 2 - x T B                 |
          | Geometry, Frequencies, Noncovalent interactions |
          |            JCTC 2018 parametrisation            |
           ------------------------------------------------- 
 
      method parameters     
 k(s)        :  1.8500
 k(p)        :  2.2300
 k(d)        :  2.2300
 k(f)        :  2.0000
 kEN (H0ij)  : -2.0000
 D4 a1       :  0.5200
 D4 a2       :  5.0000
 D4 s6       :  1.0000
 D4 s8       :  2.7000
 D4 s9       :  5.0000
 alphaj      :  2.0000

 Solvent             : h2o
 Using internal parameter file: .param_gbsa2_h2o
 Gsolv ref. state (COSMO-RS): gsolv [1 M gas/solution]
 temperature (mdtemp)       :    298.150000000000     
 dielectric constant        :    80.2000000000000     
 rho                        :    1.00000000000000     
 mass                       :    18.0000000000000     
 surface tension            :    15.5689454083859     
 probe radius               :   0.975313790000000     
 vdW radii scaling          :    1.00000000000000     
 Gshift (Eh)                :   1.857443126794793E-003
 c1                         :    1.55243817000000     
 soset                      :   0.130326360000000     
 HB correction              :  T

            Z     q(EN)     CN     RAES       Cart. coordinates
     1  N   5.0   -0.21    3.28    1.98   310.16639   143.59839   166.30722
     2  C   4.0    0.03    4.37    4.33   312.67595   142.47022   166.31289
     3  C   4.0    0.16    3.49    3.11   312.94618   140.90175   168.69773
     4  O   6.0   -0.30    1.31    1.80   311.44762   141.14363   170.44950
     5  C   4.0    0.02    4.26    4.11   314.74708   144.52246   166.25620
     6  O   6.0   -0.28    2.13    1.84   314.41449   146.27991   168.24230
     7  H   1.0    0.11    1.08    1.44   310.14938   145.18764   166.65115
     8  H   1.0    0.03    1.12    1.45   312.87437   141.42520   164.82001
     9  H   1.0    0.04    1.07    1.44   316.39682   143.73822   166.39793
    10  H   1.0    0.04    1.07    1.44   314.70551   145.39740   164.64615
    11  H   1.0    0.16    1.13    1.45   315.61069   146.14196   169.27787
    12  N   5.0   -0.18    3.48    2.06   314.84535   139.25768   168.72040
    13  C   4.0    0.03    4.44    4.45   315.37447   137.69488   170.96729
    14  C   4.0    0.17    3.48    3.10   315.31778   139.34272   173.37858
    15  O   6.0   -0.29    1.32    1.80   314.01765   138.74557   175.21161
    16  C   4.0   -0.06    4.35    4.29   317.92371   136.29459   170.69328
    17  C   4.0   -0.04    4.31    4.22   318.10891   134.39353   168.51442
    18  C   4.0    0.17    3.30    3.05   320.75641   133.47701   168.05144
    19  O   6.0   -0.31    1.29    1.80   321.81844   133.98346   166.05211
    20  N   5.0   -0.23    3.24    1.97   321.88458   132.28082   169.95628
    21  H   1.0    0.09    1.13    1.45   315.85257   139.00824   167.46940
    22  H   1.0    0.05    1.12    1.45   314.06489   136.42121   171.11468
    23  H   1.0    0.05    1.09    1.44   319.24841   137.54370   170.48163
    24  H   1.0    0.06    1.09    1.44   318.26764   135.41020   172.26175
    25  H   1.0    0.05    1.09    1.44   317.03176   132.95545   168.87914
    26  H   1.0    0.05    1.10    1.44   317.46640   135.17021   166.98374
    27  H   1.0    0.12    1.09    1.44   321.06066   131.96901   171.32066
    28  H   1.0    0.13    1.09    1.44   323.43793   131.82161   169.82211
    29  N   5.0   -0.15    3.50    2.08   316.63303   141.48756   173.27464
    30  C   4.0    0.05    4.36    4.32   316.76342   143.28091   175.34200
    31  C   4.0    0.10    3.28    3.05   314.12537   143.88373   176.34356
    32  O   6.0   -0.30    1.14    1.80   313.55845   143.55114   178.56965
    33  C   4.0    0.02    4.25    4.10   318.04844   145.73378   174.47840
    34  O   6.0   -0.29    2.17    1.85   316.66138   146.83738   172.45828
    35  H   1.0    0.10    1.14    1.45   317.48719   141.93921   171.96884
    36  H   1.0    0.07    1.13    1.45   317.75175   142.51935   176.68560
    37  H   1.0    0.04    1.07    1.44   318.15426   146.91107   175.88057
    38  H   1.0    0.04    1.07    1.44   319.76620   145.38418   173.93983
    39  H   1.0    0.14    1.08    1.44   317.37380   148.17908   171.99719
    40  N   5.0   -0.21    3.27    1.97   309.05145   140.87340   175.42515
    41  C   4.0    0.03    4.38    4.34   308.11604   138.50179   176.54198
    42  C   4.0    0.16    3.46    3.10   309.11192   138.10306   179.20460
    43  O   6.0   -0.29    1.22    1.80   307.71164   137.26402   180.88646
    44  C   4.0   -0.05    4.45    4.47   308.89271   136.25302   174.93382
    45  C   4.0   -0.03    4.27    4.14   307.86092   136.01491   172.17860
    46  C   4.0   -0.08    4.19    3.98   309.07224   133.84173   170.67816
    47  C   4.0   -0.09    4.24    4.08   305.03767   135.60862   172.37513
    48  H   1.0    0.13    1.10    1.44   309.85269   140.67309   174.02486
    49  H   1.0    0.04    1.13    1.45   306.28867   138.63596   176.60623
    50  H   1.0    0.07    1.11    1.45   310.72386   136.25113   174.83744
    51  H   1.0    0.05    1.10    1.44   308.40327   134.73557   175.83711
    52  H   1.0    0.06    1.12    1.45   308.27855   137.54559   171.26019
    53  H   1.0    0.04    1.05    1.44   308.35792   133.79071   168.99063
    54  H   1.0    0.05    1.05    1.44   310.88260   134.11007   170.56666
    55  H   1.0    0.05    1.05    1.44   308.74154   132.25247   171.52853
    56  H   1.0    0.04    1.06    1.44   304.32336   135.45178   170.69517
    57  H   1.0    0.05    1.06    1.44   304.70508   134.07795   173.32566
    58  H   1.0    0.04    1.06    1.44   304.27233   137.03726   173.23118
    59  N   5.0   -0.15    3.55    2.11   311.48164   138.82305   179.65436
    60  C   4.0    0.05    4.42    4.41   312.60414   138.64541   182.13368
    61  C   4.0    0.09    3.24    3.04   311.34180   140.43498   183.98561
    62  O   6.0   -0.29    1.12    1.80   310.99787   139.75468   186.17580
    63  C   4.0   -0.03    4.34    4.27   315.47085   139.15186   182.07510
    64  C   4.0    0.26    3.14    3.03   316.89948   137.36229   180.27608
    65  O   6.0   -0.29    1.23    1.80   316.41571   135.10218   180.38946
    66  O   6.0   -0.27    1.17    1.80   318.44717   138.25991   178.72650
    67  H   1.0    0.14    1.18    1.46   312.47185   139.42776   178.51674
    68  H   1.0    0.07    1.14    1.45   312.33957   136.92198   182.69870
    69  H   1.0    0.07    1.09    1.44   315.76565   140.88663   181.56109
    70  H   1.0    0.05    1.09    1.44   316.14926   138.97234   183.76829
    71  N   5.0   -0.25    3.25    1.97   300.93319   115.87422   195.43924
    72  C   4.0    0.03    4.37    4.32   302.72654   115.97059   193.32652
    73  C   4.0    0.06    3.22    3.04   301.59648   117.09498   190.94358
    74  O   6.0   -0.29    1.15    1.80   301.87427   116.05752   188.84787
    75  C   4.0    0.06    4.39    4.37   303.78289   113.36466   192.74449
    76  O   6.0   -0.29    2.18    1.85   302.00088   111.43336   193.43424
    77  C   4.0   -0.10    4.24    4.08   306.12238   112.94892   194.26950
    78  H   1.0    0.10    1.08    1.44   299.72187   114.80841   195.25215
    79  H   1.0    0.03    1.14    1.45   304.08147   117.07797   193.87454
    80  H   1.0    0.06    1.13    1.45   304.13438   113.27584   190.94736
    81  H   1.0    0.13    1.09    1.44   301.97632   111.27462   195.01405
    82  H   1.0    0.04    1.06    1.44   306.80457   111.28785   193.90478
    83  H   1.0    0.04    1.06    1.44   307.36582   114.22637   193.84242
    84  H   1.0    0.03    1.06    1.44   305.71797   113.06419   196.05340
    85  N   5.0   -0.23    3.26    1.97   302.34670   121.80229   186.07942
    86  C   4.0    0.03    4.41    4.40   304.44241   123.25549   185.03063
    87  C   4.0    0.16    3.52    3.12   303.97187   123.60508   182.24328
    88  O   6.0   -0.29    1.27    1.80   303.02889   121.90811   180.98661
    89  C   4.0   -0.04    4.39    4.37   306.97842   121.89488   185.45581
    90  C   4.0    0.16    3.32    3.06   309.18940   123.23092   184.23883
    91  O   6.0   -0.29    1.30    1.80   309.29523   123.57107   181.91636
    92  N   5.0   -0.24    3.24    1.97   311.04511   123.93768   185.76006
    93  H   1.0    0.13    1.09    1.44   301.91207   120.53050   185.16669
    94  H   1.0    0.04    1.13    1.45   304.54256   124.88065   185.87344
    95  H   1.0    0.04    1.10    1.44   307.28456   121.74559   187.25672
    96  H   1.0    0.07    1.09    1.44   306.86504   120.19224   184.78874
    97  H   1.0    0.13    1.10    1.44   312.36981   124.65388   185.14779
    98  H   1.0    0.10    1.09    1.44   310.92606   123.68067   187.36066
    99  N   5.0   -0.17    3.54    2.11   304.51044   125.85386   181.29086
   100  C   4.0    0.04    4.54    4.60   304.08336   126.40566   178.63768
   101  C   4.0    0.16    3.43    3.09   306.40772   127.65666   177.41692
   102  O   6.0   -0.31    1.24    1.80   306.17151   128.86419   175.46105
   103  C   4.0   -0.02    4.36    4.32   301.71742   128.13476   178.17281
   104  C   4.0   -0.09    4.21    4.02   299.29480   126.79116   179.01374
   105  C   4.0   -0.08    4.24    4.09   302.01222   130.58384   179.65625
   106  H   1.0    0.09    1.13    1.45   305.12649   127.08785   182.15068
   107  H   1.0    0.07    1.14    1.45   303.76778   124.77860   177.85534
   108  H   1.0    0.05    1.12    1.45   301.60026   128.49947   176.37946
   109  H   1.0    0.03    1.05    1.44   297.85293   127.88342   178.71327
   110  H   1.0    0.05    1.05    1.44   299.09260   125.23970   178.05943
   111  H   1.0    0.05    1.06    1.44   299.40251   126.39810   180.80142
   112  H   1.0    0.04    1.06    1.44   300.55146   131.65343   179.36901
   113  H   1.0    0.04    1.06    1.44   302.14828   130.20401   181.44393
   114  H   1.0    0.05    1.06    1.44   303.52589   131.45690   179.10067
   115  N   5.0   -0.15    3.57    2.13   308.65272   127.24848   178.53186
   116  C   4.0    0.03    4.50    4.54   310.99976   128.30294   177.62290
   117  C   4.0    0.15    3.46    3.10   311.98431   126.67022   175.47617
   118  O   6.0   -0.27    1.23    1.80   310.79000   124.77482   174.76941
   119  C   4.0   -0.04    4.42    4.42   313.01799   128.38042   179.69026
   120  C   4.0   -0.03    4.33    4.25   312.26587   129.98858   181.94848
   121  C   4.0    0.17    3.30    3.05   314.29166   130.06228   183.97994
   122  O   6.0   -0.29    1.22    1.80   314.87748   128.11586   185.11566
   123  N   5.0   -0.22    3.26    1.97   315.27621   132.27515   184.53930
   124  H   1.0    0.13    1.19    1.46   308.82657   126.33007   179.86034
   125  H   1.0    0.05    1.13    1.45   310.66528   130.01692   177.06732
   126  H   1.0    0.07    1.09    1.44   313.36003   126.67211   180.25907
   127  H   1.0    0.06    1.10    1.44   314.57701   129.03238   178.98161
   128  H   1.0    0.05    1.10    1.44   311.91439   131.69689   181.38346
   129  H   1.0    0.05    1.09    1.44   310.71252   129.33095   182.66658
   130  H   1.0    0.12    1.11    1.45   314.82645   133.59796   183.70971
   131  H   1.0    0.13    1.09    1.44   316.37036   132.39987   185.73549
   132  N   5.0   -0.16    3.55    2.11   314.23686   127.34674   174.56532
   133  C   4.0    0.03    4.46    4.48   315.55400   126.00504   172.53954
   134  C   4.0    0.16    3.47    3.10   318.36024   126.26582   173.22551
   135  O   6.0   -0.29    1.27    1.80   319.14637   128.27838   174.07589
   136  C   4.0   -0.04    4.41    4.39   314.96818   127.16722   169.96951
   137  C   4.0   -0.04    4.34    4.28   312.22619   127.05950   169.18527
   138  C   4.0    0.15    3.31    3.05   311.68384   128.53538   166.83635
   139  O   6.0   -0.30    1.22    1.80   313.43562   129.24025   165.42283
   140  N   5.0   -0.25    3.22    1.96   309.25365   129.02104   166.33746
   141  H   1.0    0.11    1.15    1.45   315.05889   128.63176   175.12468
   142  H   1.0    0.05    1.12    1.45   315.03810   124.25137   172.40159
   143  H   1.0    0.06    1.10    1.44   315.50298   128.92088   169.98463
   144  H   1.0    0.06    1.10    1.44   315.97352   126.31117   168.69773
   145  H   1.0    0.05    1.10    1.44   311.74620   125.31151   168.92071
   146  H   1.0    0.06    1.10    1.44   311.18495   127.70012   170.55155
   147  H   1.0    0.10    1.09    1.44   308.09714   128.50514   167.35602
   148  H   1.0    0.11    1.08    1.44   308.84925   129.84874   164.99953
   149  N   5.0   -0.15    3.47    2.06   319.81344   124.22114   173.04221
   150  C   4.0    0.04    4.47    4.50   322.51008   124.28539   173.72818
   151  C   4.0    0.16    3.42    3.09   324.05399   126.08063   172.07089
   152  O   6.0   -0.27    1.22    1.80   323.28676   126.66833   169.91282
   153  C   4.0   -0.05    4.41    4.39   323.54187   121.58119   173.55621
   154  C   4.0   -0.05    4.34    4.27   322.45339   119.77650   175.43460
   155  C   4.0   -0.06    4.33    4.25   322.77464   117.04396   174.59556
   156  C   4.0   -0.04    4.30    4.21   320.86980   115.35643   175.83144
   157  N   5.0   -0.17    4.13    3.24   321.36491   112.66357   175.22673
   158  H   1.0    0.09    1.13    1.45   319.28432   122.77361   172.52631
   159  H   1.0    0.06    1.13    1.45   322.66315   124.93545   175.43460
   160  H   1.0    0.05    1.10    1.44   323.22251   120.93679   171.87058
   161  H   1.0    0.05    1.10    1.44   325.36168   121.63221   173.77542
   162  H   1.0    0.06    1.09    1.44   323.26786   120.01838   177.05787
   163  H   1.0    0.06    1.10    1.44   320.67138   120.13933   175.67081
   164  H   1.0    0.04    1.10    1.44   322.60079   116.93624   172.77386
   165  H   1.0    0.04    1.09    1.44   324.46595   116.46948   175.00941
   166  H   1.0    0.05    1.09    1.44   320.91704   115.60021   177.64747
   167  H   1.0    0.05    1.09    1.44   319.18605   115.81374   175.27208
   168  H   1.0    0.06    1.09    1.44   320.21217   111.69792   175.97884
   169  H   1.0    0.06    1.09    1.44   321.28365   112.43869   173.56188
   170  H   1.0    0.06    1.09    1.44   322.89747   112.23838   175.77475
   171  N   5.0   -0.14    3.53    2.10   326.20260   126.98014   173.07622
   172  C   4.0    0.04    4.36    4.30   327.92792   128.61475   171.67593
   173  C   4.0    0.08    3.25    3.04   329.92158   126.86675   170.53454
   174  O   6.0   -0.28    1.16    1.80   329.78741   124.57829   170.81422
   175  C   4.0   -0.04    4.37    4.33   329.31309   130.43077   173.49952
   176  C   4.0   -0.01    3.52    3.12   327.96950   132.91198   174.19305
   177  C   4.0   -0.04    3.48    3.10   326.56921   133.15576   176.44938
   178  C   4.0   -0.05    3.49    3.11   328.15658   135.01903   172.64347
   179  C   4.0   -0.03    3.44    3.09   325.35412   135.42343   177.07299
   180  C   4.0   -0.05    3.46    3.10   326.97361   137.31316   173.23874
   181  C   4.0    0.08    3.49    3.11   325.57521   137.49268   175.45350
   182  O   6.0   -0.26    2.14    1.85   324.36768   139.72823   176.01852
   183  H   1.0    0.12    1.17    1.46   326.68826   126.65132   174.59178
   184  H   1.0    0.06    1.11    1.45   327.01330   129.59363   170.42493
   185  H   1.0    0.06    1.10    1.44   329.65702   129.51993   175.05287
   186  H   1.0    0.04    1.10    1.44   330.93448   130.85407   172.75497
   187  H   1.0    0.07    1.09    1.44   326.45016   131.78571   177.54353
   188  H   1.0    0.05    1.10    1.44   329.09577   134.90565   171.16382
   189  H   1.0    0.07    1.09    1.44   324.41114   135.54815   178.55076
   190  H   1.0    0.06    1.09    1.44   327.12290   138.69644   172.16537
   191  H   1.0    0.14    1.10    1.44   324.67193   140.79592   174.88280
   192  N   5.0   -0.22    3.26    1.97   329.99717   136.77458   165.36047
   193  C   4.0    0.04    4.41    4.39   327.27597   136.45333   165.04488
   194  C   4.0    0.16    3.42    3.09   326.41992   136.36262   162.31612
   195  O   6.0   -0.27    1.24    1.80   327.82588   137.22245   160.62104
   196  C   4.0   -0.04    4.34    4.27   325.81332   138.43943   166.57934
   197  C   4.0    0.24    3.15    3.03   326.77519   141.13418   166.13526
   198  O   6.0   -0.28    1.19    1.80   327.41392   141.77480   163.97530
   199  O   6.0   -0.29    1.16    1.80   326.96794   142.61951   168.00986
   200  H   1.0    0.12    1.08    1.44   330.56787   138.18432   164.78977
   201  H   1.0    0.05    1.14    1.45   326.87913   134.79415   165.71574
   202  H   1.0    0.06    1.09    1.44   324.03698   138.35251   166.13904
   203  H   1.0    0.05    1.09    1.44   325.94371   138.03881   168.36324
   204  N   5.0   -0.16    3.45    2.05   324.17493   135.39131   161.84369
   205  C   4.0    0.04    4.34    4.27   322.98062   135.18155   159.30201
   206  C   4.0    0.09    3.20    3.04   323.34534   137.39064   157.43874
   207  O   6.0   -0.30    1.12    1.80   322.91259   137.10907   155.21264
   208  C   4.0   -0.04    4.35    4.29   320.10635   134.65998   159.54011
   209  C   4.0    0.17    3.27    3.05   319.52431   132.07673   160.75143
   210  O   6.0   -0.28    1.21    1.80   320.94917   130.29282   160.52655
   211  N   5.0   -0.23    3.22    1.96   317.33601   131.95200   162.02132
   212  H   1.0    0.13    1.18    1.46   323.23006   134.79793   163.02477
   213  H   1.0    0.07    1.13    1.45   323.90470   133.77937   158.56501
   214  H   1.0    0.04    1.09    1.44   319.33345   135.98468   160.54356
   215  H   1.0    0.05    1.09    1.44   319.34101   134.73179   157.87715
   216  H   1.0    0.14    1.09    1.44   316.88248   130.55928   162.72619
   217  H   1.0    0.10    1.09    1.44   316.38548   133.26536   162.13282
   218  N   5.0   -0.23    3.19    1.95   326.94716   118.97715   187.68758
   219  C   4.0    0.01    4.26    4.13   324.31099   119.59698   187.87466
   220  C   4.0    0.15    3.39    3.07   323.09211   119.98626   185.32731
   221  O   6.0   -0.30    1.28    1.80   324.39036   119.82752   183.40735
   222  H   1.0    0.10    1.08    1.44   327.28920   117.40678   187.92569
   223  H   1.0    0.04    1.09    1.44   323.43604   118.25527   188.76473
   224  H   1.0    0.05    1.09    1.44   324.11824   121.12009   188.87622
   225  N   5.0   -0.16    3.47    2.06   320.65815   120.64388   185.26684
   226  C   4.0    0.04    4.40    4.38   319.27109   121.00671   182.89713
   227  C   4.0    0.16    3.43    3.09   320.32934   123.07407   181.15669
   228  O   6.0   -0.30    1.25    1.80   319.60368   123.28950   178.97217
   229  C   4.0   -0.06    4.20    4.01   316.46485   121.48292   183.47916
   230  H   1.0    0.10    1.13    1.45   319.76242   120.89333   186.60099
   231  H   1.0    0.07    1.13    1.45   319.48085   119.45336   181.94659
   232  H   1.0    0.07    1.05    1.44   315.54644   121.72292   181.91069
   233  H   1.0    0.07    1.05    1.44   315.77321   120.04295   184.37678
   234  H   1.0    0.06    1.05    1.44   316.30233   122.98525   184.51851
   235  N   5.0   -0.15    3.53    2.10   321.97151   124.69168   182.18281
   236  C   4.0    0.04    4.51    4.55   323.10345   126.68156   180.67670
   237  C   4.0    0.16    3.44    3.09   325.90970   126.37542   180.04742
   238  O   6.0   -0.32    1.33    1.80   326.76763   127.19934   178.10667
   239  C   4.0   -0.03    4.33    4.25   322.51764   129.31584   181.72739
   240  C   4.0    0.25    3.16    3.03   323.25085   129.59741   184.50906
   241  O   6.0   -0.27    1.16    1.80   321.77876   130.80494   185.92258
   242  O   6.0   -0.31    1.24    1.80   325.32766   128.69034   185.23094
   243  H   1.0    0.11    1.13    1.45   322.44394   124.65955   183.73805
   244  H   1.0    0.07    1.17    1.46   322.27386   126.50014   179.05153
   245  H   1.0    0.06    1.09    1.44   323.41148   130.57250   180.73717
   246  H   1.0    0.07    1.09    1.44   320.72618   129.65788   181.53652
   247  N   5.0   -0.15    3.42    2.03   327.32321   124.98269   181.60455
   248  C   4.0    0.02    4.29    4.19   329.97072   124.60097   181.02630
   249  C   4.0    0.08    3.15    3.03   331.76218   125.75559   182.89146
   250  O   6.0   -0.29    1.12    1.80   333.96938   125.06206   182.95760
   251  H   1.0    0.11    1.12    1.45   326.79220   124.26649   182.96327
   252  H   1.0    0.05    1.09    1.44   330.29953   122.80006   180.93181
   253  H   1.0    0.07    1.11    1.45   330.31843   125.29828   179.36712
   254  N   5.0   -0.21    3.28    1.98   329.18648   127.12564   189.26739
   255  C   4.0    0.03    4.38    4.35   327.98273   126.83085   191.74293
   256  C   4.0    0.07    3.27    3.05   329.72505   125.37198   193.47014
   257  O   6.0   -0.29    1.14    1.80   330.83243   123.48603   192.66512
   258  C   4.0    0.05    4.38    4.35   325.53931   125.39654   191.47837
   259  O   6.0   -0.26    2.17    1.85   323.99729   126.60975   189.59809
   260  C   4.0   -0.08    4.20    4.00   324.09367   125.28127   193.95769
   261  H   1.0    0.11    1.09    1.44   328.47027   126.30361   188.06175
   262  H   1.0    0.04    1.12    1.45   327.64257   128.49192   192.44024
   263  H   1.0    0.05    1.12    1.45   325.93993   123.67878   190.97948
   264  H   1.0    0.17    1.12    1.45   324.77208   126.63621   188.21293
   265  H   1.0    0.05    1.05    1.44   322.53654   124.34586   193.71392
   266  H   1.0    0.04    1.06    1.44   325.11790   124.44223   195.22570
   267  H   1.0    0.05    1.06    1.44   323.70250   126.98202   194.51705
   268  N   5.0   -0.23    3.26    1.97   317.00531   112.36688   197.85242
   269  C   4.0    0.02    4.35    4.29   316.95240   114.57597   196.26694
   270  C   4.0    0.15    3.44    3.09   315.56912   114.10354   193.76494
   271  O   6.0   -0.29    1.23    1.80   315.80911   112.08532   192.60465
   272  C   4.0   -0.09    4.24    4.07   319.62447   115.48115   195.77372
   273  H   1.0    0.09    1.09    1.44   318.49819   111.78296   198.12454
   274  H   1.0    0.03    1.14    1.45   316.01698   115.87422   197.15889
   275  H   1.0    0.05    1.06    1.44   319.57911   116.97026   194.70413
   276  H   1.0    0.03    1.06    1.44   320.43327   115.89689   197.36487
   277  H   1.0    0.05    1.06    1.44   320.57500   114.15645   194.93468
   278  N   5.0   -0.16    3.48    2.06   314.25765   116.03295   192.87299
   279  C   4.0    0.03    4.39    4.36   312.83468   115.89500   190.48249
   280  C   4.0    0.16    3.46    3.10   314.80756   115.54918   188.36410
   281  O   6.0   -0.30    1.24    1.80   316.72185   116.87199   188.26017
   282  C   4.0   -0.09    4.19    3.98   311.33235   118.37054   190.06108
   283  H   1.0    0.08    1.13    1.45   314.15371   117.47103   193.62321
   284  H   1.0    0.04    1.11    1.45   311.63282   114.50983   190.50516
   285  H   1.0    0.05    1.05    1.44   310.40260   118.26094   188.48505
   286  H   1.0    0.04    1.05    1.44   310.15694   118.61621   191.44625
   287  H   1.0    0.05    1.05    1.44   312.49453   119.78595   189.98738
   288  N   5.0   -0.16    3.47    2.06   314.27276   113.82764   186.62933
   289  C   4.0    0.03    4.46    4.48   315.96029   113.32875   184.49583
   290  C   4.0    0.15    3.43    3.09   314.90960   114.10543   181.94281
   291  O   6.0   -0.30    1.23    1.80   316.10769   115.53973   180.57465
   292  C   4.0   -0.09    4.25    4.10   316.71996   110.59621   184.45426
   293  H   1.0    0.09    1.13    1.45   312.92917   112.91302   186.64634
   294  H   1.0    0.07    1.15    1.45   317.42861   114.39078   184.77173
   295  H   1.0    0.04    1.06    1.44   317.83679   110.29386   183.03319
   296  H   1.0    0.05    1.06    1.44   317.58923   110.17858   186.01328
   297  H   1.0    0.04    1.06    1.44   315.22519   109.54741   184.28985
   298  N   5.0   -0.15    3.51    2.08   312.74398   113.02829   181.24740
   299  C   4.0    0.04    4.42    4.42   311.56290   113.58198   178.79075
   300  C   4.0    0.09    3.21    3.04   309.13082   115.10699   179.02130
   301  O   6.0   -0.26    1.14    1.80   308.22942   115.46792   181.14346
   302  C   4.0    0.04    4.32    4.23   310.97897   111.09132   177.36968
   303  O   6.0   -0.28    2.16    1.85   309.92261   109.28285   179.08177
   304  C   4.0   -0.09    4.18    3.96   313.35625   109.96126   176.19049
   305  H   1.0    0.10    1.13    1.45   311.92005   111.97004   182.16580
   306  H   1.0    0.05    1.14    1.45   312.77043   114.59676   177.85912
   307  H   1.0    0.03    1.11    1.45   309.78655   111.48438   176.03364
   308  H   1.0    0.13    1.08    1.44   309.60703   107.93737   178.30131
   309  H   1.0    0.03    1.05    1.44   312.92728   108.40791   175.31744
   310  H   1.0    0.04    1.05    1.44   314.07434   111.15368   174.99807
   311  H   1.0    0.05    1.06    1.44   314.58079   109.60222   177.50574
   312  H   1.0    0.08    1.08    1.44   309.46435   143.41363   164.76918
   313  H   1.0    0.07    1.05    1.44   312.80557   144.56852   175.17724
   314  H   1.0    0.10    1.07    1.44   307.73936   141.90828   175.10893
   315  H   1.0    0.06    1.04    1.44   310.79759   142.15320   183.41759
   316  H   1.0    0.08    1.08    1.44   301.75572   115.43856   196.86269
   317  H   1.0    0.05    1.04    1.43   300.60485   118.70103   191.03485
   318  H   1.0    0.10    1.08    1.44   302.78234   121.20110   187.60957
   319  H   1.0    0.05    1.05    1.44   331.35861   127.59186   169.54446
   320  H   1.0    0.09    1.08    1.44   330.38861   136.70868   167.01425
   321  H   1.0    0.07    1.05    1.44   323.94314   139.06904   158.06854
   322  H   1.0    0.12    1.10    1.44   327.51542   119.37627   186.13505
   323  H   1.0    0.06    1.05    1.44   331.15535   127.09204   184.08173
   324  H   1.0    0.11    1.08    1.44   329.17061   128.76647   188.82018
   325  H   1.0    0.04    1.04    1.43   329.97559   125.93685   195.25598
   326  H   1.0    0.08    1.08    1.44   316.32910   112.73939   199.36785
   327  H   1.0    0.05    1.04    1.43   308.29582   115.79395   177.47149

  Z AO/shell   Hii/eV     exponent
  1     Wed Apr 25 08:07:45 CEST 2018   EN: 2.200 GM2: 0.406  GM3: 0.0800  RAES: 1.40
     1s    -10.707211    1.230000
  6     Wed Apr 25 08:07:45 CEST 2018   EN: 2.550 GM2: 0.538  GM3: 0.1500  RAES: 3.00
     2s    -13.970922    2.096432
     2p    -10.063292    1.800000
  7     Wed Apr 25 08:07:45 CEST 2018   EN: 3.040 GM2: 0.461  GM3:-0.0640  RAES: 1.90
     2s    -16.686243    2.339881
     2p    -12.523956    2.014332
  8     Wed Apr 25 08:07:45 CEST 2018   EN: 3.440 GM2: 0.452  GM3:-0.0517  RAES: 1.80
     2s    -20.229985    2.439742
     2p    -15.503117    2.137023
 no old-style atom pair restraining (fixing) potential

molecular fragmentation (1/2 indicates fragments):
111111111111111111111111111111111111111222222222222222222222222222222222
222222222222222222222222222222222222222222222222222222222222222222222222
222222222222222222222222222222222222222222222222222222222222222222222222
222222222222222222222222222222222222222222222222222222222222222222222222
222222222222222222222221122222222222222
# atoms in fragment 1/2:    41   286
 fragment masses (1/2) :      304.30     2047.20
CMA distance (Bohr)    :  16.635
constraining FC (au)   :  0.0500
           ------------------------------------------------- 
          |        Self-Consistent Charge Iterations        |
           ------------------------------------------------- 

 Ncao       : 819
 Nao        : 819
 Nshell     : 491
 Nel        : 930
 T(el)      :   500.0
 intcut     :    35.0
 scfconv/Eh :  0.100E-06
   qconv/e  :  0.100E-04
 intneglect :  0.100E-08
 broydamp   :      0.400
 iter      E             dE          RMSdq      gap      omega  full diag
   1   -541.3422157 -0.541342E+03  0.506E+00    3.37       0.0  T
   2   -542.9328119 -0.159060E+01  0.232E+00    1.90       1.0  T
   3   -543.0289235 -0.961116E-01  0.136E+00    1.92       1.0  T
   4   -543.1148807 -0.859571E-01  0.279E-01    1.32       1.0  T
   5   -543.1216169 -0.673623E-02  0.132E-01    1.53       1.0  T
   6   -543.1224763 -0.859431E-03  0.609E-02    1.51       1.0  T
   7   -543.1227315 -0.255192E-03  0.243E-02    1.54       1.0  T
   8   -543.1227628 -0.313034E-04  0.129E-02    1.54       1.0  T
   9   -543.1227763 -0.134845E-04  0.539E-03    1.54       1.0  T
  10   -543.1227785 -0.218170E-05  0.225E-03    1.54       2.5  T
  11   -543.1227788 -0.334147E-06  0.834E-04    1.54       6.6  T
  12   -543.1227788 -0.319162E-07  0.391E-04    1.54      14.1  T
  13   -543.1227789 -0.961677E-08  0.166E-04    1.54      33.4  T
  14   -543.1227789 -0.187208E-08  0.692E-05    1.54      79.9  T
  15   -543.1227789 -0.257160E-09  0.290E-05    1.54     190.9  T
speedup  1.00
cpu  time for SCC    4.33 s
wall time for SCC    4.33 s

   *** convergence criteria satisfied after 15 iterations ***

          eigenvalues
 #    :         453        454        455        456        457        458        459        460
 occ. :        2.000      2.000      2.000      2.000      2.000      2.000      2.000      2.000
 eps  :       -10.327    -10.311    -10.220    -10.171    -10.125    -10.057    -10.050    -10.041
 #    :         461        462        463        464        465        466        467        468
 occ. :        2.000      2.000      2.000      2.000      2.000      0.000      0.000      0.000
 eps  :        -9.990     -9.985     -9.880     -9.862     -9.599     -8.057     -8.004     -7.961
 #    :         469        470        471        472        473        474        475        476
 occ. :        0.000      0.000      0.000      0.000      0.000      0.000      0.000      0.000
 eps  :        -7.931     -7.893     -7.871     -7.827     -7.777     -6.545     -6.514     -6.467


   #   Z            q   n(s)   n(p)   n(d)      C6AA      α(0)
   1   7 N     -0.404  1.283  4.121  0.000    30.475     8.199
   2   6 C      0.010  1.036  2.954  0.000    20.417     6.435
   3   6 C      0.271  1.043  2.686  0.000    22.423     7.755
   4   8 O     -0.467  1.750  4.717  0.000    23.067     6.439
   5   6 C      0.055  0.996  2.949  0.000    19.840     6.375
   6   8 O     -0.488  1.670  4.818  0.000    22.635     6.423
   7   1 H      0.195  0.805  0.000  0.000     1.129     1.665
   8   1 H      0.068  0.932  0.000  0.000     2.112     2.273
   9   1 H      0.033  0.967  0.000  0.000     2.549     2.496
  10   1 H      0.074  0.926  0.000  0.000     2.046     2.236
  11   1 H      0.327  0.673  0.000  0.000     0.645     1.261
  12   7 N     -0.214  1.213  4.000  0.000    25.655     7.523
  13   6 C      0.015  1.046  2.940  0.000    20.337     6.422
  14   6 C      0.285  1.039  2.677  0.000    22.175     7.711
  15   8 O     -0.472  1.756  4.716  0.000    23.177     6.455
  16   6 C     -0.088  1.008  3.081  0.000    22.175     6.703
  17   6 C     -0.120  1.010  3.110  0.000    22.775     6.792
  18   6 C      0.288  1.033  2.679  0.000    22.117     7.700
  19   8 O     -0.495  1.740  4.755  0.000    23.673     6.523
  20   7 N     -0.270  1.184  4.086  0.000    26.991     7.716
  21   1 H      0.216  0.784  0.000  0.000     1.026     1.586
  22   1 H      0.091  0.909  0.000  0.000     1.869     2.138
  23   1 H      0.061  0.939  0.000  0.000     2.182     2.310
  24   1 H      0.066  0.934  0.000  0.000     2.133     2.284
  25   1 H      0.089  0.911  0.000  0.000     1.892     2.151
  26   1 H      0.093  0.907  0.000  0.000     1.846     2.124
  27   1 H      0.218  0.782  0.000  0.000     1.019     1.581
  28   1 H      0.218  0.782  0.000  0.000     1.018     1.581
  29   7 N     -0.178  1.199  3.979  0.000    24.854     7.404
  30   6 C      0.021  1.033  2.946  0.000    20.220     6.403
  31   6 C      0.211  1.084  2.706  0.000    23.536     7.945
  32   8 O     -0.361  1.754  4.606  0.000    20.910     6.131
  33   6 C      0.054  0.998  2.948  0.000    19.857     6.377
  34   8 O     -0.492  1.679  4.813  0.000    22.712     6.433
  35   1 H      0.219  0.781  0.000  0.000     1.014     1.577
  36   1 H      0.097  0.903  0.000  0.000     1.815     2.106
  37   1 H      0.079  0.921  0.000  0.000     1.993     2.208
  38   1 H      0.070  0.930  0.000  0.000     2.089     2.260
  39   1 H      0.359  0.641  0.000  0.000     0.566     1.181
  40   7 N     -0.433  1.293  4.140  0.000    31.309     8.310
  41   6 C      0.032  1.034  2.935  0.000    20.048     6.376
  42   6 C      0.267  1.053  2.680  0.000    22.492     7.766
  43   8 O     -0.533  1.753  4.780  0.000    24.518     6.639
  44   6 C     -0.088  1.008  3.080  0.000    22.167     6.700
  45   6 C     -0.024  1.036  2.988  0.000    20.960     6.512
  46   6 C     -0.149  0.978  3.171  0.000    23.417     6.896
  47   6 C     -0.154  0.977  3.176  0.000    23.501     6.907
  48   1 H      0.192  0.808  0.000  0.000     1.149     1.679
  49   1 H      0.062  0.938  0.000  0.000     2.174     2.305
  50   1 H      0.048  0.952  0.000  0.000     2.345     2.395
  51   1 H      0.036  0.964  0.000  0.000     2.496     2.471
  52   1 H      0.052  0.948  0.000  0.000     2.291     2.367
  53   1 H      0.071  0.929  0.000  0.000     2.070     2.250
  54   1 H      0.031  0.969  0.000  0.000     2.576     2.510
  55   1 H      0.052  0.948  0.000  0.000     2.293     2.368
  56   1 H      0.067  0.933  0.000  0.000     2.116     2.274
  57   1 H      0.058  0.942  0.000  0.000     2.226     2.333
  58   1 H      0.049  0.951  0.000  0.000     2.329     2.386
  59   7 N     -0.186  1.215  3.971  0.000    25.023     7.429
  60   6 C      0.041  1.029  2.931  0.000    19.892     6.350
  61   6 C      0.201  1.087  2.712  0.000    23.718     7.976
  62   8 O     -0.374  1.747  4.627  0.000    21.164     6.168
  63   6 C     -0.117  1.025  3.092  0.000    22.727     6.785
  64   6 C      0.376  1.017  2.607  0.000    20.628     7.433
  65   8 O     -0.622  1.754  4.869  0.000    26.677     6.925
  66   8 O     -0.641  1.773  4.868  0.000    27.139     6.985
  67   1 H      0.229  0.771  0.000  0.000     0.969     1.542
  68   1 H      0.077  0.923  0.000  0.000     2.013     2.218
  69   1 H      0.064  0.936  0.000  0.000     2.156     2.296
  70   1 H      0.053  0.947  0.000  0.000     2.282     2.362
  71   7 N     -0.409  1.282  4.126  0.000    30.617     8.218
  72   6 C      0.008  1.039  2.954  0.000    20.451     6.439
  73   6 C      0.188  1.094  2.718  0.000    23.977     8.019
  74   8 O     -0.381  1.772  4.609  0.000    21.305     6.188
  75   6 C      0.099  1.021  2.880  0.000    19.030     6.225
  76   8 O     -0.511  1.694  4.817  0.000    23.121     6.491
  77   6 C     -0.164  0.979  3.185  0.000    23.705     6.937
  78   1 H      0.190  0.810  0.000  0.000     1.157     1.685
  79   1 H      0.101  0.899  0.000  0.000     1.778     2.085
  80   1 H      0.073  0.927  0.000  0.000     2.049     2.238
  81   1 H      0.333  0.667  0.000  0.000     0.628     1.245
  82   1 H      0.073  0.927  0.000  0.000     2.055     2.241
  83   1 H      0.058  0.942  0.000  0.000     2.217     2.328
  84   1 H      0.065  0.935  0.000  0.000     2.136     2.285
  85   7 N     -0.399  1.285  4.114  0.000    30.347     8.182
  86   6 C      0.025  1.031  2.944  0.000    20.154     6.393
  87   6 C      0.283  1.035  2.682  0.000    22.212     7.718
  88   8 O     -0.482  1.742  4.741  0.000    23.391     6.484
  89   6 C     -0.126  1.018  3.108  0.000    22.904     6.811
  90   6 C      0.271  1.041  2.688  0.000    22.427     7.754
  91   8 O     -0.523  1.763  4.760  0.000    24.300     6.609
  92   7 N     -0.280  1.193  4.086  0.000    27.228     7.750
  93   1 H      0.193  0.807  0.000  0.000     1.143     1.675
  94   1 H      0.061  0.939  0.000  0.000     2.187     2.313
  95   1 H      0.082  0.918  0.000  0.000     1.959     2.188
  96   1 H      0.097  0.903  0.000  0.000     1.813     2.105
  97   1 H      0.221  0.779  0.000  0.000     1.002     1.568
  98   1 H      0.238  0.762  0.000  0.000     0.931     1.511
  99   7 N     -0.186  1.203  3.983  0.000    25.036     7.431
 100   6 C     -0.000  1.049  2.951  0.000    20.583     6.459
 101   6 C      0.270  1.047  2.683  0.000    22.432     7.755
 102   8 O     -0.489  1.743  4.746  0.000    23.542     6.505
 103   6 C     -0.028  1.043  2.985  0.000    21.045     6.525
 104   6 C     -0.156  0.980  3.175  0.000    23.549     6.915
 105   6 C     -0.150  0.976  3.174  0.000    23.430     6.898
 106   1 H      0.192  0.808  0.000  0.000     1.147     1.677
 107   1 H      0.109  0.891  0.000  0.000     1.704     2.041
 108   1 H      0.074  0.926  0.000  0.000     2.043     2.235
 109   1 H      0.073  0.927  0.000  0.000     2.055     2.242
 110   1 H      0.063  0.937  0.000  0.000     2.166     2.301
 111   1 H      0.059  0.941  0.000  0.000     2.210     2.325
 112   1 H      0.071  0.929  0.000  0.000     2.068     2.249
 113   1 H      0.055  0.945  0.000  0.000     2.262     2.352
 114   1 H      0.038  0.962  0.000  0.000     2.480     2.462
 115   7 N     -0.193  1.208  3.985  0.000    25.181     7.453
 116   6 C      0.024  1.030  2.946  0.000    20.176     6.395
 117   6 C      0.267  1.044  2.689  0.000    22.491     7.766
 118   8 O     -0.472  1.744  4.728  0.000    23.169     6.453
 119   6 C     -0.075  1.003  3.072  0.000    21.917     6.662
 120   6 C     -0.109  1.007  3.102  0.000    22.572     6.762
 121   6 C      0.287  1.037  2.676  0.000    22.134     7.703
 122   8 O     -0.511  1.735  4.776  0.000    24.033     6.573
 123   7 N     -0.280  1.195  4.085  0.000    27.232     7.750
 124   1 H      0.230  0.770  0.000  0.000     0.963     1.537
 125   1 H      0.071  0.929  0.000  0.000     2.078     2.254
 126   1 H      0.077  0.923  0.000  0.000     2.013     2.219
 127   1 H      0.052  0.948  0.000  0.000     2.293     2.368
 128   1 H      0.056  0.944  0.000  0.000     2.251     2.346
 129   1 H      0.087  0.913  0.000  0.000     1.903     2.157
 130   1 H      0.220  0.780  0.000  0.000     1.007     1.572
 131   1 H      0.228  0.772  0.000  0.000     0.973     1.545
 132   7 N     -0.183  1.205  3.977  0.000    24.956     7.420
 133   6 C      0.005  1.042  2.953  0.000    20.501     6.447
 134   6 C      0.272  1.042  2.686  0.000    22.396     7.750
 135   8 O     -0.521  1.762  4.759  0.000    24.263     6.604
 136   6 C     -0.082  1.001  3.081  0.000    22.046     6.682
 137   6 C     -0.119  1.006  3.113  0.000    22.757     6.789
 138   6 C      0.277  1.041  2.682  0.000    22.306     7.733
 139   8 O     -0.513  1.758  4.755  0.000    24.073     6.578
 140   7 N     -0.298  1.196  4.101  0.000    27.672     7.813
 141   1 H      0.200  0.800  0.000  0.000     1.104     1.646
 142   1 H      0.105  0.895  0.000  0.000     1.737     2.061
 143   1 H      0.056  0.944  0.000  0.000     2.245     2.343
 144   1 H      0.090  0.910  0.000  0.000     1.876     2.142
 145   1 H      0.108  0.892  0.000  0.000     1.710     2.045
 146   1 H      0.075  0.925  0.000  0.000     2.031     2.228
 147   1 H      0.233  0.767  0.000  0.000     0.951     1.527
 148   1 H      0.245  0.755  0.000  0.000     0.904     1.490
 149   7 N     -0.169  1.211  3.958  0.000    24.667     7.376
 150   6 C      0.012  1.040  2.948  0.000    20.380     6.428
 151   6 C      0.266  1.050  2.684  0.000    22.507     7.769
 152   8 O     -0.509  1.762  4.746  0.000    23.977     6.565
 153   6 C     -0.106  1.010  3.096  0.000    22.497     6.750
 154   6 C     -0.100  1.001  3.099  0.000    22.401     6.736
 155   6 C     -0.124  1.009  3.115  0.000    22.857     6.804
 156   6 C     -0.074  1.016  3.058  0.000    21.978     6.687
 157   7 N     -0.137  1.144  3.994  0.000    23.966     7.271
 158   1 H      0.243  0.757  0.000  0.000     0.909     1.494
 159   1 H      0.076  0.924  0.000  0.000     2.015     2.220
 160   1 H      0.094  0.906  0.000  0.000     1.843     2.123
 161   1 H      0.083  0.917  0.000  0.000     1.948     2.182
 162   1 H      0.065  0.935  0.000  0.000     2.142     2.289
 163   1 H      0.077  0.923  0.000  0.000     2.010     2.217
 164   1 H      0.100  0.900  0.000  0.000     1.788     2.091
 165   1 H      0.100  0.900  0.000  0.000     1.780     2.086
 166   1 H      0.125  0.875  0.000  0.000     1.575     1.962
 167   1 H      0.131  0.869  0.000  0.000     1.527     1.932
 168   1 H      0.290  0.710  0.000  0.000     0.743     1.350
 169   1 H      0.300  0.700  0.000  0.000     0.713     1.323
 170   1 H      0.296  0.704  0.000  0.000     0.726     1.335
 171   7 N     -0.174  1.207  3.967  0.000    24.768     7.391
 172   6 C      0.019  1.040  2.940  0.000    20.256     6.409
 173   6 C      0.195  1.087  2.719  0.000    23.848     7.998
 174   8 O     -0.340  1.744  4.596  0.000    20.512     6.072
 175   6 C     -0.108  1.018  3.090  0.000    22.539     6.757
 176   6 C     -0.007  1.087  2.921  0.000    28.200     8.710
 177   6 C     -0.054  1.065  2.990  0.000    29.347     8.884
 178   6 C     -0.062  1.058  3.004  0.000    29.539     8.913
 179   6 C     -0.068  1.053  3.015  0.000    29.696     8.936
 180   6 C     -0.089  1.053  3.036  0.000    30.242     9.018
 181   6 C      0.140  1.051  2.809  0.000    24.944     8.185
 182   8 O     -0.453  1.686  4.767  0.000    21.905     6.318
 183   1 H      0.231  0.769  0.000  0.000     0.960     1.535
 184   1 H      0.099  0.901  0.000  0.000     1.796     2.096
 185   1 H      0.096  0.904  0.000  0.000     1.817     2.108
 186   1 H      0.096  0.904  0.000  0.000     1.818     2.108
 187   1 H      0.067  0.933  0.000  0.000     2.122     2.278
 188   1 H      0.071  0.929  0.000  0.000     2.076     2.253
 189   1 H      0.049  0.951  0.000  0.000     2.335     2.390
 190   1 H      0.059  0.941  0.000  0.000     2.213     2.326
 191   1 H      0.338  0.662  0.000  0.000     0.615     1.232
 192   7 N     -0.407  1.275  4.132  0.000    30.576     8.212
 193   6 C      0.041  1.029  2.930  0.000    19.888     6.351
 194   6 C      0.272  1.046  2.682  0.000    22.406     7.751
 195   8 O     -0.528  1.762  4.766  0.000    24.415     6.625
 196   6 C     -0.115  1.018  3.097  0.000    22.693     6.780
 197   6 C      0.369  1.025  2.606  0.000    20.742     7.453
 198   8 O     -0.638  1.774  4.865  0.000    27.084     6.977
 199   8 O     -0.684  1.783  4.901  0.000    28.289     7.131
 200   1 H      0.169  0.831  0.000  0.000     1.281     1.773
 201   1 H      0.059  0.941  0.000  0.000     2.209     2.324
 202   1 H      0.040  0.960  0.000  0.000     2.450     2.448
 203   1 H      0.043  0.957  0.000  0.000     2.411     2.428
 204   7 N     -0.204  1.219  3.985  0.000    25.425     7.489
 205   6 C      0.020  1.045  2.935  0.000    20.251     6.410
 206   6 C      0.214  1.078  2.708  0.000    23.473     7.934
 207   8 O     -0.346  1.736  4.610  0.000    20.636     6.091
 208   6 C     -0.127  1.023  3.104  0.000    22.920     6.814
 209   6 C      0.290  1.034  2.677  0.000    22.087     7.695
 210   8 O     -0.477  1.746  4.731  0.000    23.275     6.468
 211   7 N     -0.292  1.194  4.098  0.000    27.522     7.791
 212   1 H      0.237  0.763  0.000  0.000     0.934     1.514
 213   1 H      0.122  0.878  0.000  0.000     1.600     1.978
 214   1 H      0.090  0.910  0.000  0.000     1.879     2.143
 215   1 H      0.121  0.879  0.000  0.000     1.602     1.979
 216   1 H      0.239  0.761  0.000  0.000     0.925     1.506
 217   1 H      0.231  0.769  0.000  0.000     0.960     1.535
 218   7 N     -0.415  1.281  4.134  0.000    30.790     8.241
 219   6 C     -0.026  0.995  3.032  0.000    21.109     6.553
 220   6 C      0.256  1.048  2.695  0.000    22.690     7.800
 221   8 O     -0.501  1.741  4.760  0.000    23.806     6.542
 222   1 H      0.201  0.799  0.000  0.000     1.101     1.644
 223   1 H      0.083  0.917  0.000  0.000     1.948     2.182
 224   1 H      0.061  0.939  0.000  0.000     2.181     2.309
 225   7 N     -0.206  1.215  3.991  0.000    25.475     7.496
 226   6 C      0.015  1.041  2.944  0.000    20.329     6.420
 227   6 C      0.275  1.044  2.681  0.000    22.354     7.742
 228   8 O     -0.474  1.739  4.735  0.000    23.224     6.461
 229   6 C     -0.150  0.979  3.171  0.000    23.436     6.899
 230   1 H      0.214  0.786  0.000  0.000     1.036     1.594
 231   1 H      0.121  0.879  0.000  0.000     1.606     1.982
 232   1 H      0.078  0.922  0.000  0.000     1.998     2.210
 233   1 H      0.091  0.909  0.000  0.000     1.868     2.137
 234   1 H      0.061  0.939  0.000  0.000     2.192     2.315
 235   7 N     -0.195  1.205  3.990  0.000    25.236     7.461
 236   6 C      0.026  1.031  2.943  0.000    20.133     6.388
 237   6 C      0.273  1.043  2.684  0.000    22.384     7.748
 238   8 O     -0.477  1.721  4.756  0.000    23.270     6.468
 239   6 C     -0.103  1.013  3.090  0.000    22.454     6.744
 240   6 C      0.364  1.025  2.611  0.000    20.831     7.469
 241   8 O     -0.642  1.784  4.858  0.000    27.176     6.989
 242   8 O     -0.638  1.755  4.882  0.000    27.068     6.975
 243   1 H      0.191  0.809  0.000  0.000     1.155     1.684
 244   1 H      0.090  0.910  0.000  0.000     1.881     2.145
 245   1 H      0.047  0.953  0.000  0.000     2.363     2.403
 246   1 H      0.038  0.962  0.000  0.000     2.481     2.463
 247   7 N     -0.168  1.196  3.972  0.000    24.626     7.370
 248   6 C     -0.049  1.007  3.042  0.000    21.496     6.609
 249   6 C      0.204  1.075  2.721  0.000    23.664     7.966
 250   8 O     -0.355  1.748  4.607  0.000    20.798     6.114
 251   1 H      0.204  0.796  0.000  0.000     1.086     1.632
 252   1 H      0.142  0.858  0.000  0.000     1.446     1.880
 253   1 H      0.143  0.857  0.000  0.000     1.437     1.874
 254   7 N     -0.393  1.268  4.125  0.000    30.172     8.158
 255   6 C      0.022  1.031  2.947  0.000    20.209     6.401
 256   6 C      0.186  1.090  2.724  0.000    24.006     8.025
 257   8 O     -0.352  1.755  4.597  0.000    20.743     6.106
 258   6 C      0.116  1.021  2.864  0.000    18.759     6.180
 259   8 O     -0.502  1.688  4.813  0.000    22.929     6.464
 260   6 C     -0.168  0.982  3.186  0.000    23.802     6.953
 261   1 H      0.173  0.827  0.000  0.000     1.255     1.755
 262   1 H      0.062  0.938  0.000  0.000     2.171     2.304
 263   1 H      0.052  0.948  0.000  0.000     2.299     2.371
 264   1 H      0.304  0.696  0.000  0.000     0.708     1.321
 265   1 H      0.082  0.918  0.000  0.000     1.958     2.188
 266   1 H      0.077  0.923  0.000  0.000     2.011     2.218
 267   1 H      0.074  0.926  0.000  0.000     2.045     2.236
 268   7 N     -0.417  1.280  4.137  0.000    30.851     8.249
 269   6 C      0.030  1.026  2.944  0.000    20.080     6.381
 270   6 C      0.263  1.051  2.686  0.000    22.574     7.780
 271   8 O     -0.500  1.754  4.746  0.000    23.775     6.537
 272   6 C     -0.150  0.978  3.172  0.000    23.426     6.896
 273   1 H      0.190  0.810  0.000  0.000     1.159     1.686
 274   1 H      0.046  0.954  0.000  0.000     2.369     2.407
 275   1 H      0.052  0.948  0.000  0.000     2.289     2.366
 276   1 H      0.071  0.929  0.000  0.000     2.078     2.254
 277   1 H      0.064  0.936  0.000  0.000     2.154     2.295
 278   7 N     -0.189  1.211  3.979  0.000    25.104     7.441
 279   6 C      0.010  1.045  2.946  0.000    20.422     6.435
 280   6 C      0.272  1.044  2.684  0.000    22.399     7.750
 281   8 O     -0.501  1.753  4.748  0.000    23.801     6.541
 282   6 C     -0.163  0.983  3.180  0.000    23.697     6.938
 283   1 H      0.217  0.783  0.000  0.000     1.024     1.585
 284   1 H      0.086  0.914  0.000  0.000     1.918     2.166
 285   1 H      0.075  0.925  0.000  0.000     2.035     2.231
 286   1 H      0.086  0.914  0.000  0.000     1.920     2.167
 287   1 H      0.070  0.930  0.000  0.000     2.082     2.256
 288   7 N     -0.188  1.212  3.976  0.000    25.068     7.436
 289   6 C      0.003  1.035  2.962  0.000    20.521     6.449
 290   6 C      0.259  1.043  2.698  0.000    22.643     7.792
 291   8 O     -0.474  1.743  4.730  0.000    23.208     6.459
 292   6 C     -0.169  0.981  3.188  0.000    23.818     6.954
 293   1 H      0.219  0.781  0.000  0.000     1.016     1.579
 294   1 H      0.102  0.898  0.000  0.000     1.768     2.079
 295   1 H      0.097  0.903  0.000  0.000     1.815     2.107
 296   1 H      0.085  0.915  0.000  0.000     1.932     2.173
 297   1 H      0.084  0.916  0.000  0.000     1.938     2.177
 298   7 N     -0.156  1.195  3.961  0.000    24.368     7.332
 299   6 C     -0.001  1.046  2.955  0.000    20.602     6.463
 300   6 C      0.193  1.089  2.718  0.000    23.868     8.001
 301   8 O     -0.372  1.764  4.608  0.000    21.136     6.164
 302   6 C      0.102  1.028  2.870  0.000    18.989     6.220
 303   8 O     -0.504  1.687  4.817  0.000    22.977     6.471
 304   6 C     -0.182  0.986  3.196  0.000    24.095     6.996
 305   1 H      0.225  0.775  0.000  0.000     0.987     1.556
 306   1 H      0.128  0.872  0.000  0.000     1.548     1.945
 307   1 H      0.062  0.938  0.000  0.000     2.178     2.308
 308   1 H      0.351  0.649  0.000  0.000     0.586     1.202
 309   1 H      0.089  0.911  0.000  0.000     1.892     2.151
 310   1 H      0.084  0.916  0.000  0.000     1.938     2.177
 311   1 H      0.087  0.913  0.000  0.000     1.910     2.161
 312   1 H      0.193  0.807  0.000  0.000     1.140     1.672
 313   1 H      0.099  0.901  0.000  0.000     1.793     2.094
 314   1 H      0.183  0.817  0.000  0.000     1.199     1.715
 315   1 H      0.077  0.923  0.000  0.000     2.010     2.217
 316   1 H      0.193  0.807  0.000  0.000     1.142     1.674
 317   1 H      0.083  0.917  0.000  0.000     1.944     2.180
 318   1 H      0.185  0.815  0.000  0.000     1.185     1.705
 319   1 H      0.087  0.913  0.000  0.000     1.903     2.157
 320   1 H      0.179  0.821  0.000  0.000     1.221     1.731
 321   1 H      0.064  0.936  0.000  0.000     2.151     2.293
 322   1 H      0.179  0.821  0.000  0.000     1.219     1.729
 323   1 H      0.069  0.931  0.000  0.000     2.095     2.264
 324   1 H      0.172  0.828  0.000  0.000     1.261     1.759
 325   1 H      0.081  0.919  0.000  0.000     1.965     2.192
 326   1 H      0.184  0.816  0.000  0.000     1.189     1.708
 327   1 H      0.084  0.916  0.000  0.000     1.934     2.175

 Mol. C6AA /au·bohr⁶  :    1001024.501106
 Mol. C8AA /au·bohr⁸  :   22175053.566445
 Mol. α(0) /au        :       1489.746169

 
molecular dipole:
                 x           y           z       tot (Debye)
 q only:     -645.871    -294.169    -349.405
   full:     -645.815    -292.161    -347.645    2006.722
molecular quadrupole (traceless):
                xx          xy          yy          xz          yz          zz
 q only:  -156868.074 -142422.457   92452.540 -169124.192  -77038.868   64415.534
  q+dip:  -157455.872 -141418.155   92684.112 -168264.648  -76185.564   64771.760
   full:  -157453.993 -141416.353   92684.485 -168264.588  -76185.574   64769.507
speedup  1.00
cpu  time for grad    5.48 s
wall time for grad    5.48 s

SCC energy    :    -543.1319470
rep           :      10.6828397
ES            :       2.2553643
AES           :      -0.0581635
AXC           :       0.0559307
disp          :      -0.3937693
XB            :       0.0000000
fix           :       0.0000000
Gborn         :       0.0000000
Gsasa         :       0.0000000
Ghb           :       0.0000000
Gshift        :       0.0000000
Gsolv         :      -0.6416643     -402.65
Etot ala COSMO:    -543.1319470
grad norm     :       2.3869392
total E       :    -532.4182984
atomizationE  :      90.0857304    56529.65
(atE without considering molecular charge,
 total energy contains solvation terms)
H-L gap (eV)  :          1.5423

------------------------------------------------------------------------
 * finished run on 2019/03/07 at 11:37:51.748     
------------------------------------------------------------------------
 total:
 * wall-time:     0 d,  0 h,  0 min,  6.082 sec
 *  cpu-time:     0 d,  0 h,  0 min,  5.904 sec
 * ratio c/w:     0.971 speedup
 SCF:
 * wall-time:     0 d,  0 h,  0 min,  5.786 sec
 *  cpu-time:     0 d,  0 h,  0 min,  5.784 sec
 * ratio c/w:     1.000 speedup

