      -----------------------------------------------------------      
     |                   =====================                   |     
     |                           x T B                           |     
     |                   =====================                   |     
     |                         S. Grimme                         |     
     |          Mulliken Center for Theoretical Chemistry        |     
     |                    University of Bonn                     |     
     |                 Version 6.0.1 (SAW181210)                 |     
      -----------------------------------------------------------      

   This program is distributed in the hope that it will be useful,
   but WITHOUT ANY WARRANTY; without even the implied warranty of
   MERCHANTABILITY or FITNESS FOR A PARTICULAR PURPOSE.
   
   FOR NON-COMMERCIAL, ACADEMIA USE ONLY.
   
   Cite this work as:
   S. Grimme, C. Bannwarth, P. Shushkov, J. Comput. Theory Chem., 2017,
   13, 1989-2009.
   C. Bannwarth, S. Ehlert and S. Grimme., ChemRxiv, 2018, preprint.
   http://doi.org/10.26434/chemrxiv.7246238.v1
   
   for sTDA-xTB:
   S. Grimme and C. Bannwarth, J. Chem. Phys., 2016, 145, 054103.
   
   in the mass-spec context:
   V. Asgeirsson, C. Bauer and S. Grimme, Chem. Sci., 2017, 8, 4879.
   
   if GBSA is used:
   P. Shushkov, F. März and S. Grimme, unpublished.
   
   for ANC optimizer:
   S. Grimme, unpublished.
   Rational Function algorithm used in ANCopt:
   F. Eckert, P. Pulay, H.-J. Werner, J. Comput. Chem., 1997, 18, 1473.
   
   with help from (in alphabetical order)
   C. Bannwarth, F. Bohle, G. Brandenburg, E. Caldeweyher, M. Checinski,
   S. Dohm, S. Ehlert, S. Ehrlich, F. März, H. Neugebauer, J. Pisarek,
   P. Pracht, P. Shushkov, and S. Spicher.
   
 * started run on 2019/02/13 at 00:18:26.258     
========================================================================
 # omp threads = 16
========================================================================
number of atoms            : 328
number of electrons        : 906
charge                     : -1
spin                       : .0
first test random number   : .9854

########################################################################
# WARNING! Please study the warnings concerning your input carefully
#  - Process number higher than OMP_NUM_THREADS, I hope you know what you are doing.
########################################################################

           ------------------------------------------------- 
          |                 G F N 2 - x T B                 |
          | Geometry, Frequencies, Noncovalent interactions |
          |            JCTC 2018 parametrisation            |
           ------------------------------------------------- 
 
      method parameters     
 k(s)        :  1.8500
 k(p)        :  2.2300
 k(d)        :  2.2300
 k(f)        :  2.0000
 kEN (H0ij)  : -2.0000
 D4 a1       :  0.5200
 D4 a2       :  5.0000
 D4 s6       :  1.0000
 D4 s8       :  2.7000
 D4 s9       :  5.0000
 alphaj      :  2.0000

 Solvent             : h2o
 Using internal parameter file: .param_gbsa2_h2o
 Gsolv ref. state (COSMO-RS): gsolv [1 M gas/solution]
 temperature (mdtemp)       :    298.150000000000     
 dielectric constant        :    80.2000000000000     
 rho                        :    1.00000000000000     
 mass                       :    18.0000000000000     
 surface tension            :    15.5689454083859     
 probe radius               :   0.975313790000000     
 vdW radii scaling          :    1.00000000000000     
 Gshift (Eh)                :   1.857443126794793E-003
 c1                         :    1.55243817000000     
 soset                      :   0.130326360000000     
 HB correction              :  T

            Z     q(EN)     CN     RAES       Cart. coordinates
     1  N   5.0   -0.21    3.24    1.97   309.91948   140.32409   175.20234
     2  C   4.0    0.03    4.32    4.24   308.89006   138.06448   176.34179
     3  C   4.0    0.15    3.44    3.09   309.81750   137.80253   179.06496
     4  O   6.0   -0.32    1.29    1.80   308.37002   137.13587   180.75277
     5  C   4.0   -0.04    4.36    4.31   309.58493   135.71304   174.82819
     6  C   4.0   -0.02    4.18    3.95   308.42212   135.60922   172.17211
     7  C   4.0   -0.07    4.11    3.82   309.37429   133.23415   170.83683
     8  C   4.0   -0.08    4.11    3.82   305.54086   135.54128   172.30459
     9  H   1.0    0.08    1.03    1.43   311.02558   140.15445   173.65262
    10  H   1.0    0.04    1.05    1.44   306.82913   138.26735   176.46890
    11  H   1.0    0.05    1.03    1.43   311.64613   135.63903   174.70753
    12  H   1.0    0.06    1.04    1.43   308.92421   134.06162   175.87546
    13  H   1.0    0.04    1.05    1.44   309.02835   137.27235   171.09542
    14  H   1.0    0.04    1.00    1.43   308.64768   133.16691   168.91829
    15  H   1.0    0.05    1.00    1.43   311.42832   133.21914   170.74604
    16  H   1.0    0.06    1.00    1.43   308.73011   131.58199   171.87486
    17  H   1.0    0.04    1.00    1.43   304.74659   135.20205   170.44190
    18  H   1.0    0.05    1.00    1.43   304.96354   134.02046   173.55967
    19  H   1.0    0.04    1.00    1.43   304.78543   137.32227   172.99879
    20  N   5.0   -0.14    3.48    2.06   312.24300   138.33983   179.46856
    21  C   4.0    0.04    4.34    4.26   313.29987   138.19441   181.98662
    22  C   4.0    0.09    3.27    3.05   311.74984   139.82129   183.78513
    23  O   6.0   -0.29    1.12    1.80   311.17800   139.09299   185.91290
    24  C   4.0   -0.03    4.26    4.12   316.02882   139.10115   182.00283
    25  C   4.0    0.25    3.09    3.02   317.84515   137.40339   180.38756
    26  O   6.0   -0.31    1.26    1.80   317.38158   135.09008   180.31409
    27  O   6.0   -0.28    1.16    1.80   319.63212   138.51386   179.35979
    28  H   1.0    0.09    1.07    1.44   313.46946   138.61055   178.01989
    29  H   1.0    0.06    1.05    1.44   313.21462   136.23780   182.68467
    30  H   1.0    0.05    1.03    1.43   316.14415   141.02347   181.27215
    31  H   1.0    0.05    1.03    1.43   316.75588   139.07261   183.93511
    32  N   5.0   -0.20    3.21    1.96   305.36616   137.20252   185.32730
    33  C   4.0    0.04    4.25    4.10   305.85160   135.18642   187.09990
    34  C   4.0    0.08    3.24    3.04   306.29322   136.20188   189.75031
    35  O   6.0   -0.29    1.12    1.80   305.26637   135.19087   191.58735
    36  C   4.0   -0.03    4.30    4.19   308.15493   133.63794   186.29243
    37  C   4.0   -0.03    4.24    4.08   308.62430   131.43414   188.10268
    38  C   4.0    0.16    3.24    3.04   306.45228   129.56019   188.01848
    39  O   6.0   -0.32    1.29    1.80   305.25336   129.20060   186.06100
    40  N   5.0   -0.18    3.18    1.95   305.97181   128.28830   190.13561
    41  H   1.0    0.12    1.06    1.44   306.54575   137.36448   183.82898
    42  H   1.0    0.06    1.05    1.44   304.18220   133.95252   187.19612
    43  H   1.0    0.06    1.03    1.43   307.80160   132.91694   184.39233
    44  H   1.0    0.06    1.03    1.43   309.80417   134.87205   186.21466
    45  H   1.0    0.06    1.03    1.43   310.32997   130.42880   187.51336
    46  H   1.0    0.05    1.03    1.43   308.92796   132.09884   190.02670
    47  H   1.0    0.09    1.03    1.43   306.84101   128.71967   191.77455
    48  H   1.0    0.12    1.05    1.44   304.60681   126.92701   190.14632
    49  N   5.0   -0.21    3.27    1.97   300.78400   116.56362   195.36531
    50  C   4.0    0.03    4.35    4.29   302.66135   116.11259   193.43935
    51  C   4.0    0.15    3.39    3.08   301.92723   117.32980   190.91601
    52  O   6.0   -0.30    1.23    1.80   302.92201   116.71709   188.92101
    53  C   4.0    0.05    4.21    4.03   303.26260   113.24635   193.10237
    54  O   6.0   -0.25    2.11    1.84   301.17032   111.74090   193.76239
    55  C   4.0   -0.08    4.06    3.73   305.61055   112.49671   194.59445
    56  H   1.0    0.09    1.03    1.43   299.21855   115.46492   195.35742
    57  H   1.0    0.04    1.06    1.44   304.38575   117.07166   194.08074
    58  H   1.0    0.06    1.05    1.44   303.57462   112.92279   191.07588
    59  H   1.0    0.11    1.02    1.43   301.15824   111.57273   195.60935
    60  H   1.0    0.04    1.00    1.43   306.01333   110.50372   194.30142
    61  H   1.0    0.04    1.00    1.43   307.25156   113.59286   194.03395
    62  H   1.0    0.04    1.00    1.43   305.26007   112.78773   196.60033
    63  N   5.0   -0.13    3.50    2.08   300.17148   119.13175   191.08574
    64  C   4.0    0.03    4.41    4.40   299.36343   120.65299   188.94430
    65  C   4.0    0.15    3.44    3.09   301.53558   122.41118   188.16161
    66  O   6.0   -0.31    1.26    1.80   302.46740   123.92995   189.64187
    67  C   4.0   -0.05    4.36    4.31   297.03266   122.16014   189.74379
    68  C   4.0   -0.02    4.19    3.98   296.10946   124.07212   187.77752
    69  C   4.0   -0.08    4.11    3.82   295.34820   122.80772   185.30259
    70  C   4.0   -0.08    4.11    3.82   293.86406   125.52532   188.86256
    71  H   1.0    0.08    1.09    1.44   299.48750   119.63289   192.80336
    72  H   1.0    0.05    1.06    1.44   298.95597   119.37279   187.37688
    73  H   1.0    0.04    1.03    1.43   295.52540   120.82700   190.19827
    74  H   1.0    0.05    1.03    1.43   297.51415   123.15819   191.48556
    75  H   1.0    0.05    1.05    1.44   297.65633   125.39506   187.39861
    76  H   1.0    0.04    1.00    1.43   294.59807   124.22333   184.01862
    77  H   1.0    0.05    1.00    1.43   296.96446   121.91301   184.41050
    78  H   1.0    0.04    1.00    1.43   293.89664   121.39838   185.65919
    79  H   1.0    0.04    1.00    1.43   293.26936   127.00088   187.56536
    80  H   1.0    0.04    1.00    1.43   292.28242   124.25057   189.17081
    81  H   1.0    0.04    1.00    1.43   294.36040   126.38197   190.66099
    82  N   5.0   -0.14    3.46    2.05   302.26657   122.19207   185.74748
    83  C   4.0    0.04    4.45    4.46   304.43672   123.53487   184.78782
    84  C   4.0    0.16    3.45    3.09   304.12267   124.17282   181.98894
    85  O   6.0   -0.32    1.27    1.80   303.36235   122.60374   180.46471
    86  C   4.0   -0.02    4.32    4.24   306.83991   121.90889   185.09117
    87  C   4.0    0.15    3.26    3.05   309.10064   123.48125   184.32652
    88  O   6.0   -0.30    1.27    1.80   309.78416   123.62422   182.11518
    89  N   5.0   -0.19    3.20    1.95   310.20432   124.76383   186.19394
    90  H   1.0    0.11    1.11    1.45   301.65593   120.70205   184.69534
    91  H   1.0    0.07    1.08    1.44   304.62681   125.28109   185.87324
    92  H   1.0    0.05    1.03    1.43   306.97820   121.30253   187.05109
    93  H   1.0    0.07    1.03    1.43   306.71080   120.25146   183.86810
    94  H   1.0    0.12    1.06    1.44   311.66257   125.97314   185.84599
    95  H   1.0    0.09    1.03    1.43   309.56717   124.63033   187.97822
    96  N   5.0   -0.14    3.50    2.08   304.82911   126.51882   181.35994
    97  C   4.0    0.03    4.49    4.53   304.48042   127.48978   178.83058
    98  C   4.0    0.15    3.40    3.08   306.91482   128.54146   177.67206
    99  O   6.0   -0.32    1.25    1.80   306.87614   130.21316   176.07427
   100  C   4.0   -0.02    4.27    4.14   302.32545   129.44649   178.69117
   101  C   4.0   -0.07    4.11    3.82   299.82057   128.23984   179.45588
   102  C   4.0   -0.07    4.11    3.83   302.88545   131.77236   180.30657
   103  H   1.0    0.10    1.10    1.44   305.19825   127.78094   182.75527
   104  H   1.0    0.06    1.07    1.44   303.93789   125.85927   177.66387
   105  H   1.0    0.05    1.06    1.44   302.21621   130.02527   176.70842
   106  H   1.0    0.04    1.00    1.43   298.26840   129.47779   178.93877
   107  H   1.0    0.05    1.00    1.43   299.56303   126.44717   178.48642
   108  H   1.0    0.05    1.00    1.43   299.77539   127.90721   181.48299
   109  H   1.0    0.04    1.00    1.43   301.34022   133.11249   180.13694
   110  H   1.0    0.06    1.00    1.43   303.08905   131.26389   182.28590
   111  H   1.0    0.06    1.00    1.43   304.60665   132.69804   179.67210
   112  N   5.0   -0.13    3.52    2.09   309.06369   127.50973   178.51270
   113  C   4.0    0.04    4.43    4.42   311.51496   128.30101   177.60855
   114  C   4.0    0.15    3.39    3.08   312.46014   126.52551   175.52057
   115  O   6.0   -0.30    1.25    1.80   311.44506   124.49942   175.07951
   116  C   4.0   -0.03    4.29    4.18   313.39488   128.32703   179.80803
   117  C   4.0   -0.03    4.24    4.08   312.72961   130.40970   181.69994
   118  C   4.0    0.15    3.23    3.04   314.38405   130.18847   184.02286
   119  O   6.0   -0.31    1.25    1.80   314.05194   128.52053   185.60946
   120  N   5.0   -0.18    3.20    1.96   316.16946   131.94312   184.25354
   121  H   1.0    0.12    1.11    1.45   309.05991   126.02681   179.73481
   122  H   1.0    0.05    1.06    1.44   311.31010   130.20391   176.81079
   123  H   1.0    0.07    1.03    1.43   313.31338   126.49271   180.74669
   124  H   1.0    0.06    1.03    1.43   315.31702   128.61102   179.11481
   125  H   1.0    0.05    1.03    1.43   312.99458   132.25588   180.82865
   126  H   1.0    0.05    1.03    1.43   310.75840   130.19395   182.27207
   127  H   1.0    0.12    1.09    1.44   316.57631   133.17180   182.80709
   128  H   1.0    0.11    1.03    1.43   317.41372   131.82015   185.69164
   129  N   5.0   -0.14    3.50    2.08   314.41470   127.44303   174.19676
   130  C   4.0    0.03    4.40    4.39   315.89754   125.92918   172.46721
   131  C   4.0    0.16    3.44    3.09   318.67331   126.24911   173.22469
   132  O   6.0   -0.28    1.25    1.80   319.44317   128.28787   174.03260
   133  C   4.0   -0.03    4.29    4.17   315.58841   126.85193   169.73218
   134  C   4.0   -0.03    4.23    4.05   312.85198   126.74887   168.82885
   135  C   4.0    0.15    3.22    3.04   312.45442   128.41079   166.52099
   136  O   6.0   -0.29    1.22    1.80   313.98915   129.99214   165.82142
   137  N   5.0   -0.19    3.18    1.95   310.27135   128.00718   165.29997
   138  H   1.0    0.09    1.08    1.44   315.26003   129.06409   174.75490
   139  H   1.0    0.06    1.06    1.44   315.25301   123.97728   172.67107
   140  H   1.0    0.07    1.03    1.43   316.24064   128.80591   169.62433
   141  H   1.0    0.05    1.02    1.43   316.80041   125.74180   168.48973
   142  H   1.0    0.04    1.03    1.43   312.29355   124.81357   168.40794
   143  H   1.0    0.05    1.03    1.43   311.61187   127.46623   170.31798
   144  H   1.0    0.08    1.03    1.43   308.96225   126.82111   166.00077
   145  H   1.0    0.09    1.03    1.43   309.81349   129.12303   163.82520
   146  N   5.0   -0.13    3.46    2.05   320.15016   124.24904   172.86811
   147  C   4.0    0.05    4.33    4.26   322.78882   124.24196   173.60757
   148  C   4.0    0.09    3.21    3.04   324.36334   125.88341   171.82504
   149  O   6.0   -0.28    1.12    1.80   324.15856   125.75586   169.52041
   150  C   4.0   -0.05    4.27    4.13   323.79202   121.53253   173.58699
   151  C   4.0   -0.05    4.21    4.03   322.58177   120.01361   175.72487
   152  C   4.0   -0.06    4.16    3.92   322.76849   117.15977   175.33315
   153  C   4.0   -0.03    4.15    3.90   321.32174   115.86866   177.46072
   154  N   5.0   -0.12    4.02    2.93   321.26861   113.07405   177.19475
   155  H   1.0    0.07    1.07    1.44   319.45262   122.67685   172.04381
   156  H   1.0    0.07    1.06    1.44   322.89452   125.04196   175.51227
   157  H   1.0    0.05    1.03    1.43   323.36057   120.71240   171.74299
   158  H   1.0    0.04    1.03    1.43   325.84319   121.58684   173.78212
   159  H   1.0    0.05    1.03    1.43   323.46782   120.53016   177.51369
   160  H   1.0    0.06    1.04    1.43   320.59909   120.56216   175.87932
   161  H   1.0    0.04    1.03    1.43   321.94773   116.68037   173.50454
   162  H   1.0    0.04    1.02    1.43   324.75064   116.60693   175.34049
   163  H   1.0    0.04    1.02    1.43   322.16681   116.38334   179.26954
   164  H   1.0    0.05    1.03    1.43   319.37457   116.54353   177.46537
   165  H   1.0    0.09    1.07    1.44   319.90897   112.41771   178.46082
   166  H   1.0    0.05    1.02    1.43   320.74370   112.58613   175.38717
   167  H   1.0    0.05    1.02    1.43   323.00785   112.30597   177.58214
   168  N   5.0   -0.20    3.25    1.97   320.19917   121.42974   184.58913
   169  C   4.0    0.03    4.24    4.08   318.55436   121.94496   182.47076
   170  C   4.0    0.15    3.37    3.07   319.52856   124.12834   180.82777
   171  O   6.0   -0.30    1.22    1.80   318.93221   124.29788   178.60588
   172  C   4.0   -0.05    4.11    3.82   315.89392   122.44631   183.44624
   173  H   1.0    0.10    1.03    1.43   319.57340   121.95168   186.31170
   174  H   1.0    0.05    1.05    1.44   318.55443   120.28246   181.23117
   175  H   1.0    0.07    1.00    1.43   314.55117   122.52449   181.89572
   176  H   1.0    0.07    1.00    1.43   315.35262   120.93142   184.72693
   177  H   1.0    0.06    1.00    1.43   315.82634   124.23778   184.45618
   178  N   5.0   -0.14    3.48    2.06   321.13293   125.71306   181.99215
   179  C   4.0    0.05    4.31    4.21   322.54740   127.65009   180.69518
   180  C   4.0    0.09    3.22    3.04   325.29006   126.83837   180.22906
   181  O   6.0   -0.28    1.11    1.80   326.44324   127.58114   178.36163
   182  C   4.0   -0.02    4.25    4.10   322.54115   130.17149   182.12116
   183  C   4.0    0.25    3.11    3.03   323.70399   130.05256   184.80025
   184  O   6.0   -0.27    1.17    1.80   324.36926   132.09811   185.75995
   185  O   6.0   -0.29    1.22    1.80   323.92232   127.94170   185.83641
   186  H   1.0    0.11    1.09    1.44   321.40470   125.64583   183.88563
   187  H   1.0    0.08    1.06    1.44   321.66760   127.94581   178.83832
   188  H   1.0    0.07    1.02    1.43   323.55765   131.58287   181.01043
   189  H   1.0    0.06    1.03    1.43   320.59835   130.85005   182.31128
   190  N   5.0   -0.20    3.21    1.96   313.08211   116.13516   192.24338
   191  C   4.0    0.03    4.24    4.08   312.05272   115.63961   189.74538
   192  C   4.0    0.15    3.40    3.08   314.23390   115.58487   187.82908
   193  O   6.0   -0.30    1.23    1.80   315.67037   117.37643   187.57185
   194  C   4.0   -0.06    4.11    3.82   310.17182   117.68061   188.99827
   195  H   1.0    0.09    1.03    1.43   313.22036   117.96156   192.77166
   196  H   1.0    0.04    1.05    1.44   311.14058   113.78559   189.83118
   197  H   1.0    0.06    1.00    1.43   309.26811   117.18518   187.22149
   198  H   1.0    0.05    1.00    1.43   308.72236   117.87342   190.43999
   199  H   1.0    0.05    1.00    1.43   311.15775   119.47004   188.75457
   200  N   5.0   -0.15    3.48    2.07   314.39314   113.45824   186.46062
   201  C   4.0    0.03    4.33    4.26   316.41466   112.97254   184.68232
   202  C   4.0    0.15    3.38    3.07   315.57431   113.24337   181.92480
   203  O   6.0   -0.33    1.30    1.80   317.08840   112.93752   180.19983
   204  C   4.0   -0.07    4.11    3.82   317.48402   110.32207   185.10644
   205  H   1.0    0.07    1.07    1.44   313.30644   111.96317   186.93664
   206  H   1.0    0.06    1.06    1.44   317.87292   114.40963   185.01455
   207  H   1.0    0.05    1.00    1.43   319.09736   110.01097   183.88025
   208  H   1.0    0.04    1.00    1.43   318.07493   110.12204   187.06319
   209  H   1.0    0.04    1.00    1.43   316.04425   108.91424   184.69550
   210  N   5.0   -0.12    3.54    2.10   313.15058   113.78335   181.55585
   211  C   4.0    0.04    4.46    4.48   311.94349   114.09030   179.13604
   212  C   4.0    0.16    3.44    3.09   309.66111   115.84139   179.47622
   213  O   6.0   -0.28    1.24    1.80   308.64877   116.14935   181.52957
   214  C   4.0    0.06    4.23    4.06   310.93515   111.51574   178.11459
   215  O   6.0   -0.24    2.14    1.85   310.02247   110.16824   180.23265
   216  C   4.0   -0.07    4.05    3.71   312.99103   110.04986   176.71566
   217  H   1.0    0.10    1.10    1.44   311.96503   114.03321   183.03756
   218  H   1.0    0.05    1.05    1.44   313.28699   114.89193   177.78773
   219  H   1.0    0.05    1.04    1.43   309.36394   111.92790   176.81164
   220  H   1.0    0.12    1.02    1.43   309.20810   108.64534   179.64908
   221  H   1.0    0.04    1.00    1.43   312.23792   108.24933   176.07188
   222  H   1.0    0.04    1.00    1.43   313.60992   111.11924   175.08009
   223  H   1.0    0.06    1.00    1.43   314.57763   109.70880   177.96908
   224  N   5.0   -0.13    3.51    2.09   308.87179   116.88254   177.31774
   225  C   4.0    0.04    4.44    4.45   306.52369   118.25401   177.03832
   226  C   4.0    0.16    3.45    3.09   304.32757   116.44988   177.58691
   227  O   6.0   -0.29    1.24    1.80   304.38320   114.24729   176.86513
   228  C   4.0    0.06    4.25    4.10   306.35425   119.12671   174.23970
   229  O   6.0   -0.25    2.14    1.85   308.74283   119.80872   173.30942
   230  C   4.0   -0.07    4.06    3.73   304.39817   121.21322   173.93425
   231  H   1.0    0.09    1.09    1.44   309.86661   116.68506   175.69573
   232  H   1.0    0.07    1.05    1.44   306.48098   119.87636   178.32314
   233  H   1.0    0.06    1.04    1.44   305.81212   117.47244   173.10747
   234  H   1.0    0.15    1.04    1.43   309.31861   121.37918   174.06832
   235  H   1.0    0.05    1.00    1.43   304.26180   121.74865   171.95734
   236  H   1.0    0.05    1.00    1.43   302.56028   120.57838   174.59119
   237  H   1.0    0.05    1.00    1.43   304.97534   122.85541   175.02793
   238  N   5.0   -0.13    3.46    2.05   302.36484   117.44199   178.82268
   239  C   4.0    0.04    4.46    4.48   300.17528   115.91095   179.42470
   240  C   4.0    0.15    3.44    3.09   298.34906   115.78504   177.17632
   241  O   6.0   -0.31    1.24    1.80   297.51778   117.69068   176.17865
   242  C   4.0    0.06    4.25    4.10   298.72565   117.09924   181.66115
   243  O   6.0   -0.26    2.19    1.86   300.36812   117.73538   183.65165
   244  C   4.0   -0.07    4.07    3.75   296.59539   115.37509   182.55948
   245  H   1.0    0.11    1.09    1.44   302.43012   119.25484   179.45203
   246  H   1.0    0.06    1.05    1.44   300.85647   114.01074   179.89269
   247  H   1.0    0.05    1.04    1.44   297.97055   118.91178   181.00119
   248  H   1.0    0.14    1.02    1.43   301.15214   116.25157   184.37773
   249  H   1.0    0.04    1.00    1.43   295.63691   116.26745   184.14211
   250  H   1.0    0.06    1.01    1.43   295.25274   115.06162   181.03964
   251  H   1.0    0.04    1.00    1.43   297.39292   113.58668   183.18288
   252  N   5.0   -0.14    3.47    2.06   297.57147   113.45701   176.53417
   253  C   4.0    0.03    4.42    4.41   295.68539   113.09699   174.57407
   254  C   4.0    0.15    3.46    3.10   293.08420   113.67350   175.69179
   255  O   6.0   -0.32    1.36    1.80   292.60334   113.27801   177.92393
   256  C   4.0   -0.04    4.28    4.15   295.71694   110.36054   173.63142
   257  C   4.0   -0.03    4.17    3.93   298.13327   109.67779   172.22337
   258  C   4.0    0.25    3.09    3.02   298.89163   106.84808   172.68555
   259  O   6.0   -0.29    1.19    1.80   298.36576   105.94512   174.79595
   260  O   6.0   -0.28    1.16    1.80   300.00856   105.76451   170.91824
   261  H   1.0    0.08    1.06    1.44   298.49270   111.90479   177.14859
   262  H   1.0    0.05    1.05    1.44   296.08336   114.40653   173.01974
   263  H   1.0    0.07    1.04    1.44   295.59086   109.08174   175.25086
   264  H   1.0    0.05    1.03    1.43   294.08276   110.01713   172.42090
   265  H   1.0    0.05    1.02    1.43   297.98227   109.98102   170.19216
   266  H   1.0    0.06    1.03    1.43   299.73704   110.78514   172.91307
   267  N   5.0   -0.15    3.48    2.06   291.40295   114.63587   174.07708
   268  C   4.0    0.03    4.44    4.45   288.76455   115.02800   174.72755
   269  C   4.0    0.15    3.55    3.14   288.48007   116.28773   177.32484
   270  O   6.0   -0.31    1.29    1.80   286.99637   115.50872   178.91923
   271  C   4.0   -0.02    4.33    4.26   287.27290   112.54032   174.64468
   272  C   4.0    0.15    3.24    3.04   286.91811   111.76401   171.90463
   273  O   6.0   -0.29    1.19    1.80   288.41915   110.40630   170.78763
   274  N   5.0   -0.19    3.19    1.95   284.87608   112.79279   170.82110
   275  H   1.0    0.08    1.07    1.44   291.86158   114.70023   172.22698
   276  H   1.0    0.04    1.06    1.44   287.96387   116.33490   173.33464
   277  H   1.0    0.06    1.03    1.43   288.31992   111.08339   175.65253
   278  H   1.0    0.05    1.04    1.43   285.45131   112.84930   175.54870
   279  H   1.0    0.09    1.03    1.43   284.49643   112.44265   168.98862
   280  H   1.0    0.08    1.03    1.43   283.75103   113.97272   171.82241
   281  N   5.0   -0.10    3.68    2.25   289.81534   118.40022   177.68540
   282  C   4.0    0.03    4.50    4.54   289.63164   119.66145   180.12459
   283  C   4.0    0.09    3.26    3.04   286.88244   120.22855   180.79141
   284  O   6.0   -0.30    1.13    1.80   286.01154   119.73879   182.87395
   285  C   4.0   -0.05    4.32    4.24   291.23149   122.06413   179.83498
   286  C   4.0   -0.05    4.25    4.11   291.44943   122.44879   176.98134
   287  C   4.0   -0.01    4.38    4.34   291.48305   119.74711   175.96689
   288  H   1.0    0.05    1.05    1.44   290.35686   118.42380   181.61652
   289  H   1.0    0.04    1.02    1.43   290.38463   123.67464   180.79161
   290  H   1.0    0.04    1.03    1.43   293.09946   121.72821   180.62389
   291  H   1.0    0.04    1.02    1.43   289.84176   123.50166   176.23685
   292  H   1.0    0.04    1.02    1.43   293.15844   123.46523   176.46995
   293  H   1.0    0.04    1.02    1.43   290.81433   119.62304   174.02396
   294  H   1.0    0.07    1.03    1.43   293.40238   118.97758   176.06536
   295  N   5.0   -0.20    3.23    1.96   282.72034   115.29112   183.79100
   296  C   4.0    0.03    4.23    4.06   283.57714   114.68147   186.32051
   297  C   4.0    0.08    3.19    3.03   282.74624   116.71105   188.20979
   298  O   6.0   -0.29    1.11    1.80   281.95371   116.13931   190.31522
   299  C   4.0   -0.04    4.26    4.12   286.44006   114.31043   186.26227
   300  C   4.0   -0.05    4.21    4.02   287.08871   111.91856   184.77165
   301  C   4.0   -0.05    4.17    3.94   289.85880   111.84595   183.96589
   302  C   4.0   -0.03    4.13    3.87   290.43052   109.34967   182.64687
   303  N   5.0   -0.12    4.03    2.94   292.98057   109.44036   181.47238
   304  H   1.0    0.11    1.03    1.43   284.03645   115.85203   182.51893
   305  H   1.0    0.05    1.05    1.44   282.64049   112.92975   186.91896
   306  H   1.0    0.06    1.03    1.43   287.27732   115.96963   185.36967
   307  H   1.0    0.04    1.03    1.43   287.14588   114.17152   188.19111
   308  H   1.0    0.04    1.03    1.43   286.64385   110.26642   185.91950
   309  H   1.0    0.05    1.04    1.43   285.92232   111.85236   183.07494
   310  H   1.0    0.06    1.03    1.43   290.19663   113.39529   182.64898
   311  H   1.0    0.04    1.02    1.43   291.06878   112.08387   185.61464
   312  H   1.0    0.04    1.02    1.43   290.35193   107.78590   183.98620
   313  H   1.0    0.05    1.02    1.43   289.04142   109.02613   181.16072
   314  H   1.0    0.06    1.02    1.43   293.40478   107.77119   180.57993
   315  H   1.0    0.09    1.08    1.44   293.02946   110.90216   180.13179
   316  H   1.0    0.05    1.02    1.43   294.32709   109.79169   182.82668
   317  H   1.0    0.09    1.07    1.44   308.64848   141.34206   174.71157
   318  H   1.0    0.06    1.05    1.44   311.16761   141.53586   183.24447
   319  H   1.0    0.09    1.07    1.44   303.81450   137.00900   184.65838
   320  H   1.0    0.07    1.04    1.44   307.41989   137.69588   190.01420
   321  H   1.0    0.09    1.07    1.44   301.47966   116.33628   196.90054
   322  H   1.0    0.07    1.05    1.44   325.61250   127.11389   172.52974
   323  H   1.0    0.10    1.07    1.44   320.48457   119.75629   184.69243
   324  H   1.0    0.06    1.04    1.44   326.15722   125.69107   181.45494
   325  H   1.0    0.08    1.07    1.44   312.10356   115.39088   193.41856
   326  H   1.0    0.05    1.05    1.44   285.74325   121.02119   179.50882
   327  H   1.0    0.09    1.07    1.44   281.98177   113.92523   183.09715
   328  H   1.0    0.06    1.04    1.44   282.84397   118.53821   187.73758

  Z AO/shell   Hii/eV     exponent
  1     Wed Apr 25 08:07:45 CEST 2018   EN: 2.200 GM2: 0.406  GM3: 0.0800  RAES: 1.40
     1s    -10.707211    1.230000
  6     Wed Apr 25 08:07:45 CEST 2018   EN: 2.550 GM2: 0.538  GM3: 0.1500  RAES: 3.00
     2s    -13.970922    2.096432
     2p    -10.063292    1.800000
  7     Wed Apr 25 08:07:45 CEST 2018   EN: 3.040 GM2: 0.461  GM3:-0.0640  RAES: 1.90
     2s    -16.686243    2.339881
     2p    -12.523956    2.014332
  8     Wed Apr 25 08:07:45 CEST 2018   EN: 3.440 GM2: 0.452  GM3:-0.0517  RAES: 1.80
     2s    -20.229985    2.439742
     2p    -15.503117    2.137023
 no old-style atom pair restraining (fixing) potential

molecular fragmentation (1/2 indicates fragments):
111111111111111111111111111111122222222222222222222222222222222222222222
222222222222222222222222222222222222222222222222222222222222222222222222
222222222222222222222222222222222222222222222222222222222222222222222222
222222222222222222222222222222222222222222222222222222222222222222222222
2222222222222222222222222222112222222222
# atoms in fragment 1/2:    33   295
 fragment masses (1/2) :      229.26     2050.29
CMA distance (Bohr)    :  18.112
constraining FC (au)   :  0.0500
           ------------------------------------------------- 
          |        Self-Consistent Charge Iterations        |
           ------------------------------------------------- 

 Ncao       : 805
 Nao        : 805
 Nshell     : 487
 Nel        : 906
 T(el)      :   500.0
 intcut     :    35.0
 scfconv/Eh :  0.100E-06
   qconv/e  :  0.100E-04
 intneglect :  0.100E-08
 broydamp   :      0.400
 iter      E             dE          RMSdq      gap      omega  full diag
   1   -522.9357619 -0.522936E+03  0.478E+00    3.32       0.0  T
   2   -524.3568581 -0.142110E+01  0.219E+00    1.84       1.0  T
   3   -524.4504573 -0.935991E-01  0.127E+00    2.03       1.0  T
   4   -524.5298415 -0.793842E-01  0.262E-01    1.54       1.0  T
   5   -524.5345987 -0.475725E-02  0.129E-01    1.68       1.0  T
   6   -524.5353836 -0.784858E-03  0.519E-02    1.61       1.0  T
   7   -524.5355587 -0.175137E-03  0.217E-02    1.57       1.0  T
   8   -524.5355772 -0.184391E-04  0.898E-03    1.55       1.0  T
   9   -524.5355836 -0.643873E-05  0.372E-03    1.54       1.5  T
  10   -524.5355841 -0.502576E-06  0.138E-03    1.54       4.0  T
  11   -524.5355843 -0.174417E-06  0.603E-04    1.54       9.2  T
  12   -524.5355843 -0.218145E-07  0.236E-04    1.54      23.4  T
  13   -524.5355843 -0.273701E-08  0.123E-04    1.54      45.1  T
  14   -524.5355843 -0.955310E-09  0.439E-05    1.54     125.8  T
  15   -524.5355843 -0.113459E-09  0.178E-05    1.54     310.1  T
speedup 14.05
cpu  time for SCC   25.78 s
wall time for SCC    1.83 s

   *** convergence criteria satisfied after 15 iterations ***

          eigenvalues
 #    :         441        442        443        444        445        446        447        448
 occ. :        2.000      2.000      2.000      2.000      2.000      2.000      2.000      2.000
 eps  :       -10.717    -10.649    -10.435    -10.338    -10.233    -10.218    -10.152    -10.112
 #    :         449        450        451        452        453        454        455        456
 occ. :        2.000      2.000      2.000      2.000      2.000      0.000      0.000      0.000
 eps  :       -10.041     -9.908     -9.819     -9.687     -9.554     -8.017     -7.933     -7.869
 #    :         457        458        459        460        461        462        463        464
 occ. :        0.000      0.000      0.000      0.000      0.000      0.000      0.000      0.000
 eps  :        -7.781     -7.653     -7.420     -6.801     -6.509     -6.482     -6.471     -6.291


   #   Z            q   n(s)   n(p)   n(d)      C6AA      α(0)
   1   7 N     -0.401  1.315  4.086  0.000    30.410     8.190
   2   6 C      0.034  1.057  2.909  0.000    20.015     6.372
   3   6 C      0.268  1.051  2.681  0.000    22.468     7.762
   4   8 O     -0.493  1.742  4.751  0.000    23.629     6.517
   5   6 C     -0.062  1.056  3.007  0.000    21.687     6.629
   6   6 C     -0.004  1.057  2.947  0.000    20.615     6.458
   7   6 C     -0.111  1.041  3.070  0.000    22.669     6.788
   8   6 C     -0.118  1.041  3.077  0.000    22.820     6.811
   9   1 H      0.160  0.840  0.000  0.000     1.333     1.808
  10   1 H      0.053  0.947  0.000  0.000     2.279     2.361
  11   1 H      0.013  0.987  0.000  0.000     2.841     2.636
  12   1 H      0.044  0.956  0.000  0.000     2.392     2.419
  13   1 H      0.027  0.973  0.000  0.000     2.625     2.534
  14   1 H      0.049  0.951  0.000  0.000     2.338     2.391
  15   1 H      0.020  0.980  0.000  0.000     2.731     2.584
  16   1 H      0.047  0.953  0.000  0.000     2.359     2.402
  17   1 H      0.053  0.947  0.000  0.000     2.287     2.365
  18   1 H      0.053  0.947  0.000  0.000     2.283     2.363
  19   1 H      0.036  0.964  0.000  0.000     2.503     2.474
  20   7 N     -0.167  1.241  3.927  0.000    24.621     7.369
  21   6 C      0.047  1.051  2.903  0.000    19.799     6.336
  22   6 C      0.201  1.084  2.715  0.000    23.719     7.976
  23   8 O     -0.365  1.749  4.616  0.000    21.002     6.144
  24   6 C     -0.102  1.075  3.027  0.000    22.443     6.745
  25   6 C      0.376  1.019  2.605  0.000    20.636     7.434
  26   8 O     -0.613  1.761  4.852  0.000    26.449     6.895
  27   8 O     -0.608  1.772  4.836  0.000    26.327     6.879
  28   1 H      0.199  0.801  0.000  0.000     1.112     1.652
  29   1 H      0.060  0.940  0.000  0.000     2.203     2.321
  30   1 H      0.054  0.946  0.000  0.000     2.270     2.356
  31   1 H      0.044  0.956  0.000  0.000     2.393     2.419
  32   7 N     -0.398  1.310  4.088  0.000    30.315     8.177
  33   6 C      0.049  1.051  2.900  0.000    19.764     6.332
  34   6 C      0.200  1.096  2.704  0.000    23.736     7.979
  35   8 O     -0.381  1.753  4.628  0.000    21.309     6.189
  36   6 C     -0.052  1.051  3.001  0.000    21.503     6.601
  37   6 C     -0.098  1.056  3.041  0.000    22.359     6.731
  38   6 C      0.288  1.040  2.672  0.000    22.118     7.701
  39   8 O     -0.508  1.736  4.772  0.000    23.958     6.563
  40   7 N     -0.281  1.269  4.013  0.000    27.267     7.755
  41   1 H      0.176  0.824  0.000  0.000     1.239     1.744
  42   1 H      0.048  0.952  0.000  0.000     2.348     2.397
  43   1 H      0.052  0.948  0.000  0.000     2.299     2.371
  44   1 H      0.046  0.954  0.000  0.000     2.374     2.409
  45   1 H      0.066  0.934  0.000  0.000     2.126     2.280
  46   1 H      0.051  0.949  0.000  0.000     2.303     2.373
  47   1 H      0.224  0.776  0.000  0.000     0.992     1.560
  48   1 H      0.250  0.750  0.000  0.000     0.882     1.471
  49   7 N     -0.392  1.313  4.079  0.000    30.157     8.156
  50   6 C      0.012  1.067  2.921  0.000    20.396     6.433
  51   6 C      0.262  1.046  2.691  0.000    22.574     7.780
  52   8 O     -0.506  1.748  4.758  0.000    23.908     6.556
  53   6 C      0.107  1.046  2.847  0.000    18.924     6.212
  54   8 O     -0.478  1.732  4.746  0.000    22.432     6.394
  55   6 C     -0.130  1.046  3.084  0.000    23.053     6.847
  56   1 H      0.177  0.823  0.000  0.000     1.230     1.738
  57   1 H      0.045  0.955  0.000  0.000     2.377     2.411
  58   1 H      0.044  0.956  0.000  0.000     2.393     2.419
  59   1 H      0.331  0.669  0.000  0.000     0.636     1.253
  60   1 H      0.060  0.940  0.000  0.000     2.205     2.322
  61   1 H      0.038  0.962  0.000  0.000     2.478     2.462
  62   1 H      0.049  0.951  0.000  0.000     2.327     2.385
  63   7 N     -0.168  1.244  3.925  0.000    24.642     7.373
  64   6 C      0.011  1.066  2.923  0.000    20.406     6.433
  65   6 C      0.278  1.046  2.676  0.000    22.295     7.732
  66   8 O     -0.493  1.739  4.753  0.000    23.625     6.517
  67   6 C     -0.080  1.061  3.019  0.000    22.021     6.679
  68   6 C     -0.010  1.054  2.956  0.000    20.717     6.474
  69   6 C     -0.129  1.043  3.086  0.000    23.031     6.843
  70   6 C     -0.121  1.043  3.078  0.000    22.866     6.817
  71   1 H      0.222  0.778  0.000  0.000     0.999     1.566
  72   1 H      0.088  0.912  0.000  0.000     1.896     2.153
  73   1 H      0.073  0.927  0.000  0.000     2.053     2.241
  74   1 H      0.055  0.945  0.000  0.000     2.253     2.347
  75   1 H      0.018  0.982  0.000  0.000     2.758     2.597
  76   1 H      0.051  0.949  0.000  0.000     2.307     2.375
  77   1 H      0.038  0.962  0.000  0.000     2.478     2.462
  78   1 H      0.060  0.940  0.000  0.000     2.203     2.321
  79   1 H      0.045  0.955  0.000  0.000     2.385     2.415
  80   1 H      0.055  0.945  0.000  0.000     2.256     2.349
  81   1 H      0.037  0.963  0.000  0.000     2.491     2.468
  82   7 N     -0.185  1.256  3.929  0.000    25.008     7.427
  83   6 C      0.022  1.057  2.921  0.000    20.203     6.399
  84   6 C      0.275  1.042  2.683  0.000    22.352     7.742
  85   8 O     -0.472  1.726  4.746  0.000    23.180     6.455
  86   6 C     -0.098  1.062  3.036  0.000    22.354     6.730
  87   6 C      0.287  1.037  2.675  0.000    22.135     7.704
  88   8 O     -0.506  1.743  4.762  0.000    23.908     6.556
  89   7 N     -0.281  1.269  4.012  0.000    27.259     7.754
  90   1 H      0.238  0.762  0.000  0.000     0.932     1.512
  91   1 H      0.080  0.920  0.000  0.000     1.978     2.200
  92   1 H      0.068  0.932  0.000  0.000     2.113     2.273
  93   1 H      0.081  0.919  0.000  0.000     1.966     2.193
  94   1 H      0.231  0.769  0.000  0.000     0.961     1.536
  95   1 H      0.213  0.787  0.000  0.000     1.044     1.600
  96   7 N     -0.181  1.254  3.928  0.000    24.929     7.415
  97   6 C      0.017  1.063  2.920  0.000    20.299     6.415
  98   6 C      0.268  1.044  2.687  0.000    22.466     7.762
  99   8 O     -0.485  1.740  4.744  0.000    23.444     6.492
 100   6 C     -0.015  1.060  2.956  0.000    20.812     6.489
 101   6 C     -0.123  1.042  3.082  0.000    22.923     6.827
 102   6 C     -0.112  1.035  3.077  0.000    22.697     6.793
 103   1 H      0.215  0.785  0.000  0.000     1.031     1.590
 104   1 H      0.083  0.917  0.000  0.000     1.946     2.182
 105   1 H      0.058  0.942  0.000  0.000     2.223     2.332
 106   1 H      0.064  0.936  0.000  0.000     2.153     2.295
 107   1 H      0.053  0.947  0.000  0.000     2.284     2.363
 108   1 H      0.045  0.955  0.000  0.000     2.386     2.416
 109   1 H      0.055  0.945  0.000  0.000     2.262     2.352
 110   1 H      0.044  0.956  0.000  0.000     2.399     2.422
 111   1 H      0.026  0.974  0.000  0.000     2.638     2.540
 112   7 N     -0.182  1.245  3.938  0.000    24.954     7.419
 113   6 C      0.030  1.057  2.914  0.000    20.081     6.380
 114   6 C      0.271  1.044  2.685  0.000    22.418     7.753
 115   8 O     -0.462  1.724  4.738  0.000    22.961     6.424
 116   6 C     -0.053  1.049  3.005  0.000    21.525     6.604
 117   6 C     -0.083  1.053  3.030  0.000    22.076     6.688
 118   6 C      0.292  1.039  2.669  0.000    22.051     7.689
 119   8 O     -0.502  1.734  4.769  0.000    23.834     6.546
 120   7 N     -0.291  1.282  4.009  0.000    27.499     7.788
 121   1 H      0.223  0.777  0.000  0.000     0.995     1.563
 122   1 H      0.061  0.939  0.000  0.000     2.186     2.312
 123   1 H      0.069  0.931  0.000  0.000     2.096     2.264
 124   1 H      0.035  0.965  0.000  0.000     2.517     2.481
 125   1 H      0.045  0.955  0.000  0.000     2.379     2.412
 126   1 H      0.066  0.934  0.000  0.000     2.128     2.281
 127   1 H      0.233  0.767  0.000  0.000     0.953     1.529
 128   1 H      0.201  0.799  0.000  0.000     1.103     1.645
 129   7 N     -0.164  1.240  3.923  0.000    24.538     7.357
 130   6 C      0.014  1.065  2.921  0.000    20.349     6.424
 131   6 C      0.279  1.040  2.682  0.000    22.287     7.731
 132   8 O     -0.516  1.765  4.750  0.000    24.138     6.587
 133   6 C     -0.062  1.049  3.013  0.000    21.689     6.629
 134   6 C     -0.102  1.057  3.045  0.000    22.442     6.744
 135   6 C      0.292  1.036  2.672  0.000    22.048     7.688
 136   8 O     -0.507  1.758  4.749  0.000    23.935     6.559
 137   7 N     -0.291  1.267  4.025  0.000    27.513     7.790
 138   1 H      0.188  0.812  0.000  0.000     1.169     1.694
 139   1 H      0.092  0.908  0.000  0.000     1.863     2.134
 140   1 H      0.057  0.943  0.000  0.000     2.238     2.340
 141   1 H      0.068  0.932  0.000  0.000     2.103     2.268
 142   1 H      0.087  0.913  0.000  0.000     1.910     2.161
 143   1 H      0.067  0.933  0.000  0.000     2.114     2.274
 144   1 H      0.233  0.767  0.000  0.000     0.954     1.530
 145   1 H      0.233  0.767  0.000  0.000     0.952     1.528
 146   7 N     -0.156  1.239  3.917  0.000    24.370     7.332
 147   6 C      0.032  1.055  2.913  0.000    20.040     6.374
 148   6 C      0.206  1.086  2.708  0.000    23.625     7.960
 149   8 O     -0.358  1.748  4.610  0.000    20.860     6.123
 150   6 C     -0.078  1.058  3.020  0.000    21.975     6.673
 151   6 C     -0.076  1.050  3.025  0.000    21.936     6.667
 152   6 C     -0.096  1.056  3.040  0.000    22.334     6.728
 153   6 C     -0.044  1.055  2.989  0.000    21.454     6.610
 154   7 N     -0.156  1.232  3.924  0.000    24.368     7.332
 155   1 H      0.234  0.766  0.000  0.000     0.949     1.526
 156   1 H      0.065  0.935  0.000  0.000     2.145     2.290
 157   1 H      0.088  0.912  0.000  0.000     1.898     2.155
 158   1 H      0.071  0.929  0.000  0.000     2.072     2.251
 159   1 H      0.045  0.955  0.000  0.000     2.378     2.411
 160   1 H      0.057  0.943  0.000  0.000     2.239     2.340
 161   1 H      0.088  0.912  0.000  0.000     1.903     2.157
 162   1 H      0.091  0.909  0.000  0.000     1.874     2.141
 163   1 H      0.104  0.896  0.000  0.000     1.747     2.067
 164   1 H      0.100  0.900  0.000  0.000     1.785     2.090
 165   1 H      0.310  0.690  0.000  0.000     0.685     1.297
 166   1 H      0.297  0.703  0.000  0.000     0.723     1.332
 167   1 H      0.299  0.701  0.000  0.000     0.715     1.325
 168   7 N     -0.394  1.312  4.082  0.000    30.208     8.163
 169   6 C      0.033  1.057  2.910  0.000    20.034     6.375
 170   6 C      0.267  1.050  2.683  0.000    22.497     7.767
 171   8 O     -0.496  1.741  4.755  0.000    23.698     6.527
 172   6 C     -0.110  1.039  3.071  0.000    22.656     6.786
 173   1 H      0.155  0.845  0.000  0.000     1.367     1.832
 174   1 H      0.062  0.938  0.000  0.000     2.180     2.309
 175   1 H      0.039  0.961  0.000  0.000     2.457     2.451
 176   1 H      0.066  0.934  0.000  0.000     2.135     2.285
 177   1 H      0.028  0.972  0.000  0.000     2.610     2.527
 178   7 N     -0.181  1.241  3.940  0.000    24.926     7.415
 179   6 C      0.044  1.053  2.903  0.000    19.844     6.344
 180   6 C      0.203  1.091  2.706  0.000    23.686     7.970
 181   8 O     -0.368  1.748  4.620  0.000    21.053     6.152
 182   6 C     -0.086  1.066  3.019  0.000    22.135     6.698
 183   6 C      0.368  1.022  2.609  0.000    20.755     7.456
 184   8 O     -0.647  1.777  4.871  0.000    27.314     7.007
 185   8 O     -0.618  1.758  4.859  0.000    26.561     6.910
 186   1 H      0.219  0.781  0.000  0.000     1.015     1.579
 187   1 H      0.074  0.926  0.000  0.000     2.038     2.232
 188   1 H      0.027  0.973  0.000  0.000     2.632     2.537
 189   1 H      0.033  0.967  0.000  0.000     2.540     2.493
 190   7 N     -0.390  1.316  4.074  0.000    30.094     8.147
 191   6 C      0.034  1.058  2.908  0.000    20.017     6.373
 192   6 C      0.270  1.049  2.682  0.000    22.446     7.758
 193   8 O     -0.486  1.751  4.735  0.000    23.478     6.496
 194   6 C     -0.112  1.038  3.073  0.000    22.692     6.792
 195   1 H      0.159  0.841  0.000  0.000     1.340     1.813
 196   1 H      0.040  0.960  0.000  0.000     2.445     2.446
 197   1 H      0.043  0.957  0.000  0.000     2.404     2.425
 198   1 H      0.046  0.954  0.000  0.000     2.375     2.410
 199   1 H      0.037  0.963  0.000  0.000     2.493     2.469
 200   7 N     -0.191  1.252  3.939  0.000    25.137     7.446
 201   6 C      0.015  1.059  2.926  0.000    20.336     6.422
 202   6 C      0.263  1.045  2.692  0.000    22.558     7.777
 203   8 O     -0.461  1.701  4.760  0.000    22.944     6.422
 204   6 C     -0.136  1.044  3.092  0.000    23.166     6.862
 205   1 H      0.211  0.789  0.000  0.000     1.053     1.608
 206   1 H      0.090  0.910  0.000  0.000     1.875     2.141
 207   1 H      0.093  0.907  0.000  0.000     1.850     2.127
 208   1 H      0.071  0.929  0.000  0.000     2.075     2.253
 209   1 H      0.067  0.933  0.000  0.000     2.114     2.274
 210   7 N     -0.140  1.223  3.917  0.000    24.038     7.282
 211   6 C      0.008  1.067  2.925  0.000    20.458     6.441
 212   6 C      0.275  1.039  2.686  0.000    22.352     7.742
 213   8 O     -0.488  1.745  4.743  0.000    23.525     6.503
 214   6 C      0.118  1.049  2.833  0.000    18.746     6.182
 215   8 O     -0.483  1.723  4.761  0.000    22.539     6.409
 216   6 C     -0.147  1.048  3.099  0.000    23.401     6.898
 217   1 H      0.202  0.798  0.000  0.000     1.096     1.640
 218   1 H      0.082  0.918  0.000  0.000     1.963     2.191
 219   1 H      0.017  0.983  0.000  0.000     2.774     2.605
 220   1 H      0.340  0.660  0.000  0.000     0.613     1.230
 221   1 H      0.060  0.940  0.000  0.000     2.196     2.317
 222   1 H      0.067  0.933  0.000  0.000     2.116     2.275
 223   1 H      0.086  0.914  0.000  0.000     1.922     2.168
 224   7 N     -0.176  1.241  3.936  0.000    24.816     7.399
 225   6 C      0.010  1.067  2.923  0.000    20.422     6.436
 226   6 C      0.273  1.042  2.684  0.000    22.381     7.747
 227   8 O     -0.504  1.746  4.758  0.000    23.880     6.552
 228   6 C      0.111  1.047  2.842  0.000    18.848     6.198
 229   8 O     -0.457  1.705  4.752  0.000    21.986     6.330
 230   6 C     -0.136  1.044  3.093  0.000    23.185     6.866
 231   1 H      0.222  0.778  0.000  0.000     1.002     1.568
 232   1 H      0.061  0.939  0.000  0.000     2.191     2.315
 233   1 H      0.051  0.949  0.000  0.000     2.311     2.377
 234   1 H      0.329  0.671  0.000  0.000     0.640     1.257
 235   1 H      0.075  0.925  0.000  0.000     2.032     2.229
 236   1 H      0.058  0.942  0.000  0.000     2.225     2.333
 237   1 H      0.047  0.953  0.000  0.000     2.359     2.402
 238   7 N     -0.177  1.247  3.930  0.000    24.823     7.400
 239   6 C      0.007  1.067  2.926  0.000    20.458     6.440
 240   6 C      0.269  1.045  2.687  0.000    22.461     7.761
 241   8 O     -0.467  1.738  4.729  0.000    23.066     6.439
 242   6 C      0.108  1.047  2.845  0.000    18.896     6.205
 243   8 O     -0.459  1.708  4.751  0.000    22.029     6.336
 244   6 C     -0.156  1.048  3.108  0.000    23.589     6.926
 245   1 H      0.234  0.766  0.000  0.000     0.950     1.527
 246   1 H      0.065  0.935  0.000  0.000     2.147     2.291
 247   1 H      0.066  0.934  0.000  0.000     2.127     2.281
 248   1 H      0.331  0.669  0.000  0.000     0.635     1.252
 249   1 H      0.088  0.912  0.000  0.000     1.898     2.154
 250   1 H      0.075  0.925  0.000  0.000     2.036     2.231
 251   1 H      0.065  0.935  0.000  0.000     2.136     2.286
 252   7 N     -0.166  1.240  3.926  0.000    24.602     7.367
 253   6 C      0.018  1.063  2.919  0.000    20.271     6.411
 254   6 C      0.270  1.046  2.684  0.000    22.445     7.758
 255   8 O     -0.452  1.709  4.742  0.000    22.737     6.393
 256   6 C     -0.064  1.053  3.011  0.000    21.716     6.634
 257   6 C     -0.097  1.066  3.031  0.000    22.363     6.734
 258   6 C      0.370  1.025  2.604  0.000    20.723     7.450
 259   8 O     -0.633  1.762  4.872  0.000    26.957     6.961
 260   8 O     -0.656  1.781  4.875  0.000    27.536     7.035
 261   1 H      0.210  0.790  0.000  0.000     1.059     1.612
 262   1 H      0.068  0.932  0.000  0.000     2.108     2.271
 263   1 H      0.071  0.929  0.000  0.000     2.075     2.253
 264   1 H      0.054  0.946  0.000  0.000     2.276     2.359
 265   1 H      0.019  0.981  0.000  0.000     2.755     2.596
 266   1 H      0.024  0.976  0.000  0.000     2.674     2.557
 267   7 N     -0.161  1.242  3.919  0.000    24.486     7.349
 268   6 C      0.023  1.062  2.915  0.000    20.191     6.398
 269   6 C      0.265  1.038  2.697  0.000    22.526     7.773
 270   8 O     -0.465  1.739  4.727  0.000    23.030     6.434
 271   6 C     -0.108  1.060  3.048  0.000    22.554     6.760
 272   6 C      0.287  1.035  2.678  0.000    22.135     7.704
 273   8 O     -0.508  1.761  4.747  0.000    23.959     6.563
 274   7 N     -0.287  1.268  4.020  0.000    27.415     7.776
 275   1 H      0.209  0.791  0.000  0.000     1.062     1.614
 276   1 H      0.077  0.923  0.000  0.000     2.009     2.217
 277   1 H      0.086  0.914  0.000  0.000     1.915     2.164
 278   1 H      0.099  0.901  0.000  0.000     1.796     2.096
 279   1 H      0.233  0.767  0.000  0.000     0.954     1.530
 280   1 H      0.235  0.765  0.000  0.000     0.944     1.522
 281   7 N     -0.080  1.231  3.848  0.000    22.787     7.090
 282   6 C      0.022  1.065  2.913  0.000    20.194     6.395
 283   6 C      0.206  1.080  2.714  0.000    23.631     7.961
 284   8 O     -0.352  1.753  4.599  0.000    20.738     6.106
 285   6 C     -0.075  1.056  3.019  0.000    21.906     6.660
 286   6 C     -0.076  1.052  3.024  0.000    21.921     6.662
 287   6 C     -0.020  1.056  2.964  0.000    20.965     6.526
 288   1 H      0.087  0.913  0.000  0.000     1.912     2.162
 289   1 H      0.070  0.930  0.000  0.000     2.085     2.258
 290   1 H      0.078  0.922  0.000  0.000     2.004     2.214
 291   1 H      0.066  0.934  0.000  0.000     2.129     2.282
 292   1 H      0.072  0.928  0.000  0.000     2.065     2.247
 293   1 H      0.067  0.933  0.000  0.000     2.120     2.277
 294   1 H      0.077  0.923  0.000  0.000     2.010     2.217
 295   7 N     -0.391  1.314  4.077  0.000    30.120     8.151
 296   6 C      0.039  1.057  2.904  0.000    19.929     6.359
 297   6 C      0.202  1.094  2.703  0.000    23.695     7.972
 298   8 O     -0.395  1.762  4.633  0.000    21.573     6.227
 299   6 C     -0.071  1.057  3.015  0.000    21.859     6.656
 300   6 C     -0.070  1.051  3.019  0.000    21.835     6.652
 301   6 C     -0.091  1.054  3.037  0.000    22.228     6.712
 302   6 C     -0.043  1.058  2.985  0.000    21.442     6.609
 303   7 N     -0.151  1.231  3.920  0.000    24.256     7.315
 304   1 H      0.173  0.827  0.000  0.000     1.254     1.754
 305   1 H      0.052  0.948  0.000  0.000     2.289     2.366
 306   1 H      0.066  0.934  0.000  0.000     2.129     2.282
 307   1 H      0.043  0.957  0.000  0.000     2.409     2.427
 308   1 H      0.053  0.947  0.000  0.000     2.285     2.364
 309   1 H      0.059  0.941  0.000  0.000     2.210     2.325
 310   1 H      0.076  0.924  0.000  0.000     2.020     2.222
 311   1 H      0.075  0.925  0.000  0.000     2.036     2.231
 312   1 H      0.114  0.886  0.000  0.000     1.663     2.017
 313   1 H      0.107  0.893  0.000  0.000     1.723     2.052
 314   1 H      0.279  0.721  0.000  0.000     0.780     1.383
 315   1 H      0.291  0.709  0.000  0.000     0.741     1.348
 316   1 H      0.280  0.720  0.000  0.000     0.777     1.381
 317   1 H      0.191  0.809  0.000  0.000     1.151     1.681
 318   1 H      0.079  0.921  0.000  0.000     1.984     2.202
 319   1 H      0.186  0.814  0.000  0.000     1.181     1.702
 320   1 H      0.074  0.926  0.000  0.000     2.042     2.235
 321   1 H      0.185  0.815  0.000  0.000     1.184     1.704
 322   1 H      0.066  0.934  0.000  0.000     2.134     2.284
 323   1 H      0.196  0.804  0.000  0.000     1.125     1.661
 324   1 H      0.084  0.916  0.000  0.000     1.937     2.176
 325   1 H      0.184  0.816  0.000  0.000     1.190     1.708
 326   1 H      0.073  0.927  0.000  0.000     2.049     2.239
 327   1 H      0.181  0.819  0.000  0.000     1.210     1.723
 328   1 H      0.073  0.927  0.000  0.000     2.052     2.240

 Mol. C6AA /au·bohr⁶  :     971729.103509
 Mol. C8AA /au·bohr⁸  :   21327000.140302
 Mol. α(0) /au        :       1463.121638

 
molecular dipole:
                 x           y           z       tot (Debye)
 q only:     -328.203    -148.488    -180.747
   full:     -327.422    -147.645    -180.318    1021.534
molecular quadrupole (traceless):
                xx          xy          yy          xz          yz          zz
 q only:   -80162.616  -72841.620   48395.465  -89068.284  -40476.755   31767.152
  q+dip:   -79922.738  -72283.861   48313.138  -88606.458  -40182.414   31609.600
   full:   -79919.394  -72286.383   48313.305  -88606.431  -40181.086   31606.088
speedup 14.19
cpu  time for grad   28.29 s
wall time for grad    1.99 s

SCC energy    :    -524.5455497
rep           :       5.9632653
ES            :       1.9356993
AES           :      -0.0955184
AXC           :       0.1424576
disp          :      -0.4002539
XB            :       0.0000000
fix           :       0.0000000
Gborn         :       0.0000000
Gsasa         :       0.0000000
Ghb           :       0.0000000
Gshift        :       0.0000000
Gsolv         :      -0.5023286     -315.22
Etot ala COSMO:    -524.5455497
grad norm     :       0.5432760
total E       :    -518.5490920
atomizationE  :      91.4494751    57385.41
(atE without considering molecular charge,
 total energy contains solvation terms)
H-L gap (eV)  :          1.5376

------------------------------------------------------------------------
 * finished run on 2019/02/13 at 00:18:28.506     
------------------------------------------------------------------------
 total:
 * wall-time:     0 d,  0 h,  0 min,  2.247 sec
 *  cpu-time:     0 d,  0 h,  0 min, 32.022 sec
 * ratio c/w:    14.248 speedup
 SCF:
 * wall-time:     0 d,  0 h,  0 min,  2.110 sec
 *  cpu-time:     0 d,  0 h,  0 min, 30.154 sec
 * ratio c/w:    14.290 speedup

