      -----------------------------------------------------------      
     |                   =====================                   |     
     |                           x T B                           |     
     |                   =====================                   |     
     |                         S. Grimme                         |     
     |          Mulliken Center for Theoretical Chemistry        |     
     |                    University of Bonn                     |     
     |                 Version 6.0.1 (SAW181210)                 |     
      -----------------------------------------------------------      

   This program is distributed in the hope that it will be useful,
   but WITHOUT ANY WARRANTY; without even the implied warranty of
   MERCHANTABILITY or FITNESS FOR A PARTICULAR PURPOSE.
   
   FOR NON-COMMERCIAL, ACADEMIA USE ONLY.
   
   Cite this work as:
   S. Grimme, C. Bannwarth, P. Shushkov, J. Comput. Theory Chem., 2017,
   13, 1989-2009.
   C. Bannwarth, S. Ehlert and S. Grimme., ChemRxiv, 2018, preprint.
   http://doi.org/10.26434/chemrxiv.7246238.v1
   
   for sTDA-xTB:
   S. Grimme and C. Bannwarth, J. Chem. Phys., 2016, 145, 054103.
   
   in the mass-spec context:
   V. Asgeirsson, C. Bauer and S. Grimme, Chem. Sci., 2017, 8, 4879.
   
   if GBSA is used:
   P. Shushkov, F. März and S. Grimme, unpublished.
   
   for ANC optimizer:
   S. Grimme, unpublished.
   Rational Function algorithm used in ANCopt:
   F. Eckert, P. Pulay, H.-J. Werner, J. Comput. Chem., 1997, 18, 1473.
   
   with help from (in alphabetical order)
   C. Bannwarth, F. Bohle, G. Brandenburg, E. Caldeweyher, M. Checinski,
   S. Dohm, S. Ehlert, S. Ehrlich, F. März, H. Neugebauer, J. Pisarek,
   P. Pracht, P. Shushkov, and S. Spicher.
   
 * started run on 2019/03/14 at 15:08:29.342     
========================================================================
 # omp threads = 1
========================================================================
number of atoms            : 400
number of electrons        : 1012
charge                     : 0
spin                       : .0
first test random number   : .3763
           ------------------------------------------------- 
          |                 G F N 2 - x T B                 |
          | Geometry, Frequencies, Noncovalent interactions |
          |            JCTC 2018 parametrisation            |
           ------------------------------------------------- 
 
      method parameters     
 k(s)        :  1.8500
 k(p)        :  2.2300
 k(d)        :  2.2300
 k(f)        :  2.0000
 kEN (H0ij)  : -2.0000
 D4 a1       :  0.5200
 D4 a2       :  5.0000
 D4 s6       :  1.0000
 D4 s8       :  2.7000
 D4 s9       :  5.0000
 alphaj      :  2.0000

 Solvent             : h2o
 Using internal parameter file: .param_gbsa2_h2o
 Gsolv ref. state (COSMO-RS): gsolv [1 M gas/solution]
 temperature (mdtemp)       :    298.150000000000     
 dielectric constant        :    80.2000000000000     
 rho                        :    1.00000000000000     
 mass                       :    18.0000000000000     
 surface tension            :    15.5689454083859     
 probe radius               :   0.975313790000000     
 vdW radii scaling          :    1.00000000000000     
 Gshift (Eh)                :   1.857443126794793E-003
 c1                         :    1.55243817000000     
 soset                      :   0.130326360000000     
 HB correction              :  T

            Z     q(EN)     CN     RAES       Cart. coordinates
     1  N   5.0   -0.21    3.20    1.96    66.65307    48.07970    72.24214
     2  C   4.0    0.03    4.31    4.23    65.69876    49.82985    70.36025
     3  C   4.0    0.08    3.24    3.04    67.83566    50.95782    68.78855
     4  O   6.0   -0.32    1.19    1.80    67.73324    50.77868    66.46844
     5  C   4.0   -0.03    4.33    4.26    64.06266    51.91344    71.55057
     6  C   4.0   -0.05    4.20    3.99    61.71075    50.76492    72.78756
     7  C   4.0   -0.08    4.15    3.90    63.31276    53.82895    69.52940
     8  C   4.0   -0.08    4.02    3.66    60.22555    52.70257    74.31129
     9  H   1.0    0.08    1.03    1.43    65.96640    48.24642    74.02397
    10  H   1.0    0.05    1.06    1.44    64.53210    48.80180    68.97578
    11  H   1.0    0.04    1.05    1.44    65.19399    52.86643    72.99527
    12  H   1.0    0.04    1.03    1.43    60.49339    49.96661    71.32750
    13  H   1.0    0.04    1.03    1.43    62.27456    49.24793    74.06088
    14  H   1.0    0.04    1.00    1.43    62.20648    55.33556    70.37054
    15  H   1.0    0.04    1.01    1.43    64.97217    54.66052    68.65708
    16  H   1.0    0.04    1.00    1.43    62.18992    52.92561    68.06268
    17  H   1.0    0.04    1.00    1.43    58.70578    51.76797    75.32480
    18  H   1.0    0.04    1.00    1.43    61.46028    53.64266    75.66038
    19  H   1.0    0.04    1.00    1.43    59.39660    54.13253    73.09835
    20  N   5.0   -0.21    3.22    1.96    68.10550    49.91669    61.14763
    21  C   4.0    0.03    4.22    4.04    67.85691    52.00620    59.40163
    22  C   4.0    0.08    3.23    3.04    70.30017    52.34474    57.90326
    23  O   6.0   -0.29    1.12    1.80    70.26579    53.01307    55.68968
    24  C   4.0   -0.04    4.37    4.32    67.29920    54.51353    60.72405
    25  C   4.0   -0.02    4.19    3.97    65.09957    54.48977    62.60379
    26  C   4.0   -0.08    4.11    3.83    65.02889    57.06392    63.90847
    27  C   4.0   -0.08    4.11    3.82    62.60651    53.91544    61.29366
    28  H   1.0    0.12    1.06    1.44    68.08155    50.27749    63.02971
    29  H   1.0    0.05    1.05    1.44    66.37805    51.56305    58.01598
    30  H   1.0    0.05    1.03    1.43    69.00957    55.10127    61.71600
    31  H   1.0    0.04    1.03    1.43    66.89166    55.89093    59.24177
    32  H   1.0    0.06    1.07    1.44    65.44534    53.04657    64.03335
    33  H   1.0    0.03    1.00    1.43    63.38145    57.22281    65.12134
    34  H   1.0    0.04    1.00    1.43    66.71492    57.30919    65.05827
    35  H   1.0    0.04    1.00    1.43    64.97461    58.57495    62.51763
    36  H   1.0    0.04    1.00    1.43    61.05516    53.93768    62.63972
    37  H   1.0    0.03    1.00    1.43    62.24783    55.32375    59.84687
    38  H   1.0    0.04    1.00    1.43    62.66131    52.06256    60.41139
    39  N   5.0   -0.22    3.19    1.95    49.68850    83.84252    67.67328
    40  C   4.0    0.03    4.28    4.16    48.32185    81.90985    66.30014
    41  C   4.0    0.07    3.21    3.04    46.64464    82.99074    64.19010
    42  O   6.0   -0.31    1.16    1.80    46.19196    81.64628    62.33904
    43  C   4.0   -0.04    4.08    3.76    46.96076    80.14752    68.13300
    44  S   6.0   -0.07    2.30    3.10    45.73405    77.30304    66.59514
    45  H   1.0    0.08    1.03    1.43    49.18897    84.17220    69.48281
    46  H   1.0    0.04    1.07    1.44    49.73058    80.78009    65.27336
    47  H   1.0    0.04    1.07    1.44    48.32839    79.46994    69.52144
    48  H   1.0    0.04    1.06    1.44    45.42366    81.08029    69.13233
    49  H   1.0    0.07    0.99    1.43    44.64909    78.42511    64.62303
    50  N   5.0   -0.21    3.21    1.96    52.23646    85.00449    59.54193
    51  C   4.0    0.03    4.30    4.19    53.18710    82.65483    58.49121
    52  C   4.0    0.08    3.27    3.05    51.16560    81.67573    56.70978
    53  O   6.0   -0.33    1.20    1.80    51.67091    80.77838    54.64073
    54  C   4.0   -0.03    4.30    4.20    53.92614    80.69250    60.53280
    55  C   4.0   -0.05    4.17    3.95    56.25853    79.16354    59.72729
    56  C   4.0   -0.08    4.14    3.88    51.75831    78.91731    61.25177
    57  C   4.0   -0.07    4.04    3.69    55.87028    77.71338    57.27515
    58  H   1.0    0.08    1.02    1.43    51.94579    85.03362    61.43729
    59  H   1.0    0.04    1.06    1.44    54.84304    83.09287    57.33481
    60  H   1.0    0.03    1.06    1.44    54.44636    81.76314    62.22046
    61  H   1.0    0.04    1.02    1.43    57.87431    80.42893    59.52574
    62  H   1.0    0.03    1.03    1.43    56.68161    77.82301    61.23480
    63  H   1.0    0.03    1.00    1.43    52.28598    77.80410    62.89775
    64  H   1.0    0.06    1.01    1.43    50.05237    79.96088    61.68212
    65  H   1.0    0.04    1.00    1.43    51.27431    77.61265    59.74237
    66  H   1.0    0.03    1.00    1.43    57.40829    76.40077    56.92337
    67  H   1.0    0.04    1.00    1.43    54.13579    76.62290    57.35345
    68  H   1.0    0.05    1.00    1.43    55.74132    79.00652    55.68718
    69  N   5.0   -0.21    3.23    1.96    52.78386    79.96709    49.61360
    70  C   4.0    0.03    4.30    4.21    52.15625    77.70286    48.20086
    71  C   4.0    0.08    3.22    3.04    50.14413    78.35688    46.25864
    72  O   6.0   -0.28    1.12    1.80    50.39159    77.71005    44.04038
    73  C   4.0   -0.02    4.24    4.08    51.42338    75.39134    49.81367
    74  C   4.0   -0.08    4.15    3.90    53.68902    74.60369    51.40604
    75  C   4.0   -0.07    4.10    3.81    49.11565    75.83987    51.47527
    76  H   1.0    0.12    1.08    1.44    52.06828    80.21693    51.37294
    77  H   1.0    0.05    1.06    1.44    53.81169    77.17749    47.07367
    78  H   1.0    0.05    1.06    1.44    51.01510    73.87465    48.47165
    79  H   1.0    0.04    1.01    1.43    53.20524    73.07936    52.69031
    80  H   1.0    0.04    1.02    1.43    55.18655    73.91001    50.19402
    81  H   1.0    0.04    1.01    1.43    54.36477    76.19544    52.50209
    82  H   1.0    0.04    1.00    1.43    48.76144    74.18693    52.64155
    83  H   1.0    0.06    1.01    1.43    49.46773    77.43176    52.71415
    84  H   1.0    0.04    1.00    1.43    47.43521    76.19957    50.35305
    85  N   5.0   -0.21    3.21    1.96    65.38802    75.17117    66.66980
    86  C   4.0    0.03    4.22    4.05    63.82486    73.46608    68.12144
    87  C   4.0    0.08    3.20    3.04    65.42326    71.93860    69.97184
    88  O   6.0   -0.29    1.11    1.80    64.60292    71.36758    72.07109
    89  C   4.0   -0.05    4.34    4.26    62.23064    71.74046    66.44050
    90  C   4.0   -0.03    4.19    3.98    60.45984    73.13954    64.62396
    91  C   4.0   -0.08    4.13    3.87    59.03869    71.20349    63.03893
    92  C   4.0   -0.08    4.11    3.83    58.56105    74.83461    65.95977
    93  H   1.0    0.08    1.02    1.43    65.52960    74.91030    64.77767
    94  H   1.0    0.05    1.06    1.44    62.57051    74.60681    69.31090
    95  H   1.0    0.04    1.03    1.43    63.48633    70.54546    65.32054
    96  H   1.0    0.05    1.03    1.43    61.09590    70.52640    67.66354
    97  H   1.0    0.03    1.06    1.44    61.59319    74.29091    63.34546
    98  H   1.0    0.03    1.01    1.43    57.74617    72.17396    61.77989
    99  H   1.0    0.03    1.00    1.43    60.35431    70.10038    61.91010
   100  H   1.0    0.05    1.00    1.43    57.95797    69.92176    64.22943
   101  H   1.0    0.03    1.00    1.43    57.26822    75.61895    64.57099
   102  H   1.0    0.04    1.00    1.43    57.46589    73.74684    67.31112
   103  H   1.0    0.04    1.00    1.43    59.49227    76.38837    66.91777
   104  N   5.0   -0.22    3.27    1.97    42.20584    61.92160    79.53112
   105  C   4.0    0.02    4.35    4.29    41.17855    63.34684    77.42563
   106  C   4.0    0.14    3.45    3.09    43.32014    64.75433    76.09000
   107  O   6.0   -0.33    1.32    1.80    43.50823    64.72552    73.77942
   108  C   4.0   -0.04    4.32    4.24    39.13277    65.17819    78.30344
   109  C   4.0   -0.02    3.55    3.14    37.00155    63.90760    79.71125
   110  C   4.0   -0.04    3.48    3.10    35.28346    65.44033    80.98262
   111  C   4.0   -0.04    3.50    3.11    36.71928    61.30326    79.87786
   112  C   4.0   -0.04    3.37    3.07    33.46354    64.41267    82.54951
   113  C   4.0   -0.04    3.38    3.07    34.88506    60.26722    81.43150
   114  C   4.0   -0.04    3.37    3.07    33.29202    61.81331    82.81218
   115  H   1.0    0.08    1.03    1.43    41.42848    62.17011    81.26267
   116  H   1.0    0.04    1.05    1.44    40.39502    62.03064    76.02109
   117  H   1.0    0.04    1.03    1.43    39.99448    66.58594    79.54964
   118  H   1.0    0.04    1.03    1.43    38.40432    66.18456    76.65344
   119  H   1.0    0.05    1.03    1.43    35.36847    67.45878    80.69931
   120  H   1.0    0.05    1.04    1.43    37.89318    60.04599    78.78476
   121  H   1.0    0.05    1.03    1.43    32.18721    65.64267    83.56397
   122  H   1.0    0.05    1.03    1.43    34.71263    58.23853    81.56014
   123  H   1.0    0.05    1.03    1.43    31.86812    60.99918    84.02278
   124  N   5.0   -0.15    3.51    2.09    44.91724    65.99263    77.59157
   125  C   4.0    0.03    4.51    4.55    47.07913    67.31007    76.53944
   126  C   4.0    0.16    3.54    3.13    48.62855    65.40324    75.02528
   127  O   6.0   -0.32    1.31    1.80    49.34651    65.81484    72.86028
   128  C   4.0   -0.03    4.27    4.13    48.72528    68.52314    78.60591
   129  C   4.0   -0.07    4.14    3.87    51.13210    69.60189    77.43268
   130  C   4.0   -0.08    4.11    3.82    47.30321    70.61362    79.99302
   131  H   1.0    0.07    1.06    1.44    44.61967    66.05241    79.48551
   132  H   1.0    0.05    1.05    1.44    46.43633    68.75975    75.19767
   133  H   1.0    0.04    1.05    1.44    49.23843    67.03774    79.95272
   134  H   1.0    0.04    1.00    1.43    52.29638    70.48435    78.87471
   135  H   1.0    0.05    1.00    1.43    52.22886    68.13168    76.50744
   136  H   1.0    0.04    1.00    1.43    50.66064    71.02833    76.03002
   137  H   1.0    0.04    1.00    1.43    48.53510    71.44686    81.40928
   138  H   1.0    0.04    1.00    1.43    46.75190    72.09504    78.68128
   139  H   1.0    0.04    1.00    1.43    45.62406    69.88203    80.91711
   140  N   5.0   -0.15    3.52    2.09    49.16925    63.27462    76.26481
   141  C   4.0    0.03    4.51    4.54    50.85883    61.42703    75.17358
   142  C   4.0    0.16    3.44    3.09    49.80769    60.41965    72.68863
   143  O   6.0   -0.33    1.34    1.80    51.24682    60.10339    70.89478
   144  C   4.0   -0.05    4.31    4.22    51.47911    59.30834    77.04897
   145  C   4.0   -0.04    4.05    3.70    54.26513    58.57583    76.94331
   146  S   6.0   -0.05    2.56    3.10    56.40708    61.26253    77.25443
   147  C   4.0   -0.07    3.88    3.43    55.57494    62.38870    80.40197
   148  H   1.0    0.07    1.07    1.44    48.62586    63.03285    78.09049
   149  H   1.0    0.06    1.11    1.45    52.63892    62.37559    74.65189
   150  H   1.0    0.04    1.04    1.43    51.01789    59.98500    78.94001
   151  H   1.0    0.04    1.03    1.43    50.33929    57.62796    76.67848
   152  H   1.0    0.04    1.06    1.44    54.72110    57.23026    78.43251
   153  H   1.0    0.04    1.07    1.44    54.76034    57.75324    75.11867
   154  H   1.0    0.04    1.05    1.44    56.83252    63.96228    80.77795
   155  H   1.0    0.04    1.04    1.43    53.62478    63.02204    80.41259
   156  H   1.0    0.04    1.04    1.43    55.88741    60.89077    81.76651
   157  N   5.0   -0.14    3.49    2.07    47.36382    59.86045    72.67945
   158  C   4.0    0.03    4.40    4.38    45.99045    58.85692    70.54147
   159  C   4.0    0.16    3.52    3.12    45.86518    60.81224    68.42050
   160  O   6.0   -0.32    1.32    1.80    46.43412    60.21517    66.25472
   161  C   4.0   -0.04    4.32    4.23    43.34399    57.96949    71.37675
   162  C   4.0   -0.01    3.59    3.16    41.41890    58.13922    69.29112
   163  C   4.0   -0.04    3.46    3.10    41.01527    56.14968    67.62893
   164  C   4.0   -0.04    3.49    3.11    39.98183    60.32257    69.03630
   165  C   4.0   -0.05    3.38    3.07    39.20916    56.34986    65.74816
   166  C   4.0   -0.04    3.37    3.07    38.20594    60.54009    67.13261
   167  C   4.0   -0.04    3.37    3.07    37.82413    58.55166    65.47728
   168  H   1.0    0.08    1.08    1.44    46.33462    60.13111    74.27865
   169  H   1.0    0.05    1.06    1.44    47.03205    57.24997    69.74374
   170  H   1.0    0.04    1.03    1.43    43.50066    56.02636    72.04773
   171  H   1.0    0.04    1.04    1.43    42.72640    59.15175    72.94699
   172  H   1.0    0.05    1.03    1.43    42.10790    54.43403    67.80637
   173  H   1.0    0.05    1.03    1.43    40.27324    61.86195    70.34155
   174  H   1.0    0.04    1.03    1.43    38.87417    54.77889    64.49241
   175  H   1.0    0.05    1.03    1.43    37.10423    62.25166    66.96375
   176  H   1.0    0.04    1.03    1.43    36.45321    58.71085    63.97774
   177  N   5.0   -0.14    3.53    2.10    45.10300    63.12846    69.04039
   178  C   4.0    0.04    4.54    4.59    44.90437    65.00142    67.04892
   179  C   4.0    0.16    3.56    3.14    47.54924    65.38162    65.98102
   180  O   6.0   -0.33    1.39    1.80    47.96929    65.21129    63.71249
   181  C   4.0   -0.02    4.26    4.11    43.72637    67.50565    67.90951
   182  C   4.0   -0.08    4.14    3.89    43.95835    69.45408    65.79404
   183  C   4.0   -0.07    4.11    3.82    40.94907    67.17327    68.60194
   184  H   1.0    0.12    1.11    1.45    44.67181    63.64465    70.83726
   185  H   1.0    0.05    1.06    1.44    43.76839    64.19448    65.50659
   186  H   1.0    0.05    1.05    1.44    44.76477    68.16197    69.57132
   187  H   1.0    0.04    1.00    1.43    43.12230    71.23893    66.36687
   188  H   1.0    0.04    1.01    1.43    45.92117    69.79143    65.30319
   189  H   1.0    0.04    1.00    1.43    42.97404    68.79370    64.11607
   190  H   1.0    0.04    1.00    1.43    40.12547    69.00907    69.01144
   191  H   1.0    0.04    1.00    1.43    39.90426    66.34049    67.04006
   192  H   1.0    0.05    1.00    1.43    40.75404    65.98208    70.25733
   193  N   5.0   -0.15    3.51    2.09    49.37133    65.85812    67.65207
   194  C   4.0    0.04    4.42    4.41    51.95845    66.10051    66.80702
   195  C   4.0    0.17    3.53    3.13    52.68292    63.81705    65.19711
   196  O   6.0   -0.33    1.37    1.80    53.60158    64.07465    63.08704
   197  C   4.0    0.03    4.16    3.91    53.75437    66.38143    69.05617
   198  O   6.0   -0.26    2.06    1.83    56.17180    66.92758    68.09410
   199  H   1.0    0.12    1.12    1.45    49.03626    65.89801    69.53931
   200  H   1.0    0.05    1.05    1.44    52.17617    67.75006    65.56233
   201  H   1.0    0.05    1.01    1.43    53.07590    67.92038    70.27252
   202  H   1.0    0.06    1.01    1.43    53.75786    64.62091    70.15129
   203  H   1.0    0.12    1.02    1.43    57.37376    66.92750    69.46434
   204  N   5.0   -0.14    3.52    2.09    52.24722    61.54687    66.18564
   205  C   4.0    0.04    4.46    4.47    53.05362    59.33144    64.81649
   206  C   4.0    0.16    3.52    3.12    51.81827    59.19925    62.22767
   207  O   6.0   -0.34    1.36    1.80    52.97031    58.16752    60.48644
   208  C   4.0   -0.04    4.35    4.29    52.41366    56.85199    66.16722
   209  C   4.0   -0.04    4.05    3.71    54.39331    56.11081    68.11302
   210  S   6.0   -0.06    2.46    3.10    53.77744    53.05244    69.56826
   211  C   4.0   -0.07    3.88    3.44    51.14757    53.89222    71.60941
   212  H   1.0    0.12    1.14    1.45    51.67824    61.27909    68.00061
   213  H   1.0    0.05    1.05    1.44    55.10444    59.46707    64.49020
   214  H   1.0    0.06    1.03    1.43    50.55457    57.06471    67.02447
   215  H   1.0    0.04    1.04    1.43    52.29768    55.36021    64.74369
   216  H   1.0    0.04    1.08    1.44    56.21554    55.86606    67.18991
   217  H   1.0    0.06    1.07    1.44    54.53839    57.51168    69.61243
   218  H   1.0    0.04    1.04    1.43    50.88023    52.34745    72.92708
   219  H   1.0    0.05    1.05    1.44    51.64052    55.62083    72.59127
   220  H   1.0    0.04    1.04    1.43    49.45739    54.14790    70.47624
   221  N   5.0   -0.13    3.52    2.09    49.48992    60.09937    61.97984
   222  C   4.0    0.04    4.47    4.49    48.23379    59.92223    59.57104
   223  C   4.0    0.15    3.52    3.12    48.82003    62.17276    57.88181
   224  O   6.0   -0.32    1.42    1.80    48.82522    61.86756    55.57373
   225  C   4.0   -0.04    4.34    4.28    45.36888    59.65462    59.75982
   226  C   4.0   -0.02    4.17    3.93    44.41195    57.30443    61.18522
   227  C   4.0   -0.08    4.12    3.84    41.86899    56.52609    60.06745
   228  C   4.0   -0.07    4.12    3.85    46.20771    55.04840    61.10440
   229  H   1.0    0.12    1.11    1.45    48.46017    60.68757    63.48850
   230  H   1.0    0.05    1.07    1.44    49.01522    58.28154    58.56496
   231  H   1.0    0.05    1.03    1.43    44.62137    61.35222    60.65985
   232  H   1.0    0.05    1.04    1.43    44.68099    59.59574    57.81374
   233  H   1.0    0.06    1.06    1.44    44.14579    57.82362    63.16827
   234  H   1.0    0.04    1.00    1.43    41.16106    54.85221    61.01526
   235  H   1.0    0.04    1.00    1.43    40.49833    58.03932    60.27788
   236  H   1.0    0.04    1.00    1.43    42.07161    56.07167    58.07201
   237  H   1.0    0.04    1.00    1.43    45.36264    53.49412    62.14727
   238  H   1.0    0.04    1.00    1.43    46.53453    54.41256    59.17679
   239  H   1.0    0.05    1.00    1.43    48.01484    55.48617    61.97367
   240  N   5.0   -0.14    3.55    2.12    49.26042    64.41734    58.92288
   241  C   4.0    0.04    4.54    4.59    50.29950    66.35671    57.28980
   242  C   4.0    0.16    3.57    3.15    52.75952    65.22414    56.29227
   243  O   6.0   -0.33    1.43    1.80    53.18565    65.30718    54.00689
   244  C   4.0   -0.03    4.30    4.19    50.56346    69.04750    58.39216
   245  C   4.0   -0.05    4.19    3.98    52.93051    69.38190    60.01964
   246  C   4.0   -0.08    4.11    3.82    48.15281    69.81028    59.78099
   247  C   4.0   -0.08    4.07    3.74    55.27368    69.75446    58.37287
   248  H   1.0    0.12    1.13    1.45    49.27256    64.65014    60.82310
   249  H   1.0    0.05    1.06    1.44    49.06436    66.52205    55.62740
   250  H   1.0    0.03    1.06    1.44    50.77532    70.28941    56.74381
   251  H   1.0    0.03    1.03    1.43    52.68766    71.03843    61.22177
   252  H   1.0    0.06    1.04    1.43    53.17101    67.75426    61.24969
   253  H   1.0    0.04    1.00    1.43    48.32488    71.72419    60.50582
   254  H   1.0    0.04    1.00    1.43    46.54056    69.73811    58.51291
   255  H   1.0    0.06    1.02    1.43    47.80195    68.55025    61.35571
   256  H   1.0    0.04    1.00    1.43    56.95663    69.03246    59.28581
   257  H   1.0    0.05    1.04    1.44    55.08786    68.78161    56.58193
   258  H   1.0    0.03    1.00    1.43    55.54425    71.73991    57.93418
   259  N   5.0   -0.14    3.56    2.12    54.23627    64.06788    57.96238
   260  C   4.0    0.03    4.49    4.53    56.67468    62.97049    57.40035
   261  C   4.0    0.15    3.53    3.13    56.40284    60.86508    55.46396
   262  O   6.0   -0.33    1.33    1.80    57.87124    60.72906    53.66895
   263  C   4.0   -0.02    4.28    4.15    57.94840    62.03256    59.84554
   264  C   4.0   -0.08    4.15    3.89    59.89376    59.98149    59.29393
   265  C   4.0   -0.07    4.11    3.83    59.19763    64.24954    61.20522
   266  H   1.0    0.11    1.14    1.45    53.77434    64.05101    59.82347
   267  H   1.0    0.04    1.06    1.44    57.90789    64.39616    56.52284
   268  H   1.0    0.06    1.06    1.44    56.47196    61.23759    61.04467
   269  H   1.0    0.03    1.00    1.43    60.76702    59.38097    61.05120
   270  H   1.0    0.04    1.01    1.43    59.04433    58.33250    58.41133
   271  H   1.0    0.04    1.00    1.43    61.32588    60.69880    58.00773
   272  H   1.0    0.04    1.00    1.43    60.11490    63.62356    62.93214
   273  H   1.0    0.04    1.00    1.43    60.61525    65.09554    59.98098
   274  H   1.0    0.05    1.00    1.43    57.80974    65.67379    61.70480
   275  N   5.0   -0.14    3.54    2.11    54.49919    59.25293    55.81102
   276  C   4.0    0.04    4.49    4.53    54.20593    57.19021    54.03156
   277  C   4.0    0.16    3.56    3.14    53.28885    58.31242    51.56114
   278  O   6.0   -0.29    1.31    1.80    54.28977    57.77888    49.53906
   279  C   4.0   -0.04    4.32    4.24    52.43381    55.10220    54.91357
   280  C   4.0   -0.04    4.05    3.71    53.59635    53.46696    56.97214
   281  S   6.0   -0.05    2.48    3.10    56.05759    51.35205    55.77990
   282  C   4.0   -0.07    3.88    3.44    58.86946    53.28101    56.19753
   283  H   1.0    0.12    1.14    1.45    53.62848    59.10386    57.52711
   284  H   1.0    0.05    1.08    1.44    56.08013    56.40322    53.65235
   285  H   1.0    0.05    1.03    1.43    50.66650    55.92574    55.58386
   286  H   1.0    0.05    1.04    1.43    51.99799    53.90336    53.28954
   287  H   1.0    0.06    1.07    1.44    54.40638    54.60585    58.47940
   288  H   1.0    0.04    1.08    1.44    52.15960    52.21265    57.74052
   289  H   1.0    0.04    1.05    1.44    60.44730    51.99253    56.41418
   290  H   1.0    0.04    1.04    1.43    59.18498    54.46905    54.55905
   291  H   1.0    0.04    1.04    1.43    58.64486    54.40808    57.89209
   292  N   5.0   -0.13    3.59    2.15    51.42005    59.96293    51.72478
   293  C   4.0    0.06    4.51    4.55    50.72602    61.30553    49.46208
   294  C   4.0    0.17    3.50    3.11    53.08195    62.50763    48.31340
   295  O   6.0   -0.27    1.24    1.80    53.29153    62.55384    46.00198
   296  C   4.0   -0.03    4.31    4.22    48.63037    63.19004    50.02948
   297  C   4.0    0.17    3.26    3.05    46.24446    61.74962    50.75449
   298  O   6.0   -0.29    1.22    1.80    45.75241    59.66403    49.90755
   299  N   5.0   -0.18    3.19    1.95    44.69057    62.97271    52.33685
   300  H   1.0    0.13    1.15    1.45    50.58935    60.46913    53.38250
   301  H   1.0    0.08    1.06    1.44    50.03775    59.94185    48.04700
   302  H   1.0    0.06    1.03    1.43    49.23790    64.46374    51.52220
   303  H   1.0    0.05    1.03    1.43    48.24515    64.29207    48.33092
   304  H   1.0    0.09    1.03    1.43    43.07790    62.11039    52.87041
   305  H   1.0    0.08    1.03    1.43    45.15211    64.63825    53.11608
   306  N   5.0   -0.13    3.58    2.14    54.85185    63.42542    49.82768
   307  C   4.0    0.05    4.51    4.55    57.08617    64.68911    48.88128
   308  C   4.0    0.16    3.46    3.10    58.88111    62.82854    47.59516
   309  O   6.0   -0.28    1.25    1.80    60.07579    63.41322    45.69624
   310  C   4.0   -0.03    4.12    3.84    58.42169    66.11871    50.98660
   311  S   6.0   -0.07    2.42    3.10    56.87714    69.10824    51.61211
   312  H   1.0    0.12    1.16    1.46    54.48692    63.65108    51.70198
   313  H   1.0    0.06    1.08    1.44    56.55280    66.04584    47.40527
   314  H   1.0    0.06    1.07    1.44    58.53659    65.01473    52.71933
   315  H   1.0    0.05    1.08    1.44    60.33936    66.59568    50.41873
   316  H   1.0    0.07    1.01    1.43    54.58461    68.15983    52.09046
   317  N   5.0   -0.13    3.51    2.08    59.02006    60.53013    48.60082
   318  C   4.0    0.05    4.45    4.46    60.58833    58.69313    47.34080
   319  C   4.0    0.10    3.27    3.05    59.21756    57.63716    45.02438
   320  O   6.0   -0.27    1.11    1.80    60.41905    56.73720    43.24746
   321  C   4.0   -0.02    4.26    4.12    61.51474    56.50653    49.00639
   322  C   4.0   -0.07    4.11    3.82    62.65433    57.49907    51.45766
   323  C   4.0   -0.06    4.14    3.87    59.41545    54.59313    49.47470
   324  H   1.0    0.12    1.11    1.45    58.19420    60.16948    50.28934
   325  H   1.0    0.07    1.07    1.44    62.25154    59.71801    46.62463
   326  H   1.0    0.05    1.06    1.44    62.99866    55.60377    47.89457
   327  H   1.0    0.04    1.00    1.43    63.39339    55.96376    52.60560
   328  H   1.0    0.05    1.00    1.43    64.20270    58.77688    51.02725
   329  H   1.0    0.06    1.01    1.43    61.22820    58.50540    52.53496
   330  H   1.0    0.04    1.00    1.43    60.02481    53.12647    50.77492
   331  H   1.0    0.06    1.01    1.43    57.74948    55.52878    50.21324
   332  H   1.0    0.06    1.01    1.43    58.89742    53.67331    47.71438
   333  N   5.0   -0.21    3.19    1.95    35.90921    68.74122    52.31527
   334  C   4.0    0.02    4.24    4.08    36.50801    70.58930    54.25856
   335  C   4.0    0.07    3.23    3.04    34.11039    71.71570    55.36837
   336  O   6.0   -0.30    1.11    1.80    33.86956    72.09563    57.64569
   337  C   4.0   -0.05    4.37    4.32    38.16840    72.69278    53.19421
   338  C   4.0   -0.02    4.20    3.99    39.21842    74.43173    55.24704
   339  C   4.0   -0.08    4.11    3.82    41.03319    73.03691    57.00724
   340  C   4.0   -0.08    4.12    3.83    40.57164    76.64399    53.99199
   341  H   1.0    0.08    1.03    1.43    36.71927    69.09218    50.60016
   342  H   1.0    0.04    1.06    1.44    37.51710    69.65386    55.80068
   343  H   1.0    0.04    1.03    1.43    39.74695    71.83979    52.18136
   344  H   1.0    0.04    1.03    1.43    37.06893    73.79787    51.84556
   345  H   1.0    0.05    1.06    1.44    37.64962    75.17589    56.37101
   346  H   1.0    0.04    1.01    1.43    42.12187    74.42101    58.05668
   347  H   1.0    0.04    1.00    1.43    40.02863    71.86736    58.36237
   348  H   1.0    0.03    1.00    1.43    42.32368    71.84578    55.93649
   349  H   1.0    0.04    1.01    1.43    41.35998    77.85336    55.43735
   350  H   1.0    0.04    1.00    1.43    42.10342    75.96822    52.80155
   351  H   1.0    0.04    1.00    1.43    39.27193    77.74604    52.84317
   352  N   5.0   -0.20    3.22    1.96    31.44707    65.99649    59.42898
   353  C   4.0    0.03    4.30    4.19    32.93799    65.47525    61.66427
   354  C   4.0    0.08    3.24    3.04    32.96037    67.82084    63.34128
   355  O   6.0   -0.33    1.21    1.80    32.96174    67.64023    65.64606
   356  C   4.0   -0.03    4.31    4.21    35.66658    64.59285    61.08678
   357  C   4.0   -0.05    4.20    3.99    37.25336    66.73115    59.94929
   358  C   4.0   -0.08    4.12    3.85    35.59331    62.27207    59.37979
   359  C   4.0   -0.08    4.01    3.63    40.01437    66.05780    59.45959
   360  H   1.0    0.08    1.03    1.43    32.38272    66.30099    57.79260
   361  H   1.0    0.05    1.05    1.44    32.00066    63.97964    62.75530
   362  H   1.0    0.04    1.06    1.44    36.49308    64.04693    62.90344
   363  H   1.0    0.04    1.04    1.43    36.36784    67.29771    58.18587
   364  H   1.0    0.05    1.03    1.43    37.22041    68.34565    61.23071
   365  H   1.0    0.04    1.00    1.43    37.48223    61.51525    59.11244
   366  H   1.0    0.04    1.00    1.43    34.42552    60.80593    60.21767
   367  H   1.0    0.04    1.00    1.43    34.80819    62.76732    57.55135
   368  H   1.0    0.03    1.00    1.43    41.00666    67.68310    58.68777
   369  H   1.0    0.04    1.00    1.43    40.93296    65.53427    61.21927
   370  H   1.0    0.04    1.00    1.43    40.22272    64.52253    58.11388
   371  N   5.0   -0.21    3.22    1.96    30.03488    68.17758    69.84511
   372  C   4.0    0.04    4.15    3.89    31.52540    69.13673    71.93198
   373  C   4.0    0.08    3.20    3.04    30.20669    71.32155    73.27521
   374  O   6.0   -0.29    1.11    1.80    30.37004    71.55833    75.59127
   375  C   4.0   -0.07    4.12    3.83    34.08657    70.03281    70.95803
   376  H   1.0    0.12    1.09    1.44    30.91405    68.12429    68.13420
   377  H   1.0    0.05    1.05    1.44    31.77988    67.63722    73.34594
   378  H   1.0    0.05    1.00    1.43    35.24303    70.70700    72.51369
   379  H   1.0    0.05    1.00    1.43    35.03981    68.47949    70.01449
   380  H   1.0    0.05    1.00    1.43    33.80543    71.55931    69.61423
   381  H   1.0    0.09    1.07    1.44    66.29736    46.48581    71.76722
   382  H   1.0    0.05    1.04    1.43    69.28274    51.82186    69.64322
   383  H   1.0    0.09    1.07    1.44    66.82886    48.81940    60.90529
   384  H   1.0    0.06    1.05    1.44    71.96814    52.01886    58.72953
   385  H   1.0    0.09    1.07    1.44    51.33845    83.43478    67.73643
   386  H   1.0    0.05    1.04    1.43    45.95065    84.74215    64.33849
   387  H   1.0    0.09    1.07    1.44    53.34016    86.25786    59.22023
   388  H   1.0    0.06    1.05    1.44    49.34565    81.75128    57.21291
   389  H   1.0    0.10    1.07    1.44    54.46812    80.04949    49.83503
   390  H   1.0    0.06    1.05    1.44    48.60455    79.32025    46.78083
   391  H   1.0    0.09    1.07    1.44    64.80559    76.75992    66.84070
   392  H   1.0    0.05    1.05    1.44    67.16391    71.38700    69.48508
   393  H   1.0    0.09    1.07    1.44    42.05149    60.25688    79.21896
   394  H   1.0    0.08    1.04    1.44    57.32986    57.67447    44.94505
   395  H   1.0    0.09    1.07    1.44    36.44473    67.20436    52.80906
   396  H   1.0    0.06    1.05    1.44    32.66823    72.17145    54.23544
   397  H   1.0    0.09    1.07    1.44    30.41458    64.68176    59.11591
   398  H   1.0    0.06    1.05    1.44    32.97422    69.54121    62.55949
   399  H   1.0    0.10    1.07    1.44    29.55389    66.58055    70.17782
   400  H   1.0    0.06    1.04    1.43    29.20145    72.57418    72.27948

  Z AO/shell   Hii/eV     exponent
  1     Wed Apr 25 08:07:45 CEST 2018   EN: 2.200 GM2: 0.406  GM3: 0.0800  RAES: 1.40
     1s    -10.707211    1.230000
  6     Wed Apr 25 08:07:45 CEST 2018   EN: 2.550 GM2: 0.538  GM3: 0.1500  RAES: 3.00
     2s    -13.970922    2.096432
     2p    -10.063292    1.800000
  7     Wed Apr 25 08:07:45 CEST 2018   EN: 3.040 GM2: 0.461  GM3:-0.0640  RAES: 1.90
     2s    -16.686243    2.339881
     2p    -12.523956    2.014332
  8     Wed Apr 25 08:07:45 CEST 2018   EN: 3.440 GM2: 0.452  GM3:-0.0517  RAES: 1.80
     2s    -20.229985    2.439742
     2p    -15.503117    2.137023
 16     Tue Apr 24 11:44:34 CEST 2018   EN: 2.580 GM2: 0.340  GM3:-0.0502  RAES: 3.10
     3s    -20.029654    1.981333
     3p    -11.377694    2.025643
     3d     -0.420282    1.702555
 no old-style atom pair restraining (fixing) potential

molecular fragmentation (1/2 indicates fragments):
111111111111111111122222222222222222222222222222222222222222222222222222
222222222222222222222222222222222222222222222222222222222222222222222222
222222222222222222222222222222222222222222222222222222222222222222222222
222222222222222222222222222222222222222222222222222222222222222222222222
222222222222222222222222222222222222222222222222222222222222222222222222
2222222222222222222211222222222222222222
# atoms in fragment 1/2:    21   379
 fragment masses (1/2) :      115.17     2472.38
CMA distance (Bohr)    :  22.051
constraining FC (au)   :  0.0500
           ------------------------------------------------- 
          |        Self-Consistent Charge Iterations        |
           ------------------------------------------------- 

 Ncao       : 958
 Nao        : 953
 Nshell     : 581
 Nel        : 1012
 T(el)      :   500.0
 intcut     :    35.0
 scfconv/Eh :  0.100E-06
   qconv/e  :  0.100E-04
 intneglect :  0.100E-08
 broydamp   :      0.400
 iter      E             dE          RMSdq      gap      omega  full diag
   1   -569.4946686 -0.569495E+03  0.432E+00    2.79       0.0  T
   2   -570.6396345 -0.114497E+01  0.205E+00    1.80       1.0  T
   3   -570.7018655 -0.622310E-01  0.117E+00    1.99       1.0  T
   4   -570.7969101 -0.950446E-01  0.223E-01    1.36       1.0  T
   5   -570.8003277 -0.341753E-02  0.104E-01    1.52       1.0  T
   6   -570.8011211 -0.793471E-03  0.426E-02    1.48       1.0  T
   7   -570.8013096 -0.188421E-03  0.186E-02    1.47       1.0  T
   8   -570.8013364 -0.268058E-04  0.857E-03    1.46       1.0  T
   9   -570.8013428 -0.643565E-05  0.391E-03    1.46       1.3  T
  10   -570.8013439 -0.109863E-05  0.157E-03    1.46       3.2  T
  11   -570.8013440 -0.141743E-06  0.795E-04    1.46       6.3  T
  12   -570.8013441 -0.333637E-07  0.353E-04    1.46      14.2  T
  13   -570.8013441 -0.155021E-07  0.179E-04    1.46      27.9  T
  14   -570.8013441 -0.197917E-08  0.832E-05    1.46      60.1  T
  15   -570.8013441 -0.689852E-09  0.338E-05    1.46     148.0  T
speedup  1.00
cpu  time for SCC    5.89 s
wall time for SCC    5.89 s

   *** convergence criteria satisfied after 15 iterations ***

          eigenvalues
 #    :         494        495        496        497        498        499        500        501
 occ. :        2.000      2.000      2.000      2.000      2.000      2.000      2.000      2.000
 eps  :       -10.130    -10.111    -10.100    -10.075    -10.040    -10.029     -9.981     -9.951
 #    :         502        503        504        505        506        507        508        509
 occ. :        2.000      2.000      2.000      2.000      2.000      0.000      0.000      0.000
 eps  :        -9.843     -9.762     -9.731     -9.628     -9.568     -8.105     -7.819     -7.745
 #    :         510        511        512        513        514        515        516        517
 occ. :        0.000      0.000      0.000      0.000      0.000      0.000      0.000      0.000
 eps  :        -7.737     -7.672     -7.669     -7.653     -7.638     -7.504     -7.474     -6.966


   #   Z            q   n(s)   n(p)   n(d)      C6AA      α(0)
   1   7 N     -0.392  1.315  4.076  0.000    30.138     8.153
   2   6 C      0.038  1.058  2.904  0.000    19.946     6.361
   3   6 C      0.201  1.093  2.706  0.000    23.729     7.978
   4   8 O     -0.376  1.752  4.624  0.000    21.200     6.173
   5   6 C     -0.022  1.067  2.954  0.000    20.923     6.506
   6   6 C     -0.059  1.049  3.010  0.000    21.634     6.622
   7   6 C     -0.113  1.038  3.075  0.000    22.724     6.797
   8   6 C     -0.110  1.037  3.073  0.000    22.660     6.788
   9   1 H      0.169  0.831  0.000  0.000     1.279     1.771
  10   1 H      0.039  0.961  0.000  0.000     2.460     2.453
  11   1 H      0.046  0.954  0.000  0.000     2.367     2.406
  12   1 H      0.041  0.959  0.000  0.000     2.440     2.443
  13   1 H      0.036  0.964  0.000  0.000     2.508     2.477
  14   1 H      0.054  0.946  0.000  0.000     2.267     2.355
  15   1 H      0.035  0.965  0.000  0.000     2.515     2.480
  16   1 H      0.041  0.959  0.000  0.000     2.433     2.439
  17   1 H      0.045  0.955  0.000  0.000     2.382     2.414
  18   1 H      0.040  0.960  0.000  0.000     2.446     2.446
  19   1 H      0.042  0.958  0.000  0.000     2.421     2.433
  20   7 N     -0.408  1.315  4.093  0.000    30.608     8.217
  21   6 C      0.045  1.054  2.902  0.000    19.839     6.345
  22   6 C      0.200  1.094  2.706  0.000    23.744     7.980
  23   8 O     -0.395  1.761  4.635  0.000    21.582     6.229
  24   6 C     -0.067  1.059  3.008  0.000    21.765     6.640
  25   6 C     -0.012  1.056  2.956  0.000    20.748     6.479
  26   6 C     -0.115  1.043  3.072  0.000    22.744     6.799
  27   6 C     -0.113  1.039  3.074  0.000    22.714     6.795
  28   1 H      0.194  0.806  0.000  0.000     1.135     1.669
  29   1 H      0.041  0.959  0.000  0.000     2.435     2.440
  30   1 H      0.042  0.958  0.000  0.000     2.417     2.431
  31   1 H      0.039  0.961  0.000  0.000     2.459     2.452
  32   1 H      0.056  0.944  0.000  0.000     2.248     2.345
  33   1 H      0.047  0.953  0.000  0.000     2.357     2.401
  34   1 H      0.036  0.964  0.000  0.000     2.506     2.475
  35   1 H      0.040  0.960  0.000  0.000     2.445     2.445
  36   1 H      0.040  0.960  0.000  0.000     2.445     2.445
  37   1 H      0.039  0.961  0.000  0.000     2.459     2.452
  38   1 H      0.035  0.965  0.000  0.000     2.521     2.483
  39   7 N     -0.391  1.315  4.076  0.000    30.116     8.150
  40   6 C      0.035  1.055  2.910  0.000    19.983     6.364
  41   6 C      0.196  1.093  2.711  0.000    23.816     7.992
  42   8 O     -0.371  1.762  4.609  0.000    21.104     6.159
  43   6 C     -0.012  1.071  2.941  0.000    20.804     6.495
  44  16 S     -0.297  1.929  4.338  0.030   153.920    20.881
  45   1 H      0.171  0.829  0.000  0.000     1.267     1.763
  46   1 H      0.080  0.920  0.000  0.000     1.977     2.199
  47   1 H      0.078  0.922  0.000  0.000     2.003     2.213
  48   1 H      0.057  0.943  0.000  0.000     2.231     2.336
  49   1 H      0.178  0.822  0.000  0.000     1.216     1.725
  50   7 N     -0.392  1.322  4.070  0.000    30.139     8.153
  51   6 C      0.036  1.057  2.907  0.000    19.988     6.368
  52   6 C      0.209  1.091  2.700  0.000    23.563     7.950
  53   8 O     -0.375  1.745  4.630  0.000    21.187     6.171
  54   6 C     -0.021  1.071  2.950  0.000    20.920     6.506
  55   6 C     -0.062  1.052  3.010  0.000    21.685     6.630
  56   6 C     -0.117  1.037  3.080  0.000    22.800     6.809
  57   6 C     -0.108  1.034  3.074  0.000    22.617     6.782
  58   1 H      0.160  0.840  0.000  0.000     1.334     1.809
  59   1 H      0.053  0.947  0.000  0.000     2.281     2.362
  60   1 H      0.046  0.954  0.000  0.000     2.374     2.410
  61   1 H      0.035  0.965  0.000  0.000     2.513     2.479
  62   1 H      0.046  0.954  0.000  0.000     2.368     2.406
  63   1 H      0.050  0.950  0.000  0.000     2.325     2.384
  64   1 H      0.055  0.945  0.000  0.000     2.263     2.353
  65   1 H      0.040  0.960  0.000  0.000     2.453     2.449
  66   1 H      0.037  0.963  0.000  0.000     2.491     2.468
  67   1 H      0.039  0.961  0.000  0.000     2.463     2.454
  68   1 H      0.035  0.965  0.000  0.000     2.511     2.478
  69   7 N     -0.407  1.317  4.090  0.000    30.575     8.212
  70   6 C      0.038  1.058  2.904  0.000    19.952     6.362
  71   6 C      0.204  1.091  2.705  0.000    23.672     7.968
  72   8 O     -0.401  1.765  4.636  0.000    21.697     6.245
  73   6 C     -0.012  1.060  2.952  0.000    20.761     6.481
  74   6 C     -0.117  1.040  3.077  0.000    22.794     6.807
  75   6 C     -0.118  1.038  3.080  0.000    22.817     6.811
  76   1 H      0.200  0.800  0.000  0.000     1.105     1.647
  77   1 H      0.044  0.956  0.000  0.000     2.402     2.424
  78   1 H      0.018  0.982  0.000  0.000     2.760     2.598
  79   1 H      0.047  0.953  0.000  0.000     2.358     2.402
  80   1 H      0.038  0.962  0.000  0.000     2.471     2.458
  81   1 H      0.059  0.941  0.000  0.000     2.210     2.325
  82   1 H      0.047  0.953  0.000  0.000     2.353     2.399
  83   1 H      0.065  0.935  0.000  0.000     2.138     2.287
  84   1 H      0.032  0.968  0.000  0.000     2.560     2.502
  85   7 N     -0.393  1.311  4.081  0.000    30.178     8.159
  86   6 C      0.040  1.054  2.906  0.000    19.916     6.357
  87   6 C      0.198  1.094  2.708  0.000    23.773     7.985
  88   8 O     -0.390  1.760  4.630  0.000    21.486     6.215
  89   6 C     -0.070  1.059  3.011  0.000    21.828     6.650
  90   6 C     -0.008  1.054  2.954  0.000    20.691     6.470
  91   6 C     -0.123  1.044  3.079  0.000    22.903     6.822
  92   6 C     -0.115  1.039  3.076  0.000    22.747     6.800
  93   1 H      0.164  0.836  0.000  0.000     1.308     1.792
  94   1 H      0.060  0.940  0.000  0.000     2.200     2.320
  95   1 H      0.043  0.957  0.000  0.000     2.408     2.427
  96   1 H      0.049  0.951  0.000  0.000     2.334     2.389
  97   1 H      0.032  0.968  0.000  0.000     2.558     2.501
  98   1 H      0.055  0.945  0.000  0.000     2.255     2.348
  99   1 H      0.030  0.970  0.000  0.000     2.592     2.517
 100   1 H      0.050  0.950  0.000  0.000     2.319     2.381
 101   1 H      0.042  0.958  0.000  0.000     2.417     2.431
 102   1 H      0.048  0.952  0.000  0.000     2.345     2.395
 103   1 H      0.035  0.965  0.000  0.000     2.513     2.479
 104   7 N     -0.390  1.304  4.086  0.000    30.106     8.149
 105   6 C      0.031  1.056  2.913  0.000    20.074     6.381
 106   6 C      0.261  1.050  2.689  0.000    22.598     7.785
 107   8 O     -0.491  1.736  4.755  0.000    23.583     6.511
 108   6 C     -0.073  1.054  3.019  0.000    21.883     6.658
 109   6 C      0.012  1.082  2.907  0.000    27.749     8.641
 110   6 C     -0.042  1.081  2.961  0.000    29.048     8.839
 111   6 C     -0.044  1.076  2.967  0.000    29.088     8.845
 112   6 C     -0.031  1.081  2.950  0.000    28.773     8.796
 113   6 C     -0.036  1.081  2.954  0.000    28.887     8.814
 114   6 C     -0.035  1.079  2.955  0.000    28.870     8.811
 115   1 H      0.168  0.832  0.000  0.000     1.284     1.775
 116   1 H      0.038  0.962  0.000  0.000     2.469     2.457
 117   1 H      0.059  0.941  0.000  0.000     2.215     2.327
 118   1 H      0.056  0.944  0.000  0.000     2.250     2.346
 119   1 H      0.035  0.965  0.000  0.000     2.512     2.479
 120   1 H      0.042  0.958  0.000  0.000     2.425     2.435
 121   1 H      0.030  0.970  0.000  0.000     2.588     2.516
 122   1 H      0.035  0.965  0.000  0.000     2.521     2.483
 123   1 H      0.029  0.971  0.000  0.000     2.603     2.523
 124   7 N     -0.167  1.242  3.925  0.000    24.607     7.367
 125   6 C      0.010  1.067  2.923  0.000    20.410     6.432
 126   6 C      0.280  1.041  2.679  0.000    22.262     7.727
 127   8 O     -0.481  1.739  4.743  0.000    23.375     6.482
 128   6 C     -0.023  1.065  2.958  0.000    20.940     6.508
 129   6 C     -0.119  1.039  3.080  0.000    22.838     6.814
 130   6 C     -0.125  1.041  3.084  0.000    22.955     6.831
 131   1 H      0.221  0.779  0.000  0.000     1.005     1.570
 132   1 H      0.084  0.916  0.000  0.000     1.941     2.179
 133   1 H      0.052  0.948  0.000  0.000     2.296     2.370
 134   1 H      0.061  0.939  0.000  0.000     2.188     2.313
 135   1 H      0.039  0.961  0.000  0.000     2.462     2.454
 136   1 H      0.051  0.949  0.000  0.000     2.306     2.375
 137   1 H      0.061  0.939  0.000  0.000     2.183     2.311
 138   1 H      0.054  0.946  0.000  0.000     2.275     2.358
 139   1 H      0.049  0.951  0.000  0.000     2.329     2.386
 140   7 N     -0.182  1.247  3.935  0.000    24.932     7.416
 141   6 C      0.015  1.060  2.925  0.000    20.330     6.419
 142   6 C      0.273  1.039  2.688  0.000    22.377     7.746
 143   8 O     -0.478  1.736  4.741  0.000    23.295     6.471
 144   6 C     -0.078  1.057  3.021  0.000    21.972     6.670
 145   6 C     -0.014  1.064  2.950  0.000    20.831     6.499
 146  16 S     -0.231  1.927  4.249  0.055   150.944    20.678
 147   6 C     -0.066  1.056  3.010  0.000    21.836     6.666
 148   1 H      0.217  0.783  0.000  0.000     1.024     1.585
 149   1 H      0.093  0.907  0.000  0.000     1.849     2.127
 150   1 H      0.081  0.919  0.000  0.000     1.967     2.193
 151   1 H      0.068  0.932  0.000  0.000     2.103     2.268
 152   1 H      0.068  0.932  0.000  0.000     2.102     2.267
 153   1 H      0.058  0.942  0.000  0.000     2.224     2.332
 154   1 H      0.070  0.930  0.000  0.000     2.089     2.260
 155   1 H      0.064  0.936  0.000  0.000     2.147     2.292
 156   1 H      0.064  0.936  0.000  0.000     2.155     2.296
 157   7 N     -0.169  1.242  3.927  0.000    24.660     7.375
 158   6 C      0.022  1.063  2.915  0.000    20.213     6.403
 159   6 C      0.273  1.040  2.687  0.000    22.384     7.748
 160   8 O     -0.492  1.741  4.751  0.000    23.609     6.515
 161   6 C     -0.081  1.058  3.022  0.000    22.032     6.681
 162   6 C      0.005  1.078  2.917  0.000    27.903     8.665
 163   6 C     -0.039  1.081  2.958  0.000    28.958     8.825
 164   6 C     -0.045  1.083  2.962  0.000    29.121     8.850
 165   6 C     -0.030  1.081  2.949  0.000    28.753     8.793
 166   6 C     -0.032  1.079  2.952  0.000    28.787     8.798
 167   6 C     -0.033  1.080  2.953  0.000    28.824     8.804
 168   1 H      0.211  0.789  0.000  0.000     1.053     1.608
 169   1 H      0.073  0.927  0.000  0.000     2.058     2.243
 170   1 H      0.074  0.926  0.000  0.000     2.046     2.237
 171   1 H      0.063  0.937  0.000  0.000     2.169     2.303
 172   1 H      0.038  0.962  0.000  0.000     2.474     2.460
 173   1 H      0.046  0.954  0.000  0.000     2.370     2.407
 174   1 H      0.040  0.960  0.000  0.000     2.448     2.447
 175   1 H      0.037  0.963  0.000  0.000     2.492     2.469
 176   1 H      0.039  0.961  0.000  0.000     2.463     2.454
 177   7 N     -0.186  1.254  3.932  0.000    25.022     7.429
 178   6 C      0.022  1.064  2.914  0.000    20.190     6.396
 179   6 C      0.280  1.041  2.679  0.000    22.256     7.726
 180   8 O     -0.486  1.730  4.756  0.000    23.477     6.496
 181   6 C     -0.019  1.061  2.958  0.000    20.871     6.498
 182   6 C     -0.121  1.040  3.081  0.000    22.869     6.818
 183   6 C     -0.118  1.040  3.078  0.000    22.811     6.809
 184   1 H      0.243  0.757  0.000  0.000     0.913     1.497
 185   1 H      0.070  0.930  0.000  0.000     2.090     2.261
 186   1 H      0.052  0.948  0.000  0.000     2.294     2.368
 187   1 H      0.062  0.938  0.000  0.000     2.180     2.309
 188   1 H      0.041  0.959  0.000  0.000     2.438     2.442
 189   1 H      0.050  0.950  0.000  0.000     2.316     2.380
 190   1 H      0.056  0.944  0.000  0.000     2.243     2.342
 191   1 H      0.042  0.958  0.000  0.000     2.428     2.437
 192   1 H      0.055  0.945  0.000  0.000     2.254     2.348
 193   7 N     -0.194  1.252  3.942  0.000    25.214     7.458
 194   6 C      0.022  1.059  2.919  0.000    20.197     6.399
 195   6 C      0.285  1.040  2.675  0.000    22.174     7.712
 196   8 O     -0.488  1.731  4.757  0.000    23.519     6.502
 197   6 C      0.075  1.039  2.886  0.000    19.545     6.333
 198   8 O     -0.471  1.719  4.752  0.000    22.277     6.372
 199   1 H      0.239  0.761  0.000  0.000     0.928     1.509
 200   1 H      0.088  0.912  0.000  0.000     1.897     2.154
 201   1 H      0.059  0.941  0.000  0.000     2.213     2.326
 202   1 H      0.039  0.961  0.000  0.000     2.456     2.451
 203   1 H      0.342  0.658  0.000  0.000     0.607     1.223
 204   7 N     -0.197  1.257  3.940  0.000    25.286     7.468
 205   6 C      0.033  1.056  2.911  0.000    20.020     6.370
 206   6 C      0.274  1.042  2.684  0.000    22.364     7.745
 207   8 O     -0.507  1.738  4.768  0.000    23.934     6.559
 208   6 C     -0.059  1.050  3.010  0.000    21.615     6.615
 209   6 C     -0.012  1.065  2.947  0.000    20.793     6.493
 210  16 S     -0.217  1.920  4.248  0.049   150.309    20.635
 211   6 C     -0.062  1.053  3.009  0.000    21.756     6.654
 212   1 H      0.242  0.758  0.000  0.000     0.915     1.498
 213   1 H      0.066  0.934  0.000  0.000     2.134     2.284
 214   1 H      0.064  0.936  0.000  0.000     2.149     2.292
 215   1 H      0.053  0.947  0.000  0.000     2.281     2.362
 216   1 H      0.053  0.947  0.000  0.000     2.286     2.364
 217   1 H      0.069  0.931  0.000  0.000     2.092     2.262
 218   1 H      0.076  0.924  0.000  0.000     2.021     2.223
 219   1 H      0.058  0.942  0.000  0.000     2.218     2.329
 220   1 H      0.048  0.952  0.000  0.000     2.341     2.393
 221   7 N     -0.175  1.248  3.927  0.000    24.791     7.395
 222   6 C      0.027  1.055  2.918  0.000    20.122     6.386
 223   6 C      0.263  1.047  2.690  0.000    22.564     7.780
 224   8 O     -0.511  1.743  4.768  0.000    24.037     6.573
 225   6 C     -0.073  1.058  3.014  0.000    21.878     6.658
 226   6 C     -0.013  1.057  2.956  0.000    20.774     6.483
 227   6 C     -0.117  1.044  3.073  0.000    22.789     6.806
 228   6 C     -0.111  1.038  3.073  0.000    22.681     6.790
 229   1 H      0.241  0.759  0.000  0.000     0.919     1.501
 230   1 H      0.069  0.931  0.000  0.000     2.094     2.263
 231   1 H      0.056  0.944  0.000  0.000     2.252     2.347
 232   1 H      0.057  0.943  0.000  0.000     2.240     2.340
 233   1 H      0.051  0.949  0.000  0.000     2.304     2.374
 234   1 H      0.050  0.950  0.000  0.000     2.322     2.383
 235   1 H      0.043  0.957  0.000  0.000     2.411     2.428
 236   1 H      0.039  0.961  0.000  0.000     2.463     2.454
 237   1 H      0.050  0.950  0.000  0.000     2.323     2.384
 238   1 H      0.032  0.968  0.000  0.000     2.563     2.503
 239   1 H      0.028  0.972  0.000  0.000     2.609     2.526
 240   7 N     -0.184  1.255  3.929  0.000    24.980     7.423
 241   6 C      0.023  1.065  2.912  0.000    20.179     6.394
 242   6 C      0.284  1.043  2.673  0.000    22.181     7.713
 243   8 O     -0.512  1.740  4.771  0.000    24.042     6.574
 244   6 C     -0.023  1.067  2.956  0.000    20.945     6.509
 245   6 C     -0.078  1.052  3.025  0.000    21.980     6.675
 246   6 C     -0.127  1.041  3.086  0.000    22.997     6.838
 247   6 C     -0.121  1.039  3.082  0.000    22.885     6.822
 248   1 H      0.252  0.748  0.000  0.000     0.876     1.466
 249   1 H      0.064  0.936  0.000  0.000     2.151     2.293
 250   1 H      0.049  0.951  0.000  0.000     2.332     2.388
 251   1 H      0.057  0.943  0.000  0.000     2.235     2.338
 252   1 H      0.053  0.947  0.000  0.000     2.280     2.361
 253   1 H      0.061  0.939  0.000  0.000     2.183     2.310
 254   1 H      0.046  0.954  0.000  0.000     2.373     2.409
 255   1 H      0.065  0.935  0.000  0.000     2.144     2.290
 256   1 H      0.051  0.949  0.000  0.000     2.309     2.376
 257   1 H      0.027  0.973  0.000  0.000     2.633     2.538
 258   1 H      0.049  0.951  0.000  0.000     2.336     2.390
 259   7 N     -0.194  1.254  3.940  0.000    25.214     7.458
 260   6 C      0.028  1.062  2.910  0.000    20.115     6.386
 261   6 C      0.280  1.041  2.679  0.000    22.261     7.727
 262   8 O     -0.508  1.745  4.764  0.000    23.970     6.564
 263   6 C     -0.019  1.062  2.957  0.000    20.878     6.499
 264   6 C     -0.112  1.038  3.075  0.000    22.706     6.794
 265   6 C     -0.122  1.042  3.080  0.000    22.890     6.821
 266   1 H      0.249  0.751  0.000  0.000     0.888     1.476
 267   1 H      0.059  0.941  0.000  0.000     2.213     2.327
 268   1 H      0.055  0.945  0.000  0.000     2.261     2.351
 269   1 H      0.066  0.934  0.000  0.000     2.126     2.280
 270   1 H      0.026  0.974  0.000  0.000     2.645     2.543
 271   1 H      0.042  0.958  0.000  0.000     2.424     2.435
 272   1 H      0.060  0.940  0.000  0.000     2.194     2.317
 273   1 H      0.042  0.958  0.000  0.000     2.420     2.433
 274   1 H      0.064  0.936  0.000  0.000     2.156     2.296
 275   7 N     -0.212  1.270  3.941  0.000    25.615     7.517
 276   6 C      0.035  1.053  2.912  0.000    19.981     6.363
 277   6 C      0.277  1.036  2.687  0.000    22.322     7.738
 278   8 O     -0.516  1.756  4.760  0.000    24.142     6.588
 279   6 C     -0.063  1.051  3.012  0.000    21.693     6.627
 280   6 C     -0.017  1.067  2.950  0.000    20.883     6.507
 281  16 S     -0.229  1.920  4.261  0.048   150.869    20.673
 282   6 C     -0.060  1.056  3.004  0.000    21.728     6.649
 283   1 H      0.240  0.760  0.000  0.000     0.922     1.504
 284   1 H      0.069  0.931  0.000  0.000     2.101     2.267
 285   1 H      0.051  0.949  0.000  0.000     2.308     2.376
 286   1 H      0.057  0.943  0.000  0.000     2.233     2.337
 287   1 H      0.076  0.924  0.000  0.000     2.024     2.225
 288   1 H      0.070  0.930  0.000  0.000     2.090     2.261
 289   1 H      0.066  0.934  0.000  0.000     2.125     2.279
 290   1 H      0.051  0.949  0.000  0.000     2.311     2.377
 291   1 H      0.062  0.938  0.000  0.000     2.171     2.304
 292   7 N     -0.201  1.257  3.943  0.000    25.356     7.479
 293   6 C      0.047  1.052  2.901  0.000    19.779     6.330
 294   6 C      0.286  1.040  2.674  0.000    22.158     7.709
 295   8 O     -0.532  1.757  4.774  0.000    24.498     6.636
 296   6 C     -0.104  1.060  3.044  0.000    22.469     6.747
 297   6 C      0.300  1.033  2.667  0.000    21.902     7.663
 298   8 O     -0.495  1.751  4.744  0.000    23.672     6.523
 299   7 N     -0.272  1.257  4.015  0.000    27.047     7.724
 300   1 H      0.241  0.759  0.000  0.000     0.921     1.503
 301   1 H      0.067  0.933  0.000  0.000     2.118     2.276
 302   1 H      0.082  0.918  0.000  0.000     1.962     2.190
 303   1 H      0.077  0.923  0.000  0.000     2.006     2.215
 304   1 H      0.233  0.767  0.000  0.000     0.954     1.530
 305   1 H      0.224  0.776  0.000  0.000     0.991     1.559
 306   7 N     -0.208  1.257  3.951  0.000    25.524     7.503
 307   6 C      0.045  1.053  2.902  0.000    19.799     6.331
 308   6 C      0.273  1.043  2.684  0.000    22.386     7.749
 309   8 O     -0.519  1.752  4.766  0.000    24.200     6.596
 310   6 C     -0.008  1.062  2.946  0.000    20.720     6.481
 311  16 S     -0.288  1.920  4.331  0.037   153.504    20.853
 312   1 H      0.240  0.760  0.000  0.000     0.923     1.505
 313   1 H      0.058  0.942  0.000  0.000     2.227     2.334
 314   1 H      0.064  0.936  0.000  0.000     2.157     2.297
 315   1 H      0.055  0.945  0.000  0.000     2.257     2.349
 316   1 H      0.194  0.806  0.000  0.000     1.130     1.663
 317   7 N     -0.176  1.247  3.929  0.000    24.814     7.398
 318   6 C      0.035  1.058  2.907  0.000    19.987     6.364
 319   6 C      0.215  1.087  2.699  0.000    23.464     7.933
 320   8 O     -0.377  1.752  4.625  0.000    21.228     6.177
 321   6 C     -0.011  1.060  2.951  0.000    20.736     6.477
 322   6 C     -0.122  1.040  3.083  0.000    22.903     6.824
 323   6 C     -0.117  1.037  3.080  0.000    22.793     6.807
 324   1 H      0.234  0.766  0.000  0.000     0.949     1.526
 325   1 H      0.085  0.915  0.000  0.000     1.932     2.173
 326   1 H      0.055  0.945  0.000  0.000     2.259     2.350
 327   1 H      0.061  0.939  0.000  0.000     2.186     2.312
 328   1 H      0.046  0.954  0.000  0.000     2.369     2.407
 329   1 H      0.060  0.940  0.000  0.000     2.200     2.319
 330   1 H      0.061  0.939  0.000  0.000     2.190     2.314
 331   1 H      0.055  0.945  0.000  0.000     2.255     2.348
 332   1 H      0.030  0.970  0.000  0.000     2.588     2.516
 333   7 N     -0.395  1.324  4.071  0.000    30.231     8.166
 334   6 C      0.035  1.053  2.911  0.000    19.998     6.370
 335   6 C      0.199  1.091  2.710  0.000    23.767     7.984
 336   8 O     -0.376  1.757  4.619  0.000    21.216     6.175
 337   6 C     -0.070  1.061  3.009  0.000    21.836     6.651
 338   6 C     -0.011  1.055  2.957  0.000    20.744     6.478
 339   6 C     -0.117  1.041  3.076  0.000    22.786     6.806
 340   6 C     -0.116  1.041  3.075  0.000    22.769     6.803
 341   1 H      0.164  0.836  0.000  0.000     1.307     1.791
 342   1 H      0.060  0.940  0.000  0.000     2.194     2.316
 343   1 H      0.054  0.946  0.000  0.000     2.269     2.356
 344   1 H      0.043  0.957  0.000  0.000     2.415     2.430
 345   1 H      0.027  0.973  0.000  0.000     2.624     2.533
 346   1 H      0.050  0.950  0.000  0.000     2.319     2.381
 347   1 H      0.042  0.958  0.000  0.000     2.421     2.433
 348   1 H      0.039  0.961  0.000  0.000     2.461     2.453
 349   1 H      0.046  0.954  0.000  0.000     2.375     2.410
 350   1 H      0.041  0.959  0.000  0.000     2.429     2.437
 351   1 H      0.034  0.966  0.000  0.000     2.537     2.491
 352   7 N     -0.386  1.316  4.070  0.000    29.984     8.132
 353   6 C      0.035  1.060  2.905  0.000    20.001     6.370
 354   6 C      0.198  1.094  2.708  0.000    23.779     7.986
 355   8 O     -0.372  1.741  4.632  0.000    21.136     6.164
 356   6 C     -0.020  1.067  2.953  0.000    20.891     6.501
 357   6 C     -0.060  1.047  3.013  0.000    21.651     6.625
 358   6 C     -0.109  1.036  3.073  0.000    22.643     6.785
 359   6 C     -0.108  1.035  3.073  0.000    22.622     6.783
 360   1 H      0.154  0.846  0.000  0.000     1.372     1.835
 361   1 H      0.057  0.943  0.000  0.000     2.240     2.341
 362   1 H      0.038  0.962  0.000  0.000     2.470     2.458
 363   1 H      0.040  0.960  0.000  0.000     2.444     2.445
 364   1 H      0.033  0.967  0.000  0.000     2.538     2.491
 365   1 H      0.049  0.951  0.000  0.000     2.335     2.390
 366   1 H      0.040  0.960  0.000  0.000     2.455     2.450
 367   1 H      0.042  0.958  0.000  0.000     2.419     2.432
 368   1 H      0.043  0.957  0.000  0.000     2.403     2.424
 369   1 H      0.035  0.965  0.000  0.000     2.521     2.483
 370   1 H      0.040  0.960  0.000  0.000     2.453     2.449
 371   7 N     -0.412  1.325  4.088  0.000    30.720     8.232
 372   6 C      0.049  1.051  2.900  0.000    19.777     6.335
 373   6 C      0.199  1.096  2.705  0.000    23.755     7.982
 374   8 O     -0.395  1.763  4.632  0.000    21.585     6.229
 375   6 C     -0.117  1.043  3.074  0.000    22.788     6.806
 376   1 H      0.198  0.802  0.000  0.000     1.119     1.657
 377   1 H      0.043  0.957  0.000  0.000     2.415     2.430
 378   1 H      0.048  0.952  0.000  0.000     2.340     2.392
 379   1 H      0.074  0.926  0.000  0.000     2.047     2.237
 380   1 H      0.058  0.942  0.000  0.000     2.220     2.330
 381   1 H      0.182  0.818  0.000  0.000     1.202     1.717
 382   1 H      0.073  0.927  0.000  0.000     2.057     2.242
 383   1 H      0.174  0.826  0.000  0.000     1.249     1.751
 384   1 H      0.071  0.929  0.000  0.000     2.076     2.253
 385   1 H      0.191  0.809  0.000  0.000     1.154     1.683
 386   1 H      0.080  0.920  0.000  0.000     1.974     2.197
 387   1 H      0.186  0.814  0.000  0.000     1.178     1.700
 388   1 H      0.074  0.926  0.000  0.000     2.043     2.235
 389   1 H      0.175  0.825  0.000  0.000     1.242     1.746
 390   1 H      0.072  0.928  0.000  0.000     2.063     2.246
 391   1 H      0.182  0.818  0.000  0.000     1.205     1.719
 392   1 H      0.070  0.930  0.000  0.000     2.080     2.255
 393   1 H      0.179  0.821  0.000  0.000     1.221     1.730
 394   1 H      0.063  0.937  0.000  0.000     2.160     2.298
 395   1 H      0.182  0.818  0.000  0.000     1.203     1.718
 396   1 H      0.069  0.931  0.000  0.000     2.097     2.265
 397   1 H      0.185  0.815  0.000  0.000     1.183     1.703
 398   1 H      0.073  0.927  0.000  0.000     2.051     2.239
 399   1 H      0.176  0.824  0.000  0.000     1.235     1.741
 400   1 H      0.072  0.928  0.000  0.000     2.064     2.247

 Mol. C6AA /au·bohr⁶  :    1444342.949117
 Mol. C8AA /au·bohr⁸  :   33205952.563319
 Mol. α(0) /au        :       1813.036850

 
molecular dipole:
                 x           y           z       tot (Debye)
 q only:       -8.011       4.310      30.137
   full:       -9.265       4.358      32.673      87.030
molecular quadrupole (traceless):
                xx          xy          yy          xz          yz          zz
 q only:    -2992.505    -333.819    -749.281    1744.920    3204.799    3741.786
  q+dip:    -3304.833    -418.371    -842.984    1820.153    3449.209    4147.817
   full:    -3302.813    -413.402    -838.769    1819.616    3448.418    4141.582
speedup  1.00
cpu  time for grad    7.63 s
wall time for grad    7.64 s

SCC energy    :    -570.8271664
rep           :       7.3547102
ES            :       1.1474633
AES           :       0.0113189
AXC           :       0.2504968
disp          :      -0.5074348
XB            :       0.0000000
fix           :       0.0000000
Gborn         :       0.0000000
Gsasa         :       0.0000000
Ghb           :       0.0000000
Gshift        :       0.0000000
Gsolv         :      -0.2060501     -129.30
Etot ala COSMO:    -570.8271664
grad norm     :       0.7051811
total E       :    -563.4259780
atomizationE  :     106.6902765    66949.16
(atE without considering molecular charge,
 total energy contains solvation terms)
H-L gap (eV)  :          1.4630

------------------------------------------------------------------------
 * finished run on 2019/03/14 at 15:08:37.618     
------------------------------------------------------------------------
 total:
 * wall-time:     0 d,  0 h,  0 min,  8.275 sec
 *  cpu-time:     0 d,  0 h,  0 min,  8.175 sec
 * ratio c/w:     0.988 speedup
 SCF:
 * wall-time:     0 d,  0 h,  0 min,  8.037 sec
 *  cpu-time:     0 d,  0 h,  0 min,  8.034 sec
 * ratio c/w:     1.000 speedup

