      -----------------------------------------------------------      
     |                   =====================                   |     
     |                           x T B                           |     
     |                   =====================                   |     
     |                         S. Grimme                         |     
     |          Mulliken Center for Theoretical Chemistry        |     
     |                    University of Bonn                     |     
     |                 Version 6.0.1 (SAW181210)                 |     
      -----------------------------------------------------------      

   This program is distributed in the hope that it will be useful,
   but WITHOUT ANY WARRANTY; without even the implied warranty of
   MERCHANTABILITY or FITNESS FOR A PARTICULAR PURPOSE.
   
   FOR NON-COMMERCIAL, ACADEMIA USE ONLY.
   
   Cite this work as:
   S. Grimme, C. Bannwarth, P. Shushkov, J. Comput. Theory Chem., 2017,
   13, 1989-2009.
   C. Bannwarth, S. Ehlert and S. Grimme., ChemRxiv, 2018, preprint.
   http://doi.org/10.26434/chemrxiv.7246238.v1
   
   for sTDA-xTB:
   S. Grimme and C. Bannwarth, J. Chem. Phys., 2016, 145, 054103.
   
   in the mass-spec context:
   V. Asgeirsson, C. Bauer and S. Grimme, Chem. Sci., 2017, 8, 4879.
   
   if GBSA is used:
   P. Shushkov, F. März and S. Grimme, unpublished.
   
   for ANC optimizer:
   S. Grimme, unpublished.
   Rational Function algorithm used in ANCopt:
   F. Eckert, P. Pulay, H.-J. Werner, J. Comput. Chem., 1997, 18, 1473.
   
   with help from (in alphabetical order)
   C. Bannwarth, F. Bohle, G. Brandenburg, E. Caldeweyher, M. Checinski,
   S. Dohm, S. Ehlert, S. Ehrlich, F. März, H. Neugebauer, J. Pisarek,
   P. Pracht, P. Shushkov, and S. Spicher.
   
 * started run on 2019/03/07 at 11:37:45.429     
========================================================================
 # omp threads = 1
========================================================================
number of atoms            : 340
number of electrons        : 908
charge                     : 1
spin                       : .0
first test random number   : .1292
           ------------------------------------------------- 
          |                 G F N 2 - x T B                 |
          | Geometry, Frequencies, Noncovalent interactions |
          |            JCTC 2018 parametrisation            |
           ------------------------------------------------- 
 
      method parameters     
 k(s)        :  1.8500
 k(p)        :  2.2300
 k(d)        :  2.2300
 k(f)        :  2.0000
 kEN (H0ij)  : -2.0000
 D4 a1       :  0.5200
 D4 a2       :  5.0000
 D4 s6       :  1.0000
 D4 s8       :  2.7000
 D4 s9       :  5.0000
 alphaj      :  2.0000

 Solvent             : h2o
 Using internal parameter file: .param_gbsa2_h2o
 Gsolv ref. state (COSMO-RS): gsolv [1 M gas/solution]
 temperature (mdtemp)       :    298.150000000000     
 dielectric constant        :    80.2000000000000     
 rho                        :    1.00000000000000     
 mass                       :    18.0000000000000     
 surface tension            :    15.5689454083859     
 probe radius               :   0.975313790000000     
 vdW radii scaling          :    1.00000000000000     
 Gshift (Eh)                :   1.857443126794793E-003
 c1                         :    1.55243817000000     
 soset                      :   0.130326360000000     
 HB correction              :  T

            Z     q(EN)     CN     RAES       Cart. coordinates
     1  N   5.0   -0.21    3.22    1.96   215.02058   119.50060   296.57548
     2  C   4.0    0.03    4.25    4.09   214.20422   116.85309   296.51501
     3  C   4.0    0.08    3.20    3.04   216.20544   115.08620   297.70743
     4  O   6.0   -0.27    1.13    1.80   218.41264   115.07486   296.94587
     5  C   4.0   -0.05    4.45    4.47   213.63163   115.97059   293.80325
     6  C   4.0   -0.02    4.33    4.26   215.72922   115.28651   291.97589
     7  C   4.0   -0.09    4.27    4.14   214.66342   113.99394   289.74034
     8  C   4.0   -0.07    4.20    4.01   217.27691   117.65056   291.14819
     9  H   1.0    0.11    1.08    1.44   215.99568   119.93335   295.35094
    10  H   1.0    0.04    1.12    1.45   212.66409   116.75861   297.50523
    11  H   1.0    0.04    1.10    1.44   212.54504   114.50038   293.93931
    12  H   1.0    0.04    1.10    1.44   212.64519   117.29529   293.00957
    13  H   1.0    0.06    1.14    1.45   216.88007   114.15457   292.84327
    14  H   1.0    0.04    1.06    1.44   216.01646   113.56308   288.58005
    15  H   1.0    0.04    1.06    1.44   213.80359   112.46515   290.26946
    16  H   1.0    0.04    1.07    1.44   213.47100   115.10510   288.90130
    17  H   1.0    0.06    1.05    1.44   218.59783   117.14033   289.98412
    18  H   1.0    0.04    1.05    1.44   216.16575   118.85053   290.32238
    19  H   1.0    0.06    1.05    1.44   218.03280   118.43290   292.62217
    20  N   5.0   -0.22    3.22    1.96   209.21912   107.30620   297.96821
    21  C   4.0    0.03    4.31    4.22   210.35484   105.68481   296.05392
    22  C   4.0    0.08    3.22    3.04   211.26569   103.11101   296.90051
    23  O   6.0   -0.28    1.14    1.80   213.49935   102.84078   297.66018
    24  C   4.0   -0.05    4.42    4.41   212.54693   107.07565   294.78024
    25  C   4.0   -0.06    4.32    4.23   212.42031   107.19093   291.93431
    26  C   4.0   -0.06    4.29    4.18   210.12430   108.69704   291.01780
    27  C   4.0   -0.04    4.30    4.20   209.37975   107.77296   288.37596
    28  N   5.0   -0.16    4.15    3.29   208.56905   105.13301   288.31927
    29  H   1.0    0.11    1.08    1.44   210.28303   108.16413   298.84882
    30  H   1.0    0.04    1.14    1.45   208.96967   105.33143   294.90496
    31  H   1.0    0.04    1.10    1.44   212.61118   108.78774   295.43220
    32  H   1.0    0.07    1.11    1.45   214.11540   106.25929   295.26212
    33  H   1.0    0.04    1.09    1.44   213.95288   107.95815   291.28614
    34  H   1.0    0.05    1.10    1.44   212.34473   105.49017   291.25590
    35  H   1.0    0.05    1.09    1.44   208.72401   108.48539   292.17998
    36  H   1.0    0.04    1.08    1.44   210.51736   110.48661   290.97433
    37  H   1.0    0.05    1.09    1.44   208.02481   108.82743   287.73345
    38  H   1.0    0.04    1.09    1.44   210.80649   107.98461   287.24401
    39  H   1.0    0.07    1.09    1.44   207.48813   104.90436   287.05126
    40  H   1.0    0.07    1.09    1.44   209.90887   104.13902   288.10006
    41  H   1.0    0.07    1.10    1.44   207.81694   104.74562   289.77247
    42  N   5.0   -0.23    3.25    1.97   211.33750    98.26575   293.01335
    43  C   4.0    0.03    4.36    4.32   212.70755    97.45695   290.73434
    44  C   4.0    0.15    3.46    3.10   215.19254    98.89125   290.46789
    45  O   6.0   -0.30    1.36    1.80   215.87662    99.70761   288.40431
    46  C   4.0   -0.03    4.37    4.32   211.05782    97.93127   288.36084
    47  C   4.0    0.25    3.13    3.03   211.02003    95.68816   286.54670
    48  O   6.0   -0.27    1.17    1.80   212.87007    95.34990   285.13130
    49  O   6.0   -0.26    1.17    1.80   209.08684    94.29544   286.54859
    50  H   1.0    0.10    1.08    1.44   210.04115    99.19360   292.69587
    51  H   1.0    0.06    1.12    1.45   213.07227    95.66738   290.88929
    52  H   1.0    0.05    1.09    1.44   209.34195    98.30921   288.88619
    53  H   1.0    0.06    1.10    1.44   211.68521    99.40903   287.47645
    54  N   5.0   -0.16    3.50    2.08   216.55881    99.22951   292.56548
    55  C   4.0    0.03    4.41    4.39   219.02113   100.49185   292.61272
    56  C   4.0    0.17    3.50    3.12   220.56503    99.77942   290.26757
    57  O   6.0   -0.31    1.34    1.80   221.56848   101.41970   289.00713
    58  C   4.0   -0.08    4.21    4.02   220.43653    99.72840   295.03724
    59  H   1.0    0.10    1.14    1.45   216.06749    98.71928   294.02813
    60  H   1.0    0.06    1.12    1.45   218.77735   102.30787   292.59950
    61  H   1.0    0.06    1.05    1.44   222.06926   100.55988   295.07882
    62  H   1.0    0.06    1.05    1.44   219.45765   100.23295   296.50178
    63  H   1.0    0.05    1.05    1.44   220.67464    97.91048   295.05992
    64  N   5.0   -0.16    3.55    2.11   220.56881    97.33789   289.65341
    65  C   4.0    0.03    4.42    4.41   221.88217    96.32122   287.47456
    66  C   4.0    0.17    3.49    3.11   221.02991    97.69883   285.07083
    67  O   6.0   -0.31    1.29    1.80   222.60972    98.64936   283.65731
    68  C   4.0   -0.08    4.23    4.05   221.36628    93.49230   287.23645
    69  H   1.0    0.10    1.14    1.45   219.78458    96.20784   290.52080
    70  H   1.0    0.05    1.12    1.45   223.68497    96.57444   287.69566
    71  H   1.0    0.05    1.06    1.44   222.25256    92.82901   285.77570
    72  H   1.0    0.05    1.05    1.44   221.95209    92.63437   288.74635
    73  H   1.0    0.06    1.06    1.44   219.56537    93.21262   287.03614
    74  N   5.0   -0.15    3.47    2.06   218.54681    97.89914   284.66454
    75  C   4.0    0.02    4.36    4.31   217.55659    99.18416   282.45167
    76  C   4.0    0.17    3.44    3.09   218.65830   101.81654   282.24569
    77  O   6.0   -0.30    1.24    1.80   219.74678   102.49496   280.28037
    78  H   1.0    0.12    1.14    1.45   217.41108    97.29821   285.65853
    79  H   1.0    0.06    1.09    1.44   217.95721    98.22229   280.94367
    80  H   1.0    0.06    1.09    1.44   215.72922    99.28242   282.55560
    81  N   5.0   -0.15    3.56    2.13   218.44476   103.26218   284.27714
    82  C   4.0    0.04    4.59    4.65   219.37073   105.83599   284.30171
    83  C   4.0    0.16    3.54    3.13   222.15807   105.91914   284.31872
    84  O   6.0   -0.30    1.30    1.80   223.30136   107.78430   283.48157
    85  C   4.0   -0.05    4.41    4.40   218.24823   107.35344   286.49946
    86  C   4.0   -0.05    4.35    4.29   215.56671   108.16602   286.03270
    87  C   4.0    0.15    3.36    3.07   215.32104   109.46616   283.50425
    88  O   6.0   -0.30    1.22    1.80   214.84861   108.25484   281.57862
    89  N   5.0   -0.25    3.25    1.97   215.54403   111.94170   283.48724
    90  H   1.0    0.12    1.14    1.45   217.76257   102.77841   285.66987
    91  H   1.0    0.07    1.16    1.46   218.81326   106.65235   282.75780
    92  H   1.0    0.05    1.09    1.44   218.31437   106.34055   288.02447
    93  H   1.0    0.05    1.10    1.44   219.28380   108.83877   286.79426
    94  H   1.0    0.05    1.09    1.44   214.45933   106.70527   286.08750
    95  H   1.0    0.03    1.10    1.44   215.02247   109.29986   287.36685
    96  H   1.0    0.10    1.10    1.44   215.87473   112.73727   284.86485
    97  H   1.0    0.11    1.09    1.44   215.35884   112.76373   282.09640
    98  N   5.0   -0.15    3.65    2.21   223.32781   103.94060   285.33917
    99  C   4.0    0.04    4.45    4.46   226.07358   103.76863   285.35429
   100  C   4.0    0.17    3.52    3.12   226.88806   103.93682   282.60663
   101  O   6.0   -0.31    1.27    1.80   228.63227   105.36923   281.95089
   102  C   4.0   -0.07    4.23    4.06   226.95987   101.27419   286.51269
   103  H   1.0    0.14    1.19    1.46   222.56436   102.68204   286.02892
   104  H   1.0    0.06    1.12    1.45   226.80869   105.10656   286.36718
   105  H   1.0    0.05    1.05    1.44   228.79101   101.20994   286.49946
   106  H   1.0    0.06    1.06    1.44   226.35893   101.15325   288.23990
   107  H   1.0    0.07    1.06    1.44   226.29279    99.87391   285.53570
   108  N   5.0   -0.16    3.57    2.13   225.54068   102.51952   281.00036
   109  C   4.0    0.03    4.56    4.62   225.95831   102.44771   278.28104
   110  C   4.0    0.16    3.56    3.14   225.59737   105.06120   277.22658
   111  O   6.0   -0.31    1.37    1.80   227.16018   105.93048   275.78472
   112  C   4.0   -0.03    4.43    4.43   224.18008   100.56366   276.90532
   113  C   4.0   -0.05    4.28    4.17   224.69597    97.82166   277.65743
   114  C   4.0   -0.08    4.26    4.11   224.56369   100.83200   274.02160
   115  C   4.0   -0.08    4.12    3.84   222.77601    95.96217   276.44801
   116  H   1.0    0.12    1.16    1.46   224.32937   101.55198   281.48791
   117  H   1.0    0.05    1.13    1.45   227.67040   101.86001   277.99569
   118  H   1.0    0.07    1.13    1.45   222.45854   100.96806   277.38909
   119  H   1.0    0.04    1.09    1.44   226.39484    97.36057   277.14721
   120  H   1.0    0.06    1.09    1.44   224.62416    97.66860   279.48291
   121  H   1.0    0.05    1.06    1.44   223.45820    99.66037   273.14666
   122  H   1.0    0.06    1.06    1.44   224.16496   102.54598   273.50760
   123  H   1.0    0.05    1.05    1.44   226.30791   100.45783   273.59830
   124  H   1.0    0.05    1.05    1.44   223.16908    94.25008   276.97146
   125  H   1.0    0.05    1.05    1.44   221.08093    96.39303   276.99414
   126  H   1.0    0.05    1.05    1.44   222.87806    96.07934   274.62064
   127  N   5.0   -0.15    3.54    2.10   223.61127   106.36700   278.04483
   128  C   4.0    0.04    4.44    4.45   223.14451   108.93325   277.13776
   129  C   4.0    0.17    3.55    3.14   225.46887   110.52440   277.66499
   130  O   6.0   -0.31    1.34    1.80   226.44775   111.67713   275.88865
   131  C   4.0   -0.08    4.22    4.04   220.82015   110.10677   278.39443
   132  H   1.0    0.12    1.14    1.45   222.52090   105.80954   279.11441
   133  H   1.0    0.05    1.13    1.45   222.81003   108.87278   275.33685
   134  H   1.0    0.05    1.05    1.44   220.56692   111.80375   277.75003
   135  H   1.0    0.06    1.05    1.44   219.34238   109.08632   278.02215
   136  H   1.0    0.07    1.06    1.44   221.07337   110.17480   280.20856
   137  N   5.0   -0.15    3.55    2.11   226.24744   110.68125   280.08762
   138  C   4.0    0.04    4.52    4.56   228.48676   112.13445   280.75280
   139  C   4.0    0.17    3.58    3.15   230.53901   111.33131   278.95001
   140  O   6.0   -0.31    1.33    1.80   231.75032   112.91113   277.78594
   141  C   4.0   -0.03    4.44    4.45   229.40517   111.62044   283.47212
   142  C   4.0    0.17    3.33    3.06   227.49466   112.31586   285.43366
   143  O   6.0   -0.27    1.23    1.80   226.47232   114.36055   285.39586
   144  N   5.0   -0.22    3.26    1.97   227.04679   110.59054   287.14008
   145  H   1.0    0.13    1.15    1.45   225.50289   109.96315   281.34051
   146  H   1.0    0.07    1.12    1.45   228.08614   113.92024   280.64887
   147  H   1.0    0.06    1.10    1.44   229.82091   109.84410   283.64031
   148  H   1.0    0.06    1.09    1.44   230.94719   112.56342   283.77448
   149  H   1.0    0.13    1.09    1.44   225.97154   110.87778   288.32494
   150  H   1.0    0.11    1.10    1.44   227.82725   109.16569   287.07961
   151  N   5.0   -0.16    3.58    2.14   230.85648   108.85766   278.64765
   152  C   4.0    0.04    4.47    4.50   232.77644   107.85044   276.94312
   153  C   4.0    0.17    3.48    3.11   232.45141   108.78396   274.22947
   154  O   6.0   -0.30    1.33    1.80   234.30523   109.19026   272.94068
   155  C   4.0   -0.05    4.37    4.33   232.63282   104.92703   276.98091
   156  C   4.0   -0.05    4.28    4.16   233.35092   103.69682   279.51314
   157  C   4.0   -0.01    4.33    4.26   232.58747   100.89247   279.49236
   158  N   5.0   -0.16    3.44    2.04   233.26021    99.68115   281.84507
   159  C   4.0    0.11    3.46    3.10   231.97331    97.72340   282.84473
   160  N   5.0   -0.24    3.31    1.98   229.98910    96.79932   281.61830
   161  N   5.0   -0.24    3.26    1.97   232.62904    96.83145   285.13697
   162  H   1.0    0.13    1.17    1.46   229.97587   107.72761   279.41488
   163  H   1.0    0.05    1.12    1.45   234.40917   108.44192   277.53082
   164  H   1.0    0.07    1.10    1.44   230.92640   104.41870   276.54439
   165  H   1.0    0.05    1.09    1.44   233.73831   104.26941   275.67511
   166  H   1.0    0.05    1.08    1.44   235.15561   103.85367   279.79849
   167  H   1.0    0.07    1.10    1.44   232.51188   104.56610   280.89264
   168  H   1.0    0.05    1.10    1.44   230.78089   100.74507   279.21646
   169  H   1.0    0.05    1.09    1.44   233.41517   100.03642   278.09774
   170  H   1.0    0.10    1.13    1.45   234.55467   100.24051   282.65387
   171  H   1.0    0.10    1.10    1.44   229.53556    97.44939   280.19912
   172  H   1.0    0.11    1.09    1.44   229.15762    95.55021   282.24191
   173  H   1.0    0.11    1.09    1.44   233.86115    97.50986   285.95144
   174  H   1.0    0.11    1.08    1.44   231.81646    95.58234   285.78515
   175  N   5.0   -0.14    3.63    2.19   230.08547   109.12222   273.41122
   176  C   4.0    0.04    4.54    4.59   229.56958   110.07843   270.89788
   177  C   4.0    0.16    3.52    3.12   230.51066   112.78640   270.82796
   178  O   6.0   -0.31    1.29    1.80   231.61804   113.63300   268.98170
   179  C   4.0   -0.04    4.42    4.41   226.68775   110.01607   270.37254
   180  C   4.0   -0.01    3.59    3.16   225.69942   107.47060   269.63933
   181  C   4.0   -0.04    3.52    3.12   223.11805   106.90558   269.70925
   182  C   4.0   -0.03    3.56    3.14   227.33592   105.63001   268.77383
   183  C   4.0   -0.04    3.44    3.09   222.18831   104.61523   268.87210
   184  C   4.0   -0.04    3.45    3.09   226.38917   103.29242   267.93857
   185  C   4.0   -0.04    3.44    3.09   223.86261   102.79542   267.98771
   186  H   1.0    0.14    1.19    1.46   228.76077   108.80286   274.29750
   187  H   1.0    0.07    1.14    1.45   230.40295   109.05608   269.62421
   188  H   1.0    0.06    1.11    1.44   225.79957   110.58676   271.87109
   189  H   1.0    0.05    1.10    1.44   226.30413   111.20848   269.03461
   190  H   1.0    0.05    1.10    1.44   221.99745   108.10555   270.33664
   191  H   1.0    0.08    1.11    1.45   229.06691   105.93804   268.74360
   192  H   1.0    0.06    1.09    1.44   220.46110   104.29398   268.90044
   193  H   1.0    0.06    1.10    1.44   227.50222   102.06788   267.34520
   194  H   1.0    0.06    1.10    1.44   223.25978   101.24207   267.43024
   195  N   5.0   -0.15    3.59    2.15   230.04201   114.17913   272.86887
   196  C   4.0    0.04    4.53    4.58   230.91506   116.81530   273.04461
   197  C   4.0    0.16    3.56    3.15   233.79123   116.73215   272.90855
   198  O   6.0   -0.30    1.28    1.80   234.98175   118.10409   271.45535
   199  C   4.0    0.05    4.30    4.19   230.05713   118.10787   275.51071
   200  O   6.0   -0.28    2.13    1.84   227.47198   118.86187   275.28583
   201  C   4.0   -0.07    4.18    3.96   231.71820   120.48704   276.08518
   202  H   1.0    0.13    1.16    1.46   229.22754   113.64623   274.17089
   203  H   1.0    0.06    1.12    1.45   230.19130   117.80174   271.68023
   204  H   1.0    0.06    1.11    1.45   230.24610   116.91168   276.88643
   205  H   1.0    0.15    1.08    1.44   227.00522   119.56296   276.63131
   206  H   1.0    0.05    1.05    1.44   231.14750   121.26938   277.64043
   207  H   1.0    0.06    1.06    1.44   233.47186   119.98059   276.26282
   208  H   1.0    0.06    1.05    1.44   231.56702   121.68701   274.70757
   209  N   5.0   -0.16    3.65    2.21   234.84380   114.91801   274.27860
   210  C   4.0    0.04    4.48    4.50   237.54233   114.48905   274.38632
   211  C   4.0    0.18    3.54    3.13   238.46452   113.93158   271.70291
   212  O   6.0   -0.26    1.24    1.80   240.54889   114.57597   270.98292
   213  C   4.0   -0.07    4.28    4.16   238.07523   112.31019   276.07384
   214  H   1.0    0.13    1.19    1.46   233.98398   113.88244   275.18945
   215  H   1.0    0.06    1.13    1.45   238.40972   115.96114   275.04961
   216  H   1.0    0.06    1.06    1.44   239.88370   112.02106   276.14754
   217  H   1.0    0.06    1.06    1.44   237.44596   112.67113   277.75759
   218  H   1.0    0.07    1.08    1.44   237.24375   110.81353   275.42000
   219  N   5.0   -0.15    3.65    2.20   236.89605   112.51050   270.34986
   220  C   4.0    0.04    4.54    4.59   237.51021   111.83209   267.76283
   221  C   4.0    0.17    3.49    3.11   237.71241   114.29629   266.31341
   222  O   6.0   -0.25    1.22    1.80   239.42639   114.54196   264.75061
   223  C   4.0   -0.03    4.41    4.40   235.48820   110.16157   266.54962
   224  C   4.0    0.18    3.31    3.05   235.50332   107.47816   267.56819
   225  O   6.0   -0.28    1.22    1.80   233.50966   106.39157   268.02928
   226  N   5.0   -0.23    3.26    1.97   237.72186   106.41047   267.92346
   227  H   1.0    0.13    1.18    1.46   235.48064   111.92658   270.89410
   228  H   1.0    0.07    1.13    1.45   239.07490   110.87967   267.72503
   229  H   1.0    0.07    1.11    1.44   233.83847   110.90613   266.83686
   230  H   1.0    0.06    1.09    1.44   235.74898   110.11811   264.73549
   231  H   1.0    0.13    1.09    1.44   237.80878   104.89302   268.49982
   232  H   1.0    0.11    1.10    1.44   239.08246   107.22872   267.57764
   233  N   5.0   -0.15    3.50    2.08   236.03433   116.14823   266.84820
   234  C   4.0    0.04    4.40    4.38   236.04945   118.66156   265.59720
   235  C   4.0    0.12    3.26    3.05   238.52310   119.95602   266.35498
   236  O   6.0   -0.26    1.13    1.80   239.57946   121.37899   264.92824
   237  C   4.0   -0.02    4.40    4.39   233.78934   120.39444   266.41167
   238  C   4.0   -0.05    4.30    4.19   231.25332   119.14533   265.76539
   239  C   4.0   -0.07    4.24    4.07   233.98587   123.00604   265.15123
   240  C   4.0   -0.08    4.15    3.90   228.98565   120.79506   266.42301
   241  H   1.0    0.13    1.15    1.45   234.85136   115.98004   267.94991
   242  H   1.0    0.06    1.11    1.45   235.89071   118.40834   263.78873
   243  H   1.0    0.07    1.13    1.45   233.87437   120.62310   268.22770
   244  H   1.0    0.05    1.09    1.44   231.21364   118.75416   263.97582
   245  H   1.0    0.06    1.09    1.44   231.12104   117.55418   266.66490
   246  H   1.0    0.05    1.06    1.44   232.57235   124.04728   265.67846
   247  H   1.0    0.07    1.06    1.44   235.55623   123.80918   265.65012
   248  H   1.0    0.06    1.05    1.44   233.95374   122.80951   263.32953
   249  H   1.0    0.04    1.05    1.44   227.43986   119.91634   265.97704
   250  H   1.0    0.05    1.05    1.44   228.98754   121.15033   268.22203
   251  H   1.0    0.05    1.06    1.44   229.08392   122.36920   265.48949
   252  N   5.0   -0.23    3.23    1.96   217.52257   120.10342   262.79474
   253  C   4.0    0.03    4.29    4.18   218.59405   118.90534   265.03028
   254  C   4.0    0.08    3.21    3.04   218.35783   120.48704   267.41512
   255  O   6.0   -0.31    1.14    1.80   217.32037   119.61020   269.31051
   256  C   4.0   -0.06    4.45    4.46   221.36061   118.18913   264.53329
   257  C   4.0   -0.03    4.33    4.25   221.80091   115.93469   262.74939
   258  C   4.0   -0.08    4.23    4.06   224.44086   115.98382   261.66468
   259  C   4.0   -0.08    4.24    4.09   221.26423   113.50450   264.10621
   260  H   1.0    0.10    1.08    1.44   218.55625   120.24893   261.54941
   261  H   1.0    0.05    1.14    1.45   217.60761   117.39356   265.34209
   262  H   1.0    0.04    1.10    1.44   222.21854   119.65178   263.83598
   263  H   1.0    0.04    1.10    1.44   222.15807   117.81685   266.14144
   264  H   1.0    0.05    1.14    1.45   220.64062   116.06319   261.33587
   265  H   1.0    0.05    1.06    1.44   224.67141   114.54763   260.54974
   266  H   1.0    0.05    1.06    1.44   224.68464   117.53528   260.71982
   267  H   1.0    0.05    1.06    1.44   225.66351   115.90067   263.02718
   268  H   1.0    0.05    1.06    1.44   221.54580   112.09476   262.97048
   269  H   1.0    0.04    1.06    1.44   222.37728   113.35332   265.55374
   270  H   1.0    0.05    1.06    1.44   219.52190   113.49316   264.67313
   271  N   5.0   -0.23    3.26    1.97   213.77336   117.82252   273.28650
   272  C   4.0    0.03    4.31    4.22   214.55948   117.52017   275.88865
   273  C   4.0    0.09    3.23    3.04   213.40864   119.52706   277.62531
   274  O   6.0   -0.31    1.19    1.80   212.64141   118.92234   279.75314
   275  C   4.0   -0.05    4.40    4.38   217.41108   117.59576   276.04928
   276  C   4.0   -0.04    4.33    4.25   218.58460   120.06563   275.18000
   277  C   4.0   -0.01    4.32    4.24   221.48533   120.02405   275.21591
   278  N   5.0   -0.16    3.46    2.05   222.43208   122.60353   274.91733
   279  C   4.0    0.12    3.48    3.11   223.47521   123.94524   276.76359
   280  N   5.0   -0.22    3.34    2.00   223.67174   122.91722   279.01615
   281  N   5.0   -0.23    3.28    1.97   224.33882   126.28661   276.33652
   282  H   1.0    0.13    1.11    1.44   214.97522   118.20614   272.26227
   283  H   1.0    0.05    1.13    1.45   213.94721   115.89122   276.46691
   284  H   1.0    0.05    1.10    1.44   217.91375   117.28206   277.78405
   285  H   1.0    0.04    1.10    1.44   218.09516   116.22948   275.03827
   286  H   1.0    0.07    1.10    1.44   218.01012   120.43790   273.47925
   287  H   1.0    0.06    1.09    1.44   217.98934   121.42434   276.25715
   288  H   1.0    0.05    1.10    1.44   222.08815   119.30785   276.79194
   289  H   1.0    0.05    1.08    1.44   222.11839   118.95825   273.86664
   290  H   1.0    0.10    1.13    1.45   222.30547   123.29517   273.45279
   291  H   1.0    0.12    1.11    1.45   223.13128   121.40544   279.26937
   292  H   1.0    0.12    1.09    1.44   224.34260   123.75626   280.23691
   293  H   1.0    0.11    1.09    1.44   224.22165   126.93856   274.85308
   294  H   1.0    0.12    1.09    1.44   225.01156   127.13887   277.54594
   295  N   5.0   -0.21    3.26    1.97   207.14420   117.56741   279.86463
   296  C   4.0    0.03    4.44    4.45   207.40498   115.48493   281.67121
   297  C   4.0    0.16    3.44    3.09   208.28748   116.51483   284.24691
   298  O   6.0   -0.28    1.22    1.80   207.00814   116.11988   286.14986
   299  C   4.0   -0.03    4.42    4.42   209.20589   113.39490   280.66210
   300  C   4.0   -0.05    4.34    4.26   208.32339   112.48216   278.02782
   301  C   4.0   -0.08    4.26    4.11   209.27770   111.16124   282.44978
   302  C   4.0   -0.08    4.17    3.93   210.07327   110.64534   276.81273
   303  H   1.0    0.12    1.09    1.44   208.47646   117.84331   278.97646
   304  H   1.0    0.06    1.13    1.45   205.76470   114.69881   281.89231
   305  H   1.0    0.05    1.12    1.45   210.88586   114.11488   280.53549
   306  H   1.0    0.05    1.10    1.44   206.66988   111.70926   278.19034
   307  H   1.0    0.05    1.10    1.44   208.13064   113.93536   276.92800
   308  H   1.0    0.06    1.06    1.44   210.40965   109.88189   281.78460
   309  H   1.0    0.05    1.06    1.44   209.87485   111.71115   284.09195
   310  H   1.0    0.05    1.06    1.44   207.59395   110.45826   282.61796
   311  H   1.0    0.05    1.06    1.44   209.40620   110.15591   275.17622
   312  H   1.0    0.05    1.06    1.44   211.71923   111.42202   276.59352
   313  H   1.0    0.06    1.06    1.44   210.23579   109.16002   277.87475
   314  N   5.0   -0.15    3.57    2.13   210.38130   117.91323   284.21667
   315  C   4.0    0.03    4.40    4.39   211.45466   119.02817   286.49190
   316  C   4.0    0.10    3.29    3.05   209.51014   120.91034   287.39519
   317  O   6.0   -0.25    1.14    1.80   208.57661   122.43912   285.91554
   318  C   4.0   -0.04    4.41    4.40   213.93398   120.36987   285.85884
   319  C   4.0   -0.04    4.30    4.20   215.99001   118.70125   284.81383
   320  C   4.0    0.25    3.15    3.03   218.25957   120.22059   283.94455
   321  O   6.0   -0.27    1.17    1.80   220.16630   120.29617   285.35618
   322  O   6.0   -0.28    1.17    1.80   218.16508   121.30151   281.84318
   323  H   1.0    0.13    1.18    1.46   211.22034   118.24015   282.86363
   324  H   1.0    0.04    1.12    1.45   211.82883   117.76772   287.76936
   325  H   1.0    0.08    1.10    1.44   213.58439   121.69646   284.64186
   326  H   1.0    0.05    1.10    1.44   214.55948   121.18435   287.37629
   327  H   1.0    0.04    1.10    1.44   216.51346   117.50127   286.09695
   328  H   1.0    0.06    1.10    1.44   215.33049   117.72804   283.40598
   329  H   1.0    0.10    1.08    1.44   213.65841   120.51649   296.50460
   330  H   1.0    0.06    1.04    1.43   215.72136   113.92726   299.11937
   331  H   1.0    0.10    1.08    1.44   208.18274   108.42801   297.21986
   332  H   1.0    0.06    1.04    1.43   210.09155   101.63103   296.85462
   333  H   1.0    0.11    1.07    1.44   210.78810    96.89748   293.86103
   334  H   1.0    0.08    1.05    1.44   239.28151   119.62391   268.05368
   335  H   1.0    0.10    1.08    1.44   216.20216   119.18765   262.23758
   336  H   1.0    0.06    1.04    1.43   219.04475   122.24708   267.45348
   337  H   1.0    0.10    1.08    1.44   213.09081   116.36867   272.72705
   338  H   1.0    0.07    1.04    1.43   213.27797   121.31949   277.04123
   339  H   1.0    0.10    1.08    1.44   205.88099   117.22261   278.77929
   340  H   1.0    0.06    1.04    1.44   208.97377   120.91882   289.20718

  Z AO/shell   Hii/eV     exponent
  1     Wed Apr 25 08:07:45 CEST 2018   EN: 2.200 GM2: 0.406  GM3: 0.0800  RAES: 1.40
     1s    -10.707211    1.230000
  6     Wed Apr 25 08:07:45 CEST 2018   EN: 2.550 GM2: 0.538  GM3: 0.1500  RAES: 3.00
     2s    -13.970922    2.096432
     2p    -10.063292    1.800000
  7     Wed Apr 25 08:07:45 CEST 2018   EN: 3.040 GM2: 0.461  GM3:-0.0640  RAES: 1.90
     2s    -16.686243    2.339881
     2p    -12.523956    2.014332
  8     Wed Apr 25 08:07:45 CEST 2018   EN: 3.440 GM2: 0.452  GM3:-0.0517  RAES: 1.80
     2s    -20.229985    2.439742
     2p    -15.503117    2.137023
 no old-style atom pair restraining (fixing) potential

molecular fragmentation (1/2 indicates fragments):
111111111111111111122222222222222222222222222222222222222222222222222222
222222222222222222222222222222222222222222222222222222222222222222222222
222222222222222222222222222222222222222222222222222222222222222222222222
222222222222222222222222222222222222222222222222222222222222222222222222
2222222222222222222222222222222222222222112222222222
# atoms in fragment 1/2:    21   319
 fragment masses (1/2) :      115.17     2165.54
CMA distance (Bohr)    :  18.271
constraining FC (au)   :  0.0500
           ------------------------------------------------- 
          |        Self-Consistent Charge Iterations        |
           ------------------------------------------------- 

 Ncao       : 820
 Nao        : 820
 Nshell     : 500
 Nel        : 908
 T(el)      :   500.0
 intcut     :    35.0
 scfconv/Eh :  0.100E-06
   qconv/e  :  0.100E-04
 intneglect :  0.100E-08
 broydamp   :      0.400
 iter      E             dE          RMSdq      gap      omega  full diag
   1   -521.9553603 -0.521955E+03  0.459E+00    3.25       0.0  T
   2   -523.1838885 -0.122853E+01  0.215E+00    1.85       1.0  T
   3   -523.2524054 -0.685169E-01  0.126E+00    2.18       1.0  T
   4   -523.3373569 -0.849515E-01  0.241E-01    1.32       1.0  T
   5   -523.3429216 -0.556465E-02  0.115E-01    1.46       1.0  T
   6   -523.3435638 -0.642212E-03  0.497E-02    1.41       1.0  T
   7   -523.3437439 -0.180068E-03  0.175E-02    1.44       1.0  T
   8   -523.3437583 -0.143889E-04  0.829E-03    1.45       1.0  T
   9   -523.3437623 -0.400484E-05  0.351E-03    1.45       1.5  T
  10   -523.3437631 -0.862491E-06  0.139E-03    1.45       3.9  T
  11   -523.3437632 -0.126400E-06  0.576E-04    1.45       9.4  T
  12   -523.3437633 -0.188016E-07  0.260E-04    1.45      20.9  T
  13   -523.3437633 -0.450734E-08  0.110E-04    1.45      49.3  T
  14   -523.3437633 -0.797854E-09  0.541E-05    1.45     100.3  T
  15   -523.3437633 -0.150749E-09  0.219E-05    1.45     248.0  T
speedup  1.00
cpu  time for SCC    5.07 s
wall time for SCC    5.07 s

   *** convergence criteria satisfied after 15 iterations ***

          eigenvalues
 #    :         442        443        444        445        446        447        448        449
 occ. :        2.000      2.000      2.000      2.000      2.000      2.000      2.000      2.000
 eps  :       -10.687    -10.623    -10.541    -10.385    -10.246    -10.220    -10.009     -9.943
 #    :         450        451        452        453        454        455        456        457
 occ. :        2.000      2.000      2.000      2.000      2.000      0.000      0.000      0.000
 eps  :        -9.925     -9.908     -9.881     -9.868     -9.671     -8.222     -7.890     -7.873
 #    :         458        459        460        461        462        463        464        465
 occ. :        0.000      0.000      0.000      0.000      0.000      0.000      0.000      0.000
 eps  :        -7.852     -7.827     -7.354     -6.823     -6.807     -6.746     -6.669     -6.531


   #   Z            q   n(s)   n(p)   n(d)      C6AA      α(0)
   1   7 N     -0.418  1.289  4.129  0.000    30.887     8.254
   2   6 C      0.024  1.039  2.937  0.000    20.194     6.401
   3   6 C      0.193  1.094  2.713  0.000    23.878     8.002
   4   8 O     -0.368  1.766  4.602  0.000    21.055     6.152
   5   6 C     -0.102  1.013  3.089  0.000    22.421     6.738
   6   6 C     -0.030  1.028  3.002  0.000    21.062     6.527
   7   6 C     -0.159  0.976  3.182  0.000    23.595     6.920
   8   6 C     -0.145  0.978  3.167  0.000    23.328     6.884
   9   1 H      0.181  0.819  0.000  0.000     1.209     1.722
  10   1 H      0.072  0.928  0.000  0.000     2.061     2.245
  11   1 H      0.071  0.929  0.000  0.000     2.076     2.253
  12   1 H      0.062  0.938  0.000  0.000     2.170     2.304
  13   1 H      0.061  0.939  0.000  0.000     2.182     2.310
  14   1 H      0.052  0.948  0.000  0.000     2.295     2.369
  15   1 H      0.072  0.928  0.000  0.000     2.067     2.248
  16   1 H      0.052  0.948  0.000  0.000     2.290     2.366
  17   1 H      0.047  0.953  0.000  0.000     2.355     2.400
  18   1 H      0.042  0.958  0.000  0.000     2.427     2.436
  19   1 H      0.046  0.954  0.000  0.000     2.366     2.405
  20   7 N     -0.415  1.289  4.126  0.000    30.791     8.241
  21   6 C      0.019  1.029  2.953  0.000    20.273     6.412
  22   6 C      0.188  1.098  2.715  0.000    23.984     8.020
  23   8 O     -0.375  1.774  4.601  0.000    21.188     6.171
  24   6 C     -0.106  1.010  3.097  0.000    22.511     6.752
  25   6 C     -0.117  1.011  3.106  0.000    22.717     6.783
  26   6 C     -0.125  1.015  3.110  0.000    22.893     6.810
  27   6 C     -0.083  1.012  3.071  0.000    22.157     6.714
  28   7 N     -0.119  1.133  3.986  0.000    23.589     7.213
  29   1 H      0.182  0.818  0.000  0.000     1.201     1.716
  30   1 H      0.083  0.917  0.000  0.000     1.947     2.182
  31   1 H      0.070  0.930  0.000  0.000     2.090     2.260
  32   1 H      0.080  0.920  0.000  0.000     1.982     2.201
  33   1 H      0.079  0.921  0.000  0.000     1.986     2.204
  34   1 H      0.066  0.934  0.000  0.000     2.126     2.280
  35   1 H      0.097  0.903  0.000  0.000     1.809     2.103
  36   1 H      0.100  0.900  0.000  0.000     1.787     2.090
  37   1 H      0.133  0.867  0.000  0.000     1.509     1.921
  38   1 H      0.120  0.880  0.000  0.000     1.610     1.984
  39   1 H      0.294  0.706  0.000  0.000     0.732     1.340
  40   1 H      0.265  0.735  0.000  0.000     0.826     1.423
  41   1 H      0.287  0.713  0.000  0.000     0.754     1.360
  42   7 N     -0.413  1.281  4.132  0.000    30.729     8.233
  43   6 C      0.028  1.036  2.936  0.000    20.113     6.387
  44   6 C      0.257  1.052  2.691  0.000    22.672     7.797
  45   8 O     -0.495  1.743  4.752  0.000    23.674     6.523
  46   6 C     -0.121  1.021  3.100  0.000    22.813     6.798
  47   6 C      0.363  1.024  2.613  0.000    20.841     7.471
  48   8 O     -0.647  1.770  4.877  0.000    27.309     7.006
  49   8 O     -0.678  1.792  4.886  0.000    28.126     7.110
  50   1 H      0.187  0.813  0.000  0.000     1.176     1.699
  51   1 H      0.044  0.956  0.000  0.000     2.401     2.423
  52   1 H      0.048  0.952  0.000  0.000     2.339     2.391
  53   1 H      0.061  0.939  0.000  0.000     2.190     2.314
  54   7 N     -0.187  1.213  3.975  0.000    25.062     7.435
  55   6 C      0.004  1.046  2.950  0.000    20.517     6.450
  56   6 C      0.275  1.040  2.685  0.000    22.356     7.742
  57   8 O     -0.473  1.730  4.743  0.000    23.192     6.457
  58   6 C     -0.169  0.986  3.183  0.000    23.826     6.956
  59   1 H      0.226  0.774  0.000  0.000     0.983     1.553
  60   1 H      0.103  0.897  0.000  0.000     1.760     2.075
  61   1 H      0.092  0.908  0.000  0.000     1.864     2.135
  62   1 H      0.089  0.911  0.000  0.000     1.891     2.150
  63   1 H      0.077  0.923  0.000  0.000     2.009     2.217
  64   7 N     -0.188  1.204  3.984  0.000    25.086     7.439
  65   6 C      0.005  1.041  2.954  0.000    20.493     6.446
  66   6 C      0.263  1.045  2.691  0.000    22.557     7.777
  67   8 O     -0.480  1.731  4.749  0.000    23.338     6.477
  68   6 C     -0.167  0.983  3.185  0.000    23.788     6.950
  69   1 H      0.210  0.790  0.000  0.000     1.055     1.609
  70   1 H      0.112  0.888  0.000  0.000     1.678     2.025
  71   1 H      0.092  0.908  0.000  0.000     1.858     2.131
  72   1 H      0.091  0.909  0.000  0.000     1.866     2.136
  73   1 H      0.060  0.940  0.000  0.000     2.198     2.318
  74   7 N     -0.164  1.202  3.962  0.000    24.541     7.358
  75   6 C     -0.038  1.004  3.034  0.000    21.298     6.579
  76   6 C      0.276  1.038  2.686  0.000    22.336     7.739
  77   8 O     -0.497  1.748  4.749  0.000    23.716     6.529
  78   1 H      0.217  0.783  0.000  0.000     1.024     1.585
  79   1 H      0.097  0.903  0.000  0.000     1.809     2.103
  80   1 H      0.094  0.906  0.000  0.000     1.838     2.120
  81   7 N     -0.180  1.202  3.977  0.000    24.889     7.409
  82   6 C      0.007  1.029  2.964  0.000    20.452     6.437
  83   6 C      0.261  1.039  2.700  0.000    22.596     7.785
  84   8 O     -0.521  1.748  4.773  0.000    24.248     6.602
  85   6 C     -0.096  1.008  3.088  0.000    22.313     6.722
  86   6 C     -0.140  1.013  3.128  0.000    23.181     6.852
  87   6 C      0.276  1.033  2.691  0.000    22.332     7.738
  88   8 O     -0.497  1.757  4.740  0.000    23.715     6.529
  89   7 N     -0.272  1.183  4.089  0.000    27.044     7.723
  90   1 H      0.226  0.774  0.000  0.000     0.983     1.553
  91   1 H      0.104  0.896  0.000  0.000     1.747     2.067
  92   1 H      0.095  0.905  0.000  0.000     1.831     2.116
  93   1 H      0.085  0.915  0.000  0.000     1.927     2.171
  94   1 H      0.097  0.903  0.000  0.000     1.812     2.105
  95   1 H      0.099  0.901  0.000  0.000     1.793     2.094
  96   1 H      0.221  0.779  0.000  0.000     1.005     1.570
  97   1 H      0.214  0.786  0.000  0.000     1.036     1.594
  98   7 N     -0.186  1.216  3.970  0.000    25.030     7.430
  99   6 C      0.007  1.038  2.955  0.000    20.458     6.439
 100   6 C      0.260  1.048  2.691  0.000    22.613     7.787
 101   8 O     -0.495  1.744  4.751  0.000    23.664     6.522
 102   6 C     -0.180  0.985  3.195  0.000    24.049     6.988
 103   1 H      0.244  0.756  0.000  0.000     0.908     1.492
 104   1 H      0.096  0.904  0.000  0.000     1.826     2.113
 105   1 H      0.094  0.906  0.000  0.000     1.836     2.119
 106   1 H      0.093  0.907  0.000  0.000     1.853     2.128
 107   1 H      0.090  0.910  0.000  0.000     1.880     2.144
 108   7 N     -0.189  1.210  3.979  0.000    25.098     7.440
 109   6 C     -0.003  1.045  2.957  0.000    20.627     6.466
 110   6 C      0.279  1.034  2.687  0.000    22.277     7.730
 111   8 O     -0.482  1.737  4.745  0.000    23.382     6.483
 112   6 C     -0.049  1.050  2.999  0.000    21.406     6.580
 113   6 C     -0.102  1.011  3.091  0.000    22.434     6.742
 114   6 C     -0.151  0.980  3.171  0.000    23.455     6.902
 115   6 C     -0.152  0.979  3.173  0.000    23.482     6.907
 116   1 H      0.231  0.769  0.000  0.000     0.962     1.536
 117   1 H      0.093  0.907  0.000  0.000     1.849     2.126
 118   1 H      0.080  0.920  0.000  0.000     1.978     2.199
 119   1 H      0.064  0.936  0.000  0.000     2.156     2.296
 120   1 H      0.069  0.931  0.000  0.000     2.093     2.262
 121   1 H      0.069  0.931  0.000  0.000     2.091     2.261
 122   1 H      0.046  0.954  0.000  0.000     2.374     2.409
 123   1 H      0.066  0.934  0.000  0.000     2.127     2.280
 124   1 H      0.063  0.937  0.000  0.000     2.167     2.302
 125   1 H      0.045  0.955  0.000  0.000     2.379     2.412
 126   1 H      0.058  0.942  0.000  0.000     2.218     2.329
 127   7 N     -0.191  1.209  3.983  0.000    25.149     7.448
 128   6 C      0.018  1.036  2.946  0.000    20.278     6.411
 129   6 C      0.270  1.045  2.684  0.000    22.431     7.756
 130   8 O     -0.491  1.745  4.745  0.000    23.576     6.510
 131   6 C     -0.165  0.981  3.184  0.000    23.737     6.943
 132   1 H      0.218  0.782  0.000  0.000     1.019     1.581
 133   1 H      0.091  0.909  0.000  0.000     1.871     2.139
 134   1 H      0.079  0.921  0.000  0.000     1.987     2.204
 135   1 H      0.087  0.913  0.000  0.000     1.908     2.160
 136   1 H      0.077  0.923  0.000  0.000     2.007     2.215
 137   7 N     -0.193  1.212  3.981  0.000    25.191     7.454
 138   6 C      0.019  1.036  2.945  0.000    20.246     6.406
 139   6 C      0.274  1.036  2.690  0.000    22.368     7.746
 140   8 O     -0.502  1.737  4.765  0.000    23.823     6.544
 141   6 C     -0.138  1.017  3.121  0.000    23.129     6.843
 142   6 C      0.295  1.019  2.686  0.000    21.990     7.678
 143   8 O     -0.504  1.751  4.753  0.000    23.874     6.551
 144   7 N     -0.291  1.192  4.099  0.000    27.497     7.788
 145   1 H      0.233  0.767  0.000  0.000     0.950     1.527
 146   1 H      0.097  0.903  0.000  0.000     1.816     2.107
 147   1 H      0.098  0.902  0.000  0.000     1.807     2.102
 148   1 H      0.108  0.892  0.000  0.000     1.716     2.049
 149   1 H      0.240  0.760  0.000  0.000     0.924     1.506
 150   1 H      0.235  0.765  0.000  0.000     0.945     1.523
 151   7 N     -0.187  1.212  3.975  0.000    25.058     7.435
 152   6 C      0.003  1.046  2.951  0.000    20.537     6.452
 153   6 C      0.273  1.039  2.688  0.000    22.381     7.747
 154   8 O     -0.501  1.741  4.761  0.000    23.817     6.543
 155   6 C     -0.109  1.015  3.094  0.000    22.562     6.760
 156   6 C     -0.117  1.015  3.103  0.000    22.735     6.787
 157   6 C     -0.044  1.010  3.034  0.000    21.413     6.599
 158   7 N     -0.150  1.183  3.967  0.000    24.247     7.313
 159   6 C      0.211  1.027  2.762  0.000    23.533     7.943
 160   7 N     -0.242  1.162  4.080  0.000    26.322     7.620
 161   7 N     -0.265  1.176  4.089  0.000    26.868     7.698
 162   1 H      0.240  0.760  0.000  0.000     0.924     1.506
 163   1 H      0.096  0.904  0.000  0.000     1.820     2.109
 164   1 H      0.092  0.908  0.000  0.000     1.862     2.134
 165   1 H      0.084  0.916  0.000  0.000     1.938     2.177
 166   1 H      0.089  0.911  0.000  0.000     1.885     2.147
 167   1 H      0.100  0.900  0.000  0.000     1.785     2.089
 168   1 H      0.080  0.920  0.000  0.000     1.975     2.198
 169   1 H      0.105  0.895  0.000  0.000     1.735     2.060
 170   1 H      0.244  0.756  0.000  0.000     0.906     1.491
 171   1 H      0.234  0.766  0.000  0.000     0.947     1.524
 172   1 H      0.256  0.744  0.000  0.000     0.859     1.451
 173   1 H      0.256  0.744  0.000  0.000     0.859     1.452
 174   1 H      0.261  0.739  0.000  0.000     0.842     1.437
 175   7 N     -0.187  1.215  3.973  0.000    25.060     7.435
 176   6 C      0.012  1.040  2.948  0.000    20.381     6.427
 177   6 C      0.271  1.043  2.686  0.000    22.415     7.753
 178   8 O     -0.508  1.744  4.764  0.000    23.956     6.562
 179   6 C     -0.104  1.011  3.092  0.000    22.458     6.744
 180   6 C      0.006  1.082  2.912  0.000    27.893     8.663
 181   6 C     -0.067  1.053  3.014  0.000    29.667     8.933
 182   6 C     -0.063  1.062  3.001  0.000    29.575     8.919
 183   6 C     -0.058  1.057  3.001  0.000    29.441     8.898
 184   6 C     -0.052  1.057  2.996  0.000    29.304     8.877
 185   6 C     -0.058  1.052  3.006  0.000    29.446     8.899
 186   1 H      0.242  0.758  0.000  0.000     0.916     1.500
 187   1 H      0.105  0.895  0.000  0.000     1.738     2.062
 188   1 H      0.092  0.908  0.000  0.000     1.856     2.130
 189   1 H      0.078  0.922  0.000  0.000     1.995     2.209
 190   1 H      0.057  0.943  0.000  0.000     2.238     2.339
 191   1 H      0.068  0.932  0.000  0.000     2.112     2.273
 192   1 H      0.062  0.938  0.000  0.000     2.175     2.306
 193   1 H      0.059  0.941  0.000  0.000     2.204     2.322
 194   1 H      0.059  0.941  0.000  0.000     2.213     2.326
 195   7 N     -0.192  1.215  3.977  0.000    25.175     7.452
 196   6 C      0.002  1.046  2.951  0.000    20.544     6.453
 197   6 C      0.271  1.040  2.689  0.000    22.421     7.754
 198   8 O     -0.495  1.751  4.745  0.000    23.682     6.525
 199   6 C      0.089  1.035  2.876  0.000    19.204     6.257
 200   8 O     -0.479  1.671  4.808  0.000    22.438     6.395
 201   6 C     -0.171  0.987  3.184  0.000    23.883     6.966
 202   1 H      0.233  0.767  0.000  0.000     0.950     1.527
 203   1 H      0.109  0.891  0.000  0.000     1.702     2.040
 204   1 H      0.065  0.935  0.000  0.000     2.137     2.286
 205   1 H      0.328  0.672  0.000  0.000     0.642     1.258
 206   1 H      0.084  0.916  0.000  0.000     1.936     2.176
 207   1 H      0.055  0.945  0.000  0.000     2.253     2.347
 208   1 H      0.081  0.919  0.000  0.000     1.968     2.193
 209   7 N     -0.201  1.215  3.987  0.000    25.376     7.482
 210   6 C      0.017  1.031  2.951  0.000    20.282     6.411
 211   6 C      0.282  1.037  2.681  0.000    22.227     7.721
 212   8 O     -0.506  1.751  4.755  0.000    23.916     6.557
 213   6 C     -0.169  0.978  3.191  0.000    23.811     6.951
 214   1 H      0.237  0.763  0.000  0.000     0.933     1.513
 215   1 H      0.085  0.915  0.000  0.000     1.929     2.172
 216   1 H      0.084  0.916  0.000  0.000     1.941     2.178
 217   1 H      0.088  0.912  0.000  0.000     1.893     2.151
 218   1 H      0.086  0.914  0.000  0.000     1.914     2.163
 219   7 N     -0.196  1.209  3.987  0.000    25.257     7.464
 220   6 C      0.022  1.036  2.942  0.000    20.194     6.397
 221   6 C      0.275  1.045  2.680  0.000    22.342     7.740
 222   8 O     -0.512  1.757  4.755  0.000    24.059     6.576
 223   6 C     -0.133  1.017  3.115  0.000    23.032     6.830
 224   6 C      0.290  1.032  2.678  0.000    22.081     7.694
 225   8 O     -0.489  1.742  4.747  0.000    23.545     6.506
 226   7 N     -0.297  1.194  4.103  0.000    27.647     7.809
 227   1 H      0.232  0.768  0.000  0.000     0.957     1.532
 228   1 H      0.088  0.912  0.000  0.000     1.898     2.154
 229   1 H      0.107  0.893  0.000  0.000     1.720     2.051
 230   1 H      0.096  0.904  0.000  0.000     1.823     2.111
 231   1 H      0.252  0.748  0.000  0.000     0.874     1.465
 232   1 H      0.227  0.773  0.000  0.000     0.977     1.549
 233   7 N     -0.193  1.217  3.976  0.000    25.183     7.453
 234   6 C      0.013  1.052  2.935  0.000    20.370     6.428
 235   6 C      0.220  1.079  2.701  0.000    23.352     7.914
 236   8 O     -0.367  1.741  4.626  0.000    21.028     6.148
 237   6 C     -0.035  1.048  2.987  0.000    21.161     6.543
 238   6 C     -0.093  1.006  3.087  0.000    22.255     6.715
 239   6 C     -0.155  0.979  3.176  0.000    23.542     6.915
 240   6 C     -0.154  0.977  3.177  0.000    23.519     6.912
 241   1 H      0.229  0.771  0.000  0.000     0.970     1.543
 242   1 H      0.097  0.903  0.000  0.000     1.808     2.103
 243   1 H      0.079  0.921  0.000  0.000     1.986     2.203
 244   1 H      0.055  0.945  0.000  0.000     2.252     2.347
 245   1 H      0.058  0.942  0.000  0.000     2.225     2.332
 246   1 H      0.083  0.917  0.000  0.000     1.944     2.180
 247   1 H      0.048  0.952  0.000  0.000     2.342     2.393
 248   1 H      0.063  0.937  0.000  0.000     2.165     2.301
 249   1 H      0.064  0.936  0.000  0.000     2.155     2.295
 250   1 H      0.058  0.942  0.000  0.000     2.219     2.329
 251   1 H      0.066  0.934  0.000  0.000     2.127     2.281
 252   7 N     -0.420  1.281  4.139  0.000    30.923     8.259
 253   6 C      0.026  1.031  2.943  0.000    20.151     6.393
 254   6 C      0.192  1.096  2.712  0.000    23.901     8.006
 255   8 O     -0.376  1.755  4.621  0.000    21.201     6.173
 256   6 C     -0.101  1.017  3.085  0.000    22.417     6.738
 257   6 C     -0.024  1.028  2.996  0.000    20.963     6.511
 258   6 C     -0.152  0.977  3.175  0.000    23.467     6.903
 259   6 C     -0.152  0.975  3.177  0.000    23.466     6.902
 260   1 H      0.190  0.810  0.000  0.000     1.156     1.684
 261   1 H      0.068  0.932  0.000  0.000     2.104     2.268
 262   1 H      0.068  0.932  0.000  0.000     2.106     2.269
 263   1 H      0.063  0.937  0.000  0.000     2.165     2.301
 264   1 H      0.048  0.952  0.000  0.000     2.344     2.394
 265   1 H      0.054  0.946  0.000  0.000     2.271     2.357
 266   1 H      0.054  0.946  0.000  0.000     2.275     2.359
 267   1 H      0.054  0.946  0.000  0.000     2.273     2.357
 268   1 H      0.052  0.948  0.000  0.000     2.290     2.366
 269   1 H      0.052  0.948  0.000  0.000     2.296     2.369
 270   1 H      0.054  0.946  0.000  0.000     2.274     2.358
 271   7 N     -0.421  1.281  4.140  0.000    30.960     8.264
 272   6 C      0.034  1.027  2.939  0.000    20.015     6.371
 273   6 C      0.197  1.099  2.704  0.000    23.796     7.989
 274   8 O     -0.386  1.754  4.632  0.000    21.399     6.202
 275   6 C     -0.089  1.004  3.085  0.000    22.182     6.702
 276   6 C     -0.110  1.009  3.101  0.000    22.587     6.764
 277   6 C     -0.045  1.014  3.031  0.000    21.448     6.605
 278   7 N     -0.148  1.181  3.967  0.000    24.208     7.307
 279   6 C      0.226  1.017  2.757  0.000    23.249     7.894
 280   7 N     -0.246  1.163  4.083  0.000    26.416     7.633
 281   7 N     -0.274  1.175  4.099  0.000    27.084     7.729
 282   1 H      0.204  0.796  0.000  0.000     1.085     1.631
 283   1 H      0.070  0.930  0.000  0.000     2.084     2.257
 284   1 H      0.057  0.943  0.000  0.000     2.230     2.335
 285   1 H      0.077  0.923  0.000  0.000     2.012     2.218
 286   1 H      0.095  0.905  0.000  0.000     1.835     2.118
 287   1 H      0.073  0.927  0.000  0.000     2.053     2.241
 288   1 H      0.084  0.916  0.000  0.000     1.936     2.176
 289   1 H      0.110  0.890  0.000  0.000     1.694     2.035
 290   1 H      0.244  0.756  0.000  0.000     0.907     1.491
 291   1 H      0.235  0.765  0.000  0.000     0.944     1.522
 292   1 H      0.249  0.751  0.000  0.000     0.889     1.477
 293   1 H      0.260  0.740  0.000  0.000     0.846     1.441
 294   1 H      0.256  0.744  0.000  0.000     0.861     1.453
 295   7 N     -0.424  1.293  4.130  0.000    31.037     8.274
 296   6 C      0.011  1.046  2.943  0.000    20.399     6.432
 297   6 C      0.267  1.050  2.682  0.000    22.485     7.765
 298   8 O     -0.507  1.750  4.757  0.000    23.946     6.561
 299   6 C     -0.047  1.046  3.001  0.000    21.375     6.575
 300   6 C     -0.082  1.000  3.082  0.000    22.053     6.684
 301   6 C     -0.165  0.978  3.187  0.000    23.741     6.943
 302   6 C     -0.146  0.972  3.175  0.000    23.361     6.888
 303   1 H      0.176  0.824  0.000  0.000     1.237     1.742
 304   1 H      0.067  0.933  0.000  0.000     2.114     2.273
 305   1 H      0.046  0.954  0.000  0.000     2.367     2.406
 306   1 H      0.049  0.951  0.000  0.000     2.335     2.389
 307   1 H      0.039  0.961  0.000  0.000     2.457     2.451
 308   1 H      0.075  0.925  0.000  0.000     2.027     2.226
 309   1 H      0.052  0.948  0.000  0.000     2.290     2.366
 310   1 H      0.063  0.937  0.000  0.000     2.160     2.298
 311   1 H      0.051  0.949  0.000  0.000     2.310     2.376
 312   1 H      0.047  0.953  0.000  0.000     2.356     2.400
 313   1 H      0.063  0.937  0.000  0.000     2.164     2.300
 314   7 N     -0.180  1.212  3.968  0.000    24.888     7.409
 315   6 C      0.020  1.035  2.945  0.000    20.239     6.406
 316   6 C      0.202  1.080  2.718  0.000    23.705     7.974
 317   8 O     -0.380  1.765  4.615  0.000    21.288     6.186
 318   6 C     -0.065  1.001  3.063  0.000    21.722     6.632
 319   6 C     -0.118  1.013  3.105  0.000    22.746     6.788
 320   6 C      0.362  1.023  2.615  0.000    20.864     7.475
 321   8 O     -0.655  1.783  4.873  0.000    27.516     7.033
 322   8 O     -0.641  1.767  4.874  0.000    27.149     6.986
 323   1 H      0.239  0.761  0.000  0.000     0.926     1.508
 324   1 H      0.089  0.911  0.000  0.000     1.883     2.146
 325   1 H      0.057  0.943  0.000  0.000     2.233     2.336
 326   1 H      0.051  0.949  0.000  0.000     2.300     2.372
 327   1 H      0.058  0.942  0.000  0.000     2.217     2.328
 328   1 H      0.053  0.947  0.000  0.000     2.287     2.365
 329   1 H      0.183  0.817  0.000  0.000     1.198     1.715
 330   1 H      0.073  0.927  0.000  0.000     2.052     2.240
 331   1 H      0.196  0.804  0.000  0.000     1.126     1.662
 332   1 H      0.077  0.923  0.000  0.000     2.008     2.216
 333   1 H      0.177  0.823  0.000  0.000     1.229     1.737
 334   1 H      0.057  0.943  0.000  0.000     2.232     2.336
 335   1 H      0.178  0.822  0.000  0.000     1.227     1.735
 336   1 H      0.079  0.921  0.000  0.000     1.989     2.205
 337   1 H      0.182  0.818  0.000  0.000     1.204     1.719
 338   1 H      0.076  0.924  0.000  0.000     2.025     2.225
 339   1 H      0.181  0.819  0.000  0.000     1.209     1.722
 340   1 H      0.073  0.927  0.000  0.000     2.057     2.243

 Mol. C6AA /au·bohr⁶  :    1018443.518431
 Mol. C8AA /au·bohr⁸  :   22531512.148486
 Mol. α(0) /au        :       1507.113796

 
molecular dipole:
                 x           y           z       tot (Debye)
 q only:      223.672     100.248     290.464
   full:      221.441      98.187     292.286     964.908
molecular quadrupole (traceless):
                xx          xy          yy          xz          yz          zz
 q only:     2803.064   33341.550  -57123.553   97576.202   43659.723   54320.489
  q+dip:     1518.132   32305.029  -57573.731   97260.700   43091.396   56055.599
   full:     1518.162   32303.626  -57575.052   97262.469   43091.374   56056.890
speedup  1.00
cpu  time for grad    6.32 s
wall time for grad    6.33 s

SCC energy    :    -523.3602286
rep           :      11.4645428
ES            :       1.6743296
AES           :      -0.0606174
AXC           :       0.0822235
disp          :      -0.4455767
XB            :       0.0000000
fix           :       0.0000000
Gborn         :       0.0000000
Gsasa         :       0.0000000
Ghb           :       0.0000000
Gshift        :       0.0000000
Gsolv         :      -0.4211949     -264.30
Etot ala COSMO:    -523.3602286
grad norm     :       2.4372335
total E       :    -511.8553020
atomizationE  :      91.0814977    57154.50
(atE without considering molecular charge,
 total energy contains solvation terms)
H-L gap (eV)  :          1.4490

------------------------------------------------------------------------
 * finished run on 2019/03/07 at 11:37:52.528     
------------------------------------------------------------------------
 total:
 * wall-time:     0 d,  0 h,  0 min,  7.098 sec
 *  cpu-time:     0 d,  0 h,  0 min,  6.897 sec
 * ratio c/w:     0.972 speedup
 SCF:
 * wall-time:     0 d,  0 h,  0 min,  6.780 sec
 *  cpu-time:     0 d,  0 h,  0 min,  6.778 sec
 * ratio c/w:     1.000 speedup

