      -----------------------------------------------------------      
     |                   =====================                   |     
     |                           x T B                           |     
     |                   =====================                   |     
     |                         S. Grimme                         |     
     |          Mulliken Center for Theoretical Chemistry        |     
     |                    University of Bonn                     |     
     |                Version 6.1 RC1 (SAW190329)                |     
      -----------------------------------------------------------      

   This program is distributed in the hope that it will be useful,
   but WITHOUT ANY WARRANTY; without even the implied warranty of
   MERCHANTABILITY or FITNESS FOR A PARTICULAR PURPOSE.
   
   FOR NON-COMMERCIAL, ACADEMIA USE ONLY.
   
   Cite this work as:
   S. Grimme, C. Bannwarth, P. Shushkov, J. Comput. Theory Chem., 2017,
   13, 1989-2009. DOI: 10.1021/acs.jctc.7b00118
   C. Bannwarth, S. Ehlert and S. Grimme., J. Comput. Theory Chem., 2019,
   just accepted. DOI: 10.1021/acs.jctc.8b01176
   
   for sTDA-xTB:
   S. Grimme and C. Bannwarth, J. Chem. Phys., 2016, 145, 054103.
   DOI: 10.1063/1.4959605
   
   in the mass-spec context:
   V. Asgeirsson, C. Bauer and S. Grimme, Chem. Sci., 2017, 8, 4879.
   DOI: 10.1039/c7sc00601b
   
   for metadynamics refer to:
   S. Grimme, ChemRxiv, Preprint. DOI: 10.26434/chemrxiv.7660532.v1
   
   with help from (in alphabetical order)
   C. Bannwarth, F. Bohle, G. Brandenburg, E. Caldeweyher, M. Checinski,
   S. Dohm, S. Ehlert, S. Ehrlich, F. März, H. Neugebauer, J. Pisarek,
   P. Pracht, P. Shushkov, and S. Spicher.
   
 * started run on 2019/05/31 at 07:35:59.019     

           -------------------------------------------------
          |                Calculation Setup                |
           -------------------------------------------------

          program call               : /home/lum/install/xtb/xtb-190329/bin/xtb xtb_tmp.xyz --chrg 1 --grad --gfn 2 --etemp 500 --acc 0.1 --gbsa h2o --parallel 1
          hostname                   : cu05
          coordinate file            : xtb_tmp.xyz
          omp threads                :                     1
          number of atoms            :                   729
          number of electrons        :                  1956
          charge                     :                     1
          spin                       :                   0.0
          first test random number   :      0.29128399619793


molecular fragmentation (1/2 indicates fragments):
111111111122222222222222222222222222222222222222222222222222222222222222
222222222222222222222222222222222222222222222222222222222222222222222222
222222222222222222222222222222222222222222222222222222222222222222222222
222222222222222222222222222222222222222222222222222222222222222222222222
222222222222222222222222222222222222222222222222222222222222222222222222
222222222222222222222222222222222222222222222222222222222222222222222222
222222222222222222222222222222222222222222222222222222222222222222222222
222222222222222222222222222222222222222222222222222222222222222222222222
222222222222222222222222222222222222222222222222222222222222222222222222
222222222222222222222222222222222222222222222222222222211222222222222222
222222222
# atoms in fragment 1/2:    12   717
 fragment masses (1/2) :       73.09     4893.91
CMA distance (Bohr)    :  20.876
constraining FC (au)   :  0.0500

########################################################################
# WARNING! Please study the warnings concerning your input carefully
#  - XTBPATH is not set, using XTBHOME instead
########################################################################

           ------------------------------------------------- 
          |                 G F N 2 - x T B                 |
          | Geometry, Frequencies, Noncovalent interactions |
          |            JCTC 2018 parametrisation            |
           ------------------------------------------------- 
 
             k(s)              :                1.8500
             k(p)              :                2.2300
             k(d)              :                2.2300
             k(f)              :                2.0000
             kEN (H0ij)        :               -2.0000
             D4 a1             :                0.5200
             D4 a2             :                5.0000
             D4 s6             :                1.0000
             D4 s8             :                2.7000
             D4 s9             :                5.0000
             alphaj            :                2.0000

  Z AO/shell   Hii/eV     exponent
  1     Wed Apr 25 08:07:45 CEST 2018   EN: 2.200 GM2: 0.406  GM3: 0.0800  RAES: 1.40
     1s    -10.707211    1.230000
  6     Wed Apr 25 08:07:45 CEST 2018   EN: 2.550 GM2: 0.538  GM3: 0.1500  RAES: 3.00
     2s    -13.970922    2.096432
     2p    -10.063292    1.800000
  7     Wed Apr 25 08:07:45 CEST 2018   EN: 3.040 GM2: 0.461  GM3:-0.0640  RAES: 1.90
     2s    -16.686243    2.339881
     2p    -12.523956    2.014332
  8     Wed Apr 25 08:07:45 CEST 2018   EN: 3.440 GM2: 0.452  GM3:-0.0517  RAES: 1.80
     2s    -20.229985    2.439742
     2p    -15.503117    2.137023
 16     Tue Apr 24 11:44:34 CEST 2018   EN: 2.580 GM2: 0.340  GM3:-0.0502  RAES: 3.10
     3s    -20.029654    1.981333
     3p    -11.377694    2.025643
     3d     -0.420282    1.702555

 Solvent             : h2o
 Using internal parameter file: .param_gbsa2_h2o
 Gsolv ref. state (COSMO-RS): gsolv [1 M gas/solution]
 temperature (mdtemp)       :    298.150000000000     
 dielectric constant        :    80.2000000000000     
 rho                        :    1.00000000000000     
 mass                       :    18.0000000000000     
 surface tension            :    15.5689454083859     
 probe radius               :   0.975313790000000     
 vdW radii scaling          :    1.00000000000000     
 Gshift (Eh)                :   1.857443126794793E-003
 c1                         :    1.55243817000000     
 soset                      :   0.130326360000000     
 HB correction              :  T
 Number of grid points      :          230

            Z     q(EN)     CN     RAES       Cart. coordinates
     1  N   5.0   -0.72    3.00    1.93    72.43887    63.41857    66.98122
     2  C   4.0    0.05    3.98    3.58    71.60096    63.95078    64.42658
     3  C   4.0    0.08    3.00    3.02    73.85936    64.01973    62.62695
     4  O   6.0   -0.48    1.00    1.80    73.89200    62.81258    60.65342
     5  C   4.0   -0.23    3.99    3.60    70.24846    66.48986    64.33089
     6  H   1.0    0.25    1.00    1.43    72.27444    64.84564    68.23866
     7  H   1.0    0.10    0.99    1.43    70.35296    62.41891    63.79885
     8  H   1.0    0.10    0.99    1.43    69.96042    67.05395    62.38044
     9  H   1.0    0.08    0.99    1.43    68.41654    66.35116    65.24344
    10  H   1.0    0.11    0.99    1.43    71.38000    67.92218    65.27206
    11  N   5.0   -0.69    3.00    1.93    77.18390    57.50460    61.57201
    12  C   4.0    0.07    3.98    3.59    75.75234    55.71100    60.08339
    13  C   4.0    0.28    3.02    3.02    75.47143    56.64399    57.37130
    14  O   6.0   -0.46    1.00    1.80    75.64960    55.19622    55.56204
    15  C   4.0   -0.14    3.99    3.60    73.17221    55.18102    61.26342
    16  C   4.0   -0.10    3.98    3.58    73.31048    54.22035    63.99863
    17  C   4.0   -0.23    3.99    3.60    70.64635    53.57479    64.90325
    18  C   4.0   -0.22    3.98    3.59    75.01708    51.91275    64.27264
    19  H   1.0    0.27    1.00    1.43    76.28820    58.45817    62.97106
    20  H   1.0    0.12    0.99    1.43    76.84767    53.95379    59.95187
    21  H   1.0    0.11    0.99    1.43    72.06545    56.92191    61.21531
    22  H   1.0    0.10    0.99    1.43    72.22121    53.77376    60.09238
    23  H   1.0    0.11    0.99    1.43    74.05022    55.74148    65.18109
    24  H   1.0    0.10    0.99    1.43    70.68568    53.02712    66.88148
    25  H   1.0    0.09    0.99    1.43    69.39145    55.18552    64.70133
    26  H   1.0    0.12    0.99    1.43    69.88902    52.01195    63.80736
    27  H   1.0    0.10    0.99    1.43    74.98620    51.26027    66.21910
    28  H   1.0    0.13    0.99    1.43    74.33367    50.39237    63.07602
    29  H   1.0    0.10    0.99    1.43    76.96402    52.34032    63.77786
    30  N   5.0   -0.49    3.01    1.93    75.02012    59.09919    57.08124
    31  C   4.0    0.07    4.00    3.62    74.94487    60.18252    54.57179
    32  C   4.0    0.10    3.00    3.02    77.33498    59.43261    53.12334
    33  O   6.0   -0.41    1.00    1.80    77.25037    58.47588    51.01161
    34  C   4.0   -0.13    3.99    3.60    74.75975    63.06880    54.70418
    35  C   4.0   -0.03    3.03    3.02    74.80291    64.13786    52.07185
    36  C   4.0   -0.08    3.03    3.02    77.01302    65.11576    51.05141
    37  C   4.0   -0.10    3.03    3.02    72.63759    64.06470    50.58917
    38  C   4.0   -0.09    3.03    3.02    77.05866    65.99999    48.58924
    39  C   4.0   -0.10    3.03    3.02    72.67947    64.94563    48.12867
    40  C   4.0   -0.09    3.03    3.02    74.89399    65.90987    47.12146
    41  H   1.0    0.30    1.00    1.43    74.81351    60.28781    58.57335
    42  H   1.0    0.12    0.99    1.43    73.32986    59.40871    53.52675
    43  H   1.0    0.11    0.99    1.43    73.01042    63.56448    55.67470
    44  H   1.0    0.12    0.99    1.43    76.34244    63.78707    55.81247
    45  H   1.0    0.12    0.99    1.43    78.70386    65.19122    52.19530
    46  H   1.0    0.09    1.00    1.43    70.90977    63.32474    51.38314
    47  H   1.0    0.12    1.00    1.43    78.78913    66.75574    47.81413
    48  H   1.0    0.10    0.99    1.43    70.98425    64.88352    46.99302
    49  H   1.0    0.12    1.00    1.43    74.93491    66.59141    45.20014
    50  N   5.0   -0.69    3.00    1.93    78.21961    51.30322    53.24785
    51  C   4.0    0.11    3.98    3.59    76.23672    49.53844    52.63371
    52  C   4.0    0.27    3.01    3.02    74.45287    50.46359    50.55940
    53  O   6.0   -0.42    1.00    1.80    73.01262    48.99392    49.49253
    54  C   4.0    0.04    3.98    3.58    74.79662    48.87353    55.09082
    55  O   6.0   -0.48    1.99    1.82    76.66769    48.39964    56.94005
    56  C   4.0   -0.21    3.98    3.59    73.05985    46.60582    54.73664
    57  H   1.0    0.33    1.00    1.43    77.80322    52.61627    54.58185
    58  H   1.0    0.13    0.99    1.43    77.15683    47.82583    51.90491
    59  H   1.0    0.12    0.99    1.43    73.69864    50.55388    55.64997
    60  H   1.0    0.25    0.99    1.43    75.87781    47.58706    58.37148
    61  H   1.0    0.11    0.99    1.43    72.05575    46.20607    56.48547
    62  H   1.0    0.13    0.99    1.43    71.69382    46.99697    53.25991
    63  H   1.0    0.13    0.99    1.43    74.18054    44.96619    54.21487
    64  N   5.0   -0.47    3.01    1.93    74.57557    52.92180    50.01113
    65  C   4.0    0.08    3.99    3.61    73.15742    54.05531    47.96078
    66  C   4.0    0.08    3.00    3.02    74.92258    54.54866    45.70508
    67  O   6.0   -0.37    1.00    1.80    74.70324    53.36980    43.71966
    68  C   4.0   -0.09    3.98    3.58    71.81358    56.48449    48.82043
    69  C   4.0   -0.23    3.98    3.59    70.31242    57.63044    46.63940
    70  C   4.0   -0.22    3.98    3.59    70.09996    55.92739    51.07372
    71  H   1.0    0.30    1.00    1.43    75.72830    54.06007    51.02798
    72  H   1.0    0.15    0.99    1.43    71.76596    52.65344    47.33972
    73  H   1.0    0.14    0.99    1.43    73.25991    57.83908    49.40542
    74  H   1.0    0.09    0.99    1.43    69.65741    59.50841    47.14739
    75  H   1.0    0.12    0.99    1.43    71.47484    57.77528    44.95217
    76  H   1.0    0.10    0.99    1.43    68.67515    56.47734    46.17968
    77  H   1.0    0.09    0.99    1.43    69.11921    57.64239    51.63175
    78  H   1.0    0.10    0.99    1.43    68.70117    54.50736    50.57717
    79  H   1.0    0.13    0.99    1.43    71.20473    55.24182    52.66592
    80  N   5.0   -0.71    3.00    1.93    59.96794    59.53102    43.61744
    81  C   4.0    0.06    3.98    3.58    60.11958    61.17922    45.79678
    82  C   4.0    0.08    3.00    3.02    58.84722    63.71723    45.26336
    83  O   6.0   -0.44    1.00    1.80    57.41807    64.70118    46.81679
    84  C   4.0   -0.15    3.99    3.60    62.88484    61.54308    46.55124
    85  C   4.0   -0.10    3.98    3.58    63.20392    63.25372    48.88372
    86  C   4.0   -0.24    3.98    3.59    65.08466    62.09487    50.73906
    87  C   4.0   -0.22    3.98    3.59    64.03919    65.90938    48.12183
    88  H   1.0    0.25    1.00    1.43    61.60939    58.84428    42.89965
    89  H   1.0    0.11    0.99    1.43    59.06316    60.31021    47.35970
    90  H   1.0    0.10    0.99    1.43    63.66452    59.67164    46.92520
    91  H   1.0    0.11    0.99    1.43    63.89107    62.33704    44.93725
    92  H   1.0    0.12    0.99    1.43    61.37550    63.41682    49.83829
    93  H   1.0    0.09    0.99    1.43    65.26394    63.28177    52.40700
    94  H   1.0    0.10    0.99    1.43    64.44886    60.23313    51.33296
    95  H   1.0    0.09    0.99    1.43    66.92848    61.92538    49.84994
    96  H   1.0    0.10    0.99    1.43    64.18688    67.11700    49.77772
    97  H   1.0    0.10    0.99    1.43    65.87041    65.85314    47.19187
    98  H   1.0    0.12    0.99    1.43    62.67932    66.75432    46.83521
    99  N   5.0   -0.71    3.00    1.93    43.82518    68.85260    51.19803
   100  C   4.0    0.07    3.98    3.59    43.64154    69.85725    53.74281
   101  C   4.0    0.09    3.00    3.02    43.05324    72.67905    53.69057
   102  O   6.0   -0.39    1.00    1.80    41.40686    73.61760    55.06025
   103  C   4.0   -0.13    3.99    3.60    46.13058    69.34889    55.14482
   104  C   4.0   -0.02    3.12    3.03    46.00415    69.99983    57.88713
   105  C   4.0    0.02    3.23    3.04    45.25141    68.42067    59.79010
   106  C   4.0    0.03    3.18    3.03    46.68033    72.33421    59.06024
   107  N   5.0   -0.47    3.10    1.94    45.44347    69.59946    62.07230
   108  C   4.0    0.13    3.23    3.04    46.31382    71.99433    61.69615
   109  C   4.0   -0.09    3.02    3.02    47.58613    74.64992    58.17403
   110  C   4.0   -0.09    3.02    3.02    46.86294    73.89910    63.42189
   111  C   4.0   -0.09    3.03    3.02    48.12762    76.52604    59.89435
   112  C   4.0   -0.10    3.03    3.02    47.78299    76.15185    62.49092
   113  H   1.0    0.26    1.00    1.43    45.46545    68.01188    50.67242
   114  H   1.0    0.13    0.99    1.43    42.06372    68.92428    54.71430
   115  H   1.0    0.11    0.99    1.43    46.55663    67.34014    54.94084
   116  H   1.0    0.12    0.99    1.43    47.61389    70.43976    54.22019
   117  H   1.0    0.12    1.00    1.43    44.61101    66.50409    59.65149
   118  H   1.0    0.28    1.00    1.43    44.91548    68.85357    63.75525
   119  H   1.0    0.12    1.00    1.43    47.87324    74.95635    56.17677
   120  H   1.0    0.14    1.00    1.43    46.61710    73.61211    65.42566
   121  H   1.0    0.13    0.99    1.43    48.85114    78.32733    59.25347
   122  H   1.0    0.13    0.99    1.43    48.25764    77.66611    63.77868
   123  N   5.0   -0.70    3.00    1.93    34.01237    67.23434    61.82370
   124  C   4.0    0.06    3.98    3.58    36.48393    66.15717    61.33402
   125  C   4.0    0.08    3.00    3.02    36.22509    63.31713    60.82529
   126  O   6.0   -0.48    1.00    1.80    37.34107    62.29168    59.07029
   127  C   4.0   -0.13    3.99    3.60    38.24504    66.53138    63.59349
   128  C   4.0   -0.12    3.98    3.59    39.08487    69.28096    63.93916
   129  C   4.0    0.27    3.00    3.02    40.70932    69.49846    66.29513
   130  O   6.0   -0.43    1.00    1.80    42.60560    68.20662    66.61031
   131  N   5.0   -0.65    3.00    1.93    39.94383    71.18230    68.02055
   132  H   1.0    0.26    1.00    1.43    33.78627    68.33438    63.37841
   133  H   1.0    0.12    0.99    1.43    37.28897    67.01756    59.62229
   134  H   1.0    0.13    0.99    1.43    37.25463    65.88033    65.28268
   135  H   1.0    0.12    0.99    1.43    39.90834    65.33969    63.33919
   136  H   1.0    0.12    0.99    1.43    40.21735    69.85810    62.31366
   137  H   1.0    0.11    0.99    1.43    37.44329    70.50739    64.08573
   138  H   1.0    0.26    1.00    1.43    38.44068    72.31919    67.76359
   139  H   1.0    0.28    1.00    1.43    40.98705    71.44178    69.59447
   140  N   5.0   -0.71    3.00    1.93    37.49369    58.96822    54.80929
   141  C   4.0    0.07    3.98    3.58    39.13494    56.77073    54.92145
   142  C   4.0    0.08    3.00    3.02    37.88289    54.57335    53.50369
   143  O   6.0   -0.40    1.00    1.80    39.00940    53.39382    51.85785
   144  C   4.0   -0.14    3.99    3.60    39.64650    56.11353    57.68649
   145  C   4.0   -0.15    3.98    3.59    40.80053    53.49403    58.05412
   146  C   4.0   -0.04    3.99    3.60    41.85588    53.22362    60.72466
   147  N   5.0   -0.48    3.02    1.93    44.28687    54.47804    60.89715
   148  C   4.0    0.36    3.00    3.02    45.32116    55.52759    62.93180
   149  N   5.0   -0.64    3.01    1.93    44.03599    55.93980    65.03691
   150  N   5.0   -0.65    3.02    1.93    47.79284    56.08236    62.82913
   151  H   1.0    0.32    1.00    1.43    37.12495    59.89873    56.44740
   152  H   1.0    0.12    0.99    1.43    40.91321    57.16658    53.92591
   153  H   1.0    0.13    0.99    1.43    40.90775    57.54565    58.46462
   154  H   1.0    0.12    0.99    1.43    37.86356    56.19037    58.71588
   155  H   1.0    0.12    0.99    1.43    39.36617    52.04369    57.76288
   156  H   1.0    0.12    0.99    1.43    42.29390    53.16607    56.67080
   157  H   1.0    0.11    0.99    1.43    40.53884    54.04172    62.08169
   158  H   1.0    0.11    0.99    1.43    42.08529    51.21801    61.17251
   159  H   1.0    0.24    1.00    1.43    45.41044    54.20732    59.37237
   160  H   1.0    0.24    1.00    1.43    42.08565    55.96349    65.10631
   161  H   1.0    0.25    1.00    1.43    44.89084    56.85668    66.47041
   162  H   1.0    0.26    1.00    1.43    48.75434    55.88650    61.19900
   163  H   1.0    0.26    1.00    1.43    48.68291    56.92847    64.28243
   164  N   5.0   -0.71    3.00    1.93    60.29704    35.06135    40.36097
   165  C   4.0    0.07    3.98    3.59    59.12936    33.55581    42.33671
   166  C   4.0    0.27    3.01    3.02    56.85188    35.02830    43.41207
   167  O   6.0   -0.46    1.00    1.80    56.23862    37.08652    42.58382
   168  C   4.0   -0.01    3.98    3.58    61.03187    32.91766    44.46670
   169  O   6.0   -0.50    1.98    1.82    61.20405    34.84422    46.28028
   170  H   1.0    0.27    1.00    1.43    59.95568    34.52268    38.56284
   171  H   1.0    0.10    0.99    1.43    58.45861    31.81101    41.46003
   172  H   1.0    0.10    0.99    1.43    60.44955    31.20743    45.45921
   173  H   1.0    0.13    0.99    1.43    62.87447    32.56788    43.58157
   174  H   1.0    0.26    0.99    1.43    61.50072    36.40915    45.31183
   175  N   5.0   -0.49    3.01    1.93    55.72854    33.88580    45.37500
   176  C   4.0    0.07    3.99    3.61    53.78310    35.07513    46.87689
   177  C   4.0    0.27    3.01    3.02    54.85411    36.12679    49.35759
   178  O   6.0   -0.47    1.00    1.80    54.13344    38.16002    50.19487
   179  C   4.0   -0.09    3.98    3.58    51.52288    33.26863    47.27226
   180  C   4.0   -0.16    3.98    3.59    49.17975    34.77726    48.05803
   181  C   4.0   -0.22    3.98    3.59    52.10650    31.15137    49.14446
   182  C   4.0   -0.23    3.98    3.58    46.76275    33.21875    47.89706
   183  H   1.0    0.22    1.00    1.43    56.23401    32.09837    45.79776
   184  H   1.0    0.13    0.99    1.43    53.13155    36.71615    45.79265
   185  H   1.0    0.12    0.99    1.43    51.13685    32.43346    45.41729
   186  H   1.0    0.12    0.99    1.43    49.42427    35.49824    49.97668
   187  H   1.0    0.10    0.99    1.43    48.98948    36.40770    46.80672
   188  H   1.0    0.11    0.99    1.43    50.53933    29.82659    49.18403
   189  H   1.0    0.10    0.99    1.43    53.78479    30.10491    48.59129
   190  H   1.0    0.12    0.99    1.43    52.35004    31.90956    51.03763
   191  H   1.0    0.11    0.99    1.43    45.11700    34.41875    48.17971
   192  H   1.0    0.11    0.99    1.43    46.59062    32.33596    46.04949
   193  H   1.0    0.12    0.99    1.43    46.72192    31.74924    49.33067
   194  N   5.0   -0.48    3.01    1.93    56.58747    34.70300    50.52817
   195  C   4.0    0.07    3.99    3.61    57.59762    35.37224    52.99069
   196  C   4.0    0.29    3.02    3.02    59.15022    37.80069    52.81923
   197  O   6.0   -0.47    1.00    1.80    59.03180    39.45768    54.42621
   198  C   4.0   -0.16    3.99    3.60    59.32128    33.29018    54.02492
   199  C   4.0   -0.16    3.98    3.59    57.89531    30.89749    54.80758
   200  C   4.0   -0.04    3.99    3.60    59.71828    29.06270    56.09241
   201  N   5.0   -0.48    3.02    1.93    58.40479    26.75954    56.80979
   202  C   4.0    0.38    3.01    3.02    59.53815    24.71516    57.73007
   203  N   5.0   -0.63    3.02    1.93    62.03458    24.65834    58.02953
   204  N   5.0   -0.64    3.02    1.93    58.18338    22.64702    58.20369
   205  H   1.0    0.23    1.00    1.43    57.09632    33.01261    49.80975
   206  H   1.0    0.12    0.99    1.43    56.03125    35.73821    54.29838
   207  H   1.0    0.11    0.99    1.43    60.75230    32.84035    52.60962
   208  H   1.0    0.10    0.99    1.43    60.27726    34.05973    55.68114
   209  H   1.0    0.11    0.99    1.43    56.37299    31.39061    56.10897
   210  H   1.0    0.11    0.99    1.43    57.05044    29.98812    53.16407
   211  H   1.0    0.12    0.99    1.43    61.23450    28.57723    54.77397
   212  H   1.0    0.11    0.99    1.43    60.52416    29.97246    57.76847
   213  H   1.0    0.24    1.00    1.43    56.49685    26.80420    56.76499
   214  H   1.0    0.27    1.00    1.43    63.07748    26.24756    57.92972
   215  H   1.0    0.28    1.00    1.43    62.87294    23.11627    58.76383
   216  H   1.0    0.28    1.00    1.43    56.28530    22.65612    58.05783
   217  H   1.0    0.28    1.00    1.43    58.98826    21.11308    58.98935
   218  N   5.0   -0.49    3.01    1.93    60.76141    37.88650    50.87200
   219  C   4.0    0.07    4.00    3.62    62.46491    40.01628    50.61817
   220  C   4.0    0.29    3.01    3.02    61.03741    42.38633    49.78576
   221  O   6.0   -0.47    1.00    1.80    61.60756    44.45494    50.64215
   222  C   4.0   -0.14    3.98    3.59    64.72686    39.36858    48.94101
   223  C   4.0   -0.11    3.99    3.60    66.00379    36.94258    49.87642
   224  C   4.0    0.27    3.00    3.02    68.81277    36.86281    49.31133
   225  O   6.0   -0.38    1.00    1.80    70.01976    38.70300    48.59826
   226  N   5.0   -0.65    3.00    1.93    69.89859    34.61334    49.68513
   227  H   1.0    0.28    1.00    1.43    60.74791    36.55490    49.48993
   228  H   1.0    0.13    0.99    1.43    63.15696    40.47254    52.52293
   229  H   1.0    0.12    0.99    1.43    64.13098    39.17778    46.97972
   230  H   1.0    0.14    0.99    1.43    66.06965    40.92837    49.04891
   231  H   1.0    0.11    0.99    1.43    65.81966    36.82930    51.92960
   232  H   1.0    0.12    0.99    1.43    65.10575    35.28925    49.04177
   233  H   1.0    0.26    1.00    1.43    68.91004    33.11414    50.30740
   234  H   1.0    0.29    1.00    1.43    71.77887    34.42973    49.44258
   235  N   5.0   -0.47    3.01    1.93    59.09349    42.06193    48.18898
   236  C   4.0    0.07    4.00    3.62    57.37492    44.14626    47.70622
   237  C   4.0    0.30    3.01    3.02    56.35561    45.13486    50.23626
   238  O   6.0   -0.45    1.00    1.80    56.49367    47.36187    50.82748
   239  C   4.0   -0.14    4.01    3.64    55.11268    43.42616    46.06177
   240  C   4.0   -0.13    3.98    3.58    55.75500    43.31684    43.25755
   241  S   6.0   -0.13    2.01    3.10    52.99146    43.92793    41.26308
   242  C   4.0   -0.19    3.98    3.58    51.30817    40.98305    41.68561
   243  H   1.0    0.26    1.00    1.43    58.73996    40.38042    47.36481
   244  H   1.0    0.12    0.99    1.43    58.40571    45.71379    46.82441
   245  H   1.0    0.13    0.99    1.43    54.32558    41.63006    46.70018
   246  H   1.0    0.12    0.99    1.43    53.66936    44.87815    46.33790
   247  H   1.0    0.11    0.99    1.43    57.06726    44.81867    42.75511
   248  H   1.0    0.14    0.99    1.43    56.53261    41.49789    42.69965
   249  H   1.0    0.12    0.99    1.43    49.84050    40.89210    40.25228
   250  H   1.0    0.14    0.99    1.43    52.62128    39.42597    41.43778
   251  H   1.0    0.10    0.99    1.43    50.44632    40.93349    43.54834
   252  N   5.0   -0.47    3.01    1.93    55.30732    43.37088    51.69971
   253  C   4.0    0.07    4.00    3.61    54.09805    44.02483    54.07414
   254  C   4.0    0.30    3.01    3.02    55.91573    45.62322    55.65708
   255  O   6.0   -0.45    1.00    1.80    55.24795    47.59204    56.68109
   256  C   4.0   -0.20    3.99    3.59    53.36032    41.60364    55.43727
   257  H   1.0    0.29    1.00    1.43    55.03856    41.57342    51.08352
   258  H   1.0    0.13    0.99    1.43    52.40401    45.17364    53.71537
   259  H   1.0    0.12    0.99    1.43    52.15304    42.03708    57.03723
   260  H   1.0    0.12    0.99    1.43    52.31135    40.40350    54.14213
   261  H   1.0    0.14    0.99    1.43    55.03109    40.59239    56.07613
   262  N   5.0   -0.47    3.01    1.93    58.24320    44.68099    55.82112
   263  C   4.0    0.08    3.99    3.61    60.26974    45.87300    57.23642
   264  C   4.0    0.30    3.01    3.02    60.70023    48.59079    56.34769
   265  O   6.0   -0.45    1.00    1.80    60.53213    50.38265    57.80643
   266  C   4.0   -0.13    3.99    3.60    62.66374    44.26372    56.92629
   267  C   4.0   -0.04    3.03    3.02    64.78227    45.13099    58.60666
   268  C   4.0   -0.10    3.03    3.02    66.33476    47.12618    57.89966
   269  C   4.0   -0.11    3.03    3.02    65.24000    43.93161    60.89308
   270  C   4.0   -0.09    3.03    3.02    68.30690    47.89656    59.42299
   271  C   4.0   -0.10    3.03    3.02    67.22873    44.66417    62.41866
   272  C   4.0    0.10    3.03    3.02    68.78905    46.64322    61.68442
   273  O   6.0   -0.51    1.99    1.83    70.79774    47.39475    63.09356
   274  H   1.0    0.30    1.00    1.43    58.61565    42.95492    55.06219
   275  H   1.0    0.13    0.99    1.43    59.73571    46.00657    59.23750
   276  H   1.0    0.11    0.99    1.43    62.16474    42.31647    57.39054
   277  H   1.0    0.13    0.99    1.43    63.25531    44.35115    54.95232
   278  H   1.0    0.12    1.00    1.43    66.02686    48.06814    56.11883
   279  H   1.0    0.11    1.00    1.43    64.04838    42.38289    61.47394
   280  H   1.0    0.11    1.00    1.43    69.50905    49.44870    58.87251
   281  H   1.0    0.11    1.00    1.43    67.58304    43.68721    64.17440
   282  H   1.0    0.25    0.99    1.43    70.92042    46.37533    64.60541
   283  N   5.0   -0.50    3.00    1.93    61.32804    48.86441    53.91293
   284  C   4.0    0.08    4.00    3.62    61.99503    51.33058    52.95823
   285  C   4.0    0.28    3.01    3.02    59.74390    53.14483    52.90794
   286  O   6.0   -0.50    1.00    1.80    60.08278    55.42787    52.67607
   287  C   4.0   -0.09    3.98    3.58    63.28221    51.27853    50.34775
   288  C   4.0   -0.22    3.98    3.59    65.62226    49.58959    50.38336
   289  C   4.0   -0.20    3.98    3.59    61.46984    50.43670    48.27103
   290  H   1.0    0.30    1.00    1.43    61.29552    47.36145    52.72421
   291  H   1.0    0.11    0.99    1.43    63.32827    52.17112    54.31470
   292  H   1.0    0.10    0.99    1.43    63.84587    53.23581    49.97492
   293  H   1.0    0.11    0.99    1.43    66.65901    49.81163    48.62525
   294  H   1.0    0.10    0.99    1.43    66.87145    50.07856    51.94046
   295  H   1.0    0.13    0.99    1.43    65.07001    47.62048    50.55324
   296  H   1.0    0.10    0.99    1.43    62.39461    50.58874    46.44260
   297  H   1.0    0.14    0.99    1.43    60.91603    48.48727    48.57787
   298  H   1.0    0.12    0.99    1.43    59.78746    51.61387    48.24428
   299  N   5.0   -0.47    3.01    1.93    57.48541    52.05221    53.13066
   300  C   4.0    0.08    3.99    3.60    55.09861    53.39519    53.07903
   301  C   4.0    0.31    3.02    3.02    54.55078    54.49895    55.70275
   302  O   6.0   -0.44    1.00    1.80    54.10017    56.74459    56.04555
   303  C   4.0   -0.01    3.98    3.59    52.91168    51.62424    52.31798
   304  O   6.0   -0.49    1.99    1.82    50.54381    52.68055    52.85337
   305  H   1.0    0.31    1.00    1.43    57.45187    50.13382    53.02421
   306  H   1.0    0.12    0.99    1.43    55.24440    54.98697    51.75833
   307  H   1.0    0.12    0.99    1.43    53.09792    51.10789    50.32206
   308  H   1.0    0.15    0.99    1.43    53.02793    49.90257    53.44582
   309  H   1.0    0.26    0.99    1.43    50.23803    54.12064    51.77854
   310  N   5.0   -0.48    3.01    1.93    54.67707    52.83146    57.58460
   311  C   4.0    0.03    4.00    3.63    54.61582    53.71396    60.16842
   312  C   4.0    0.31    3.01    3.02    56.46180    55.91827    60.46931
   313  O   6.0   -0.44    1.00    1.80    55.86997    57.90881    61.49167
   314  H   1.0    0.30    1.00    1.43    55.05505    50.98327    57.23738
   315  H   1.0    0.13    0.99    1.43    52.73115    54.37030    60.69928
   316  H   1.0    0.14    0.99    1.43    55.18107    52.17930    61.42454
   317  N   5.0   -0.48    3.01    1.93    58.74951    55.40205    59.54872
   318  C   4.0    0.08    3.99    3.60    60.86797    57.14182    59.68111
   319  C   4.0    0.29    3.01    3.02    60.18456    59.59309    58.30256
   320  O   6.0   -0.46    1.00    1.80    60.37471    61.63212    59.38789
   321  C   4.0   -0.14    3.99    3.60    63.18839    55.73895    58.67792
   322  C   4.0   -0.11    3.97    3.58    65.76960    57.00265    59.07924
   323  C   4.0   -0.23    3.98    3.59    66.34552    58.82443    56.91973
   324  C   4.0   -0.23    3.98    3.59    65.97560    58.28060    61.65570
   325  H   1.0    0.29    1.00    1.43    59.10952    53.66624    58.81124
   326  H   1.0    0.14    0.99    1.43    61.15412    57.66605    61.66732
   327  H   1.0    0.12    0.99    1.43    63.19253    53.90683    59.62660
   328  H   1.0    0.12    0.99    1.43    62.91367    55.40760    56.66129
   329  H   1.0    0.10    0.99    1.43    67.17990    55.48677    59.00916
   330  H   1.0    0.10    0.99    1.43    68.15471    59.74775    57.21401
   331  H   1.0    0.09    0.99    1.43    66.42841    57.79368    55.14568
   332  H   1.0    0.11    0.99    1.43    64.88537    60.25784    56.75806
   333  H   1.0    0.09    0.99    1.43    67.91550    58.87716    61.96736
   334  H   1.0    0.11    0.99    1.43    64.77341    59.93867    61.75102
   335  H   1.0    0.12    0.99    1.43    65.42397    56.98445    63.15073
   336  N   5.0   -0.48    3.01    1.93    59.25261    59.36207    55.97251
   337  C   4.0    0.08    3.99    3.60    58.37693    61.50855    54.50418
   338  C   4.0    0.32    3.01    3.02    56.76054    63.30112    56.10503
   339  O   6.0   -0.40    1.00    1.80    57.27548    65.54841    56.33280
   340  C   4.0   -0.01    3.98    3.59    56.77318    60.46590    52.30263
   341  O   6.0   -0.47    1.99    1.82    55.35657    62.29213    51.01813
   342  H   1.0    0.30    1.00    1.43    59.42628    57.71954    54.97477
   343  H   1.0    0.11    0.99    1.43    59.98541    62.61561    53.79482
   344  H   1.0    0.11    0.99    1.43    58.02839    59.41002    51.03455
   345  H   1.0    0.16    0.99    1.43    55.39241    59.15526    53.10043
   346  H   1.0    0.31    0.99    1.43    56.41111    63.27794    49.87351
   347  N   5.0   -0.47    3.01    1.93    54.72813    62.21975    57.13070
   348  C   4.0    0.08    4.00    3.61    53.00134    63.66862    58.69052
   349  C   4.0    0.31    3.01    3.02    54.51541    64.94351    60.80529
   350  O   6.0   -0.44    1.00    1.80    54.25532    67.18496    61.32448
   351  C   4.0   -0.13    3.99    3.60    50.89836    61.99117    59.76626
   352  C   4.0   -0.03    3.02    3.02    48.58868    61.86274    58.09245
   353  C   4.0   -0.08    3.03    3.02    48.78124    61.78096    55.47355
   354  C   4.0   -0.09    3.03    3.02    46.19451    61.85175    59.18178
   355  C   4.0   -0.10    3.03    3.02    46.62861    61.72591    53.98313
   356  C   4.0   -0.10    3.03    3.02    44.03968    61.79678    57.69541
   357  C   4.0   -0.10    3.03    3.02    44.25576    61.74459    55.08710
   358  H   1.0    0.29    1.00    1.43    54.41396    60.34137    56.91246
   359  H   1.0    0.14    0.99    1.43    52.17535    65.20286    57.56266
   360  H   1.0    0.14    0.99    1.43    51.69353    60.10811    60.07129
   361  H   1.0    0.11    0.99    1.43    50.34582    62.75626    61.59855
   362  H   1.0    0.14    1.00    1.43    50.61165    61.79095    54.57437
   363  H   1.0    0.12    1.00    1.43    46.01353    61.94521    61.21103
   364  H   1.0    0.12    1.00    1.43    46.81488    61.71671    51.95119
   365  H   1.0    0.13    1.00    1.43    42.18855    61.86331    58.55283
   366  H   1.0    0.11    1.00    1.43    42.58379    61.75680    53.92000
   367  N   5.0   -0.47    3.00    1.93    56.07995    63.40752    62.05662
   368  C   4.0    0.03    4.00    3.61    57.71834    64.35863    64.01437
   369  C   4.0    0.29    3.01    3.02    59.17585    66.74904    63.27533
   370  O   6.0   -0.47    1.00    1.80    59.33419    68.51591    64.77499
   371  H   1.0    0.31    1.00    1.43    56.26727    61.57288    61.53420
   372  H   1.0    0.12    0.99    1.43    56.59297    64.86410    65.68057
   373  H   1.0    0.12    0.99    1.43    59.07144    62.87664    64.48915
   374  N   5.0   -0.48    3.01    1.93    60.37787    66.67054    61.07306
   375  C   4.0    0.08    3.99    3.61    61.96126    68.73943    60.22184
   376  C   4.0    0.10    3.00    3.02    60.42843    71.16907    60.06802
   377  O   6.0   -0.40    1.00    1.80    61.19665    73.12149    61.04306
   378  C   4.0   -0.09    3.98    3.58    63.24584    68.11434    57.67870
   379  C   4.0   -0.17    3.98    3.59    65.85912    66.94677    58.12505
   380  C   4.0   -0.22    3.98    3.59    63.54400    70.43476    55.97741
   381  C   4.0   -0.23    3.98    3.59    65.80220    64.69347    59.90716
   382  H   1.0    0.31    1.00    1.43    60.21277    65.11514    59.96663
   383  H   1.0    0.13    0.99    1.43    63.40325    69.11046    61.66849
   384  H   1.0    0.13    0.99    1.43    62.03386    66.74420    56.71236
   385  H   1.0    0.10    0.99    1.43    66.61621    66.34543    56.30356
   386  H   1.0    0.10    0.99    1.43    67.11368    68.40933    58.86511
   387  H   1.0    0.10    0.99    1.43    64.73475    69.95877    54.37198
   388  H   1.0    0.12    0.99    1.43    61.73416    71.08254    55.26176
   389  H   1.0    0.12    0.99    1.43    64.42994    71.97735    57.00558
   390  H   1.0    0.10    0.99    1.43    67.60827    63.71938    59.88312
   391  H   1.0    0.10    0.99    1.43    65.38619    65.26865    61.83131
   392  H   1.0    0.13    0.99    1.43    64.33858    63.38472    59.32386
   393  N   5.0   -0.70    3.00    1.93    54.71591    72.54691    62.10693
   394  C   4.0    0.10    3.98    3.59    53.62700    73.20510    64.52046
   395  C   4.0    0.31    3.01    3.02    55.61107    74.59948    66.10165
   396  O   6.0   -0.37    1.00    1.80    55.17085    76.64721    67.08567
   397  C   4.0   -0.00    3.98    3.59    52.67165    70.82373    65.84718
   398  O   6.0   -0.48    1.99    1.83    51.36573    71.55641    68.04307
   399  H   1.0    0.32    1.00    1.43    54.67738    70.70282    61.58984
   400  H   1.0    0.13    0.99    1.43    52.03112    74.50905    64.26644
   401  H   1.0    0.13    0.99    1.43    51.42017    69.81662    64.53462
   402  H   1.0    0.13    0.99    1.43    54.28430    69.60132    66.31348
   403  H   1.0    0.25    0.99    1.43    50.58697    70.08616    68.78759
   404  N   5.0   -0.47    3.00    1.93    57.83604    73.42125    66.24585
   405  C   4.0    0.02    3.99    3.60    59.93986    74.40598    67.68130
   406  C   4.0    0.10    3.00    3.02    60.66231    77.08153    66.87704
   407  O   6.0   -0.37    1.00    1.80    60.98069    78.78424    68.42131
   408  H   1.0    0.31    1.00    1.43    58.08468    71.68566    65.46517
   409  H   1.0    0.13    0.99    1.43    59.48253    74.45273    69.69802
   410  H   1.0    0.11    0.99    1.43    61.55132    73.15835    67.37890
   411  N   5.0   -0.73    3.00    1.93    57.88078    65.76192    78.25042
   412  C   4.0    0.07    3.99    3.60    55.90928    65.78315    76.35021
   413  C   4.0    0.28    3.01    3.02    56.86794    64.46786    73.96816
   414  O   6.0   -0.49    1.00    1.80    55.56094    62.98478    72.74683
   415  C   4.0   -0.09    3.98    3.58    55.10296    68.51736    75.74759
   416  C   4.0   -0.16    3.98    3.58    53.58963    69.69663    77.92587
   417  C   4.0   -0.21    3.98    3.59    53.65020    68.66586    73.25764
   418  C   4.0   -0.23    3.98    3.58    50.98698    68.54605    78.38433
   419  H   1.0    0.25    1.00    1.43    58.44622    67.42535    79.01123
   420  H   1.0    0.10    0.99    1.43    54.28148    64.68254    77.01864
   421  H   1.0    0.11    0.99    1.43    56.84727    69.60858    75.53873
   422  H   1.0    0.10    0.99    1.43    54.70137    69.56048    79.65485
   423  H   1.0    0.11    0.99    1.43    53.34708    71.70120    77.50025
   424  H   1.0    0.12    0.99    1.43    53.00255    70.58992    72.93934
   425  H   1.0    0.12    0.99    1.43    54.85066    68.12729    71.67963
   426  H   1.0    0.10    0.99    1.43    52.02543    67.41206    73.29912
   427  H   1.0    0.11    0.99    1.43    50.12309    69.42685    80.02790
   428  H   1.0    0.11    0.99    1.43    49.74469    68.84944    76.77851
   429  H   1.0    0.10    0.99    1.43    51.09944    66.52747    78.75032
   430  N   5.0   -0.48    3.01    1.93    59.19620    65.10961    73.26073
   431  C   4.0    0.07    4.00    3.62    60.29038    64.09776    70.95809
   432  C   4.0    0.29    3.01    3.02    60.35390    61.21333    71.15941
   433  O   6.0   -0.47    1.00    1.80    59.58629    59.82246    69.45392
   434  C   4.0   -0.09    3.98    3.58    62.94629    65.18549    70.49185
   435  C   4.0   -0.16    3.98    3.59    62.75345    68.03890    70.00636
   436  C   4.0   -0.23    3.98    3.59    64.17900    63.83259    68.25816
   437  C   4.0   -0.23    3.98    3.58    65.30901    69.33612    69.71578
   438  H   1.0    0.23    1.00    1.43    60.16575    66.46359    74.21149
   439  H   1.0    0.12    0.99    1.43    59.06813    64.57724    69.35060
   440  H   1.0    0.10    0.99    1.43    64.06591    64.85601    72.19957
   441  H   1.0    0.14    0.99    1.43    61.63122    68.35400    68.30415
   442  H   1.0    0.10    0.99    1.43    61.76103    68.93482    71.57402
   443  H   1.0    0.09    0.99    1.43    66.16172    64.33219    68.13331
   444  H   1.0    0.12    0.99    1.43    64.05554    61.79216    68.45099
   445  H   1.0    0.11    0.99    1.43    63.24556    64.37332    66.50626
   446  H   1.0    0.11    0.99    1.43    65.02222    71.36370    69.52194
   447  H   1.0    0.10    0.99    1.43    66.49262    69.01710    71.36356
   448  H   1.0    0.10    0.99    1.43    66.28835    68.68260    68.03641
   449  N   5.0   -0.48    3.01    1.93    61.33962    60.35133    73.30376
   450  C   4.0    0.06    3.99    3.61    61.60835    57.66850    73.79102
   451  C   4.0    0.29    3.01    3.02    59.01018    56.39399    73.79122
   452  O   6.0   -0.44    1.00    1.80    58.59652    54.49871    72.51394
   453  C   4.0   -0.15    3.99    3.60    62.95813    57.25004    76.30401
   454  C   4.0   -0.11    3.98    3.58    65.78221    57.90435    76.22300
   455  C   4.0   -0.23    3.98    3.59    66.81509    57.99862    78.91668
   456  C   4.0   -0.23    3.98    3.59    67.26352    55.97401    74.67304
   457  H   1.0    0.23    1.00    1.43    62.07363    61.56813    74.59634
   458  H   1.0    0.12    0.99    1.43    62.67256    56.79483    72.23977
   459  H   1.0    0.10    0.99    1.43    62.01759    58.41142    77.72577
   460  H   1.0    0.10    0.99    1.43    62.74597    55.26862    76.82835
   461  H   1.0    0.11    0.99    1.43    66.01336    59.77338    75.36848
   462  H   1.0    0.10    0.99    1.43    68.82918    58.39574    78.89557
   463  H   1.0    0.10    0.99    1.43    65.87840    59.47383    79.99654
   464  H   1.0    0.10    0.99    1.43    66.52520    56.19407    79.85437
   465  H   1.0    0.10    0.99    1.43    69.26877    56.41247    74.71428
   466  H   1.0    0.10    0.99    1.43    66.99780    54.08522    75.43883
   467  H   1.0    0.10    0.99    1.43    66.66871    55.95716    72.70687
   468  N   5.0   -0.48    3.01    1.93    57.25520    57.48790    75.22305
   469  C   4.0    0.07    4.00    3.62    54.71001    56.47243    75.30765
   470  C   4.0    0.31    3.02    3.02    53.86478    55.82500    72.63289
   471  O   6.0   -0.46    1.00    1.80    52.94849    53.77565    72.09553
   472  C   4.0   -0.14    3.99    3.60    52.78069    58.34582    76.40233
   473  C   4.0   -0.11    3.97    3.58    51.88130    57.82124    79.11115
   474  C   4.0   -0.22    3.98    3.59    51.10188    55.06436    79.48577
   475  C   4.0   -0.23    3.98    3.59    53.82908    58.61443    81.07658
   476  H   1.0    0.24    1.00    1.43    57.65699    59.00952    76.32521
   477  H   1.0    0.12    0.99    1.43    54.71759    54.69632    76.36956
   478  H   1.0    0.12    0.99    1.43    53.59433    60.23494    76.30636
   479  H   1.0    0.12    0.99    1.43    51.10738    58.32235    75.19347
   480  H   1.0    0.11    0.99    1.43    50.18790    58.98384    79.36609
   481  H   1.0    0.10    0.99    1.43    49.84211    54.91238    81.10127
   482  H   1.0    0.12    0.99    1.43    50.11435    54.36589    77.82604
   483  H   1.0    0.10    0.99    1.43    52.73093    53.86112    79.84461
   484  H   1.0    0.10    0.99    1.43    53.18683    58.10742    82.96010
   485  H   1.0    0.10    0.99    1.43    55.63577    57.70922    80.72711
   486  H   1.0    0.09    0.99    1.43    54.13222    60.64307    81.02664
   487  N   5.0   -0.47    3.01    1.93    54.02508    57.74208    70.98842
   488  C   4.0    0.08    4.00    3.62    53.06596    57.47145    68.44182
   489  C   4.0    0.30    3.01    3.02    54.40954    55.34353    67.03148
   490  O   6.0   -0.44    1.00    1.80    53.21145    53.80732    65.78198
   491  C   4.0   -0.13    3.98    3.59    53.27111    59.97996    66.98938
   492  C   4.0    0.08    3.22    3.04    51.10076    61.62755    67.67854
   493  N   5.0   -0.47    3.15    1.95    51.10245    63.14198    69.77245
   494  C   4.0    0.04    3.35    3.07    48.70114    61.79274    66.72100
   495  C   4.0    0.16    3.41    3.08    48.77174    64.14923    69.97523
   496  N   5.0   -0.41    2.10    1.90    47.28344    63.37097    68.16386
   497  H   1.0    0.30    1.00    1.43    54.77849    59.42333    71.51158
   498  H   1.0    0.12    0.99    1.43    51.07832    56.88614    68.57399
   499  H   1.0    0.14    0.99    1.43    55.06121    60.87655    67.47814
   500  H   1.0    0.12    0.99    1.43    53.28473    59.60281    64.96329
   501  H   1.0    0.27    1.00    1.43    52.59383    63.38351    70.95146
   502  H   1.0    0.10    1.00    1.43    47.91385    60.94361    65.06432
   503  H   1.0    0.10    1.00    1.43    48.21173    65.42528    71.44392
   504  N   5.0   -0.46    3.01    1.93    56.90612    55.31375    67.28966
   505  C   4.0    0.09    4.00    3.62    58.42429    53.35414    66.13039
   506  C   4.0    0.29    3.01    3.02    57.19229    50.79232    66.67014
   507  O   6.0   -0.44    1.00    1.80    56.64126    49.28982    64.99879
   508  C   4.0    0.04    3.98    3.58    61.16639    53.50251    67.11378
   509  O   6.0   -0.51    1.99    1.82    62.24855    55.85431    66.47874
   510  C   4.0   -0.20    3.98    3.59    62.78212    51.43113    65.93441
   511  H   1.0    0.30    1.00    1.43    57.77160    56.70087    68.28899
   512  H   1.0    0.14    0.99    1.43    58.46163    53.61889    64.07551
   513  H   1.0    0.14    0.99    1.43    61.13004    53.26669    69.17844
   514  H   1.0    0.29    0.99    1.43    61.37178    57.20841    67.34928
   515  H   1.0    0.11    0.99    1.43    64.73743    51.69341    66.49713
   516  H   1.0    0.11    0.99    1.43    62.13215    49.58872    66.55591
   517  H   1.0    0.12    0.99    1.43    62.66777    51.51858    63.88530
   518  N   5.0   -0.47    3.01    1.93    56.77935    50.34621    69.12090
   519  C   4.0    0.07    4.00    3.61    55.86711    47.91146    69.97938
   520  C   4.0    0.29    3.01    3.02    53.10617    47.46944    69.22637
   521  O   6.0   -0.48    1.00    1.80    52.42145    45.41579    68.37550
   522  C   4.0   -0.13    3.99    3.60    56.20443    47.73495    72.84350
   523  C   4.0   -0.03    3.03    3.02    58.90948    48.13201    73.64024
   524  C   4.0   -0.10    3.03    3.02    60.88744    46.90045    72.42191
   525  C   4.0   -0.08    3.03    3.02    59.46513    49.69155    75.67637
   526  C   4.0   -0.11    3.03    3.02    63.36004    47.25282    73.19749
   527  C   4.0   -0.10    3.03    3.02    61.93084    50.00755    76.48478
   528  C   4.0   -0.10    3.03    3.02    63.88904    48.80615    75.23593
   529  H   1.0    0.30    1.00    1.43    57.26208    51.65096    70.43899
   530  H   1.0    0.12    0.99    1.43    56.94091    46.41528    69.01988
   531  H   1.0    0.13    0.99    1.43    55.00347    49.15438    73.73636
   532  H   1.0    0.09    0.99    1.43    55.57627    45.86919    73.47094
   533  H   1.0    0.10    1.00    1.43    60.50300    45.63587    70.86700
   534  H   1.0    0.12    1.00    1.43    57.95331    50.65174    76.65180
   535  H   1.0    0.11    1.00    1.43    64.86763    46.29164    72.21607
   536  H   1.0    0.10    1.00    1.43    62.31315    51.17686    78.11143
   537  H   1.0    0.11    1.00    1.43    65.81779    49.04588    75.85247
   538  N   5.0   -0.48    3.01    1.93    51.54946    49.41108    69.55210
   539  C   4.0    0.08    4.00    3.62    48.91787    49.22579    68.82933
   540  C   4.0    0.30    3.02    3.02    48.65293    48.41152    66.07740
   541  O   6.0   -0.48    1.00    1.80    46.90746    47.02742    65.44447
   542  C   4.0   -0.12    3.99    3.60    47.52367    51.73761    69.20174
   543  C   4.0   -0.02    3.12    3.03    46.75264    52.22773    71.88133
   544  C   4.0    0.01    3.22    3.04    46.05211    50.50175    73.67070
   545  C   4.0    0.02    3.18    3.03    46.49048    54.65707    73.03300
   546  N   5.0   -0.48    3.11    1.94    45.38789    51.69798    75.85729
   547  C   4.0    0.11    3.22    3.04    45.64243    54.23769    75.54225
   548  C   4.0   -0.10    3.02    3.02    46.88695    57.13669    72.22930
   549  C   4.0   -0.12    3.02    3.02    45.26499    56.21238    77.23360
   550  C   4.0   -0.10    3.03    3.02    46.53880    59.07954    73.92258
   551  C   4.0   -0.12    3.03    3.02    45.75065    58.63354    76.40494
   552  H   1.0    0.31    1.00    1.43    52.15663    51.05640    70.34204
   553  H   1.0    0.12    0.99    1.43    48.01696    47.72713    69.93691
   554  H   1.0    0.13    0.99    1.43    48.76824    53.23893    68.53732
   555  H   1.0    0.12    0.99    1.43    45.83080    51.68576    68.01606
   556  H   1.0    0.11    1.00    1.43    46.01428    48.47773    73.58373
   557  H   1.0    0.23    1.00    1.43    44.77209    50.81097    77.42179
   558  H   1.0    0.12    1.00    1.43    47.47851    57.54061    70.31999
   559  H   1.0    0.11    1.00    1.43    44.61762    55.85100    79.13477
   560  H   1.0    0.13    1.00    1.43    46.86006    61.00478    73.33841
   561  H   1.0    0.12    0.99    1.43    45.52276    60.21865    77.67278
   562  N   5.0   -0.47    3.00    1.93    50.27270    49.41436    64.42469
   563  C   4.0    0.03    4.00    3.62    50.15682    48.66703    61.79551
   564  C   4.0    0.30    3.01    3.02    50.58184    45.82762    61.49508
   565  O   6.0   -0.45    1.00    1.80    49.13094    44.49068    60.28401
   566  H   1.0    0.31    1.00    1.43    51.63041    50.64428    64.98981
   567  H   1.0    0.13    0.99    1.43    48.29077    49.09275    61.01458
   568  H   1.0    0.12    0.99    1.43    51.60533    49.65707    60.72558
   569  N   5.0   -0.47    3.01    1.93    52.64477    44.94451    62.64409
   570  C   4.0    0.08    4.00    3.63    53.23406    42.26750    62.58500
   571  C   4.0    0.30    3.01    3.02    50.81666    40.78067    63.19643
   572  O   6.0   -0.43    1.00    1.80    49.97203    39.12366    61.81765
   573  C   4.0   -0.10    3.98    3.58    55.37363    41.60258    64.42811
   574  C   4.0   -0.22    3.98    3.59    55.77406    38.74266    64.44707
   575  C   4.0   -0.22    3.98    3.59    57.81657    42.93851    63.65535
   576  H   1.0    0.28    1.00    1.43    53.81440    46.12649    63.58912
   577  H   1.0    0.12    0.99    1.43    53.80023    41.73430    60.66480
   578  H   1.0    0.13    0.99    1.43    54.81105    42.23931    66.31155
   579  H   1.0    0.11    0.99    1.43    57.31814    38.23747    65.70037
   580  H   1.0    0.13    0.99    1.43    54.09113    37.74140    65.07123
   581  H   1.0    0.11    0.99    1.43    56.23083    38.08275    62.55616
   582  H   1.0    0.09    0.99    1.43    59.33985    42.37253    64.90952
   583  H   1.0    0.11    0.99    1.43    58.32632    42.40711    61.73752
   584  H   1.0    0.13    0.99    1.43    57.63058    44.98314    63.75178
   585  N   5.0   -0.48    3.01    1.93    49.77691    41.45332    65.40097
   586  C   4.0    0.08    4.00    3.62    47.66492    40.07427    66.45230
   587  C   4.0    0.29    3.01    3.02    45.39175    40.25884    64.67172
   588  O   6.0   -0.39    1.00    1.80    44.05984    38.42581    64.17760
   589  C   4.0   -0.09    3.98    3.59    46.97678    41.08494    69.08578
   590  C   4.0   -0.22    3.98    3.59    44.68655    39.67318    70.12130
   591  C   4.0   -0.22    3.98    3.59    49.19475    40.81559    70.91443
   592  H   1.0    0.29    1.00    1.43    50.58300    42.84071    66.44766
   593  H   1.0    0.12    0.99    1.43    48.15945    38.05668    66.55961
   594  H   1.0    0.13    0.99    1.43    46.51220    43.08962    68.86976
   595  H   1.0    0.10    0.99    1.43    44.14125    40.47093    71.92952
   596  H   1.0    0.13    0.99    1.43    43.09860    39.78208    68.82605
   597  H   1.0    0.11    0.99    1.43    45.14754    37.68690    70.38630
   598  H   1.0    0.10    0.99    1.43    48.61127    41.40081    72.79499
   599  H   1.0    0.10    0.99    1.43    49.81171    38.85565    71.00053
   600  H   1.0    0.13    0.99    1.43    50.78653    41.97430    70.33867
   601  N   5.0   -0.47    3.01    1.93    44.89310    42.58213    63.85198
   602  C   4.0    0.08    4.00    3.62    42.64323    43.16131    62.40792
   603  C   4.0    0.31    3.02    3.02    42.37084    41.31079    60.22444
   604  O   6.0   -0.35    1.00    1.80    40.45464    40.05375    59.88793
   605  C   4.0   -0.13    3.99    3.60    42.78024    45.87150    61.38072
   606  C   4.0   -0.04    3.03    3.02    40.34972    46.49959    60.04758
   607  C   4.0   -0.07    3.03    3.02    39.99078    45.86518    57.52386
   608  C   4.0   -0.10    3.03    3.02    38.38210    47.61646    61.37950
   609  C   4.0   -0.08    3.03    3.02    37.66591    46.24029    56.38395
   610  C   4.0   -0.10    3.03    3.02    36.08389    48.06756    60.22001
   611  C   4.0   -0.09    3.03    3.02    35.70843    47.32677    57.74028
   612  H   1.0    0.31    1.00    1.43    45.95598    44.09396    64.39301
   613  H   1.0    0.13    0.99    1.43    40.96291    42.93708    63.60993
   614  H   1.0    0.13    0.99    1.43    43.08618    47.11859    62.99180
   615  H   1.0    0.13    0.99    1.43    44.38453    46.01541    60.09575
   616  H   1.0    0.13    0.99    1.43    41.52190    45.04968    56.44537
   617  H   1.0    0.11    1.00    1.43    38.63973    48.11652    63.34029
   618  H   1.0    0.13    0.99    1.43    37.37672    45.65321    54.44975
   619  H   1.0    0.12    1.00    1.43    34.57972    48.96024    61.26290
   620  H   1.0    0.12    1.00    1.43    33.88135    47.56686    56.87315
   621  N   5.0   -0.48    3.01    1.93    44.35392    41.27516    58.66087
   622  C   4.0    0.08    4.00    3.62    44.29649    39.76168    56.38939
   623  C   4.0    0.30    3.02    3.02    43.76823    37.01004    57.07376
   624  O   6.0   -0.36    1.00    1.80    42.09785    35.78184    56.03147
   625  C   4.0   -0.13    3.99    3.60    46.79061    39.97904    54.92859
   626  C   4.0   -0.04    3.03    3.02    46.88090    42.36516    53.37649
   627  C   4.0   -0.09    3.03    3.02    47.34355    44.69228    54.50609
   628  C   4.0   -0.09    3.03    3.02    46.45342    42.27565    50.78719
   629  C   4.0   -0.09    3.03    3.02    47.34754    46.88566    53.08078
   630  C   4.0   -0.10    3.03    3.02    46.47987    44.46538    49.35199
   631  C   4.0   -0.09    3.03    3.02    46.90957    46.77445    50.50373
   632  H   1.0    0.28    1.00    1.43    45.96622    42.19971    59.12336
   633  H   1.0    0.14    0.99    1.43    42.70756    40.37651    55.19731
   634  H   1.0    0.12    0.99    1.43    48.33128    39.91790    56.29756
   635  H   1.0    0.11    0.99    1.43    46.95261    38.34238    53.68336
   636  H   1.0    0.14    1.00    1.43    47.75657    44.78396    56.49861
   637  H   1.0    0.11    0.99    1.43    46.10871    40.47480    49.88344
   638  H   1.0    0.14    1.00    1.43    47.72949    48.68614    53.95730
   639  H   1.0    0.12    0.99    1.43    46.17021    44.36837    47.33281
   640  H   1.0    0.13    1.00    1.43    46.92148    48.48412    49.39312
   641  N   5.0   -0.47    3.01    1.93    45.28171    36.02096    58.83560
   642  C   4.0    0.08    4.00    3.62    45.05479    33.35078    59.42688
   643  C   4.0    0.13    3.00    3.02    42.34147    32.76326    60.22759
   644  O   6.0   -0.33    1.00    1.80    41.08868    31.08583    59.23399
   645  C   4.0   -0.10    3.98    3.58    46.90683    32.50894    61.45694
   646  C   4.0    0.32    2.99    3.02    47.12863    29.56401    61.27345
   647  O   6.0   -0.37    1.00    1.80    48.31947    28.71069    59.44736
   648  O   6.0   -0.35    1.00    1.80    46.07321    28.30385    62.96411
   649  H   1.0    0.28    1.00    1.43    46.64047    37.05133    59.70202
   650  H   1.0    0.16    0.99    1.43    45.41746    32.26804    57.68687
   651  H   1.0    0.13    0.99    1.43    48.75719    33.33675    61.08089
   652  H   1.0    0.13    0.99    1.43    46.25458    33.06680    63.32756
   653  N   5.0   -0.71    3.00    1.93    38.60631    56.51446    78.41938
   654  C   4.0    0.08    3.98    3.59    39.25368    58.94388    77.32566
   655  C   4.0    0.10    3.00    3.02    37.94684    61.00424    78.86751
   656  O   6.0   -0.38    1.00    1.80    39.12204    62.63435    80.03021
   657  C   4.0   -0.12    3.98    3.59    38.55766    59.01446    74.51934
   658  C   4.0    0.11    3.34    3.06    40.07596    60.94403    73.13244
   659  N   5.0   -0.36    2.10    1.90    40.32815    63.37296    73.96509
   660  C   4.0    0.02    3.24    3.04    41.47727    60.62742    70.97550
   661  C   4.0    0.19    3.43    3.09    41.85102    64.46720    72.35044
   662  N   5.0   -0.46    3.13    1.94    42.58836    62.89788    70.49001
   663  H   1.0    0.26    1.00    1.43    37.88985    55.16986    77.25774
   664  H   1.0    0.13    0.99    1.43    41.29624    59.24999    77.51199
   665  H   1.0    0.10    0.99    1.43    38.95536    57.16839    73.68241
   666  H   1.0    0.12    0.99    1.43    36.53691    59.37148    74.29640
   667  H   1.0    0.10    1.00    1.43    41.68816    59.01803    69.76365
   668  H   1.0    0.12    1.00    1.43    42.46265    66.39291    72.46631
   669  H   1.0    0.28    1.00    1.43    43.93108    63.26742    69.14003
   670  N   5.0   -0.71    3.00    1.93    55.15065    37.49089    75.17536
   671  C   4.0    0.05    3.98    3.58    55.93207    37.47786    72.54653
   672  C   4.0    0.08    3.00    3.02    57.97688    35.46958    72.17233
   673  O   6.0   -0.47    1.00    1.80    57.82584    33.83613    70.51948
   674  C   4.0   -0.22    3.98    3.59    56.92374    40.07793    71.81451
   675  H   1.0    0.25    1.00    1.43    55.24605    39.17042    76.10529
   676  H   1.0    0.11    0.99    1.43    54.33309    36.94108    71.33487
   677  H   1.0    0.10    0.99    1.43    57.62200    40.03071    69.88606
   678  H   1.0    0.10    0.99    1.43    55.40040    41.44949    71.93308
   679  H   1.0    0.11    0.99    1.43    58.45042    40.62716    73.07522
   680  N   5.0   -0.69    3.00    1.93    55.46453    28.97173    71.63600
   681  C   4.0    0.09    3.98    3.59    54.00562    28.38765    69.39822
   682  C   4.0    0.29    3.01    3.02    55.67652    27.55458    67.19318
   683  O   6.0   -0.40    1.00    1.80    54.97293    25.92324    65.71165
   684  C   4.0    0.05    3.98    3.58    52.34955    30.62218    68.49425
   685  O   6.0   -0.48    1.99    1.82    53.77845    32.63920    67.53767
   686  C   4.0   -0.21    3.98    3.58    50.51582    31.47706    70.56333
   687  H   1.0    0.27    1.00    1.43    54.98581    30.49627    72.68876
   688  H   1.0    0.11    0.99    1.43    52.73494    26.78818    69.78965
   689  H   1.0    0.14    0.99    1.43    51.24020    29.91231    66.88295
   690  H   1.0    0.31    0.99    1.43    55.11490    33.08766    68.75069
   691  H   1.0    0.11    0.99    1.43    49.28051    32.92183    69.78508
   692  H   1.0    0.11    0.99    1.43    49.35824    29.89529    71.16470
   693  H   1.0    0.10    0.99    1.43    51.51614    32.24654    72.18425
   694  N   5.0   -0.47    3.01    1.93    57.85459    28.81171    66.94615
   695  C   4.0    0.07    3.99    3.60    59.50997    28.46983    64.80643
   696  C   4.0    0.07    3.00    3.02    62.09428    27.34516    65.52102
   697  O   6.0   -0.40    1.00    1.80    63.87258    27.49878    64.04554
   698  C   4.0   -0.19    3.98    3.59    59.90608    30.99691    63.46265
   699  H   1.0    0.29    1.00    1.43    58.31374    30.16514    68.21437
   700  H   1.0    0.16    0.99    1.43    58.55210    27.12027    63.55690
   701  H   1.0    0.12    0.99    1.43    61.40886    30.80343    62.07980
   702  H   1.0    0.11    0.99    1.43    58.16135    31.61562    62.57443
   703  H   1.0    0.12    0.99    1.43    60.47311    32.40800    64.84456
   704  H   1.0    0.28    1.00    1.43    71.53362    62.12733    67.61821
   705  H   1.0    0.14    1.00    1.43    75.37057    65.07362    63.04721
   706  H   1.0    0.29    1.00    1.43    78.46616    56.70192    62.34924
   707  H   1.0    0.14    1.00    1.43    79.03616    59.71829    53.89500
   708  H   1.0    0.32    1.00    1.43    79.57319    50.45544    53.83235
   709  H   1.0    0.15    1.00    1.43    76.28378    55.85269    45.83805
   710  H   1.0    0.30    1.00    1.43    59.04422    58.15734    44.00771
   711  H   1.0    0.14    1.00    1.43    59.16851    64.61030    43.62926
   712  H   1.0    0.30    1.00    1.43    42.63058    67.66382    50.96939
   713  H   1.0    0.14    1.00    1.43    44.00874    73.82207    52.52799
   714  H   1.0    0.31    1.00    1.43    33.55716    68.22686    60.51976
   715  H   1.0    0.14    1.00    1.43    35.12644    62.25445    61.93649
   716  H   1.0    0.31    1.00    1.43    38.17902    60.13676    53.78099
   717  H   1.0    0.14    1.00    1.43    36.10738    54.07335    53.91436
   718  H   1.0    0.33    1.00    1.43    59.75145    36.66823    40.47429
   719  H   1.0    0.16    1.00    1.43    58.77038    71.18442    59.16155
   720  H   1.0    0.31    1.00    1.43    53.89587    73.37617    60.86902
   721  H   1.0    0.16    1.00    1.43    60.88977    77.48873    65.04578
   722  H   1.0    0.28    1.00    1.43    57.37650    64.83080    79.58132
   723  H   1.0    0.17    1.00    1.43    41.52635    33.76304    61.60856
   724  H   1.0    0.30    1.00    1.43    39.99532    55.81232    79.10509
   725  H   1.0    0.14    1.00    1.43    36.06024    61.06266    78.95911
   726  H   1.0    0.29    1.00    1.43    53.52661    36.99842    75.28734
   727  H   1.0    0.14    1.00    1.43    59.50084    35.45318    73.28962
   728  H   1.0    0.30    1.00    1.43    55.38584    27.66524    72.72203
   729  H   1.0    0.15    1.00    1.43    62.32313    26.48857    67.18984

           ------------------------------------------------- 
          |        Self-Consistent Charge Iterations        |
           ------------------------------------------------- 

          ...................................................
          :                      SETUP                      :
          :.................................................:
          :  # basis functions                1791          :
          :  # atomic orbitals                1790          :
          :  # shells                         1082          :
          :  # electrons                      1956          :
          :  max. iterations                   250          :
          :  Hamiltonian                  GFN2-xTB          :
          :  restarted?                      false          :
          :  GBSA solvation                   true          :
          :  PC potential                    false          :
          :  electronic temp.          500.0000000     K    :
          :  accuracy                    0.1000000          :
          :  -> integral cutoff          0.3500000E+02      :
          :  -> integral neglect         0.1000000E-08      :
          :  -> SCF convergence          0.1000000E-06 Eh   :
          :  -> wf. convergence          0.1000000E-04 e    :
          :  Broyden damping             0.4000000          :
          ...................................................

 iter      E             dE          RMSdq      gap      omega  full diag
   1  -1112.1145694 -0.111211E+04  0.414E+00    1.00       0.0  T
   2  -1114.7152310 -0.260066E+01  0.222E+00    1.42       1.0  T
   3  -1114.8206133 -0.105382E+00  0.118E+00    1.95       1.0  T
   4  -1114.8670616 -0.464483E-01  0.300E-01    1.31       1.0  T
   5  -1114.9083761 -0.413145E-01  0.114E-01    1.40       1.0  T
   6  -1114.9101606 -0.178448E-02  0.605E-02    1.42       1.0  T
   7  -1114.9108715 -0.710907E-03  0.292E-02    1.41       1.0  T
   8  -1114.9110015 -0.129984E-03  0.126E-02    1.42       1.0  T
   9  -1114.9110289 -0.274091E-04  0.744E-03    1.42       1.0  T
  10  -1114.9110414 -0.124785E-04  0.419E-03    1.42       1.0  T
  11  -1114.9110457 -0.431873E-05  0.201E-03    1.42       1.8  T
  12  -1114.9110468 -0.109670E-05  0.942E-04    1.42       3.9  T
  13  -1114.9110470 -0.173726E-06  0.468E-04    1.42       7.9  T
  14  -1114.9110470 -0.538801E-07  0.214E-04    1.42      17.3  T
  15  -1114.9110470 -0.945033E-08  0.913E-05    1.42      40.6  T
  16  -1114.9110470 -0.166642E-08  0.431E-05    1.42      86.0  T

   *** convergence criteria satisfied after 16 iterations ***

         #    Occupation            Energy/Eh            Energy/eV
      -------------------------------------------------------------
         1        2.0000           -0.7402509             -20.1433
       ...           ...                  ...                  ...
       972        2.0000           -0.3620010              -9.8505
       973        2.0000           -0.3602400              -9.8026
       974        2.0000           -0.3592171              -9.7748
       975        2.0000           -0.3576814              -9.7330
       976        2.0000           -0.3542247              -9.6389
       977        2.0000           -0.3526314              -9.5956
       978        2.0000           -0.3518438              -9.5742 (HOMO)
       979        0.0000           -0.2996506              -8.1539 (LUMO)
       980                         -0.2926024              -7.9621
       981                         -0.2892651              -7.8713
       982                         -0.2873570              -7.8194
       983                         -0.2864478              -7.7946
       ...                                ...                  ...
      1790                          0.7202640              19.5994
      -------------------------------------------------------------
                  HL-Gap            0.0521933 Eh            1.4203 eV
             Fermi-level           -0.3252616 Eh           -8.8508 eV

 SCC (total)                   0 d,  0 h,  1 min,  7.274 sec
 SCC setup                      ...        0 min,  0.376 sec (  0.558%)
 Dispersion                     ...        0 min,  0.503 sec (  0.748%)
 integral evaluation            ...        0 min,  1.886 sec (  2.804%)
 zeroth order Hamiltonian       ...        0 min,  0.022 sec (  0.032%)
 iterations                     ...        0 min, 57.047 sec ( 84.797%)
 molecular gradient             ...        0 min,  7.170 sec ( 10.657%)
 printout                       ...        0 min,  0.271 sec (  0.404%)

         :::::::::::::::::::::::::::::::::::::::::::::::::::::
         ::                     SUMMARY                     ::
         :::::::::::::::::::::::::::::::::::::::::::::::::::::
         :: total energy            -1100.519904321412 Eh   ::
         :: total w/o Gsasa/hb      -1100.414516542931 Eh   ::
         :: gradient norm               0.802913024296 Eh/α ::
         :: HOMO-LUMO gap               1.420250724604 eV   ::
         ::.................................................::
         :: SCC energy              -1114.947578489548 Eh   ::
         :: -> isotropic ES             2.689482267917 Eh   ::
         :: -> anisotropic ES          -0.088249263974 Eh   ::
         :: -> anisotropic XC           0.414213209763 Eh   ::
         :: -> dispersion              -1.023798741449 Eh   ::
         :: -> Gsolv                   -0.573596544758 Eh   ::
         ::    -> Gborn                -0.468208766277 Eh   ::
         ::    -> Gsasa                -0.038388893060 Eh   ::
         ::    -> Ghb                  -0.068856328547 Eh   ::
         ::    -> Gshift                0.001857443127 Eh   ::
         :: repulsion energy           14.303254769426 Eh   ::
         :: add. restraining            0.000000000000 Eh   ::
         :::::::::::::::::::::::::::::::::::::::::::::::::::::

           -------------------------------------------------
          |                Property Printout                |
           -------------------------------------------------

    * Orbital Energies and Occupations

         #    Occupation            Energy/Eh            Energy/eV
      -------------------------------------------------------------
         1        2.0000           -0.7402509             -20.1433
       ...           ...                  ...                  ...
       966        2.0000           -0.3705033             -10.0819
       967        2.0000           -0.3694318             -10.0527
       968        2.0000           -0.3685617             -10.0291
       969        2.0000           -0.3680530             -10.0152
       970        2.0000           -0.3644529              -9.9173
       971        2.0000           -0.3643724              -9.9151
       972        2.0000           -0.3620010              -9.8505
       973        2.0000           -0.3602400              -9.8026
       974        2.0000           -0.3592171              -9.7748
       975        2.0000           -0.3576814              -9.7330
       976        2.0000           -0.3542247              -9.6389
       977        2.0000           -0.3526314              -9.5956
       978        2.0000           -0.3518438              -9.5742 (HOMO)
       979        0.0000           -0.2996506              -8.1539 (LUMO)
       980                         -0.2926024              -7.9621
       981                         -0.2892651              -7.8713
       982                         -0.2873570              -7.8194
       983                         -0.2864478              -7.7946
       984                         -0.2853201              -7.7640
       985                         -0.2845919              -7.7441
       986                         -0.2827613              -7.6943
       987                         -0.2825860              -7.6896
       988                         -0.2797496              -7.6124
       989                         -0.2776213              -7.5545
       ...                                ...                  ...
      1790                          0.7202640              19.5994
      -------------------------------------------------------------
                  HL-Gap            0.0521933 Eh            1.4203 eV
             Fermi-level           -0.3252616 Eh           -8.8508 eV

   #   Z        covCN         q      C6AA      α(0)
   1   7 N      2.636    -0.394    30.196     8.161
   2   6 C      3.781     0.040    19.914     6.357
   3   6 C      2.768     0.196    23.819     7.993
   4   8 O      0.856    -0.366    21.007     6.145
   5   6 C      3.759    -0.125    22.955     6.831
   6   1 H      0.860     0.171     1.270     1.765
   7   1 H      0.924     0.057     2.234     2.338
   8   1 H      0.925     0.055     2.259     2.350
   9   1 H      0.925     0.062     2.171     2.304
  10   1 H      0.925     0.059     2.210     2.325
  11   7 N      2.635    -0.394    30.196     8.161
  12   6 C      3.787     0.034    20.019     6.373
  13   6 C      2.763     0.264    22.545     7.776
  14   8 O      0.859    -0.509    23.991     6.567
  15   6 C      3.809    -0.068    21.788     6.644
  16   6 C      3.850    -0.008    20.686     6.469
  17   6 C      3.758    -0.123    22.915     6.825
  18   6 C      3.756    -0.115    22.765     6.803
  19   1 H      0.860     0.160     1.338     1.812
  20   1 H      0.923     0.041     2.439     2.442
  21   1 H      0.924     0.043     2.414     2.430
  22   1 H      0.924     0.034     2.526     2.486
  23   1 H      0.924     0.031     2.574     2.509
  24   1 H      0.925     0.044     2.396     2.421
  25   1 H      0.925     0.046     2.374     2.410
  26   1 H      0.925     0.049     2.338     2.391
  27   1 H      0.925     0.043     2.410     2.428
  28   1 H      0.925     0.049     2.329     2.387
  29   1 H      0.925     0.025     2.665     2.553
  30   7 N      2.691    -0.173    24.738     7.387
  31   6 C      3.802     0.030    20.064     6.377
  32   6 C      2.767     0.211    23.527     7.944
  33   8 O      0.856    -0.372    21.138     6.164
  34   6 C      3.813    -0.082    22.059     6.685
  35   6 C      2.973     0.010    27.800     8.649
  36   6 C      2.924    -0.042    29.047     8.838
  37   6 C      2.925    -0.042    29.053     8.839
  38   6 C      2.919    -0.032    28.803     8.801
  39   6 C      2.919    -0.032    28.787     8.798
  40   6 C      2.920    -0.035    28.876     8.812
  41   1 H      0.860     0.248     0.893     1.480
  42   1 H      0.924     0.086     1.917     2.165
  43   1 H      0.924     0.085     1.926     2.170
  44   1 H      0.924     0.070     2.083     2.257
  45   1 H      0.926     0.033     2.542     2.493
  46   1 H      0.926     0.051     2.313     2.378
  47   1 H      0.926     0.031     2.574     2.509
  48   1 H      0.926     0.037     2.486     2.466
  49   1 H      0.926     0.032     2.563     2.504
  50   7 N      2.636    -0.407    30.581     8.213
  51   6 C      3.786     0.032    20.054     6.378
  52   6 C      2.753     0.265    22.520     7.771
  53   8 O      0.859    -0.503    23.843     6.547
  54   6 C      3.726     0.125    18.644     6.165
  55   8 O      1.656    -0.484    22.543     6.409
  56   6 C      3.752    -0.133    23.115     6.856
  57   1 H      0.860     0.182     1.200     1.716
  58   1 H      0.923     0.041     2.436     2.441
  59   1 H      0.923     0.010     2.893     2.660
  60   1 H      0.805     0.324     0.652     1.269
  61   1 H      0.925     0.053     2.282     2.362
  62   1 H      0.925     0.054     2.267     2.354
  63   1 H      0.925     0.050     2.319     2.381
  64   7 N      2.689    -0.157    24.386     7.334
  65   6 C      3.795     0.021    20.236     6.406
  66   6 C      2.764     0.203    23.675     7.968
  67   8 O      0.856    -0.373    21.144     6.165
  68   6 C      3.852    -0.025    20.979     6.515
  69   6 C      3.756    -0.117    22.796     6.808
  70   6 C      3.756    -0.117    22.794     6.807
  71   1 H      0.860     0.220     1.011     1.575
  72   1 H      0.924     0.088     1.896     2.153
  73   1 H      0.924     0.063     2.163     2.300
  74   1 H      0.925     0.060     2.200     2.319
  75   1 H      0.925     0.032     2.560     2.502
  76   1 H      0.925     0.050     2.315     2.380
  77   1 H      0.925     0.060     2.196     2.317
  78   1 H      0.925     0.045     2.385     2.415
  79   1 H      0.925     0.045     2.384     2.415
  80   7 N      2.636    -0.395    30.240     8.167
  81   6 C      3.782     0.043    19.874     6.350
  82   6 C      2.765     0.202    23.702     7.973
  83   8 O      0.856    -0.381    21.309     6.189
  84   6 C      3.809    -0.079    22.001     6.677
  85   6 C      3.849    -0.014    20.785     6.485
  86   6 C      3.756    -0.115    22.764     6.803
  87   6 C      3.755    -0.112    22.695     6.793
  88   1 H      0.860     0.174     1.248     1.750
  89   1 H      0.923     0.043     2.414     2.430
  90   1 H      0.924     0.065     2.143     2.289
  91   1 H      0.924     0.060     2.199     2.319
  92   1 H      0.924     0.022     2.698     2.569
  93   1 H      0.925     0.043     2.410     2.428
  94   1 H      0.925     0.043     2.403     2.424
  95   1 H      0.925     0.050     2.325     2.384
  96   1 H      0.925     0.042     2.419     2.432
  97   1 H      0.925     0.047     2.358     2.401
  98   1 H      0.925     0.027     2.633     2.538
  99   7 N      2.636    -0.394    30.198     8.161
 100   6 C      3.783     0.045    19.842     6.345
 101   6 C      2.766     0.203    23.677     7.969
 102   8 O      0.856    -0.391    21.500     6.217
 103   6 C      3.809    -0.063    21.703     6.631
 104   6 C      3.055    -0.042    28.979     8.828
 105   6 C      3.043    -0.012    28.277     8.722
 106   6 C      3.113    -0.024    28.431     8.735
 107   7 N      2.773    -0.110    23.410     7.186
 108   6 C      3.096     0.044    26.902     8.501
 109   6 C      2.911    -0.043    29.075     8.842
 110   6 C      2.908    -0.056    29.379     8.888
 111   6 C      2.918    -0.048    29.185     8.859
 112   6 C      2.923    -0.041    29.023     8.835
 113   1 H      0.860     0.167     1.292     1.781
 114   1 H      0.924     0.053     2.288     2.366
 115   1 H      0.924     0.057     2.237     2.339
 116   1 H      0.924     0.044     2.398     2.422
 117   1 H      0.926     0.061     2.193     2.316
 118   1 H      0.860     0.210     1.055     1.609
 119   1 H      0.926     0.011     2.870     2.649
 120   1 H      0.926     0.033     2.540     2.492
 121   1 H      0.925     0.010     2.884     2.656
 122   1 H      0.925     0.014     2.825     2.628
 123   7 N      2.635    -0.389    30.057     8.142
 124   6 C      3.782     0.039    19.936     6.360
 125   6 C      2.768     0.193    23.872     8.002
 126   8 O      0.856    -0.361    20.917     6.132
 127   6 C      3.810    -0.063    21.705     6.632
 128   6 C      3.805    -0.096    22.327     6.727
 129   6 C      2.746     0.285    22.166     7.709
 130   8 O      0.859    -0.482    23.379     6.483
 131   7 N      2.638    -0.282    27.278     7.757
 132   1 H      0.860     0.168     1.288     1.778
 133   1 H      0.923     0.048     2.339     2.392
 134   1 H      0.924     0.064     2.154     2.295
 135   1 H      0.924     0.068     2.104     2.269
 136   1 H      0.924     0.073     2.050     2.239
 137   1 H      0.925     0.056     2.252     2.347
 138   1 H      0.860     0.224     0.993     1.561
 139   1 H      0.860     0.221     1.003     1.569
 140   7 N      2.637    -0.401    30.403     8.189
 141   6 C      3.782     0.040    19.927     6.359
 142   6 C      2.765     0.201    23.715     7.975
 143   8 O      0.856    -0.391    21.501     6.217
 144   6 C      3.808    -0.088    22.169     6.702
 145   6 C      3.804    -0.083    22.089     6.691
 146   6 C      3.739    -0.034    21.261     6.579
 147   7 N      2.703    -0.132    23.866     7.256
 148   6 C      2.735     0.218    23.387     7.918
 149   7 N      2.647    -0.224    25.893     7.557
 150   7 N      2.655    -0.238    26.215     7.604
 151   1 H      0.860     0.195     1.134     1.668
 152   1 H      0.923     0.045     2.381     2.413
 153   1 H      0.924     0.081     1.969     2.194
 154   1 H      0.925     0.074     2.042     2.235
 155   1 H      0.924     0.055     2.259     2.351
 156   1 H      0.924     0.063     2.167     2.302
 157   1 H      0.924     0.101     1.776     2.084
 158   1 H      0.924     0.084     1.939     2.177
 159   1 H      0.860     0.229     0.970     1.543
 160   1 H      0.859     0.257     0.856     1.449
 161   1 H      0.860     0.234     0.946     1.524
 162   1 H      0.860     0.221     1.006     1.571
 163   1 H      0.860     0.229     0.970     1.543
 164   7 N      2.635    -0.385    29.963     8.130
 165   6 C      3.783     0.006    20.488     6.448
 166   6 C      2.753     0.267    22.498     7.767
 167   8 O      0.858    -0.483    23.421     6.489
 168   6 C      3.675     0.051    19.943     6.399
 169   8 O      1.653    -0.451    21.863     6.312
 170   1 H      0.860     0.161     1.328     1.805
 171   1 H      0.924     0.056     2.250     2.346
 172   1 H      0.924     0.070     2.083     2.257
 173   1 H      0.924     0.070     2.084     2.257
 174   1 H      0.802     0.314     0.681     1.297
 175   7 N      2.689    -0.185    25.001     7.426
 176   6 C      3.795     0.009    20.432     6.437
 177   6 C      2.753     0.265    22.537     7.774
 178   8 O      0.859    -0.487    23.489     6.498
 179   6 C      3.852    -0.029    21.058     6.527
 180   6 C      3.803    -0.054    21.538     6.607
 181   6 C      3.754    -0.127    23.001     6.839
 182   6 C      3.752    -0.108    22.635     6.785
 183   1 H      0.860     0.210     1.055     1.609
 184   1 H      0.924     0.080     1.978     2.200
 185   1 H      0.924     0.060     2.200     2.320
 186   1 H      0.924     0.031     2.573     2.509
 187   1 H      0.924     0.035     2.513     2.479
 188   1 H      0.925     0.058     2.228     2.334
[...]
   397  C   3.957        O  398 0.998    C  394 0.978    H  401 0.967    H  402 0.966
   398  O   1.932        C  397 0.998    H  403 0.878
   399  H   0.966        N  393 0.924
   400  H   0.998        C  394 0.958
   401  H   0.998        C  397 0.967
   402  H   0.999        C  397 0.966
   403  H   0.893        O  398 0.878
   404  N   3.475        C  395 1.314    C  405 0.993    H  408 0.881    O  396 0.198
   405  C   3.968        N  404 0.993    C  406 0.992    H  409 0.957    H  410 0.934
   406  C   3.899        O  407 1.889    C  405 0.992    H  721 0.955
   407  O   2.028        C  406 1.889
   408  H   0.944        N  404 0.881
   409  H   0.991        C  405 0.957
   410  H   0.986        C  405 0.934
   411  N   2.994        C  412 1.015    H  722 0.955    H  419 0.951
   412  C   3.984        N  411 1.015    C  415 0.959    H  420 0.954    C  413 0.945
   413  C   3.941        O  414 1.574    N  430 1.324    C  412 0.945
   414  O   1.951        C  413 1.574    N  430 0.185
   415  C   3.992        C  417 1.008    C  416 0.994    H  421 0.964    C  412 0.959
   416  C   3.996        C  418 1.021    C  415 0.994    H  423 0.975    H  422 0.974
   417  C   3.995        C  415 1.008    H  425 0.983    H  424 0.983    H  426 0.981
   418  C   3.995        C  416 1.021    H  428 0.986    H  427 0.986    H  429 0.982
   419  H   0.973        N  411 0.951
   420  H   0.998        C  412 0.954
   421  H   0.998        C  415 0.964
   422  H   0.999        C  416 0.974
   423  H   0.998        C  416 0.975
   424  H   0.998        C  417 0.983
   425  H   0.999        C  417 0.983
   426  H   0.998        C  417 0.981
   427  H   0.998        C  418 0.986
   428  H   0.998        C  418 0.986
   429  H   0.998        C  418 0.982
   430  N   3.484        C  413 1.324    C  431 0.976    H  438 0.911    O  414 0.185
   431  C   3.961        N  430 0.976    C  434 0.964    H  439 0.947    C  432 0.939
   432  C   3.948        O  433 1.590    N  449 1.324    C  431 0.939
   433  O   1.954        C  432 1.590    N  449 0.191
   434  C   3.986        C  436 1.008    C  435 0.994    C  431 0.964    H  440 0.962
   435  C   3.993        C  437 1.018    C  434 0.994    H  442 0.970    H  441 0.966
   436  C   3.992        C  434 1.008    H  445 0.984    H  444 0.981    H  443 0.977
   437  C   3.992        C  435 1.018    H  447 0.986    H  446 0.983    H  448 0.980
   438  H   0.952        N  430 0.911
   439  H   0.994        C  431 0.947
   440  H   0.996        C  434 0.962
   441  H   0.997        C  435 0.966
   442  H   0.999        C  435 0.970
   443  H   0.995        C  436 0.977
   444  H   0.998        C  436 0.981
   445  H   0.998        C  436 0.984
   446  H   0.998        C  437 0.983
   447  H   0.997        C  437 0.986
   448  H   0.998        C  437 0.980
   449  N   3.482        C  432 1.324    C  450 0.973    H  457 0.913    O  433 0.191
   450  C   3.959        C  453 0.982    N  449 0.973    H  458 0.944    C  451 0.935
   451  C   3.948        O  452 1.611    N  468 1.315    C  450 0.935
   452  O   1.979        C  451 1.611    N  468 0.197
   453  C   3.984        C  454 0.991    C  450 0.982    H  459 0.968    H  460 0.964
   454  C   3.994        C  456 1.011    C  455 1.007    C  453 0.991    H  461 0.966
   455  C   3.993        C  454 1.007    H  464 0.986    H  463 0.986    H  462 0.985
   456  C   3.994        C  454 1.011    H  466 0.985    H  465 0.984    H  467 0.982
   457  H   0.951        N  449 0.913
   458  H   0.992        C  450 0.944
   459  H   0.996        C  453 0.968
   460  H   0.995        C  453 0.964
   461  H   0.998        C  454 0.966
   462  H   0.997        C  455 0.985
   463  H   0.998        C  455 0.986
   464  H   0.998        C  455 0.986
   465  H   0.997        C  456 0.984
   466  H   0.998        C  456 0.985
   467  H   0.998        C  456 0.982
   468  N   3.479        C  451 1.315    C  469 0.973    H  476 0.920    O  452 0.197
   469  C   3.959        C  472 0.977    N  468 0.973    H  477 0.944    C  470 0.940
   470  C   3.948        O  471 1.617    N  487 1.295    C  469 0.940
   471  O   1.989        C  470 1.617    N  487 0.190
   472  C   3.986        C  473 0.993    C  469 0.977    H  478 0.963    H  479 0.963
   473  C   3.994        C  475 1.011    C  474 1.008    C  472 0.993    H  480 0.965
   474  C   3.995        C  473 1.008    H  481 0.986    H  483 0.983    H  482 0.982
   475  C   3.995        C  473 1.011    H  486 0.986    H  485 0.985    H  484 0.985
   476  H   0.957        N  468 0.920
   477  H   0.992        C  469 0.944
   478  H   0.996        C  472 0.963
   479  H   0.996        C  472 0.963
   480  H   0.998        C  473 0.965
   481  H   0.998        C  474 0.986
   482  H   0.998        C  474 0.982
   483  H   0.998        C  474 0.983
   484  H   0.997        C  475 0.985
   485  H   0.998        C  475 0.985
   486  H   0.999        C  475 0.986
   487  N   3.460        C  470 1.295    C  488 0.984    H  497 0.899    O  471 0.190
   488  C   3.967        N  487 0.984    C  491 0.963    H  498 0.939    C  489 0.935
   489  C   3.950        O  490 1.602    N  504 1.326    C  488 0.935
   490  O   1.962        C  489 1.602    N  504 0.197
   491  C   3.985        C  492 1.018    C  488 0.963    H  499 0.959    H  500 0.958
   492  C   3.945        C  494 1.539    N  493 1.210    C  491 1.018    C  495 0.105
   493  N   3.605        C  495 1.287    C  492 1.210    H  501 0.891
   494  C   3.964        C  492 1.539    N  496 1.294    H  502 0.960
   495  C   3.959        N  496 1.525    N  493 1.287    H  503 0.963    C  492 0.105
   496  N   3.079        C  495 1.525    C  494 1.294
   497  H   0.951        N  487 0.899
   498  H   0.993        C  488 0.939
   499  H   0.994        C  491 0.959
   500  H   0.992        C  491 0.958
   501  H   0.955        N  493 0.891
   502  H   0.997        C  494 0.960
   503  H   0.998        C  495 0.963
   504  N   3.483        C  489 1.326    C  505 0.978    H  511 0.890    O  490 0.197
   505  C   3.962        N  504 0.978    C  508 0.953    H  512 0.946    C  506 0.936
   506  C   3.954        O  507 1.618    N  518 1.315    C  505 0.936
   507  O   1.951        C  506 1.618    N  518 0.197
   508  C   3.956        C  510 1.005    O  509 0.997    C  505 0.953    H  513 0.952
   509  O   1.958        C  508 0.997    H  514 0.861
   510  C   3.988        C  508 1.005    H  516 0.983    H  517 0.983    H  515 0.980
   511  H   0.949        N  504 0.890
   512  H   0.996        C  505 0.946
   513  H   0.998        C  508 0.952
   514  H   0.901        O  509 0.861
   515  H   0.993        C  510 0.980
   516  H   0.997        C  510 0.983
   517  H   0.997        C  510 0.983
   518  N   3.477        C  506 1.315    C  519 0.978    H  529 0.896    O  507 0.197
   519  C   3.962        N  518 0.978    C  522 0.975    H  530 0.947    C  520 0.934
   520  C   3.951        O  521 1.582    N  538 1.345    C  519 0.934
   521  O   1.946        C  520 1.582    N  538 0.199
   522  C   3.987        C  523 1.005    C  519 0.975    H  531 0.968    H  532 0.955
   523  C   3.988        C  525 1.415    C  524 1.410    C  522 1.005    C  528 0.110
   524  C   3.991        C  526 1.449    C  523 1.410    H  533 0.965    C  527 0.111
   525  C   3.991        C  527 1.441    C  523 1.415    H  534 0.968    C  526 0.111
   526  C   3.991        C  524 1.449    C  528 1.435    H  535 0.970    C  525 0.111
   527  C   3.992        C  525 1.441    C  528 1.441    H  536 0.967    C  524 0.111
   528  C   3.992        C  527 1.441    C  526 1.435    H  537 0.970    C  523 0.110
   529  H   0.948        N  518 0.896
   530  H   0.993        C  519 0.947
   531  H   0.995        C  522 0.968
   532  H   0.994        C  522 0.955
   533  H   0.998        C  524 0.965
   534  H   0.999        C  525 0.968
   535  H   0.998        C  526 0.970
   536  H   0.998        C  527 0.967
   537  H   0.998        C  528 0.970
   538  N   3.489        C  520 1.345    C  539 0.981    H  552 0.864    O  521 0.199
   539  C   3.964        N  538 0.981    C  542 0.972    H  553 0.944    C  540 0.941
   540  C   3.947        O  541 1.595    N  562 1.316    C  539 0.941
   541  O   1.977        C  540 1.595    N  562 0.191
   542  C   3.984        C  543 1.013    C  539 0.972    H  554 0.961    H  555 0.953
   543  C   3.973        C  544 1.574    C  545 1.210    C  542 1.013
   544  C   3.954        C  543 1.574    N  546 1.209    H  556 0.966
   545  C   3.982        C  548 1.329    C  547 1.237    C  543 1.210
   546  N   3.557        C  544 1.209    C  547 1.189    H  557 0.935
   547  C   3.961        C  549 1.335    C  545 1.237    N  546 1.189
   548  C   3.991        C  550 1.501    C  545 1.329    H  558 0.959    C  549 0.111
   549  C   3.990        C  551 1.491    C  547 1.335    H  559 0.966    C  548 0.111
   550  C   3.991        C  548 1.501    C  551 1.363    H  560 0.967
   551  C   3.991        C  549 1.491    C  550 1.363    H  561 0.969
   552  H   0.938        N  538 0.864
   553  H   0.993        C  539 0.944
   554  H   0.994        C  542 0.961
   555  H   0.992        C  542 0.953
   556  H   0.997        C  544 0.966
   557  H   0.961        N  546 0.935
   558  H   0.999        C  548 0.959
   559  H   0.999        C  549 0.966
   560  H   0.999        C  550 0.967
   561  H   0.999        C  551 0.969
   562  N   3.478        C  540 1.316    C  563 0.995    H  566 0.892    O  541 0.191
   563  C   3.964        N  562 0.995    H  567 0.957    H  568 0.951    C  564 0.947
   564  C   3.947        O  565 1.609    N  569 1.318    C  563 0.947
   565  O   1.966        C  564 1.609    N  569 0.196
   566  H   0.945        N  562 0.892
   567  H   0.989        C  563 0.957
   568  H   0.990        C  563 0.951
   569  N   3.479        C  564 1.318    C  570 0.976    H  576 0.907    O  565 0.196
   570  C   3.961        N  569 0.976    C  573 0.968    H  577 0.946    C  571 0.932
   571  C   3.942        O  572 1.624    N  585 1.302    C  570 0.932
   572  O   1.945        C  571 1.624    N  585 0.193
   573  C   3.985        C  574 1.008    C  575 1.007    C  570 0.968    H  578 0.958
   574  C   3.992        C  573 1.008    H  581 0.985    H  580 0.984    H  579 0.981
   575  C   3.991        C  573 1.007    H  583 0.983    H  582 0.982    H  584 0.976
   576  H   0.950        N  569 0.907
   577  H   0.995        C  570 0.946
   578  H   0.996        C  573 0.958
   579  H   0.996        C  574 0.981
   580  H   0.999        C  574 0.984
   581  H   0.997        C  574 0.985
   582  H   0.995        C  575 0.982
   583  H   0.998        C  575 0.983
   584  H   0.997        C  575 0.976
   585  N   3.458        C  571 1.302    C  586 0.983    H  592 0.886    O  572 0.193
   586  C   3.967        N  585 0.983    C  589 0.966    H  593 0.955    C  587 0.932
   587  C   3.942        O  588 1.610    N  601 1.321    C  586 0.932
   588  O   1.931        C  587 1.610    N  601 0.198
   589  C   3.987        C  590 1.009    C  591 1.006    C  586 0.966    H  594 0.963
   590  C   3.993        C  589 1.009    H  597 0.986    H  596 0.985    H  595 0.983
   591  C   3.990        C  589 1.006    H  599 0.985    H  598 0.982    H  600 0.973
   592  H   0.945        N  585 0.886
   593  H   0.998        C  586 0.955
   594  H   0.997        C  589 0.963
   595  H   0.995        C  590 0.983
   596  H   0.999        C  590 0.985
   597  H   0.999        C  590 0.986
   598  H   0.995        C  591 0.982
   599  H   0.998        C  591 0.985
   600  H   0.996        C  591 0.973
   601  N   3.459        C  587 1.321    C  602 0.977    H  612 0.852    O  588 0.198
   602  C   3.967        N  601 0.977    C  605 0.963    H  613 0.954    C  603 0.939
   603  C   3.938        O  604 1.634    N  621 1.287    C  602 0.939
   604  O   1.943        C  603 1.634    N  621 0.190
   605  C   3.980        C  606 1.006    H  615 0.964    C  602 0.963    H  614 0.959
   606  C   3.986        C  608 1.413    C  607 1.411    C  605 1.006    C  611 0.110
   607  C   3.991        C  609 1.445    C  606 1.411    H  616 0.968    C  610 0.112
   608  C   3.987        C  610 1.442    C  606 1.413    H  617 0.965    C  609 0.111
   609  C   3.992        C  607 1.445    C  611 1.438    H  618 0.971    C  608 0.111
   610  C   3.990        C  608 1.442    C  611 1.439    H  619 0.969    C  607 0.112
   611  C   3.991        C  610 1.439    C  609 1.438    H  620 0.971    C  606 0.110
   612  H   0.937        N  601 0.852
   613  H   0.997        C  602 0.954
   614  H   0.991        C  605 0.959
   615  H   0.995        C  605 0.964
   616  H   1.000        C  607 0.968
   617  H   0.996        C  608 0.965
   618  H   0.999        C  609 0.971
   619  H   0.997        C  610 0.969
   620  H   0.998        C  611 0.971
   621  N   3.449        C  603 1.287    C  622 0.984    H  632 0.897    O  604 0.190
   622  C   3.969        N  621 0.984    C  625 0.965    H  633 0.953    C  623 0.933
   623  C   3.937        O  624 1.626    N  641 1.297    C  622 0.933
   624  O   1.952        C  623 1.626    N  641 0.194
   625  C   3.984        C  626 1.005    H  635 0.970    C  622 0.965    H  634 0.960
   626  C   3.985        C  628 1.417    C  627 1.409    C  625 1.005    C  631 0.110
   627  C   3.988        C  629 1.445    C  626 1.409    H  636 0.953    C  630 0.111
   628  C   3.991        C  630 1.442    C  626 1.417    H  637 0.969    C  629 0.111
   629  C   3.990        C  627 1.445    C  631 1.436    H  638 0.967    C  628 0.111
   630  C   3.991        C  628 1.442    C  631 1.441    H  639 0.970    C  627 0.111
   631  C   3.990        C  630 1.441    C  629 1.436    H  640 0.970    C  626 0.110
   632  H   0.948        N  621 0.897
   633  H   0.996        C  622 0.953
   634  H   0.995        C  625 0.960
   635  H   0.997        C  625 0.970
   636  H   0.997        C  627 0.953
   637  H   0.999        C  628 0.969
   638  H   0.996        C  629 0.967
   639  H   0.998        C  630 0.970
   640  H   0.997        C  631 0.970
   641  N   3.465        C  623 1.297    C  642 0.971    H  649 0.913    O  624 0.194
   642  C   3.969        C  643 0.972    N  641 0.971    C  645 0.969    H  650 0.951
   643  C   3.896        O  644 1.889    C  642 0.972    H  723 0.956
   644  O   2.028        C  643 1.889
   645  C   3.976        H  652 0.980    C  642 0.969    H  651 0.965    C  646 0.898
   646  C   3.938        O  647 1.517    O  648 1.504    C  645 0.898
   647  O   1.814        C  646 1.517    O  648 0.222
   648  O   1.797        C  646 1.504    O  647 0.222
   649  H   0.953        N  641 0.913
   650  H   0.996        C  642 0.951
   651  H   0.997        C  645 0.965
   652  H   0.999        C  645 0.980
   653  N   3.001        C  654 1.002    H  724 0.955    H  663 0.950
   654  C   3.981        N  653 1.002    C  655 0.972    C  657 0.965    H  664 0.954
   655  C   3.889        O  656 1.893    C  654 0.972    H  725 0.955
   656  O   2.026        C  655 1.893
   657  C   3.994        C  658 1.014    H  665 0.966    C  654 0.965    H  666 0.963
   658  C   3.972        C  660 1.544    N  659 1.279    C  657 1.014
   659  N   3.008        C  661 1.528    C  658 1.279    N  662 0.105
   660  C   3.937        C  658 1.544    N  662 1.223    H  667 0.967    C  661 0.113
   661  C   3.966        N  659 1.528    N  662 1.298    H  668 0.966    C  660 0.113
   662  N   3.605        C  661 1.298    C  660 1.223    H  669 0.869    N  659 0.105
   663  H   0.970        N  653 0.950
   664  H   0.997        C  654 0.954
   665  H   0.996        C  657 0.966
   666  H   0.997        C  657 0.963
   667  H   0.997        C  660 0.967
   668  H   1.000        C  661 0.966
   669  H   0.951        N  662 0.869
   670  N   3.002        C  671 1.007    H  726 0.959    H  675 0.949
   671  C   3.984        N  670 1.007    C  674 0.979    C  672 0.977    H  676 0.960
   672  C   3.877        O  673 1.868    C  671 0.977    H  727 0.951
   673  O   2.082        C  672 1.868
   674  C   3.987        H  679 0.982    H  677 0.980    C  671 0.979    H  678 0.975
   675  H   0.968        N  670 0.949
   676  H   0.998        C  671 0.960
   677  H   0.997        C  674 0.980
   678  H   0.996        C  674 0.975
   679  H   0.995        C  674 0.982
   680  N   2.996        C  681 1.020    H  728 0.954    H  687 0.946
   681  C   3.985        N  680 1.020    H  688 0.961    C  684 0.948    C  682 0.939
   682  C   3.950        O  683 1.622    N  694 1.312    C  681 0.939
   683  O   1.937        C  682 1.622    N  694 0.197
   684  C   3.965        O  685 1.011    C  686 0.993    H  689 0.965    C  681 0.948
   685  O   1.929        C  684 1.011    H  690 0.810
   686  C   3.995        C  684 0.993    H  692 0.986    H  691 0.985    H  693 0.978
   687  H   0.974        N  680 0.946
   688  H   0.999        C  681 0.961
   689  H   1.000        C  684 0.965
   690  H   0.882        O  685 0.810
   691  H   0.998        C  686 0.985
   692  H   0.999        C  686 0.986
   693  H   0.997        C  686 0.978
   694  N   3.479        C  682 1.312    C  695 0.984    H  699 0.909    O  683 0.197
   695  C   3.961        N  694 0.984    C  698 0.982    C  696 0.981    H  700 0.916
   696  C   3.908        O  697 1.903    C  695 0.981    H  729 0.954
   697  O   2.052        C  696 1.903
   698  C   3.979        H  702 0.984    H  703 0.982    C  695 0.982    H  701 0.972
   699  H   0.948        N  694 0.909
   700  H   0.988        C  695 0.916
   701  H   0.990        C  698 0.972
   702  H   0.995        C  698 0.984
   703  H   0.995        C  698 0.982
   704  H   0.965        N    1 0.954
   705  H   0.994        C    3 0.953
   706  H   0.969        N   11 0.957
   707  H   0.995        C   32 0.955
   708  H   0.967        N   50 0.954
   709  H   0.994        C   66 0.953
   710  H   0.966        N   80 0.955
   711  H   0.993        C   82 0.953
   712  H   0.965        N   99 0.955
   713  H   0.996        C  101 0.956
   714  H   0.968        N  123 0.957
   715  H   0.993        C  125 0.952
   716  H   0.971        N  140 0.959
   717  H   0.995        C  142 0.955
   718  H   0.967        N  164 0.947
   719  H   0.996        C  376 0.954
   720  H   0.971        N  393 0.960
   721  H   0.995        C  406 0.955
   722  H   0.967        N  411 0.955
   723  H   0.996        C  643 0.956
   724  H   0.968        N  653 0.955
   725  H   0.996        C  655 0.955
   726  H   0.970        N  670 0.959
   727  H   0.991        C  672 0.951
   728  H   0.966        N  680 0.954
   729  H   0.994        C  696 0.954
 
molecular dipole:
                 x           y           z       tot (Debye)
 q only:       74.708      45.232      73.212
   full:       74.724      43.814      74.399     290.239
molecular quadrupole (traceless):
                xx          xy          yy          xz          yz          zz
 q only:     1499.426    4554.772   -3371.004    7922.552    5390.364    1871.578
  q+dip:     1431.376    4460.155   -3586.349    8047.153    5379.141    2154.973
   full:     1434.878    4455.607   -3584.848    8050.726    5368.504    2149.970


           -------------------------------------------------
          | TOTAL ENERGY            -1100.519904321412 Eh   |
          | GRADIENT NORM               0.802913024296 Eh/α |
          | HOMO-LUMO GAP               1.420250724604 eV   |
           -------------------------------------------------

------------------------------------------------------------------------
 * finished run on 2019/05/31 at 07:37:07.785     
------------------------------------------------------------------------
 total:
 * wall-time:     0 d,  0 h,  1 min,  8.765 sec
 *  cpu-time:     0 d,  0 h,  0 min, 38.285 sec
 * ratio c/w:     0.557 speedup
 SCF:
 * wall-time:     0 d,  0 h,  1 min,  7.275 sec
 *  cpu-time:     0 d,  0 h,  0 min, 37.163 sec
 * ratio c/w:     0.552 speedup

