      -----------------------------------------------------------      
     |                   =====================                   |     
     |                           x T B                           |     
     |                   =====================                   |     
     |                         S. Grimme                         |     
     |          Mulliken Center for Theoretical Chemistry        |     
     |                    University of Bonn                     |     
     |                 Version 6.0.1 (SAW181210)                 |     
      -----------------------------------------------------------      

   This program is distributed in the hope that it will be useful,
   but WITHOUT ANY WARRANTY; without even the implied warranty of
   MERCHANTABILITY or FITNESS FOR A PARTICULAR PURPOSE.
   
   FOR NON-COMMERCIAL, ACADEMIA USE ONLY.
   
   Cite this work as:
   S. Grimme, C. Bannwarth, P. Shushkov, J. Comput. Theory Chem., 2017,
   13, 1989-2009.
   C. Bannwarth, S. Ehlert and S. Grimme., ChemRxiv, 2018, preprint.
   http://doi.org/10.26434/chemrxiv.7246238.v1
   
   for sTDA-xTB:
   S. Grimme and C. Bannwarth, J. Chem. Phys., 2016, 145, 054103.
   
   in the mass-spec context:
   V. Asgeirsson, C. Bauer and S. Grimme, Chem. Sci., 2017, 8, 4879.
   
   if GBSA is used:
   P. Shushkov, F. März and S. Grimme, unpublished.
   
   for ANC optimizer:
   S. Grimme, unpublished.
   Rational Function algorithm used in ANCopt:
   F. Eckert, P. Pulay, H.-J. Werner, J. Comput. Chem., 1997, 18, 1473.
   
   with help from (in alphabetical order)
   C. Bannwarth, F. Bohle, G. Brandenburg, E. Caldeweyher, M. Checinski,
   S. Dohm, S. Ehlert, S. Ehrlich, F. März, H. Neugebauer, J. Pisarek,
   P. Pracht, P. Shushkov, and S. Spicher.
   
 * started run on 2019/03/14 at 15:08:20.237     
========================================================================
 # omp threads = 1
========================================================================
number of atoms            : 787
number of electrons        : 2030
charge                     : 0
spin                       : .0
first test random number   : .1003
           ------------------------------------------------- 
          |                 G F N 2 - x T B                 |
          | Geometry, Frequencies, Noncovalent interactions |
          |            JCTC 2018 parametrisation            |
           ------------------------------------------------- 
 
      method parameters     
 k(s)        :  1.8500
 k(p)        :  2.2300
 k(d)        :  2.2300
 k(f)        :  2.0000
 kEN (H0ij)  : -2.0000
 D4 a1       :  0.5200
 D4 a2       :  5.0000
 D4 s6       :  1.0000
 D4 s8       :  2.7000
 D4 s9       :  5.0000
 alphaj      :  2.0000

 Solvent             : h2o
 Using internal parameter file: .param_gbsa2_h2o
 Gsolv ref. state (COSMO-RS): gsolv [1 M gas/solution]
 temperature (mdtemp)       :    298.150000000000     
 dielectric constant        :    80.2000000000000     
 rho                        :    1.00000000000000     
 mass                       :    18.0000000000000     
 surface tension            :    15.5689454083859     
 probe radius               :   0.975313790000000     
 vdW radii scaling          :    1.00000000000000     
 Gshift (Eh)                :   1.857443126794793E-003
 c1                         :    1.55243817000000     
 soset                      :   0.130326360000000     
 HB correction              :  T

            Z     q(EN)     CN     RAES       Cart. coordinates
     1  N   5.0   -0.21    3.21    1.96   100.63999    72.39671    24.32382
     2  C   4.0    0.03    4.19    3.99    98.99081    72.85634    26.47323
     3  C   4.0    0.08    3.18    3.03   100.34699    74.48041    28.45485
     4  O   6.0   -0.31    1.16    1.80   100.99493    73.71447    30.52995
     5  C   4.0   -0.04    4.25    4.09    97.89719    70.35448    27.45281
     6  C   4.0   -0.04    4.20    4.01    99.84591    68.59939    28.64987
     7  C   4.0   -0.05    4.15    3.90    98.65421    66.18431    29.72591
     8  C   4.0   -0.04    4.12    3.84   100.34188    65.06915    31.80700
     9  N   5.0   -0.12    4.03    2.95   101.20379    62.45761    31.20158
    10  H   1.0    0.09    1.02    1.43   102.16811    71.26130    24.54614
    11  H   1.0    0.04    1.05    1.44    97.44141    74.01100    25.71158
    12  H   1.0    0.04    1.03    1.43    96.43559    70.78927    28.83652
    13  H   1.0    0.04    1.03    1.43    97.00193    69.43858    25.83537
    14  H   1.0    0.04    1.03    1.43   101.28542    68.14792    27.25907
    15  H   1.0    0.06    1.05    1.44   100.77007    69.62138    30.16616
    16  H   1.0    0.04    1.03    1.43    96.78668    66.64022    30.45892
    17  H   1.0    0.04    1.03    1.43    98.36594    64.82464    28.20703
    18  H   1.0    0.04    1.03    1.43   102.00235    66.26863    32.00226
    19  H   1.0    0.04    1.02    1.43    99.37553    64.99034    33.62325
    20  H   1.0    0.06    1.02    1.43   102.96218    62.10619    31.97688
    21  H   1.0    0.06    1.10    1.44    99.92608    61.14952    31.87587
    22  H   1.0    0.06    1.02    1.43   101.39738    62.23352    29.28027
    23  N   5.0   -0.20    3.27    1.97    98.27386    80.48513    30.61697
    24  C   4.0    0.03    4.30    4.20    96.45251    81.46925    32.41208
    25  C   4.0    0.16    3.45    3.10    96.03069    79.46006    34.45343
    26  O   6.0   -0.31    1.28    1.80    95.92121    79.96417    36.69930
    27  C   4.0    0.03    4.15    3.90    93.97121    82.08016    31.05989
    28  O   6.0   -0.26    2.10    1.84    93.16607    79.84760    29.84645
    29  H   1.0    0.09    1.03    1.43    97.62245    79.92734    28.91027
    30  H   1.0    0.05    1.05    1.44    97.20702    83.15257    33.35563
    31  H   1.0    0.04    1.01    1.43    92.59632    82.73778    32.46036
    32  H   1.0    0.04    1.01    1.43    94.30515    83.58207    29.66677
    33  H   1.0    0.12    1.02    1.43    91.40735    79.97729    29.39587
    34  N   5.0   -0.13    3.50    2.08    95.94175    77.08608    33.57524
    35  C   4.0    0.04    4.34    4.28    95.68744    74.98311    35.30936
    36  C   4.0    0.09    3.33    3.06    97.90417    74.97369    37.13595
    37  O   6.0   -0.33    1.23    1.80    97.61322    74.58732    39.41156
    38  C   4.0    0.05    4.24    4.08    95.67304    72.46477    33.77942
    39  O   6.0   -0.28    2.21    1.86    93.45532    71.07521    34.15493
    40  C   4.0   -0.07    4.14    3.89    97.89431    70.71320    34.32291
    41  H   1.0    0.09    1.08    1.44    95.45210    76.79974    31.74668
    42  H   1.0    0.06    1.04    1.43    93.96626    75.22474    36.45908
    43  H   1.0    0.05    1.05    1.44    95.64388    73.00643    31.78166
    44  H   1.0    0.11    1.08    1.44    93.59141    70.22553    35.76641
    45  H   1.0    0.04    1.02    1.43    97.39127    68.88863    33.54402
    46  H   1.0    0.06    1.02    1.43    99.61298    71.36155    33.43068
    47  H   1.0    0.04    1.01    1.43    98.17577    70.51323    36.34610
    48  N   5.0   -0.19    3.29    1.98    97.28013    79.41708    41.91208
    49  C   4.0    0.03    4.27    4.14    95.45957    78.86743    43.88757
    50  C   4.0    0.15    3.45    3.09    96.87891    77.34178    45.90292
    51  O   6.0   -0.32    1.30    1.80    96.71770    77.85940    48.15428
    52  C   4.0    0.04    4.12    3.85    93.05699    77.69504    42.74792
    53  O   6.0   -0.27    2.09    1.84    93.23864    75.16602    42.05195
    54  H   1.0    0.12    1.06    1.44    96.76902    79.23394    40.07383
    55  H   1.0    0.05    1.05    1.44    94.86589    80.62521    44.81994
    56  H   1.0    0.04    1.02    1.43    91.52372    77.79746    44.12718
    57  H   1.0    0.05    1.01    1.43    92.55697    78.87576    41.10821
    58  H   1.0    0.15    1.08    1.44    94.76861    74.89718    41.04687
    59  N   5.0   -0.15    3.48    2.07    98.35393    75.49929    45.00688
    60  C   4.0    0.03    4.41    4.40    99.99652    74.10561    46.69975
    61  C   4.0    0.09    3.29    3.05   101.60863    75.92889    48.25357
    62  O   6.0   -0.29    1.12    1.80   101.88847    75.60354    50.54077
    63  C   4.0   -0.03    4.26    4.12   101.74771    72.22252    45.33688
    64  C   4.0   -0.07    4.13    3.87   103.14100    70.61246    47.28701
    65  C   4.0   -0.08    4.13    3.86   100.28409    70.47503    43.58295
    66  H   1.0    0.10    1.09    1.44    98.56932    75.31423    43.11543
    67  H   1.0    0.05    1.06    1.44    98.80113    73.08893    48.05595
    68  H   1.0    0.04    1.05    1.44   103.11712    73.32109    44.25268
    69  H   1.0    0.04    1.00    1.43   104.38440    69.28541    46.33357
    70  H   1.0    0.06    1.00    1.43   104.26014    71.79086    48.53697
    71  H   1.0    0.04    1.00    1.43   101.79568    69.55574    48.42888
    72  H   1.0    0.04    1.00    1.43   101.59192    69.24620    42.58677
    73  H   1.0    0.03    1.01    1.43    99.03301    69.30303    44.70591
    74  H   1.0    0.06    1.01    1.43    99.18007    71.52848    42.21455
    75  N   5.0   -0.19    3.21    1.96    97.75185    78.53635    53.44750
    76  C   4.0    0.04    4.15    3.90    97.09394    76.61779    55.28972
    77  C   4.0    0.09    3.21    3.04    99.35996    75.84074    56.89819
    78  O   6.0   -0.31    1.21    1.80    99.31414    75.98169    59.20788
    79  C   4.0   -0.07    4.13    3.87    96.12012    74.30661    53.90350
    80  H   1.0    0.12    1.06    1.44    97.48236    78.12441    51.58818
    81  H   1.0    0.05    1.05    1.44    95.67339    77.38585    56.59589
    82  H   1.0    0.04    1.01    1.43    95.80124    72.76329    55.21998
    83  H   1.0    0.04    1.01    1.43    94.37203    74.78992    52.94944
    84  H   1.0    0.05    1.00    1.43    97.50952    73.72681    52.50708
    85  N   5.0   -0.20    3.26    1.97   100.12549    76.61044    64.45445
    86  C   4.0    0.03    4.23    4.07   100.52814    74.36614    65.97649
    87  C   4.0    0.08    3.21    3.04   102.82905    74.78415    67.66912
    88  O   6.0   -0.28    1.11    1.80   102.79954    74.30093    69.95075
    89  C   4.0   -0.03    4.31    4.21   100.90826    72.05458    64.27336
    90  C   4.0   -0.01    3.54    3.13    98.71939    71.46637    62.53141
    91  C   4.0   -0.04    3.47    3.10    98.94822    69.44390    60.86080
    92  C   4.0   -0.03    3.53    3.13    96.52516    72.90106    62.43869
    93  C   4.0   -0.04    3.38    3.07    97.05469    68.88652    59.14788
    94  C   4.0   -0.04    3.39    3.08    94.66873    72.40007    60.66511
    95  C   4.0   -0.04    3.38    3.07    94.90272    70.37179    59.03711
    96  H   1.0    0.12    1.08    1.44    99.93441    76.33173    62.56401
    97  H   1.0    0.05    1.05    1.44    98.91095    74.06791    67.24974
    98  H   1.0    0.05    1.03    1.43   102.59210    72.36457    63.11019
    99  H   1.0    0.04    1.03    1.43   101.28566    70.41696    65.47536
   100  H   1.0    0.05    1.03    1.43   100.61567    68.26860    60.93232
   101  H   1.0    0.05    1.04    1.43    96.22202    74.42868    63.75155
   102  H   1.0    0.05    1.03    1.43    97.26863    67.30574    57.87875
   103  H   1.0    0.05    1.03    1.43    93.04685    73.62928    60.55265
   104  H   1.0    0.06    1.03    1.43    93.39671    69.92758    57.73499
   105  N   5.0   -0.22    3.22    1.96    72.40846    51.88924    59.19922
   106  C   4.0    0.02    4.24    4.08    74.92525    51.93744    58.13088
   107  C   4.0    0.08    3.28    3.05    75.25152    49.68406    56.38301
   108  O   6.0   -0.33    1.26    1.80    76.33906    49.86700    54.34366
   109  C   4.0   -0.04    4.35    4.29    76.85856    51.79939    60.27493
   110  C   4.0   -0.01    3.58    3.16    79.44999    50.94989    59.51068
   111  C   4.0   -0.05    3.47    3.10    80.81253    49.37176    61.10373
   112  C   4.0   -0.04    3.56    3.14    80.58994    51.81368    57.31752
   113  C   4.0   -0.05    3.38    3.07    83.30896    48.82033    60.59629
   114  C   4.0   -0.05    3.40    3.08    83.10808    51.30511    56.82067
   115  C   4.0   -0.05    3.39    3.08    84.48301    49.86201    58.49931
   116  H   1.0    0.08    1.03    1.43    72.33641    51.65195    61.10112
   117  H   1.0    0.04    1.05    1.44    75.17495    53.64486    56.98640
   118  H   1.0    0.03    1.03    1.43    76.98959    53.65829    61.17145
   119  H   1.0    0.04    1.04    1.43    76.14362    50.47876    61.67824
   120  H   1.0    0.05    1.03    1.43    79.92714    48.58562    62.76623
   121  H   1.0    0.05    1.04    1.43    79.49555    52.90404    55.99059
   122  H   1.0    0.05    1.03    1.43    84.34513    47.59566    61.84746
   123  H   1.0    0.04    1.03    1.43    83.98719    52.07033    55.15070
   124  H   1.0    0.04    1.03    1.43    86.47111    49.55894    58.17120
   125  N   5.0   -0.20    3.23    1.96    72.61681    52.22397    51.28138
   126  C   4.0    0.03    4.32    4.24    74.27022    54.00375    50.04246
   127  C   4.0    0.15    3.47    3.10    76.39814    52.70204    48.60856
   128  O   6.0   -0.34    1.36    1.80    77.33358    53.81079    46.80112
   129  C   4.0   -0.05    4.39    4.37    75.62657    55.80839    51.84474
   130  C   4.0   -0.03    4.17    3.94    73.94387    57.62885    53.32516
   131  C   4.0   -0.08    4.11    3.83    75.55576    59.00912    55.28114
   132  C   4.0   -0.08    4.11    3.83    72.71006    59.54790    51.56559
   133  H   1.0    0.09    1.03    1.43    72.40567    52.35139    53.18469
   134  H   1.0    0.04    1.05    1.44    73.19494    55.08305    48.63193
   135  H   1.0    0.05    1.03    1.43    76.73622    54.64632    53.13433
   136  H   1.0    0.04    1.04    1.43    76.92998    56.91342    50.68200
   137  H   1.0    0.04    1.05    1.44    72.45827    56.55957    54.28292
   138  H   1.0    0.04    1.00    1.43    74.38039    60.28019    56.38022
   139  H   1.0    0.03    1.00    1.43    76.47912    57.70602    56.57415
   140  H   1.0    0.04    1.00    1.43    77.01059    60.10824    54.32939
   141  H   1.0    0.04    1.00    1.43    71.56321    60.86297    52.64601
   142  H   1.0    0.04    1.00    1.43    74.14912    60.60948    50.55266
   143  H   1.0    0.04    1.00    1.43    71.50295    58.61876    50.19027
   144  N   5.0   -0.15    3.47    2.06    77.22374    50.47679    49.45714
   145  C   4.0    0.03    4.39    4.36    79.09831    49.05140    48.05991
   146  C   4.0    0.09    3.25    3.04    77.75935    47.35327    46.16781
   147  O   6.0   -0.30    1.15    1.80    78.48126    47.23289    43.97727
   148  C   4.0    0.05    4.23    4.06    80.93696    47.43308    49.63499
   149  O   6.0   -0.25    2.11    1.84    79.71291    45.39686    50.82860
   150  C   4.0   -0.07    4.08    3.77    82.45410    49.04658    51.46654
   151  H   1.0    0.12    1.14    1.45    76.67169    49.88283    51.20104
   152  H   1.0    0.05    1.07    1.44    80.23463    50.36314    46.94405
   153  H   1.0    0.05    1.05    1.44    82.23128    46.57305    48.27407
   154  H   1.0    0.13    1.03    1.43    78.21313    46.02114    51.65376
   155  H   1.0    0.05    1.00    1.43    83.68938    47.84560    52.58403
   156  H   1.0    0.03    1.00    1.43    83.59803    50.37937    50.40668
   157  H   1.0    0.05    1.01    1.43    81.18193    50.03967    52.72397
   158  N   5.0   -0.19    3.24    1.97    77.06238    51.79399    42.17154
   159  C   4.0    0.04    4.30    4.19    79.33565    52.66803    40.88038
   160  C   4.0    0.08    3.23    3.04    80.07259    50.83259    38.74936
   161  O   6.0   -0.33    1.19    1.80    81.17345    51.58407    36.84535
   162  C   4.0   -0.02    4.26    4.11    81.50483    53.16380    42.74995
   163  C   4.0   -0.07    4.14    3.88    83.30626    50.93071    42.96025
   164  C   4.0   -0.07    4.13    3.86    82.92117    55.53435    41.95069
   165  H   1.0    0.12    1.11    1.45    76.89599    52.31461    44.00419
   166  H   1.0    0.04    1.06    1.44    78.85037    54.43946    39.91160
   167  H   1.0    0.06    1.08    1.44    80.63865    53.51962    44.58356
   168  H   1.0    0.03    1.00    1.43    84.76787    51.33063    44.34550
   169  H   1.0    0.06    1.01    1.43    82.31024    49.22617    43.50389
   170  H   1.0    0.05    1.01    1.43    84.19337    50.56924    41.14369
   171  H   1.0    0.04    1.00    1.43    84.56314    55.84860    43.13786
   172  H   1.0    0.05    1.01    1.43    83.54047    55.35367    40.00740
   173  H   1.0    0.05    1.00    1.43    81.68767    57.16645    42.06745
   174  N   5.0   -0.17    3.43    2.03    77.71564    51.68247    30.16719
   175  C   4.0    0.03    4.38    4.34    79.30189    51.74685    27.94286
   176  C   4.0    0.08    3.20    3.04    78.14417    50.23668    25.76948
   177  O   6.0   -0.30    1.13    1.80    78.06220    51.07096    23.62235
   178  C   4.0   -0.04    4.29    4.19    81.84879    50.65318    28.78384
   179  C   4.0   -0.04    4.23    4.06    81.27951    49.15037    31.19361
   180  C   4.0    0.00    4.26    4.12    78.60857    49.89858    32.00523
   181  H   1.0    0.04    1.05    1.44    79.43847    53.70370    27.29704
   182  H   1.0    0.05    1.03    1.43    82.63542    49.47616    27.29320
   183  H   1.0    0.04    1.02    1.43    83.18609    52.16728    29.16957
   184  H   1.0    0.04    1.02    1.43    81.32472    47.12717    30.84249
   185  H   1.0    0.05    1.03    1.43    82.62050    49.58468    32.68547
   186  H   1.0    0.04    1.03    1.43    77.37214    48.25735    31.96145
   187  H   1.0    0.06    1.04    1.43    78.55674    50.71376    33.89308
   188  N   5.0   -0.21    3.15    1.95    77.89339    56.32401    22.06193
   189  C   4.0    0.01    4.16    3.91    80.53659    56.63133    22.68707
   190  C   4.0    0.14    3.35    3.07    81.46544    59.35683    22.57946
   191  O   6.0   -0.31    1.28    1.80    83.28682    60.01990    23.83561
   192  H   1.0    0.10    1.03    1.43    77.45260    54.94530    20.82638
   193  H   1.0    0.04    1.03    1.43    80.92831    55.99752    24.61947
   194  H   1.0    0.05    1.03    1.43    81.67008    55.51216    21.37911
   195  N   5.0   -0.15    3.51    2.09    80.16917    60.91455    21.07191
   196  C   4.0    0.03    4.39    4.37    80.80565    63.55974    20.73928
   197  C   4.0    0.16    3.47    3.10    81.25641    64.84052    23.28155
   198  O   6.0   -0.30    1.23    1.80    82.69441    66.63944    23.50471
   199  C   4.0   -0.04    4.29    4.18    78.65444    64.83201    19.27445
   200  C   4.0   -0.03    4.16    3.92    79.23795    67.48941    18.36089
   201  C   4.0    0.25    3.09    3.02    77.06833    68.56769    16.65459
   202  O   6.0   -0.28    1.18    1.80    75.17691    67.20770    16.31096
   203  O   6.0   -0.27    1.16    1.80    77.43287    70.72275    15.77007
   204  H   1.0    0.08    1.08    1.44    78.71238    60.26511    20.02656
   205  H   1.0    0.06    1.05    1.44    82.57505    63.74547    19.66771
   206  H   1.0    0.06    1.03    1.43    78.25016    63.70125    17.59471
   207  H   1.0    0.05    1.03    1.43    76.94065    64.88341    20.42066
   208  H   1.0    0.06    1.02    1.43    79.51094    68.80847    19.92226
   209  H   1.0    0.06    1.02    1.43    80.95821    67.51211    17.22098
   210  N   5.0   -0.14    3.52    2.09    79.97864    63.87591    25.24221
   211  C   4.0    0.03    4.41    4.39    80.17978    64.99012    27.71408
   212  C   4.0    0.15    3.44    3.09    82.40895    64.07333    29.30542
   213  O   6.0   -0.34    1.41    1.80    82.22564    64.07089    31.61585
   214  C   4.0   -0.05    4.33    4.26    77.73593    64.76162    29.22588
   215  C   4.0   -0.05    4.19    3.97    77.02188    62.13578    30.19493
   216  C   4.0   -0.06    4.19    3.99    74.37159    62.25030    31.35990
   217  C   4.0   -0.04    4.12    3.85    72.43084    61.04636    29.61118
   218  N   5.0   -0.12    4.01    2.87    69.80932    61.80918    30.37525
   219  H   1.0    0.08    1.08    1.44    78.75963    62.42099    25.02361
   220  H   1.0    0.05    1.07    1.44    80.56576    67.01584    27.39344
   221  H   1.0    0.04    1.07    1.44    78.04121    65.91108    30.89057
   222  H   1.0    0.04    1.03    1.43    76.20803    65.58685    28.11760
   223  H   1.0    0.04    1.03    1.43    77.02668    60.71235    28.72034
   224  H   1.0    0.05    1.03    1.43    78.39023    61.59032    31.63074
   225  H   1.0    0.04    1.03    1.43    74.40161    61.28346    33.17290
   226  H   1.0    0.03    1.04    1.44    73.88144    64.22241    31.66062
   227  H   1.0    0.04    1.02    1.43    72.73896    61.60073    27.65245
   228  H   1.0    0.04    1.02    1.43    72.64998    59.00154    29.70303
   229  H   1.0    0.05    1.02    1.43    68.54467    60.33095    30.30030
   230  H   1.0    0.05    1.03    1.43    69.83072    62.47914    32.20295
   231  H   1.0    0.05    1.02    1.43    69.13716    63.20083    29.19072
   232  N   5.0   -0.14    3.46    2.05    84.59743    63.49871    28.19090
   233  C   4.0    0.03    4.46    4.47    86.68630    62.67109    29.77317
   234  C   4.0    0.15    3.47    3.10    87.81705    64.81047    31.33968
   235  O   6.0   -0.32    1.30    1.80    88.63136    64.39990    33.46279
   236  C   4.0   -0.04    4.35    4.29    88.79633    61.46197    28.21273
   237  C   4.0   -0.04    4.06    3.73    88.03647    58.80761    27.40311
   238  S   6.0    0.02    2.52    3.10    89.81896    57.86989    24.54801
   239  C   4.0   -0.05    3.88    3.44    87.69249    55.51530    23.33875
   240  H   1.0    0.11    1.07    1.44    84.69120    63.14221    26.31651
   241  H   1.0    0.05    1.06    1.44    85.98022    61.30331    31.16687
   242  H   1.0    0.05    1.05    1.44    89.16377    62.58249    26.52513
   243  H   1.0    0.05    1.03    1.43    90.52329    61.39153    29.32796
   244  H   1.0    0.04    1.06    1.44    88.40557    57.42469    28.88486
   245  H   1.0    0.06    1.08    1.44    86.05405    58.78233    26.86648
   246  H   1.0    0.06    1.05    1.44    88.36384    55.01878    21.45977
   247  H   1.0    0.05    1.03    1.43    87.71634    53.83293    24.52491
   248  H   1.0    0.06    1.05    1.44    85.80347    56.31222    23.23120
   249  N   5.0   -0.15    3.50    2.08    87.91875    67.09792    30.27090
   250  C   4.0    0.03    4.51    4.54    88.99896    69.16139    31.72295
   251  C   4.0    0.17    3.53    3.13    87.17625    69.80112    33.87706
   252  O   6.0   -0.31    1.29    1.80    87.74625    70.03205    36.09090
   253  C   4.0    0.05    4.23    4.05    89.56269    71.62651    30.23124
   254  O   6.0   -0.25    2.18    1.85    89.57045    73.65405    31.95902
   255  C   4.0   -0.06    4.08    3.77    87.63528    72.29449    28.19429
   256  H   1.0    0.08    1.06    1.44    87.40375    67.34560    28.45023
   257  H   1.0    0.06    1.07    1.44    90.73734    68.47647    32.61217
   258  H   1.0    0.04    1.03    1.43    91.44205    71.43575    29.36873
   259  H   1.0    0.14    1.07    1.44    90.80230    73.24431    33.26000
   260  H   1.0    0.05    1.00    1.43    88.31493    73.92992    27.15754
   261  H   1.0    0.04    1.00    1.43    87.34209    70.78362    26.83834
   262  H   1.0    0.05    1.00    1.43    85.86225    72.84269    29.07077
   263  N   5.0   -0.14    3.62    2.18    84.80971    69.97434    33.05993
   264  C   4.0    0.03    4.46    4.48    82.68065    70.23225    34.72826
   265  C   4.0    0.16    3.50    3.11    82.80255    68.22455    36.81802
   266  O   6.0   -0.33    1.33    1.80    82.37725    68.71887    39.04745
   267  C   4.0   -0.05    4.46    4.48    80.42353    69.90545    32.97463
   268  C   4.0   -0.02    4.24    4.07    77.98791    69.53175    34.41786
   269  C   4.0   -0.07    4.18    3.97    77.61072    71.86402    36.05110
   270  C   4.0   -0.09    4.18    3.95    75.77146    69.12812    32.62228
   271  H   1.0    0.07    1.10    1.44    84.42468    69.87622    31.19812
   272  H   1.0    0.05    1.05    1.44    82.69792    72.07771    35.67087
   273  H   1.0    0.04    1.03    1.43    80.24694    71.59654    31.80159
   274  H   1.0    0.05    1.05    1.44    80.83438    68.27177    31.79418
   275  H   1.0    0.04    1.06    1.44    78.17826    67.85043    35.60491
   276  H   1.0    0.05    1.04    1.43    75.67276    72.04364    36.60718
   277  H   1.0    0.05    1.00    1.43    78.75475    71.74932    37.74605
   278  H   1.0    0.06    1.00    1.43    78.01425    73.57590    34.99142
   279  H   1.0    0.03    1.01    1.43    75.06033    67.22644    32.81079
   280  H   1.0    0.04    1.04    1.43    74.29058    70.40530    33.17902
   281  H   1.0    0.03    1.01    1.43    76.25906    69.50900    30.66718
   282  N   5.0   -0.14    3.56    2.12    83.45000    65.91152    36.08457
   283  C   4.0    0.04    4.41    4.39    83.69754    63.84395    37.85443
   284  C   4.0    0.17    3.52    3.13    85.82837    64.42324    39.70639
   285  O   6.0   -0.32    1.39    1.80    85.59367    64.02347    41.97900
   286  C   4.0    0.04    4.16    3.91    84.21521    61.37526    36.41776
   287  O   6.0   -0.26    2.07    1.83    84.27508    59.36678    38.15770
   288  H   1.0    0.12    1.14    1.45    83.52767    65.42699    34.23127
   289  H   1.0    0.05    1.05    1.44    81.97496    63.62964    38.99230
   290  H   1.0    0.05    1.01    1.43    82.69135    61.08426    35.03545
   291  H   1.0    0.06    1.02    1.43    86.02041    61.54658    35.42616
   292  H   1.0    0.12    1.02    1.43    85.39366    58.06274    37.56181
   293  N   5.0   -0.13    3.55    2.11    87.89428    65.46664    38.73744
   294  C   4.0    0.04    4.53    4.57    89.92076    66.23527    40.41765
   295  C   4.0    0.16    3.62    3.18    88.78646    67.71204    42.61668
   296  O   6.0   -0.33    1.33    1.80    89.41796    67.31675    44.80678
   297  C   4.0   -0.02    4.35    4.29    91.97772    67.73918    38.99720
   298  C   4.0   -0.05    4.18    3.96    94.58377    66.51459    39.33155
   299  C   4.0   -0.06    4.24    4.08    92.05525    70.52787    39.76769
   300  C   4.0   -0.08    4.06    3.72    95.55484    66.81369    42.01935
   301  H   1.0    0.11    1.10    1.44    88.20217    65.50911    36.84654
   302  H   1.0    0.04    1.07    1.44    90.74274    64.53099    41.24946
   303  H   1.0    0.06    1.07    1.44    91.45055    67.62482    37.00302
   304  H   1.0    0.04    1.02    1.43    94.46017    64.53038    38.79497
   305  H   1.0    0.04    1.03    1.43    95.93037    67.43631    38.07440
   306  H   1.0    0.05    1.01    1.43    93.82271    71.39483    39.20033
   307  H   1.0    0.07    1.01    1.43    90.51628    71.56969    38.90416
   308  H   1.0    0.05    1.02    1.43    91.92194    70.77837    41.79648
   309  H   1.0    0.03    1.00    1.43    97.41054    65.96865    42.23052
   310  H   1.0    0.04    1.01    1.43    95.67196    68.80739    42.46246
   311  H   1.0    0.04    1.00    1.43    94.28715    65.96763    43.38937
   312  N   5.0   -0.13    3.56    2.13    87.08725    69.47728    41.98633
   313  C   4.0    0.03    4.39    4.37    86.11278    71.15248    43.92669
   314  C   4.0    0.17    3.50    3.12    84.85912    69.54020    45.97437
   315  O   6.0   -0.32    1.27    1.80    85.13302    69.96642    48.24073
   316  C   4.0    0.03    4.12    3.84    84.35621    73.21071    42.84357
   317  O   6.0   -0.26    2.06    1.83    81.86865    72.48236    42.38130
   318  H   1.0    0.11    1.08    1.44    86.78719    69.83021    40.13106
   319  H   1.0    0.05    1.05    1.44    87.69520    72.14121    44.83923
   320  H   1.0    0.04    1.02    1.43    84.23999    74.74106    44.22709
   321  H   1.0    0.05    1.01    1.43    85.25672    73.94647    41.11792
   322  H   1.0    0.15    1.09    1.44    81.85685    71.10109    41.15256
   323  N   5.0   -0.13    3.55    2.12    83.48722    67.63412    45.07524
   324  C   4.0    0.04    4.52    4.56    82.43661    65.74809    46.75281
   325  C   4.0    0.16    3.55    3.14    84.55464    64.64126    48.36026
   326  O   6.0   -0.33    1.44    1.80    84.42037    64.73165    50.69018
   327  C   4.0   -0.02    4.27    4.13    80.98262    63.66257    45.34944
   328  C   4.0   -0.08    4.12    3.84    79.89483    61.78193    47.25100
   329  C   4.0   -0.08    4.12    3.84    78.89602    64.81665    43.73026
   330  H   1.0    0.11    1.10    1.44    83.45238    67.32795    43.19057
   331  H   1.0    0.05    1.06    1.44    81.17640    66.71893    48.08398
   332  H   1.0    0.06    1.07    1.44    82.31360    62.67041    44.12394
   333  H   1.0    0.04    1.00    1.43    78.72902    60.39354    46.28480
   334  H   1.0    0.04    1.00    1.43    81.40204    60.78532    48.22853
   335  H   1.0    0.04    1.00    1.43    78.74357    62.74849    48.65433
   336  H   1.0    0.04    1.00    1.43    77.86535    63.34096    42.74437
   337  H   1.0    0.03    1.00    1.43    77.56584    65.84634    44.90442
   338  H   1.0    0.05    1.00    1.43    79.68471    66.12303    42.35780
   339  N   5.0   -0.14    3.52    2.09    86.50870    63.60355    47.20145
   340  C   4.0    0.03    4.46    4.48    88.54212    62.49001    48.65966
   341  C   4.0    0.17    3.53    3.13    89.25052    64.18055    50.87780
   342  O   6.0   -0.33    1.34    1.80    89.53157    63.30169    53.01586
   343  C   4.0   -0.05    4.38    4.35    90.90783    62.07589    47.05008
   344  C   4.0   -0.02    4.19    3.99    90.44054    60.37459    44.75606
   345  C   4.0   -0.08    4.12    3.85    92.75978    60.42602    43.04683
   346  C   4.0   -0.08    4.11    3.83    89.79642    57.70452    45.61795
   347  H   1.0    0.11    1.11    1.44    86.65263    63.63008    45.28798
   348  H   1.0    0.04    1.05    1.44    87.88307    60.69755    49.47194
   349  H   1.0    0.05    1.04    1.43    91.57891    63.91578    46.41598
   350  H   1.0    0.04    1.03    1.43    92.35857    61.23141    48.25102
   351  H   1.0    0.05    1.06    1.44    88.82914    61.10899    43.69117
   352  H   1.0    0.04    1.00    1.43    92.44657    59.29725    41.36390
   353  H   1.0    0.04    1.01    1.43    93.19837    62.33747    42.47616
   354  H   1.0    0.03    1.01    1.43    94.39689    59.71682    44.04754
   355  H   1.0    0.04    1.00    1.43    89.60272    56.45198    44.00709
   356  H   1.0    0.04    1.00    1.43    91.26554    56.97375    46.85466
   357  H   1.0    0.04    1.00    1.43    88.01942    57.71052    46.64415
   358  N   5.0   -0.14    3.54    2.11    89.72819    66.57555    50.29841
   359  C   4.0    0.03    4.46    4.47    90.58989    68.39414    52.14511
   360  C   4.0    0.16    3.50    3.12    88.74048    68.61528    54.32649
   361  O   6.0   -0.32    1.30    1.80    89.42310    68.45927    56.53511
   362  C   4.0   -0.05    4.43    4.43    90.77800    71.01763    50.97462
   363  C   4.0   -0.02    4.22    4.04    92.31382    71.08931    48.53876
   364  C   4.0   -0.07    4.15    3.90    92.51888    73.83745    47.74393
   365  C   4.0   -0.08    4.12    3.84    94.89501    69.86182    48.82907
   366  H   1.0    0.11    1.10    1.44    89.45774    67.19340    48.50629
   367  H   1.0    0.05    1.05    1.44    92.41821    67.79913    52.93086
   368  H   1.0    0.05    1.04    1.43    88.87964    71.70442    50.55730
   369  H   1.0    0.04    1.03    1.43    91.60415    72.28238    52.37480
   370  H   1.0    0.06    1.08    1.44    91.27464    70.08473    47.06700
   371  H   1.0    0.06    1.03    1.43    93.49091    73.99754    45.95186
   372  H   1.0    0.04    1.00    1.43    90.63633    74.64707    47.56292
   373  H   1.0    0.05    1.01    1.43    93.55332    74.93119    49.13597
   374  H   1.0    0.04    1.01    1.43    95.96502    70.16034    47.10905
   375  H   1.0    0.04    1.00    1.43    95.90846    70.69359    50.40575
   376  H   1.0    0.04    1.00    1.43    94.71304    67.84497    49.15744
   377  N   5.0   -0.14    3.55    2.12    86.37135    69.13066    53.63783
   378  C   4.0    0.03    4.41    4.40    84.42130    69.52911    55.51013
   379  C   4.0    0.17    3.48    3.11    84.18278    67.18427    57.19224
   380  O   6.0   -0.32    1.33    1.80    83.98721    67.33956    59.49167
   381  C   4.0    0.03    4.17    3.95    81.89628    69.99596    54.17437
   382  O   6.0   -0.26    2.13    1.84    81.02705    67.85184    52.92017
   383  H   1.0    0.11    1.09    1.44    85.91997    69.31747    51.77803
   384  H   1.0    0.04    1.05    1.44    84.89459    71.15192    56.71171
   385  H   1.0    0.04    1.02    1.43    80.45849    70.47497    55.57902
   386  H   1.0    0.04    1.01    1.43    82.13028    71.57650    52.84174
   387  H   1.0    0.15    1.08    1.44    82.34981    67.18858    51.80725
   388  N   5.0   -0.13    3.61    2.17    84.15838    65.03357    55.90518
   389  C   4.0    0.03    4.45    4.47    83.81091    62.55064    56.99036
   390  C   4.0    0.16    3.48    3.11    85.85991    62.15324    58.96363
   391  O   6.0   -0.32    1.30    1.80    85.37427    61.54571    61.14726
   392  C   4.0   -0.04    4.40    4.38    83.95651    60.65356    54.81522
   393  C   4.0   -0.03    4.16    3.93    83.51160    57.86557    55.49281
   394  C   4.0   -0.08    4.15    3.90    81.74468    57.63491    57.75363
   395  C   4.0   -0.08    4.11    3.83    82.49485    56.57528    53.11232
   396  H   1.0    0.12    1.15    1.45    84.29348    65.06287    54.00103
   397  H   1.0    0.05    1.05    1.44    81.97391    62.45289    57.94118
   398  H   1.0    0.05    1.04    1.43    82.51275    61.23051    53.45776
   399  H   1.0    0.06    1.03    1.43    85.79138    60.87016    53.90684
   400  H   1.0    0.04    1.05    1.44    85.30612    56.98458    56.02614
   401  H   1.0    0.04    1.04    1.43    81.26505    55.68319    58.12748
   402  H   1.0    0.05    1.01    1.43    82.68233    58.36362    59.42146
   403  H   1.0    0.03    1.01    1.43    80.02759    58.70420    57.45232
   404  H   1.0    0.04    1.01    1.43    81.77442    54.70064    53.47488
   405  H   1.0    0.04    1.00    1.43    80.94502    57.67259    52.33331
   406  H   1.0    0.04    1.00    1.43    83.99662    56.42600    51.71957
   407  N   5.0   -0.14    3.55    2.11    88.18091    62.53435    58.07329
   408  C   4.0    0.04    4.46    4.47    90.41404    62.34130    59.61709
   409  C   4.0    0.16    3.51    3.12    90.16375    64.10623    61.87661
   410  O   6.0   -0.33    1.38    1.80    90.46747    63.24671    64.01130
   411  C   4.0    0.06    4.22    4.05    92.80274    62.79951    57.99322
   412  O   6.0   -0.26    2.13    1.84    93.03456    60.93444    56.11790
   413  C   4.0   -0.07    4.10    3.80    95.16683    62.65125    59.62505
   414  H   1.0    0.12    1.12    1.45    88.44382    63.10550    56.26340
   415  H   1.0    0.05    1.06    1.44    90.52541    60.42416    60.41911
   416  H   1.0    0.05    1.03    1.43    92.63233    64.68856    57.14145
   417  H   1.0    0.15    1.06    1.44    91.87578    61.28633    54.74170
   418  H   1.0    0.04    1.00    1.43    96.83110    62.74661    58.42716
   419  H   1.0    0.04    1.00    1.43    95.20447    64.18066    60.98621
   420  H   1.0    0.04    1.00    1.43    95.18253    60.85044    60.60786
   421  N   5.0   -0.14    3.48    2.06    89.52219    66.51413    61.49456
   422  C   4.0    0.04    4.52    4.56    89.34145    68.14855    63.69674
   423  C   4.0    0.16    3.52    3.12    87.38729    67.07165    65.53352
   424  O   6.0   -0.32    1.32    1.80    87.82773    66.98636    67.81394
   425  C   4.0   -0.02    4.24    4.08    88.88825    70.94554    63.01084
   426  C   4.0   -0.07    4.14    3.88    86.12157    71.73405    62.88329
   427  C   4.0   -0.08    4.13    3.86    90.21741    72.60211    64.96620
   428  H   1.0    0.11    1.10    1.44    89.43699    67.30981    59.74887
   429  H   1.0    0.05    1.06    1.44    91.14442    68.04705    64.73563
   430  H   1.0    0.05    1.06    1.44    89.74016    71.23514    61.15073
   431  H   1.0    0.04    1.00    1.43    86.00034    73.68733    62.25953
   432  H   1.0    0.06    1.02    1.43    85.04612    70.56264    61.59318
   433  H   1.0    0.04    1.00    1.43    85.28091    71.63123    64.75660
   434  H   1.0    0.04    1.00    1.43    89.98969    74.59391    64.51817
   435  H   1.0    0.04    1.00    1.43    89.39595    72.25668    66.81884
   436  H   1.0    0.04    1.00    1.43    92.22172    72.17535    65.06781
   437  N   5.0   -0.13    3.55    2.11    85.23426    66.23790    64.53737
   438  C   4.0    0.04    4.45    4.47    83.21421    65.30138    66.13495
   439  C   4.0    0.16    3.49    3.11    84.22402    63.12843    67.75693
   440  O   6.0   -0.32    1.28    1.80    83.87803    63.06391    70.04844
   441  C   4.0   -0.04    4.32    4.23    80.95682    64.43236    64.54711
   442  C   4.0   -0.01    3.54    3.13    79.68808    66.49511    63.03132
   443  C   4.0   -0.04    3.47    3.10    77.73777    65.87169    61.37607
   444  C   4.0   -0.03    3.53    3.13    80.48927    68.98851    63.10431
   445  C   4.0   -0.04    3.38    3.07    76.72608    67.66118    59.76248
   446  C   4.0   -0.04    3.40    3.08    79.58352    70.74528    61.39045
   447  C   4.0   -0.04    3.38    3.07    77.69322    70.09045    59.71382
   448  H   1.0    0.12    1.12    1.45    84.85978    66.43266    62.66616
   449  H   1.0    0.05    1.05    1.44    82.63902    66.78585    67.47319
   450  H   1.0    0.06    1.04    1.43    81.63630    63.00087    63.21755
   451  H   1.0    0.04    1.03    1.43    79.58400    63.51983    65.79293
   452  H   1.0    0.04    1.03    1.43    76.99758    63.96919    61.36143
   453  H   1.0    0.05    1.04    1.43    81.86325    69.58271    64.47767
   454  H   1.0    0.05    1.03    1.43    75.21657    67.15837    58.48922
   455  H   1.0    0.04    1.03    1.43    80.40926    72.60839    61.33825
   456  H   1.0    0.06    1.03    1.43    76.94982    71.46370    58.40045
   457  N   5.0   -0.14    3.52    2.09    85.42489    61.31673    66.48764
   458  C   4.0    0.03    4.44    4.45    86.38825    59.11179    67.78315
   459  C   4.0    0.16    3.50    3.12    88.39137    59.86752    69.70803
   460  O   6.0   -0.30    1.26    1.80    88.40235    58.93303    71.83872
   461  C   4.0   -0.05    4.36    4.31    87.53384    57.17250    65.97634
   462  C   4.0   -0.02    4.18    3.97    85.67209    56.10916    64.02969
   463  C   4.0   -0.08    4.11    3.83    87.05247    54.26254    62.30048
   464  C   4.0   -0.08    4.11    3.82    83.43084    54.79834    65.27699
   465  H   1.0    0.12    1.11    1.45    85.69554    61.47976    64.59789
   466  H   1.0    0.05    1.06    1.44    84.84149    58.25530    68.86772
   467  H   1.0    0.05    1.03    1.43    89.10990    58.06809    64.99298
   468  H   1.0    0.04    1.03    1.43    88.27884    55.62064    67.11605
   469  H   1.0    0.06    1.06    1.44    84.97252    57.67685    62.88622
   470  H   1.0    0.04    1.01    1.43    85.76656    53.54718    60.87035
   471  H   1.0    0.04    1.00    1.43    88.63547    55.17934    61.36809
   472  H   1.0    0.04    1.00    1.43    87.76351    52.66969    63.38437
   473  H   1.0    0.04    1.00    1.43    82.27321    53.88034    63.85082
   474  H   1.0    0.04    1.00    1.43    84.07617    53.36803    66.60351
   475  H   1.0    0.04    1.00    1.43    82.25885    56.15014    66.28176
   476  N   5.0   -0.14    3.53    2.10    90.13122    61.49008    68.91050
   477  C   4.0    0.04    4.43    4.42    92.11414    62.32429    70.59580
   478  C   4.0    0.16    3.47    3.10    90.91174    63.47998    72.96790
   479  O   6.0   -0.28    1.23    1.80    91.70363    62.96475    75.08619
   480  C   4.0   -0.04    4.32    4.24    93.94095    64.15001    69.29702
   481  C   4.0   -0.02    4.18    3.96    95.36316    63.00925    67.03153
   482  C   4.0   -0.08    4.11    3.81    97.03171    65.02047    65.80040
   483  C   4.0   -0.08    4.10    3.81    96.98907    60.74460    67.75805
   484  H   1.0    0.12    1.12    1.45    90.00369    62.31464    67.18566
   485  H   1.0    0.06    1.06    1.44    93.16227    60.65889    71.25906
   486  H   1.0    0.05    1.03    1.43    92.86906    65.79446    68.65602
   487  H   1.0    0.05    1.03    1.43    95.29801    64.78986    70.71646
   488  H   1.0    0.06    1.07    1.44    93.96200    62.40189    65.64664
   489  H   1.0    0.04    1.00    1.43    98.07041    64.20234    64.22822
   490  H   1.0    0.04    1.00    1.43    95.90400    66.58799    65.09266
   491  H   1.0    0.04    1.00    1.43    98.38617    65.75231    67.16069
   492  H   1.0    0.04    1.00    1.43    97.98470    60.05379    66.10009
   493  H   1.0    0.04    1.00    1.43    98.37772    61.28566    69.17232
   494  H   1.0    0.04    1.00    1.43    95.84474    59.21420    68.50457
   495  N   5.0   -0.14    3.53    2.10    88.90018    64.96616    72.59888
   496  C   4.0    0.04    4.50    4.54    87.66875    66.13721    74.74192
   497  C   4.0    0.16    3.47    3.10    86.19927    64.15500    76.24274
   498  O   6.0   -0.28    1.27    1.80    85.87081    64.38724    78.54237
   499  C   4.0   -0.02    4.24    4.09    86.05917    68.43934    73.99540
   500  C   4.0   -0.07    4.13    3.86    84.87812    69.63331    76.34261
   501  C   4.0   -0.07    4.13    3.85    87.70322    70.41699    72.68378
   502  H   1.0    0.12    1.11    1.45    88.37739    65.52416    70.84231
   503  H   1.0    0.06    1.06    1.44    89.14724    66.82319    76.03445
   504  H   1.0    0.05    1.05    1.44    84.58489    67.79434    72.69267
   505  H   1.0    0.04    1.00    1.43    83.79732    71.30258    75.82505
   506  H   1.0    0.06    1.00    1.43    83.66357    68.31513    77.34095
   507  H   1.0    0.05    1.00    1.43    86.36921    70.23100    77.63039
   508  H   1.0    0.04    1.00    1.43    86.57740    72.07441    72.22645
   509  H   1.0    0.04    1.00    1.43    89.23650    71.00215    73.92612
   510  H   1.0    0.06    1.01    1.43    88.51351    69.67188    70.95509
   511  N   5.0   -0.13    3.50    2.08    85.37071    62.09254    75.06673
   512  C   4.0    0.05    4.45    4.46    84.22939    60.10025    76.57273
   513  C   4.0    0.10    3.26    3.05    86.24302    58.96205    78.32523
   514  O   6.0   -0.27    1.11    1.80    85.75556    58.51658    80.55535
   515  C   4.0   -0.02    4.30    4.21    82.88151    58.10108    74.94923
   516  C   4.0   -0.05    4.21    4.02    80.67074    59.37778    73.57796
   517  C   4.0   -0.07    4.13    3.87    81.93112    55.97000    76.64748
   518  C   4.0   -0.08    4.00    3.63    79.54934    57.88301    71.39331
   519  H   1.0    0.12    1.10    1.44    85.49445    61.91166    73.16651
   520  H   1.0    0.06    1.06    1.44    82.83482    60.97863    77.84280
   521  H   1.0    0.06    1.05    1.44    84.24283    57.35321    73.58465
   522  H   1.0    0.04    1.03    1.43    79.17568    59.72077    74.95213
   523  H   1.0    0.06    1.05    1.44    81.32257    61.18732    72.84505
   524  H   1.0    0.04    1.00    1.43    80.91870    54.56452    75.54910
   525  H   1.0    0.06    1.00    1.43    83.48975    55.04605    77.61145
   526  H   1.0    0.05    1.00    1.43    80.65577    56.73531    78.06661
   527  H   1.0    0.04    1.00    1.43    78.07946    59.00091    70.48949
   528  H   1.0    0.04    1.00    1.43    80.99818    57.47871    69.99839
   529  H   1.0    0.04    1.00    1.43    78.71891    56.11977    72.02993
   530  N   5.0   -0.22    3.20    1.96    93.20483    46.43566    57.73900
   531  C   4.0    0.03    4.31    4.22    95.11640    48.25590    57.01302
   532  C   4.0    0.07    3.27    3.05    96.93930    47.14315    55.08338
   533  O   6.0   -0.31    1.21    1.80    97.44878    48.42957    53.19895
   534  C   4.0   -0.03    4.33    4.26    96.52634    49.19932    59.38094
   535  C   4.0   -0.05    4.17    3.93    95.10746    51.34368    60.72394
   536  C   4.0   -0.07    4.16    3.92    99.24811    49.91957    58.77048
   537  C   4.0   -0.08    4.02    3.65    95.03242    53.84176    59.29850
   538  H   1.0    0.08    1.03    1.43    93.21858    45.97702    59.60554
   539  H   1.0    0.04    1.06    1.44    94.22908    49.85503    56.02752
   540  H   1.0    0.04    1.07    1.44    96.57779    47.61116    60.69644
   541  H   1.0    0.03    1.03    1.43    93.18668    50.71122    61.12486
   542  H   1.0    0.04    1.03    1.43    96.05401    51.65854    62.53054
   543  H   1.0    0.04    1.00    1.43   100.15709    50.68950    60.44100
   544  H   1.0    0.05    1.01    1.43   100.30288    48.26427    58.16516
   545  H   1.0    0.05    1.00    1.43    99.30570    51.31476    57.26731
   546  H   1.0    0.04    1.00    1.43    94.04338    55.25271    60.41623
   547  H   1.0    0.04    1.00    1.43    96.92978    54.53531    58.94866
   548  H   1.0    0.05    1.00    1.43    94.06535    53.67188    57.49591
   549  N   5.0   -0.20    3.20    1.96    93.37228    46.89822    49.60522
   550  C   4.0    0.03    4.26    4.12    93.51324    49.31920    48.32714
   551  C   4.0    0.09    3.21    3.04    96.08664    49.48299    47.01738
   552  O   6.0   -0.34    1.28    1.80    96.20887    49.93645    44.73870
   553  C   4.0    0.05    4.18    3.97    92.86072    51.68630    49.88908
   554  O   6.0   -0.26    2.10    1.84    94.70472    52.41073    51.65018
   555  C   4.0   -0.08    4.06    3.73    90.25405    51.44582    51.13601
   556  H   1.0    0.08    1.02    1.43    92.75086    46.76328    51.41851
   557  H   1.0    0.03    1.09    1.44    92.15909    49.29296    46.76774
   558  H   1.0    0.04    1.04    1.44    92.79744    53.23935    48.50597
   559  H   1.0    0.15    1.09    1.44    95.53719    50.92520    52.36693
   560  H   1.0    0.04    1.00    1.43    89.92154    53.09020    52.32288
   561  H   1.0    0.03    1.00    1.43    88.78952    51.33234    49.70502
   562  H   1.0    0.04    1.00    1.43    90.19041    49.77838    52.32223
   563  N   5.0   -0.20    3.23    1.96    95.91779    45.42521    41.22921
   564  C   4.0    0.03    4.45    4.47    93.79833    46.08484    39.62327
   565  C   4.0    0.15    3.50    3.11    94.06227    48.70180    38.46077
   566  O   6.0   -0.32    1.36    1.80    93.06609    49.09865    36.39832
   567  C   4.0   -0.02    4.28    4.15    91.15436    45.97320    40.83757
   568  C   4.0   -0.08    4.11    3.82    90.77986    43.29138    41.81504
   569  C   4.0   -0.08    4.16    3.93    90.92598    48.11782    42.75284
   570  H   1.0    0.09    1.02    1.43    95.68244    45.61020    43.12535
   571  H   1.0    0.05    1.07    1.44    93.70284    44.73922    38.06707
   572  H   1.0    0.05    1.06    1.44    89.83177    46.33738    39.28353
   573  H   1.0    0.04    1.00    1.43    88.94894    42.94935    42.66901
   574  H   1.0    0.04    1.01    1.43    90.92976    42.00778    40.22057
   575  H   1.0    0.04    1.01    1.43    92.26030    42.89508    43.17116
   576  H   1.0    0.03    1.00    1.43    89.76537    47.60352    44.36166
   577  H   1.0    0.06    1.05    1.44    92.80149    48.57300    43.40496
   578  H   1.0    0.04    1.00    1.43    90.16487    49.80086    41.85058
   579  N   5.0   -0.15    3.54    2.10    95.33367    50.42274    39.77421
   580  C   4.0    0.04    4.44    4.44    95.97192    52.83591    38.65549
   581  C   4.0    0.08    3.32    3.06    98.06472    52.30033    36.77648
   582  O   6.0   -0.31    1.28    1.80    97.97210    53.13521    34.61555
   583  C   4.0   -0.02    4.32    4.23    96.72499    54.95443    40.50809
   584  C   4.0   -0.04    4.22    4.04    99.48739    54.69771    41.30531
   585  C   4.0   -0.08    4.17    3.94    94.88302    54.95473    42.70348
   586  C   4.0   -0.07    4.01    3.64   100.49942    56.84932    42.91417
   587  H   1.0    0.11    1.14    1.45    96.01883    50.00034    41.50712
   588  H   1.0    0.06    1.07    1.44    94.30582    53.47619    37.59828
   589  H   1.0    0.04    1.06    1.44    96.52030    56.72844    39.45958
   590  H   1.0    0.05    1.03    1.43    99.73727    52.90792    42.28817
   591  H   1.0    0.05    1.05    1.44   100.62786    54.69020    39.59114
   592  H   1.0    0.04    1.01    1.43    95.44269    56.32951    44.10860
   593  H   1.0    0.04    1.01    1.43    93.01123    55.37720    41.99401
   594  H   1.0    0.07    1.04    1.44    94.84454    53.12248    43.58522
   595  H   1.0    0.04    1.00    1.43   102.47212    56.47272    43.33839
   596  H   1.0    0.04    1.00    1.43   100.41487    58.60125    41.85163
   597  H   1.0    0.04    1.00    1.43    99.45803    57.05829    44.67106
   598  N   5.0   -0.20    3.31    1.98    94.71250    49.96056    31.84226
   599  C   4.0    0.03    4.35    4.29    93.10715    51.84078    30.64866
   600  C   4.0    0.14    3.44    3.09    94.62589    53.33875    28.67522
   601  O   6.0   -0.28    1.24    1.80    93.70792    54.20255    26.76429
   602  C   4.0   -0.03    4.35    4.28    92.26455    53.88347    32.54190
   603  C   4.0    0.06    3.76    3.29    89.89769    53.31098    33.94612
   604  N   5.0   -0.17    2.54    1.90    89.77911    53.39167    36.51667
   605  C   4.0   -0.02    3.60    3.17    87.54128    52.82226    32.98603
   606  C   4.0    0.07    3.65    3.20    87.42099    52.93164    37.08776
   607  N   5.0   -0.12    3.46    2.06    85.97566    52.59331    35.01791
   608  H   1.0    0.13    1.11    1.45    94.61703    49.96185    33.77474
   609  H   1.0    0.04    1.04    1.43    91.43077    51.02603    29.73728
   610  H   1.0    0.06    1.05    1.44    93.78555    54.16405    33.89404
   611  H   1.0    0.04    1.04    1.43    91.97386    55.62609    31.45725
   612  H   1.0    0.04    1.01    1.43    86.92768    52.62031    31.06719
   613  H   1.0    0.04    1.02    1.43    86.68728    52.80120    38.96681
   614  H   1.0    0.10    1.08    1.44    84.07964    52.31975    35.02733
   615  N   5.0   -0.14    3.56    2.12    96.95098    53.81843    29.58303
   616  C   4.0    0.04    4.27    4.15    98.88348    55.31179    28.36529
   617  C   4.0    0.09    3.21    3.04    99.76460    53.94776    25.93122
   618  O   6.0   -0.26    1.11    1.80   100.09905    55.04481    23.93595
   619  C   4.0   -0.04    4.27    4.14   101.14226    55.64057    30.15498
   620  C   4.0    0.02    3.75    3.28   100.57515    56.83276    32.65450
   621  N   5.0   -0.12    3.60    2.16    98.39071    58.11485    33.27430
   622  C   4.0    0.03    3.65    3.20   102.12925    57.11843    34.70747
   623  C   4.0    0.06    3.64    3.19    98.71442    59.00151    35.68199
   624  N   5.0   -0.19    2.45    1.90   100.94793    58.46716    36.55102
   625  H   1.0    0.11    1.15    1.45    97.42102    52.89433    31.20678
   626  H   1.0    0.06    1.05    1.44    98.08133    57.12818    27.76350
   627  H   1.0    0.05    1.03    1.43   101.98412    53.78607    30.49126
   628  H   1.0    0.04    1.03    1.43   102.58977    56.73326    29.16380
   629  H   1.0    0.08    1.05    1.44    96.72817    57.91969    32.36201
   630  H   1.0    0.04    1.02    1.43   104.02126    56.44538    34.94411
   631  H   1.0    0.03    1.02    1.43    97.32054    60.09506    36.65965
   632  N   5.0   -0.18    3.19    1.95    96.07594    48.81625    24.13420
   633  C   4.0    0.04    4.23    4.07    93.69446    48.50459    22.84309
   634  C   4.0    0.26    3.17    3.03    93.29037    50.55799    20.72136
   635  O   6.0   -0.27    1.17    1.80    91.83962    49.87152    18.99864
   636  C   4.0    0.04    4.14    3.89    91.40673    48.63437    24.62912
   637  O   6.0   -0.25    2.03    1.83    89.87008    46.48094    24.47998
   638  O   6.0   -0.25    1.17    1.80    94.36121    52.61842    21.00060
   639  H   1.0    0.09    1.03    1.43    95.95091    49.22735    25.99217
   640  H   1.0    0.06    1.05    1.44    93.65929    46.66695    21.88430
   641  H   1.0    0.04    1.02    1.43    92.05935    48.95760    26.55716
   642  H   1.0    0.06    1.02    1.43    90.20193    50.24211    24.13825
   643  H   1.0    0.12    1.02    1.43    90.71170    45.05697    25.26133
   644  N   5.0   -0.21    3.20    1.96    70.46192    74.37448    29.56471
   645  C   4.0    0.03    4.26    4.13    72.70420    74.45738    31.12388
   646  C   4.0    0.10    3.23    3.04    72.32546    76.21422    33.39080
   647  O   6.0   -0.31    1.15    1.80    72.43408    75.40518    35.55804
   648  C   4.0    0.05    4.17    3.95    75.23066    74.87936    29.69650
   649  O   6.0   -0.26    2.15    1.85    76.72948    76.42284    31.29068
   650  C   4.0   -0.07    4.06    3.73    75.01068    75.93392    27.01534
   651  H   1.0    0.08    1.03    1.43    70.46819    75.33864    27.92213
   652  H   1.0    0.04    1.09    1.44    72.76630    72.61516    32.04364
   653  H   1.0    0.03    1.05    1.44    76.12129    73.01071    29.57331
   654  H   1.0    0.12    1.03    1.43    78.25818    76.88384    30.41220
   655  H   1.0    0.04    1.00    1.43    76.87480    76.10284    26.15899
   656  H   1.0    0.04    1.00    1.43    73.92822    74.65450    25.82875
   657  H   1.0    0.05    1.00    1.43    74.15306    77.79705    27.02158
   658  N   5.0   -0.20    3.25    1.97    68.75660    73.24961    39.10746
   659  C   4.0    0.03    4.34    4.27    70.29746    71.78520    40.81995
   660  C   4.0    0.08    3.29    3.05    71.49542    73.46396    42.81294
   661  O   6.0   -0.33    1.20    1.80    71.60290    72.80722    45.02996
   662  C   4.0   -0.02    4.43    4.44    72.46841    70.62810    39.33172
   663  C   4.0   -0.05    4.22    4.04    71.57242    68.88096    37.22784
   664  C   4.0   -0.08    4.16    3.92    74.38029    69.34194    41.06148
   665  C   4.0   -0.08    4.05    3.70    70.44109    66.44389    38.19745
   666  H   1.0    0.10    1.05    1.44    69.37999    73.37634    37.30340
   667  H   1.0    0.04    1.05    1.44    69.17450    70.35460    41.79778
   668  H   1.0    0.05    1.10    1.44    73.35591    72.26898    38.47097
   669  H   1.0    0.04    1.03    1.43    70.23152    69.86526    36.01187
   670  H   1.0    0.03    1.06    1.44    73.22712    68.38687    36.13699
   671  H   1.0    0.04    1.00    1.43    75.65589    68.18762    39.94753
   672  H   1.0    0.05    1.00    1.43    75.49970    70.73531    42.07279
   673  H   1.0    0.04    1.00    1.43    73.43655    68.16359    42.45032
   674  H   1.0    0.04    1.00    1.43    69.80879    65.32693    36.60371
   675  H   1.0    0.04    1.00    1.43    71.85844    65.40080    39.25190
   676  H   1.0    0.04    1.00    1.43    68.84123    66.82667    39.41982
   677  N   5.0   -0.21    3.25    1.97    71.24520    72.70758    50.27386
   678  C   4.0    0.03    4.25    4.10    73.32664    72.68835    52.04313
   679  C   4.0    0.07    3.21    3.04    72.84284    74.57674    54.15798
   680  O   6.0   -0.33    1.17    1.80    73.21731    74.03040    56.38286
   681  C   4.0   -0.05    4.37    4.34    75.75203    73.36404    50.64155
   682  C   4.0   -0.02    4.21    4.02    76.33942    71.49472    48.51328
   683  C   4.0   -0.07    4.12    3.83    78.78429    72.27535    47.21745
   684  C   4.0   -0.08    4.13    3.86    76.49433    68.80530    49.51983
   685  H   1.0    0.12    1.08    1.44    71.64614    73.03971    48.42818
   686  H   1.0    0.04    1.05    1.44    73.47478    70.82399    52.94277
   687  H   1.0    0.04    1.03    1.43    75.52197    75.25704    49.85604
   688  H   1.0    0.04    1.03    1.43    77.31840    73.39386    51.98415
   689  H   1.0    0.06    1.07    1.44    74.83788    71.57091    47.10006
   690  H   1.0    0.05    1.01    1.43    79.25542    70.95248    45.72594
   691  H   1.0    0.05    1.00    1.43    78.59432    74.13887    46.37083
   692  H   1.0    0.05    1.00    1.43    80.33890    72.32723    48.55914
   693  H   1.0    0.04    1.01    1.43    77.18247    67.54218    48.06392
   694  H   1.0    0.06    1.03    1.43    77.78405    68.68622    51.10768
   695  H   1.0    0.04    1.00    1.43    74.65188    68.13257    50.12288
   696  N   5.0   -0.20    3.23    1.96    67.23935    73.16916    58.28656
   697  C   4.0    0.03    4.36    4.31    67.94215    71.04832    59.86055
   698  C   4.0    0.15    3.46    3.10    69.63595    71.94334    62.01022
   699  O   6.0   -0.32    1.33    1.80    69.21052    71.25118    64.18760
   700  C   4.0    0.05    4.21    4.03    69.13004    68.90001    58.26382
   701  O   6.0   -0.26    2.12    1.84    67.31179    67.90665    56.59328
   702  C   4.0   -0.07    4.10    3.80    69.97422    66.71632    59.94368
   703  H   1.0    0.09    1.03    1.43    67.84305    73.11851    56.47362
   704  H   1.0    0.05    1.05    1.44    66.23174    70.27635    60.75511
   705  H   1.0    0.05    1.03    1.43    70.74752    69.67485    57.21099
   706  H   1.0    0.11    1.02    1.43    67.20845    68.96933    55.10494
   707  H   1.0    0.04    1.00    1.43    70.81126    65.23848    58.78791
   708  H   1.0    0.05    1.00    1.43    71.32716    67.32973    61.35659
   709  H   1.0    0.05    1.00    1.43    68.31085    65.94249    60.86264
   710  N   5.0   -0.15    3.47    2.06    71.49682    73.53952    61.44238
   711  C   4.0    0.04    4.41    4.39    73.10374    74.44839    63.48345
   712  C   4.0    0.09    3.27    3.05    71.38617    75.77724    65.40125
   713  O   6.0   -0.30    1.13    1.80    71.55478    75.34099    67.67555
   714  C   4.0   -0.02    4.29    4.18    75.39253    75.94340    62.46615
   715  C   4.0   -0.05    4.19    3.97    77.66104    75.80365    64.27284
   716  C   4.0   -0.07    4.10    3.81    74.85536    78.68474    61.77098
   717  C   4.0   -0.07    4.04    3.69    77.12272    76.71685    66.93969
   718  H   1.0    0.11    1.10    1.44    71.95013    73.96847    59.62531
   719  H   1.0    0.05    1.06    1.44    73.85764    72.79251    64.49048
   720  H   1.0    0.05    1.07    1.44    75.92485    74.93383    60.73878
   721  H   1.0    0.04    1.04    1.43    78.27788    73.84694    64.42530
   722  H   1.0    0.04    1.03    1.43    79.19608    76.90661    63.44201
   723  H   1.0    0.04    1.00    1.43    76.43516    79.43660    60.69307
   724  H   1.0    0.05    1.00    1.43    73.14757    78.83402    60.65486
   725  H   1.0    0.04    1.00    1.43    74.64238    79.84896    63.44407
   726  H   1.0    0.04    1.00    1.43    78.86631    76.89307    68.00882
   727  H   1.0    0.05    1.00    1.43    76.15634    78.52600    66.97196
   728  H   1.0    0.06    1.01    1.43    75.93986    75.33726    67.88494
   729  N   5.0   -0.19    3.23    1.96    67.74879    71.31012    69.25587
   730  C   4.0    0.04    4.24    4.08    69.29622    69.87542    70.99964
   731  C   4.0    0.09    3.22    3.04    69.87075    71.54743    73.28557
   732  O   6.0   -0.29    1.13    1.80    69.64989    70.78301    75.46641
   733  C   4.0   -0.03    4.30    4.21    71.65516    68.90224    69.65406
   734  C   4.0   -0.02    3.53    3.13    73.28993    67.12194    71.16725
   735  C   4.0   -0.04    3.46    3.10    75.47711    66.15720    70.05927
   736  C   4.0   -0.03    3.50    3.12    72.76000    66.46209    73.65125
   737  C   4.0   -0.04    3.37    3.07    77.18620    64.77795    71.47176
   738  C   4.0   -0.04    3.37    3.07    74.48666    65.11062    75.08510
   739  C   4.0   -0.04    3.38    3.07    76.74048    64.33456    74.01433
   740  H   1.0    0.13    1.07    1.44    68.41033    71.60765    67.48327
   741  H   1.0    0.05    1.05    1.44    68.14558    68.29250    71.69562
   742  H   1.0    0.05    1.03    1.43    71.00960    67.98171    67.92049
   743  H   1.0    0.06    1.03    1.43    72.81575    70.51962    69.08399
   744  H   1.0    0.05    1.03    1.43    75.83664    66.49409    68.07660
   745  H   1.0    0.07    1.05    1.44    71.01253    67.02369    74.52101
   746  H   1.0    0.05    1.03    1.43    78.89382    64.08177    70.60250
   747  H   1.0    0.06    1.03    1.43    74.08121    64.69157    77.04465
   748  H   1.0    0.05    1.03    1.43    78.12757    63.38459    75.15714
   749  H   1.0    0.09    1.07    1.44    99.74985    71.66874    23.07071
   750  H   1.0    0.06    1.05    1.44   100.75191    76.28755    28.07890
   751  H   1.0    0.09    1.07    1.44    99.44160    81.67556    30.28256
   752  H   1.0    0.06    1.05    1.44    99.65527    75.28686    36.49827
   753  H   1.0    0.10    1.07    1.44    97.78890    81.03467    42.04297
   754  H   1.0    0.06    1.04    1.44   102.44624    77.40015    47.41399
   755  H   1.0    0.10    1.07    1.44    96.82819    79.93602    53.73092
   756  H   1.0    0.07    1.05    1.44   100.93146    75.19785    56.06865
   757  H   1.0    0.10    1.07    1.44    98.70066    77.39027    64.95871
   758  H   1.0    0.06    1.05    1.44   104.42932    75.47128    66.93559
   759  H   1.0    0.09    1.07    1.44    71.62096    53.35883    58.86351
   760  H   1.0    0.06    1.05    1.44    74.57097    47.99368    56.88355
   761  H   1.0    0.09    1.07    1.44    71.04305    52.38070    50.65586
   762  H   1.0    0.06    1.05    1.44    76.27271    46.32104    46.71136
   763  H   1.0    0.09    1.07    1.44    75.68804    52.40445    41.37713
   764  H   1.0    0.06    1.04    1.44    79.65703    48.99521    38.89908
   765  H   1.0    0.09    1.10    1.44    77.25366    53.26609    30.58107
   766  H   1.0    0.06    1.05    1.44    77.42839    48.51731    26.08962
   767  H   1.0    0.10    1.07    1.44    77.01350    55.97032    23.47376
   768  H   1.0    0.07    1.04    1.43    87.96809    58.57625    77.65714
   769  H   1.0    0.09    1.07    1.44    91.66256    47.06327    57.39250
   770  H   1.0    0.05    1.04    1.43    97.68008    45.42735    55.36323
   771  H   1.0    0.09    1.07    1.44    92.32111    45.86721    48.75397
   772  H   1.0    0.07    1.04    1.43    97.67168    49.22155    48.01254
   773  H   1.0    0.09    1.07    1.44    96.32937    43.79329    40.98427
   774  H   1.0    0.05    1.05    1.44    99.55061    51.25201    37.29052
   775  H   1.0    0.10    1.07    1.44    94.25618    48.40862    31.31709
   776  H   1.0    0.06    1.05    1.44   100.08444    52.08545    25.95479
   777  H   1.0    0.09    1.07    1.44    96.97640    47.37799    24.01950
   778  H   1.0    0.09    1.07    1.44    70.13561    72.76436    29.12471
   779  H   1.0    0.06    1.04    1.44    71.98346    78.05217    33.11504
   780  H   1.0    0.09    1.07    1.44    67.20173    72.56638    39.01729
   781  H   1.0    0.06    1.05    1.44    72.21613    75.14168    42.32622
   782  H   1.0    0.09    1.07    1.44    70.46762    71.19514    50.29560
   783  H   1.0    0.05    1.05    1.44    72.20521    76.30844    53.75088
   784  H   1.0    0.10    1.07    1.44    65.54408    73.28212    58.20995
   785  H   1.0    0.06    1.05    1.44    70.09765    77.02633    64.80916
   786  H   1.0    0.10    1.07    1.44    66.25857    70.52021    69.03715
   787  H   1.0    0.07    1.05    1.44    70.44802    73.32886    73.03196

  Z AO/shell   Hii/eV     exponent
  1     Wed Apr 25 08:07:45 CEST 2018   EN: 2.200 GM2: 0.406  GM3: 0.0800  RAES: 1.40
     1s    -10.707211    1.230000
  6     Wed Apr 25 08:07:45 CEST 2018   EN: 2.550 GM2: 0.538  GM3: 0.1500  RAES: 3.00
     2s    -13.970922    2.096432
     2p    -10.063292    1.800000
  7     Wed Apr 25 08:07:45 CEST 2018   EN: 3.040 GM2: 0.461  GM3:-0.0640  RAES: 1.90
     2s    -16.686243    2.339881
     2p    -12.523956    2.014332
  8     Wed Apr 25 08:07:45 CEST 2018   EN: 3.440 GM2: 0.452  GM3:-0.0517  RAES: 1.80
     2s    -20.229985    2.439742
     2p    -15.503117    2.137023
 16     Tue Apr 24 11:44:34 CEST 2018   EN: 2.580 GM2: 0.340  GM3:-0.0502  RAES: 3.10
     3s    -20.029654    1.981333
     3p    -11.377694    2.025643
     3d     -0.420282    1.702555
 no old-style atom pair restraining (fixing) potential

molecular fragmentation (1/2 indicates fragments):
111111111111111111111122222222222222222222222222222222222222222222222222
222222222222222222222222222222222222222222222222222222222222222222222222
222222222222222222222222222222222222222222222222222222222222222222222222
222222222222222222222222222222222222222222222222222222222222222222222222
222222222222222222222222222222222222222222222222222222222222222222222222
222222222222222222222222222222222222222222222222222222222222222222222222
222222222222222222222222222222222222222222222222222222222222222222222222
222222222222222222222222222222222222222222222222222222222222222222222222
222222222222222222222222222222222222222222222222222222222222222222222222
222222222222222222222222222222222222222222222222222222222222222222222222
2222222222222222222222222222112222222222222222222222222222222222222
# atoms in fragment 1/2:    24   763
 fragment masses (1/2) :      131.20     4939.23
CMA distance (Bohr)    :  24.252
constraining FC (au)   :  0.0500
           ------------------------------------------------- 
          |        Self-Consistent Charge Iterations        |
           ------------------------------------------------- 

 Ncao       : 1858
 Nao        : 1857
 Nshell     : 1143
 Nel        : 2030
 T(el)      :   500.0
 intcut     :    35.0
 scfconv/Eh :  0.100E-06
   qconv/e  :  0.100E-04
 intneglect :  0.100E-08
 broydamp   :      0.400
 iter      E             dE          RMSdq      gap      omega  full diag
   1  -1153.2766937 -0.115328E+04  0.439E+00    2.92       0.0  T
   2  -1155.6880091 -0.241132E+01  0.210E+00    1.41       1.0  T
   3  -1155.8309021 -0.142893E+00  0.120E+00    1.41       1.0  T
   4  -1156.0295955 -0.198693E+00  0.249E-01    0.61       1.0  T
   5  -1156.0390001 -0.940453E-02  0.125E-01    0.87       1.0  T
   6  -1156.0411463 -0.214629E-02  0.599E-02    0.95       1.0  T
   7  -1156.0417605 -0.614159E-03  0.314E-02    0.99       1.0  T
   8  -1156.0419168 -0.156305E-03  0.159E-02    1.03       1.0  T
   9  -1156.0419655 -0.487121E-04  0.845E-03    1.05       1.0  T
  10  -1156.0419773 -0.117467E-04  0.395E-03    1.06       1.0  T
  11  -1156.0419799 -0.261667E-05  0.189E-03    1.06       1.9  T
  12  -1156.0419807 -0.773741E-06  0.876E-04    1.06       4.1  T
  13  -1156.0419808 -0.166595E-06  0.404E-04    1.06       8.8  T
  14  -1156.0419808 -0.212608E-07  0.191E-04    1.06      18.7  T
  15  -1156.0419809 -0.808336E-08  0.853E-05    1.06      41.8  T
  16  -1156.0419809 -0.148452E-08  0.447E-05    1.06      79.7  T
speedup  1.00
cpu  time for SCC   34.87 s
wall time for SCC   34.87 s

   *** convergence criteria satisfied after 16 iterations ***

          eigenvalues
 #    :        1003       1004       1005       1006       1007       1008       1009       1010
 occ. :        2.000      2.000      2.000      2.000      2.000      2.000      2.000      2.000
 eps  :        -9.904     -9.850     -9.826     -9.752     -9.748     -9.738     -9.696     -9.629
 #    :        1011       1012       1013       1014       1015       1016       1017       1018
 occ. :        2.000      2.000      2.000      2.000      2.000      0.000      0.000      0.000
 eps  :        -9.534     -9.522     -9.479     -9.475     -9.235     -8.174     -7.995     -7.980
 #    :        1019       1020       1021       1022       1023       1024       1025       1026
 occ. :        0.000      0.000      0.000      0.000      0.000      0.000      0.000      0.000
 eps  :        -7.835     -7.829     -7.800     -7.748     -7.703     -7.637     -7.611     -7.604


   #   Z            q   n(s)   n(p)   n(d)      C6AA      α(0)
   1   7 N     -0.391  1.315  4.076  0.000    30.117     8.151
   2   6 C      0.030  1.059  2.911  0.000    20.088     6.385
   3   6 C      0.195  1.093  2.712  0.000    23.834     7.995
   4   8 O     -0.343  1.739  4.605  0.000    20.581     6.082
   5   6 C     -0.082  1.056  3.027  0.000    22.068     6.688
   6   6 C     -0.090  1.052  3.037  0.000    22.206     6.709
   7   6 C     -0.101  1.058  3.043  0.000    22.435     6.744
   8   6 C     -0.064  1.065  2.999  0.000    21.819     6.668
   9   7 N     -0.137  1.224  3.914  0.000    23.966     7.271
  10   1 H      0.162  0.838  0.000  0.000     1.322     1.801
  11   1 H      0.062  0.938  0.000  0.000     2.175     2.306
  12   1 H      0.052  0.948  0.000  0.000     2.300     2.372
  13   1 H      0.045  0.955  0.000  0.000     2.385     2.415
  14   1 H      0.049  0.951  0.000  0.000     2.330     2.387
  15   1 H      0.085  0.915  0.000  0.000     1.923     2.169
  16   1 H      0.084  0.916  0.000  0.000     1.940     2.178
  17   1 H      0.074  0.926  0.000  0.000     2.041     2.234
  18   1 H      0.131  0.869  0.000  0.000     1.525     1.931
  19   1 H      0.127  0.873  0.000  0.000     1.555     1.950
  20   1 H      0.293  0.707  0.000  0.000     0.736     1.344
  21   1 H      0.255  0.745  0.000  0.000     0.864     1.456
  22   1 H      0.280  0.720  0.000  0.000     0.775     1.379
  23   7 N     -0.383  1.306  4.076  0.000    29.898     8.121
  24   6 C      0.025  1.058  2.917  0.000    20.161     6.395
  25   6 C      0.275  1.047  2.678  0.000    22.348     7.742
  26   8 O     -0.492  1.744  4.748  0.000    23.615     6.515
  27   6 C      0.074  1.038  2.888  0.000    19.549     6.334
  28   8 O     -0.471  1.707  4.764  0.000    22.285     6.373
  29   1 H      0.173  0.827  0.000  0.000     1.256     1.755
  30   1 H      0.044  0.956  0.000  0.000     2.393     2.419
  31   1 H      0.023  0.977  0.000  0.000     2.683     2.562
  32   1 H      0.035  0.965  0.000  0.000     2.513     2.479
  33   1 H      0.342  0.658  0.000  0.000     0.606     1.223
  34   7 N     -0.165  1.251  3.914  0.000    24.569     7.362
  35   6 C      0.004  1.067  2.929  0.000    20.519     6.451
  36   6 C      0.204  1.090  2.706  0.000    23.670     7.968
  37   8 O     -0.355  1.740  4.615  0.000    20.806     6.115
  38   6 C      0.098  1.055  2.846  0.000    19.052     6.232
  39   8 O     -0.467  1.713  4.755  0.000    22.204     6.361
  40   6 C     -0.175  1.051  3.124  0.000    23.982     6.983
  41   1 H      0.226  0.774  0.000  0.000     0.981     1.551
  42   1 H      0.091  0.909  0.000  0.000     1.870     2.139
  43   1 H      0.070  0.930  0.000  0.000     2.089     2.260
  44   1 H      0.343  0.657  0.000  0.000     0.604     1.221
  45   1 H      0.099  0.901  0.000  0.000     1.792     2.093
  46   1 H      0.102  0.898  0.000  0.000     1.767     2.079
  47   1 H      0.064  0.936  0.000  0.000     2.154     2.295
  48   7 N     -0.407  1.308  4.099  0.000    30.571     8.212
  49   6 C      0.021  1.062  2.917  0.000    20.235     6.408
  50   6 C      0.273  1.047  2.680  0.000    22.387     7.748
  51   8 O     -0.506  1.749  4.756  0.000    23.907     6.556
  52   6 C      0.077  1.037  2.885  0.000    19.506     6.328
  53   8 O     -0.473  1.709  4.764  0.000    22.329     6.379
  54   1 H      0.185  0.815  0.000  0.000     1.188     1.707
  55   1 H      0.018  0.982  0.000  0.000     2.760     2.598
  56   1 H      0.035  0.965  0.000  0.000     2.522     2.483
  57   1 H      0.026  0.974  0.000  0.000     2.646     2.544
  58   1 H      0.340  0.660  0.000  0.000     0.613     1.230
  59   7 N     -0.166  1.244  3.922  0.000    24.587     7.364
  60   6 C      0.019  1.064  2.918  0.000    20.265     6.410
  61   6 C      0.206  1.083  2.711  0.000    23.629     7.961
  62   8 O     -0.372  1.762  4.609  0.000    21.123     6.162
  63   6 C     -0.020  1.062  2.958  0.000    20.896     6.502
  64   6 C     -0.124  1.041  3.083  0.000    22.926     6.826
  65   6 C     -0.143  1.046  3.096  0.000    23.302     6.882
  66   1 H      0.240  0.760  0.000  0.000     0.924     1.506
  67   1 H      0.089  0.911  0.000  0.000     1.888     2.149
  68   1 H      0.051  0.949  0.000  0.000     2.313     2.378
  69   1 H      0.067  0.933  0.000  0.000     2.121     2.278
  70   1 H      0.028  0.972  0.000  0.000     2.609     2.526
  71   1 H      0.055  0.945  0.000  0.000     2.263     2.353
  72   1 H      0.078  0.922  0.000  0.000     1.996     2.209
  73   1 H      0.067  0.933  0.000  0.000     2.120     2.277
  74   1 H      0.067  0.933  0.000  0.000     2.123     2.279
  75   7 N     -0.404  1.316  4.088  0.000    30.485     8.200
  76   6 C      0.051  1.049  2.899  0.000    19.732     6.328
  77   6 C      0.199  1.097  2.704  0.000    23.752     7.982
  78   8 O     -0.376  1.748  4.628  0.000    21.204     6.174
  79   6 C     -0.116  1.042  3.073  0.000    22.759     6.800
  80   1 H      0.189  0.811  0.000  0.000     1.163     1.689
  81   1 H      0.030  0.970  0.000  0.000     2.585     2.514
  82   1 H      0.044  0.956  0.000  0.000     2.402     2.424
  83   1 H      0.059  0.941  0.000  0.000     2.210     2.325
  84   1 H      0.067  0.933  0.000  0.000     2.119     2.276
  85   7 N     -0.405  1.317  4.088  0.000    30.513     8.204
  86   6 C      0.047  1.052  2.901  0.000    19.806     6.340
  87   6 C      0.198  1.096  2.705  0.000    23.773     7.985
  88   8 O     -0.396  1.767  4.629  0.000    21.593     6.230
  89   6 C     -0.071  1.056  3.015  0.000    21.850     6.654
  90   6 C      0.019  1.084  2.897  0.000    27.586     8.615
  91   6 C     -0.045  1.082  2.963  0.000    29.114     8.849
  92   6 C     -0.036  1.079  2.957  0.000    28.890     8.815
  93   6 C     -0.040  1.081  2.959  0.000    28.984     8.829
  94   6 C     -0.037  1.081  2.956  0.000    28.914     8.818
  95   6 C     -0.045  1.079  2.966  0.000    29.117     8.849
  96   1 H      0.202  0.798  0.000  0.000     1.094     1.638
  97   1 H      0.036  0.964  0.000  0.000     2.509     2.477
  98   1 H      0.068  0.932  0.000  0.000     2.111     2.272
  99   1 H      0.050  0.950  0.000  0.000     2.317     2.380
 100   1 H      0.042  0.958  0.000  0.000     2.424     2.435
 101   1 H      0.036  0.964  0.000  0.000     2.506     2.476
 102   1 H      0.047  0.953  0.000  0.000     2.359     2.402
 103   1 H      0.035  0.965  0.000  0.000     2.513     2.479
 104   1 H      0.039  0.961  0.000  0.000     2.461     2.453
 105   7 N     -0.392  1.319  4.072  0.000    30.145     8.154
 106   6 C      0.041  1.051  2.908  0.000    19.900     6.354
 107   6 C      0.199  1.096  2.705  0.000    23.768     7.984
 108   8 O     -0.357  1.733  4.625  0.000    20.848     6.122
 109   6 C     -0.074  1.056  3.018  0.000    21.896     6.660
 110   6 C      0.000  1.080  2.920  0.000    28.014     8.682
 111   6 C     -0.042  1.081  2.961  0.000    29.046     8.838
 112   6 C     -0.046  1.079  2.967  0.000    29.132     8.852
 113   6 C     -0.032  1.080  2.952  0.000    28.795     8.800
 114   6 C     -0.041  1.083  2.958  0.000    29.021     8.834
 115   6 C     -0.035  1.079  2.957  0.000    28.874     8.812
 116   1 H      0.168  0.832  0.000  0.000     1.287     1.777
 117   1 H      0.060  0.940  0.000  0.000     2.201     2.320
 118   1 H      0.066  0.934  0.000  0.000     2.136     2.285
 119   1 H      0.058  0.942  0.000  0.000     2.225     2.333
 120   1 H      0.030  0.970  0.000  0.000     2.581     2.512
 121   1 H      0.049  0.951  0.000  0.000     2.330     2.387
 122   1 H      0.034  0.966  0.000  0.000     2.530     2.487
 123   1 H      0.062  0.938  0.000  0.000     2.174     2.306
 124   1 H      0.038  0.962  0.000  0.000     2.481     2.463
 125   7 N     -0.391  1.311  4.080  0.000    30.123     8.151
 126   6 C      0.034  1.054  2.911  0.000    20.010     6.372
 127   6 C      0.262  1.051  2.687  0.000    22.577     7.782
 128   8 O     -0.492  1.739  4.753  0.000    23.598     6.513
 129   6 C     -0.072  1.059  3.013  0.000    21.866     6.654
 130   6 C     -0.008  1.054  2.954  0.000    20.686     6.469
 131   6 C     -0.114  1.042  3.073  0.000    22.735     6.798
 132   6 C     -0.116  1.040  3.076  0.000    22.771     6.803
 133   1 H      0.152  0.848  0.000  0.000     1.391     1.847
 134   1 H      0.040  0.960  0.000  0.000     2.450     2.448
 135   1 H      0.047  0.953  0.000  0.000     2.358     2.401
 136   1 H      0.052  0.948  0.000  0.000     2.300     2.372
 137   1 H      0.024  0.976  0.000  0.000     2.672     2.556
 138   1 H      0.035  0.965  0.000  0.000     2.517     2.481
 139   1 H      0.041  0.959  0.000  0.000     2.439     2.442
 140   1 H      0.044  0.956  0.000  0.000     2.397     2.421
 141   1 H      0.038  0.962  0.000  0.000     2.473     2.459
 142   1 H      0.046  0.954  0.000  0.000     2.373     2.409
 143   1 H      0.037  0.963  0.000  0.000     2.487     2.466
 144   7 N     -0.185  1.246  3.939  0.000    24.999     7.426
 145   6 C      0.002  1.062  2.936  0.000    20.555     6.456
 146   6 C      0.196  1.082  2.721  0.000    23.811     7.992
 147   8 O     -0.349  1.753  4.596  0.000    20.694     6.099
 148   6 C      0.114  1.044  2.842  0.000    18.801     6.190
 149   8 O     -0.481  1.726  4.755  0.000    22.488     6.402
 150   6 C     -0.142  1.046  3.097  0.000    23.304     6.884
 151   1 H      0.248  0.752  0.000  0.000     0.891     1.478
 152   1 H      0.105  0.895  0.000  0.000     1.744     2.065
 153   1 H      0.051  0.949  0.000  0.000     2.301     2.372
 154   1 H      0.331  0.669  0.000  0.000     0.635     1.251
 155   1 H      0.068  0.932  0.000  0.000     2.112     2.272
 156   1 H      0.062  0.938  0.000  0.000     2.176     2.307
 157   1 H      0.069  0.931  0.000  0.000     2.093     2.262
 158   7 N     -0.417  1.328  4.089  0.000    30.862     8.251
 159   6 C      0.041  1.062  2.897  0.000    19.901     6.354
 160   6 C      0.202  1.099  2.699  0.000    23.695     7.972
 161   8 O     -0.393  1.741  4.652  0.000    21.536     6.222
 162   6 C     -0.019  1.063  2.957  0.000    20.881     6.499
 163   6 C     -0.120  1.038  3.082  0.000    22.861     6.817
 164   6 C     -0.128  1.044  3.084  0.000    23.004     6.838
 165   1 H      0.188  0.812  0.000  0.000     1.168     1.693
 166   1 H      0.050  0.950  0.000  0.000     2.321     2.382
 167   1 H      0.075  0.925  0.000  0.000     2.028     2.227
 168   1 H      0.046  0.954  0.000  0.000     2.373     2.409
 169   1 H      0.051  0.949  0.000  0.000     2.310     2.377
 170   1 H      0.025  0.975  0.000  0.000     2.657     2.549
 171   1 H      0.053  0.947  0.000  0.000     2.280     2.361
 172   1 H      0.050  0.950  0.000  0.000     2.323     2.383
 173   1 H      0.054  0.946  0.000  0.000     2.265     2.354
 174   7 N     -0.278  1.247  4.032  0.000    27.181     7.743
 175   6 C      0.031  1.061  2.908  0.000    20.038     6.372
 176   6 C      0.198  1.091  2.710  0.000    23.775     7.985
 177   8 O     -0.387  1.757  4.630  0.000    21.425     6.206
 178   6 C     -0.051  1.050  3.001  0.000    21.479     6.596
 179   6 C     -0.067  1.051  3.016  0.000    21.763     6.639
 180   6 C      0.004  1.045  2.951  0.000    20.552     6.463
 181   1 H      0.045  0.955  0.000  0.000     2.385     2.415
 182   1 H      0.017  0.983  0.000  0.000     2.785     2.610
 183   1 H      0.042  0.958  0.000  0.000     2.426     2.436
 184   1 H      0.034  0.966  0.000  0.000     2.533     2.489
 185   1 H      0.053  0.947  0.000  0.000     2.277     2.360
 186   1 H      0.036  0.964  0.000  0.000     2.501     2.473
 187   1 H      0.058  0.942  0.000  0.000     2.225     2.333
 188   7 N     -0.380  1.299  4.082  0.000    29.836     8.112
 189   6 C     -0.004  1.041  2.963  0.000    20.743     6.500
 190   6 C      0.265  1.046  2.689  0.000    22.528     7.772
 191   8 O     -0.491  1.737  4.753  0.000    23.576     6.510
 192   1 H      0.165  0.835  0.000  0.000     1.303     1.788
[...]
 501   6 C     -0.120  1.042  3.078  0.000    22.851     6.815
 502   1 H      0.231  0.769  0.000  0.000     0.961     1.536
 503   1 H      0.058  0.942  0.000  0.000     2.229     2.335
 504   1 H      0.039  0.961  0.000  0.000     2.468     2.457
 505   1 H      0.057  0.943  0.000  0.000     2.233     2.337
 506   1 H      0.039  0.961  0.000  0.000     2.469     2.457
 507   1 H      0.044  0.956  0.000  0.000     2.392     2.419
 508   1 H      0.055  0.945  0.000  0.000     2.256     2.349
 509   1 H      0.041  0.959  0.000  0.000     2.436     2.441
 510   1 H      0.055  0.945  0.000  0.000     2.256     2.349
 511   7 N     -0.175  1.247  3.928  0.000    24.788     7.394
 512   6 C      0.038  1.063  2.899  0.000    19.934     6.356
 513   6 C      0.216  1.086  2.698  0.000    23.444     7.929
 514   8 O     -0.371  1.752  4.618  0.000    21.108     6.160
 515   6 C     -0.016  1.064  2.952  0.000    20.820     6.490
 516   6 C     -0.068  1.051  3.016  0.000    21.793     6.646
 517   6 C     -0.117  1.040  3.077  0.000    22.788     6.806
 518   6 C     -0.106  1.036  3.070  0.000    22.582     6.777
 519   1 H      0.222  0.778  0.000  0.000     1.000     1.567
 520   1 H      0.074  0.926  0.000  0.000     2.043     2.235
 521   1 H      0.053  0.947  0.000  0.000     2.288     2.366
 522   1 H      0.043  0.957  0.000  0.000     2.414     2.430
 523   1 H      0.052  0.948  0.000  0.000     2.296     2.370
 524   1 H      0.068  0.932  0.000  0.000     2.111     2.272
 525   1 H      0.033  0.967  0.000  0.000     2.547     2.496
 526   1 H      0.049  0.951  0.000  0.000     2.339     2.391
 527   1 H      0.045  0.955  0.000  0.000     2.381     2.413
 528   1 H      0.033  0.967  0.000  0.000     2.543     2.494
 529   1 H      0.050  0.950  0.000  0.000     2.316     2.380
 530   7 N     -0.386  1.319  4.067  0.000    29.994     8.134
 531   6 C      0.031  1.059  2.910  0.000    20.072     6.382
 532   6 C      0.197  1.095  2.708  0.000    23.794     7.988
 533   8 O     -0.361  1.754  4.608  0.000    20.922     6.133
 534   6 C     -0.022  1.070  2.952  0.000    20.928     6.506
 535   6 C     -0.060  1.050  3.011  0.000    21.658     6.626
 536   6 C     -0.117  1.038  3.079  0.000    22.802     6.809
 537   6 C     -0.111  1.034  3.077  0.000    22.685     6.792
 538   1 H      0.163  0.837  0.000  0.000     1.318     1.798
 539   1 H      0.065  0.935  0.000  0.000     2.145     2.290
 540   1 H      0.043  0.957  0.000  0.000     2.403     2.424
 541   1 H      0.037  0.963  0.000  0.000     2.489     2.467
 542   1 H      0.038  0.962  0.000  0.000     2.472     2.459
 543   1 H      0.049  0.951  0.000  0.000     2.329     2.387
 544   1 H      0.036  0.964  0.000  0.000     2.502     2.474
 545   1 H      0.052  0.948  0.000  0.000     2.297     2.370
 546   1 H      0.031  0.969  0.000  0.000     2.568     2.506
 547   1 H      0.046  0.954  0.000  0.000     2.373     2.409
 548   1 H      0.049  0.951  0.000  0.000     2.331     2.388
 549   7 N     -0.379  1.302  4.078  0.000    29.807     8.108
 550   6 C      0.012  1.062  2.926  0.000    20.386     6.432
 551   6 C      0.196  1.096  2.709  0.000    23.822     7.993
 552   8 O     -0.359  1.736  4.623  0.000    20.881     6.127
 553   6 C      0.117  1.045  2.838  0.000    18.766     6.186
 554   8 O     -0.499  1.722  4.777  0.000    22.880     6.457
 555   6 C     -0.129  1.043  3.086  0.000    23.047     6.846
 556   1 H      0.156  0.844  0.000  0.000     1.361     1.827
 557   1 H      0.066  0.934  0.000  0.000     2.125     2.280
 558   1 H      0.042  0.958  0.000  0.000     2.428     2.437
 559   1 H      0.330  0.670  0.000  0.000     0.638     1.255
 560   1 H      0.063  0.937  0.000  0.000     2.160     2.298
 561   1 H      0.053  0.947  0.000  0.000     2.283     2.363
 562   1 H      0.046  0.954  0.000  0.000     2.373     2.409
 563   7 N     -0.391  1.318  4.073  0.000    30.113     8.150
 564   6 C      0.028  1.058  2.914  0.000    20.108     6.385
 565   6 C      0.264  1.046  2.690  0.000    22.550     7.777
 566   8 O     -0.511  1.751  4.759  0.000    24.020     6.571
 567   6 C     -0.016  1.060  2.955  0.000    20.818     6.489
 568   6 C     -0.113  1.037  3.076  0.000    22.709     6.794
 569   6 C     -0.135  1.041  3.094  0.000    23.154     6.861
 570   1 H      0.159  0.841  0.000  0.000     1.343     1.816
 571   1 H      0.028  0.972  0.000  0.000     2.618     2.531
 572   1 H      0.021  0.979  0.000  0.000     2.713     2.576
 573   1 H      0.044  0.956  0.000  0.000     2.399     2.422
 574   1 H      0.029  0.971  0.000  0.000     2.602     2.523
 575   1 H      0.046  0.954  0.000  0.000     2.365     2.405
 576   1 H      0.046  0.954  0.000  0.000     2.372     2.408
 577   1 H      0.075  0.925  0.000  0.000     2.032     2.229
 578   1 H      0.046  0.954  0.000  0.000     2.370     2.408
 579   7 N     -0.173  1.246  3.928  0.000    24.753     7.389
 580   6 C      0.011  1.063  2.926  0.000    20.396     6.430
 581   6 C      0.195  1.088  2.717  0.000    23.838     7.997
 582   8 O     -0.366  1.739  4.628  0.000    21.023     6.147
 583   6 C     -0.026  1.068  2.958  0.000    21.009     6.519
 584   6 C     -0.071  1.049  3.021  0.000    21.847     6.654
 585   6 C     -0.143  1.043  3.100  0.000    23.307     6.883
 586   6 C     -0.121  1.038  3.083  0.000    22.881     6.822
 587   1 H      0.252  0.748  0.000  0.000     0.876     1.466
 588   1 H      0.102  0.898  0.000  0.000     1.771     2.081
 589   1 H      0.068  0.932  0.000  0.000     2.112     2.273
 590   1 H      0.040  0.960  0.000  0.000     2.449     2.447
 591   1 H      0.043  0.957  0.000  0.000     2.415     2.430
 592   1 H      0.070  0.930  0.000  0.000     2.090     2.261
 593   1 H      0.060  0.940  0.000  0.000     2.194     2.316
 594   1 H      0.065  0.935  0.000  0.000     2.139     2.287
 595   1 H      0.040  0.960  0.000  0.000     2.446     2.445
 596   1 H      0.068  0.932  0.000  0.000     2.108     2.270
 597   1 H      0.042  0.958  0.000  0.000     2.418     2.432
 598   7 N     -0.420  1.328  4.092  0.000    30.949     8.262
 599   6 C      0.047  1.055  2.898  0.000    19.792     6.336
 600   6 C      0.265  1.046  2.689  0.000    22.528     7.773
 601   8 O     -0.500  1.767  4.733  0.000    23.796     6.540
 602   6 C     -0.075  1.055  3.020  0.000    21.926     6.664
 603   6 C      0.059  1.063  2.877  0.000    26.100     8.322
 604   7 N     -0.283  1.476  3.807  0.000    28.185     7.871
 605   6 C     -0.029  1.056  2.973  0.000    28.667     8.781
 606   6 C      0.078  1.059  2.862  0.000    25.905     8.315
 607   7 N     -0.110  1.250  3.860  0.000    23.399     7.184
 608   1 H      0.210  0.790  0.000  0.000     1.057     1.611
 609   1 H     -0.015  1.015  0.000  0.000     3.327     2.853
 610   1 H      0.091  0.909  0.000  0.000     1.872     2.139
 611   1 H      0.035  0.965  0.000  0.000     2.517     2.481
 612   1 H      0.004  0.996  0.000  0.000     2.993     2.705
 613   1 H      0.051  0.949  0.000  0.000     2.307     2.375
 614   1 H      0.216  0.784  0.000  0.000     1.030     1.590
 615   7 N     -0.200  1.246  3.954  0.000    25.351     7.478
 616   6 C      0.025  1.061  2.914  0.000    20.165     6.396
 617   6 C      0.207  1.085  2.708  0.000    23.607     7.957
 618   8 O     -0.368  1.761  4.607  0.000    21.049     6.151
 619   6 C     -0.091  1.053  3.038  0.000    22.223     6.711
 620   6 C      0.019  1.070  2.911  0.000    27.525     8.604
 621   7 N     -0.114  1.243  3.871  0.000    23.487     7.198
 622   6 C     -0.005  1.067  2.938  0.000    27.854     8.631
 623   6 C      0.065  1.070  2.864  0.000    26.343     8.403
 624   7 N     -0.247  1.475  3.772  0.000    27.290     7.745
 625   1 H      0.253  0.747  0.000  0.000     0.871     1.462
 626   1 H      0.092  0.908  0.000  0.000     1.858     2.132
 627   1 H      0.085  0.915  0.000  0.000     1.928     2.171
 628   1 H      0.096  0.904  0.000  0.000     1.818     2.109
 629   1 H      0.198  0.802  0.000  0.000     1.114     1.654
 630   1 H      0.051  0.949  0.000  0.000     2.313     2.378
 631   1 H      0.083  0.917  0.000  0.000     1.952     2.185
 632   7 N     -0.402  1.333  4.070  0.000    30.440     8.194
 633   6 C      0.018  1.073  2.909  0.000    20.303     6.420
 634   6 C      0.367  1.027  2.607  0.000    20.782     7.460
 635   8 O     -0.667  1.774  4.893  0.000    27.837     7.074
 636   6 C      0.108  1.035  2.857  0.000    19.017     6.247
 637   8 O     -0.498  1.729  4.768  0.000    22.840     6.452
 638   8 O     -0.613  1.767  4.846  0.000    26.442     6.894
 639   1 H      0.143  0.857  0.000  0.000     1.447     1.884
 640   1 H     -0.006  1.006  0.000  0.000     3.169     2.784
 641   1 H      0.014  0.986  0.000  0.000     2.830     2.631
 642   1 H      0.001  0.999  0.000  0.000     3.036     2.725
 643   1 H      0.345  0.655  0.000  0.000     0.599     1.216
 644   7 N     -0.392  1.314  4.078  0.000    30.155     8.156
 645   6 C      0.019  1.062  2.919  0.000    20.281     6.415
 646   6 C      0.212  1.088  2.701  0.000    23.521     7.942
 647   8 O     -0.355  1.749  4.606  0.000    20.805     6.115
 648   6 C      0.107  1.052  2.841  0.000    18.923     6.213
 649   8 O     -0.492  1.731  4.761  0.000    22.728     6.436
 650   6 C     -0.129  1.041  3.089  0.000    23.047     6.847
 651   1 H      0.162  0.838  0.000  0.000     1.325     1.803
 652   1 H      0.082  0.918  0.000  0.000     1.963     2.191
 653   1 H      0.040  0.960  0.000  0.000     2.451     2.448
 654   1 H      0.329  0.671  0.000  0.000     0.640     1.257
 655   1 H      0.047  0.953  0.000  0.000     2.353     2.399
 656   1 H      0.051  0.949  0.000  0.000     2.306     2.375
 657   1 H      0.051  0.949  0.000  0.000     2.305     2.374
 658   7 N     -0.398  1.321  4.077  0.000    30.308     8.176
 659   6 C      0.043  1.051  2.906  0.000    19.869     6.348
 660   6 C      0.201  1.094  2.705  0.000    23.721     7.977
 661   8 O     -0.384  1.745  4.640  0.000    21.370     6.198
 662   6 C     -0.033  1.065  2.967  0.000    21.109     6.533
 663   6 C     -0.079  1.050  3.029  0.000    21.997     6.677
 664   6 C     -0.119  1.039  3.081  0.000    22.842     6.815
 665   6 C     -0.122  1.037  3.086  0.000    22.906     6.825
 666   1 H      0.170  0.830  0.000  0.000     1.271     1.766
 667   1 H      0.047  0.953  0.000  0.000     2.358     2.402
 668   1 H      0.063  0.937  0.000  0.000     2.165     2.301
 669   1 H      0.037  0.963  0.000  0.000     2.485     2.465
 670   1 H      0.070  0.930  0.000  0.000     2.085     2.258
 671   1 H      0.061  0.939  0.000  0.000     2.192     2.315
 672   1 H      0.029  0.971  0.000  0.000     2.602     2.522
 673   1 H      0.046  0.954  0.000  0.000     2.369     2.407
 674   1 H      0.051  0.949  0.000  0.000     2.303     2.373
 675   1 H      0.054  0.946  0.000  0.000     2.272     2.357
 676   1 H      0.031  0.969  0.000  0.000     2.573     2.508
 677   7 N     -0.410  1.314  4.096  0.000    30.656     8.223
 678   6 C      0.045  1.052  2.904  0.000    19.843     6.345
 679   6 C      0.192  1.098  2.710  0.000    23.897     8.006
 680   8 O     -0.382  1.745  4.637  0.000    21.327     6.192
 681   6 C     -0.065  1.059  3.006  0.000    21.741     6.636
 682   6 C     -0.012  1.055  2.956  0.000    20.747     6.478
 683   6 C     -0.112  1.040  3.072  0.000    22.685     6.790
 684   6 C     -0.128  1.040  3.088  0.000    23.012     6.839
 685   1 H      0.200  0.800  0.000  0.000     1.107     1.648
 686   1 H      0.044  0.956  0.000  0.000     2.402     2.424
 687   1 H      0.044  0.956  0.000  0.000     2.397     2.421
 688   1 H      0.033  0.967  0.000  0.000     2.539     2.492
 689   1 H      0.055  0.945  0.000  0.000     2.264     2.353
 690   1 H      0.055  0.945  0.000  0.000     2.253     2.347
 691   1 H      0.033  0.967  0.000  0.000     2.546     2.495
 692   1 H      0.025  0.975  0.000  0.000     2.665     2.553
 693   1 H      0.043  0.957  0.000  0.000     2.414     2.430
 694   1 H      0.061  0.939  0.000  0.000     2.186     2.312
 695   1 H      0.031  0.969  0.000  0.000     2.579     2.511
 696   7 N     -0.393  1.318  4.076  0.000    30.192     8.161
 697   6 C      0.019  1.065  2.917  0.000    20.277     6.414
 698   6 C      0.265  1.049  2.686  0.000    22.535     7.774
 699   8 O     -0.505  1.747  4.758  0.000    23.905     6.555
 700   6 C      0.117  1.048  2.834  0.000    18.762     6.185
 701   8 O     -0.473  1.723  4.751  0.000    22.320     6.378
 702   6 C     -0.119  1.040  3.079  0.000    22.845     6.816
 703   1 H      0.156  0.844  0.000  0.000     1.360     1.827
 704   1 H      0.046  0.954  0.000  0.000     2.372     2.408
 705   1 H      0.021  0.979  0.000  0.000     2.720     2.579
 706   1 H      0.326  0.674  0.000  0.000     0.648     1.265
 707   1 H      0.062  0.938  0.000  0.000     2.180     2.309
 708   1 H      0.041  0.959  0.000  0.000     2.433     2.439
 709   1 H      0.057  0.943  0.000  0.000     2.232     2.336
 710   7 N     -0.175  1.253  3.922  0.000    24.797     7.396
 711   6 C      0.028  1.064  2.908  0.000    20.103     6.384
 712   6 C      0.212  1.082  2.707  0.000    23.517     7.942
 713   8 O     -0.362  1.759  4.603  0.000    20.939     6.135
 714   6 C     -0.025  1.068  2.957  0.000    20.983     6.515
 715   6 C     -0.068  1.052  3.016  0.000    21.808     6.648
 716   6 C     -0.122  1.037  3.085  0.000    22.899     6.823
 717   6 C     -0.110  1.034  3.076  0.000    22.667     6.789
 718   1 H      0.239  0.761  0.000  0.000     0.927     1.508
 719   1 H      0.071  0.929  0.000  0.000     2.070     2.250
 720   1 H      0.067  0.933  0.000  0.000     2.123     2.279
 721   1 H      0.045  0.955  0.000  0.000     2.387     2.416
 722   1 H      0.050  0.950  0.000  0.000     2.322     2.383
 723   1 H      0.058  0.942  0.000  0.000     2.221     2.330
 724   1 H      0.054  0.946  0.000  0.000     2.276     2.359
 725   1 H      0.044  0.956  0.000  0.000     2.399     2.422
 726   1 H      0.038  0.962  0.000  0.000     2.476     2.461
 727   1 H      0.034  0.966  0.000  0.000     2.529     2.487
 728   1 H      0.038  0.962  0.000  0.000     2.478     2.462
 729   7 N     -0.406  1.314  4.091  0.000    30.534     8.207
 730   6 C      0.049  1.052  2.898  0.000    19.765     6.333
 731   6 C      0.206  1.094  2.700  0.000    23.633     7.962
 732   8 O     -0.389  1.759  4.630  0.000    21.455     6.210
 733   6 C     -0.067  1.056  3.012  0.000    21.784     6.644
 734   6 C      0.008  1.085  2.907  0.000    27.838     8.654
 735   6 C     -0.044  1.078  2.965  0.000    29.084     8.844
 736   6 C     -0.047  1.081  2.965  0.000    29.161     8.856
 737   6 C     -0.033  1.079  2.954  0.000    28.827     8.805
 738   6 C     -0.033  1.081  2.952  0.000    28.833     8.805
 739   6 C     -0.039  1.079  2.959  0.000    28.963     8.825
 740   1 H      0.189  0.811  0.000  0.000     1.166     1.692
 741   1 H      0.042  0.958  0.000  0.000     2.416     2.431
 742   1 H      0.068  0.932  0.000  0.000     2.113     2.273
 743   1 H      0.058  0.942  0.000  0.000     2.225     2.333
 744   1 H      0.032  0.968  0.000  0.000     2.560     2.502
 745   1 H      0.044  0.956  0.000  0.000     2.397     2.421
 746   1 H      0.032  0.968  0.000  0.000     2.565     2.504
 747   1 H      0.029  0.971  0.000  0.000     2.604     2.523
 748   1 H      0.030  0.970  0.000  0.000     2.583     2.513
 749   1 H      0.182  0.818  0.000  0.000     1.201     1.716
 750   1 H      0.070  0.930  0.000  0.000     2.083     2.257
 751   1 H      0.184  0.816  0.000  0.000     1.193     1.711
 752   1 H      0.102  0.898  0.000  0.000     1.762     2.076
 753   1 H      0.168  0.832  0.000  0.000     1.283     1.774
 754   1 H      0.061  0.939  0.000  0.000     2.192     2.315
 755   1 H      0.172  0.828  0.000  0.000     1.260     1.758
 756   1 H      0.076  0.924  0.000  0.000     2.017     2.221
 757   1 H      0.171  0.829  0.000  0.000     1.266     1.762
 758   1 H      0.077  0.923  0.000  0.000     2.010     2.217
 759   1 H      0.183  0.817  0.000  0.000     1.196     1.713
 760   1 H      0.080  0.920  0.000  0.000     1.981     2.201
 761   1 H      0.179  0.821  0.000  0.000     1.217     1.728
 762   1 H      0.073  0.927  0.000  0.000     2.051     2.240
 763   1 H      0.169  0.831  0.000  0.000     1.279     1.771
 764   1 H      0.066  0.934  0.000  0.000     2.126     2.280
 765   1 H      0.193  0.807  0.000  0.000     1.142     1.674
 766   1 H      0.070  0.930  0.000  0.000     2.083     2.257
 767   1 H      0.193  0.807  0.000  0.000     1.141     1.673
 768   1 H      0.060  0.940  0.000  0.000     2.193     2.316
 769   1 H      0.180  0.820  0.000  0.000     1.216     1.727
 770   1 H      0.081  0.919  0.000  0.000     1.968     2.194
 771   1 H      0.181  0.819  0.000  0.000     1.208     1.722
 772   1 H      0.083  0.917  0.000  0.000     1.943     2.180
 773   1 H      0.178  0.822  0.000  0.000     1.226     1.734
 774   1 H      0.068  0.932  0.000  0.000     2.103     2.268
 775   1 H      0.149  0.851  0.000  0.000     1.407     1.858
 776   1 H      0.060  0.940  0.000  0.000     2.199     2.319
 777   1 H      0.187  0.813  0.000  0.000     1.174     1.697
 778   1 H      0.199  0.801  0.000  0.000     1.110     1.650
 779   1 H      0.065  0.935  0.000  0.000     2.145     2.290
 780   1 H      0.182  0.818  0.000  0.000     1.202     1.718
 781   1 H      0.063  0.937  0.000  0.000     2.168     2.302
 782   1 H      0.171  0.829  0.000  0.000     1.266     1.762
 783   1 H      0.074  0.926  0.000  0.000     2.042     2.234
 784   1 H      0.191  0.809  0.000  0.000     1.155     1.683
 785   1 H      0.071  0.929  0.000  0.000     2.076     2.253
 786   1 H      0.178  0.822  0.000  0.000     1.225     1.734
 787   1 H      0.071  0.929  0.000  0.000     2.075     2.253

 Mol. C6AA /au·bohr⁶  :    5380741.973308
 Mol. C8AA /au·bohr⁸  :  118722873.336225
 Mol. α(0) /au        :       3474.975646

 
molecular dipole:
                 x           y           z       tot (Debye)
 q only:       -1.763       1.991     -14.488
   full:       -4.224       0.850     -20.947      54.357
molecular quadrupole (traceless):
                xx          xy          yy          xz          yz          zz
 q only:     1696.309     330.991    1765.789   -2049.844   -1969.676   -3462.098
  q+dip:     1540.556     -51.439    2227.035   -3025.121   -2643.064   -3767.591
   full:     1547.721     -48.192    2232.760   -3026.780   -2636.770   -3780.480
speedup  1.00
cpu  time for grad   42.56 s
wall time for grad   42.56 s

SCC energy    :   -1156.0799869
rep           :      14.6287404
ES            :       2.9847307
AES           :      -0.1130687
AXC           :       0.4340213
disp          :      -1.0760644
XB            :       0.0000000
fix           :       0.0000000
Gborn         :       0.0000000
Gsasa         :       0.0000000
Ghb           :       0.0000000
Gshift        :       0.0000000
Gsolv         :      -0.6877339     -431.56
Etot ala COSMO:   -1156.0799869
grad norm     :       0.9807224
total E       :   -1141.3412987
atomizationE  :     213.6467028   134065.33
(atE without considering molecular charge,
 total energy contains solvation terms)
H-L gap (eV)  :          1.0608

------------------------------------------------------------------------
 * finished run on 2019/03/14 at 15:09:04.789     
------------------------------------------------------------------------
 total:
 * wall-time:     0 d,  0 h,  0 min, 44.551 sec
 *  cpu-time:     0 d,  0 h,  0 min, 44.437 sec
 * ratio c/w:     0.997 speedup
 SCF:
 * wall-time:     0 d,  0 h,  0 min, 43.770 sec
 *  cpu-time:     0 d,  0 h,  0 min, 43.767 sec
 * ratio c/w:     1.000 speedup

