      -----------------------------------------------------------      
     |                   =====================                   |     
     |                           x T B                           |     
     |                   =====================                   |     
     |                         S. Grimme                         |     
     |          Mulliken Center for Theoretical Chemistry        |     
     |                    University of Bonn                     |     
     |                 Version 6.0.1 (SAW181210)                 |     
      -----------------------------------------------------------      

   This program is distributed in the hope that it will be useful,
   but WITHOUT ANY WARRANTY; without even the implied warranty of
   MERCHANTABILITY or FITNESS FOR A PARTICULAR PURPOSE.
   
   FOR NON-COMMERCIAL, ACADEMIA USE ONLY.
   
   Cite this work as:
   S. Grimme, C. Bannwarth, P. Shushkov, J. Comput. Theory Chem., 2017,
   13, 1989-2009.
   C. Bannwarth, S. Ehlert and S. Grimme., ChemRxiv, 2018, preprint.
   http://doi.org/10.26434/chemrxiv.7246238.v1
   
   for sTDA-xTB:
   S. Grimme and C. Bannwarth, J. Chem. Phys., 2016, 145, 054103.
   
   in the mass-spec context:
   V. Asgeirsson, C. Bauer and S. Grimme, Chem. Sci., 2017, 8, 4879.
   
   if GBSA is used:
   P. Shushkov, F. März and S. Grimme, unpublished.
   
   for ANC optimizer:
   S. Grimme, unpublished.
   Rational Function algorithm used in ANCopt:
   F. Eckert, P. Pulay, H.-J. Werner, J. Comput. Chem., 1997, 18, 1473.
   
   with help from (in alphabetical order)
   C. Bannwarth, F. Bohle, G. Brandenburg, E. Caldeweyher, M. Checinski,
   S. Dohm, S. Ehlert, S. Ehrlich, F. März, H. Neugebauer, J. Pisarek,
   P. Pracht, P. Shushkov, and S. Spicher.
   
 * started run on 2019/02/13 at 00:18:46.334     
========================================================================
 # omp threads = 16
========================================================================
number of atoms            : 443
number of electrons        : 1194
charge                     : -1
spin                       : .0
first test random number   : .4378

########################################################################
# WARNING! Please study the warnings concerning your input carefully
#  - Process number higher than OMP_NUM_THREADS, I hope you know what you are doing.
########################################################################

           ------------------------------------------------- 
          |                 G F N 2 - x T B                 |
          | Geometry, Frequencies, Noncovalent interactions |
          |            JCTC 2018 parametrisation            |
           ------------------------------------------------- 
 
      method parameters     
 k(s)        :  1.8500
 k(p)        :  2.2300
 k(d)        :  2.2300
 k(f)        :  2.0000
 kEN (H0ij)  : -2.0000
 D4 a1       :  0.5200
 D4 a2       :  5.0000
 D4 s6       :  1.0000
 D4 s8       :  2.7000
 D4 s9       :  5.0000
 alphaj      :  2.0000

 Solvent             : h2o
 Using internal parameter file: .param_gbsa2_h2o
 Gsolv ref. state (COSMO-RS): gsolv [1 M gas/solution]
 temperature (mdtemp)       :    298.150000000000     
 dielectric constant        :    80.2000000000000     
 rho                        :    1.00000000000000     
 mass                       :    18.0000000000000     
 surface tension            :    15.5689454083859     
 probe radius               :   0.975313790000000     
 vdW radii scaling          :    1.00000000000000     
 Gshift (Eh)                :   1.857443126794793E-003
 c1                         :    1.55243817000000     
 soset                      :   0.130326360000000     
 HB correction              :  T

            Z     q(EN)     CN     RAES       Cart. coordinates
     1  N   5.0   -0.22    3.24    1.96   275.79640   136.96708   212.47750
     2  C   4.0    0.03    4.34    4.28   278.23114   138.08677   211.90787
     3  C   4.0    0.15    3.45    3.09   279.65157   136.42371   210.03205
     4  O   6.0   -0.32    1.31    1.80   280.73327   137.30382   208.16559
     5  C   4.0   -0.04    4.28    4.16   279.80465   138.39710   214.31209
     6  C   4.0   -0.03    4.17    3.94   278.91558   140.66402   215.85751
     7  C   4.0    0.25    3.12    3.03   279.42374   143.12771   214.31149
     8  O   6.0   -0.27    1.16    1.80   281.63968   143.92810   214.32534
     9  O   6.0   -0.28    1.16    1.80   277.59281   144.05376   213.14602
    10  H   1.0    0.08    1.02    1.43   275.33665   136.65533   214.31605
    11  H   1.0    0.06    1.06    1.44   277.95718   139.94977   211.03100
    12  H   1.0    0.04    1.02    1.43   279.68199   136.65055   215.40664
    13  H   1.0    0.06    1.03    1.43   281.77507   138.72143   213.78190
    14  H   1.0    0.05    1.02    1.43   276.90336   140.52570   216.27919
    15  H   1.0    0.05    1.02    1.43   279.99315   140.77324   217.61195
    16  N   5.0   -0.15    3.52    2.09   279.70419   133.97661   210.58692
    17  C   4.0    0.03    4.52    4.57   280.97168   132.17684   208.95000
    18  C   4.0    0.16    3.50    3.12   279.83491   132.34534   206.29107
    19  O   6.0   -0.32    1.29    1.80   281.17414   132.55077   204.41334
    20  C   4.0   -0.03    4.33    4.25   280.80141   129.50656   210.08085
    21  C   4.0   -0.05    4.19    3.98   282.53259   129.37660   212.40355
    22  C   4.0   -0.08    4.13    3.86   281.49055   127.52243   208.10237
    23  C   4.0   -0.08    4.01    3.63   282.13318   127.02905   214.01759
    24  H   1.0    0.07    1.07    1.44   278.86144   133.33722   212.19151
    25  H   1.0    0.05    1.05    1.44   282.96566   132.73001   208.76103
    26  H   1.0    0.04    1.06    1.44   278.84116   129.21224   210.66910
    27  H   1.0    0.04    1.03    1.43   284.49716   129.44802   211.77798
    28  H   1.0    0.04    1.03    1.43   282.18660   131.03402   213.58182
    29  H   1.0    0.03    1.00    1.43   281.40348   125.64307   208.91841
    30  H   1.0    0.04    1.01    1.43   280.18278   127.60054   206.52133
    31  H   1.0    0.04    1.00    1.43   283.38583   127.84865   207.38475
    32  H   1.0    0.05    1.00    1.43   283.49047   127.01534   215.55838
    33  H   1.0    0.04    1.00    1.43   280.24103   127.03198   214.81791
    34  H   1.0    0.04    1.00    1.43   282.39186   125.30878   212.93033
    35  N   5.0   -0.15    3.51    2.08   277.32401   132.24673   206.22722
    36  C   4.0    0.03    4.42    4.41   275.87736   132.41403   203.90972
    37  C   4.0    0.18    3.51    3.12   276.73683   134.71743   202.37494
    38  O   6.0   -0.31    1.32    1.80   277.34052   134.48740   200.15396
    39  C   4.0   -0.04    4.30    4.20   273.06153   132.50393   204.56301
    40  C   4.0    0.15    3.22    3.04   271.40674   132.65737   202.21523
    41  O   6.0   -0.28    1.23    1.80   271.71245   134.26920   200.60199
    42  N   5.0   -0.19    3.17    1.95   269.45222   131.01613   202.14935
    43  H   1.0    0.07    1.07    1.44   276.33327   131.99125   207.85508
    44  H   1.0    0.05    1.05    1.44   276.27664   130.75435   202.72261
    45  H   1.0    0.03    1.03    1.43   272.58405   130.86111   205.70934
    46  H   1.0    0.05    1.03    1.43   272.73039   134.21979   205.66507
    47  H   1.0    0.09    1.03    1.43   268.40224   131.00193   200.55386
    48  H   1.0    0.07    1.02    1.43   269.44819   129.34667   203.08179
    49  N   5.0   -0.13    3.49    2.07   276.88983   136.87968   203.65203
    50  C   4.0    0.04    4.43    4.42   277.71879   139.19329   202.43803
    51  C   4.0    0.16    3.51    3.12   280.29116   138.78713   201.18945
    52  O   6.0   -0.30    1.29    1.80   280.74136   139.50790   199.03483
    53  C   4.0   -0.03    4.31    4.22   277.95691   141.38492   204.32392
    54  C   4.0    0.17    3.22    3.04   275.53624   142.93274   204.47756
    55  O   6.0   -0.27    1.20    1.80   275.37922   145.04951   203.57084
    56  N   5.0   -0.17    3.19    1.95   273.60349   141.80168   205.64859
    57  H   1.0    0.08    1.07    1.44   276.32843   136.95835   205.47943
    58  H   1.0    0.09    1.07    1.44   276.36874   139.69788   200.93936
    59  H   1.0    0.06    1.03    1.43   278.46421   140.65616   206.18424
    60  H   1.0    0.06    1.04    1.43   279.44510   142.66412   203.69249
    61  H   1.0    0.10    1.03    1.43   271.95873   142.74481   205.77814
    62  H   1.0    0.08    1.03    1.43   273.79818   140.11970   206.52314
    63  N   5.0   -0.13    3.52    2.09   282.03301   137.66927   202.63417
    64  C   4.0    0.04    4.43    4.43   284.53982   137.22367   201.62125
    65  C   4.0    0.16    3.47    3.10   284.30816   135.64509   199.18750
    66  O   6.0   -0.33    1.28    1.80   285.53769   136.19190   197.29999
    67  C   4.0   -0.04    4.29    4.18   286.25583   135.90907   203.55228
    68  C   4.0    0.15    3.22    3.04   287.42291   137.81163   205.36993
    69  O   6.0   -0.31    1.24    1.80   289.50044   138.74874   204.97477
    70  N   5.0   -0.18    3.19    1.95   286.02648   138.41383   207.38425
    71  H   1.0    0.11    1.09    1.44   281.65917   137.25077   204.46177
    72  H   1.0    0.06    1.05    1.44   285.38414   139.03573   201.05546
    73  H   1.0    0.06    1.03    1.43   285.16699   134.48679   204.56687
    74  H   1.0    0.05    1.03    1.43   287.81290   134.99585   202.55666
    75  H   1.0    0.10    1.03    1.43   286.70599   139.67825   208.63636
    76  H   1.0    0.11    1.06    1.44   284.23668   137.79859   207.65357
    77  N   5.0   -0.14    3.52    2.09   282.74409   133.68490   199.28891
    78  C   4.0    0.04    4.43    4.42   282.39471   132.03926   197.12712
    79  C   4.0    0.16    3.43    3.09   281.17644   133.39388   194.87184
    80  O   6.0   -0.32    1.28    1.80   281.72011   132.79316   192.69644
    81  C   4.0   -0.04    4.35    4.29   280.82332   129.73380   197.88107
    82  C   4.0   -0.02    4.18    3.96   282.13458   128.04265   199.84153
    83  C   4.0   -0.08    4.10    3.81   280.30082   126.01197   200.76586
    84  C   4.0   -0.08    4.11    3.82   284.48798   126.79264   198.74232
    85  H   1.0    0.11    1.10    1.44   281.80254   133.26669   200.91057
    86  H   1.0    0.05    1.06    1.44   284.26057   131.43949   196.45268
    87  H   1.0    0.06    1.03    1.43   279.03276   130.42266   198.63519
    88  H   1.0    0.04    1.03    1.43   280.43226   128.63794   196.17911
    89  H   1.0    0.05    1.06    1.44   282.67755   129.20254   201.46304
    90  H   1.0    0.03    1.00    1.43   281.16503   124.89133   202.25421
    91  H   1.0    0.04    1.00    1.43   278.58817   126.86513   201.51264
    92  H   1.0    0.04    1.00    1.43   279.77375   124.75074   199.23087
    93  H   1.0    0.03    1.00    1.43   285.29866   125.49884   200.11423
    94  H   1.0    0.04    1.00    1.43   283.99649   125.74015   197.04903
    95  H   1.0    0.03    1.00    1.43   285.92294   128.17782   198.25930
    96  N   5.0   -0.13    3.52    2.09   279.50015   135.19260   195.40714
    97  C   4.0    0.03    4.42    4.41   278.36566   136.72578   193.44326
    98  C   4.0    0.16    3.47    3.10   280.41588   138.23684   192.05351
    99  O   6.0   -0.31    1.25    1.80   280.45007   138.43186   189.74552
   100  C   4.0   -0.04    4.29    4.17   276.41519   138.53938   194.55652
   101  C   4.0   -0.03    4.22    4.04   274.07303   137.17075   195.56186
   102  C   4.0    0.17    3.23    3.04   272.39699   139.01011   196.98946
   103  O   6.0   -0.28    1.23    1.80   273.17810   140.28915   198.74788
   104  N   5.0   -0.18    3.18    1.95   270.00409   139.17142   196.17650
   105  H   1.0    0.12    1.11    1.45   278.97324   135.51298   197.22193
   106  H   1.0    0.05    1.05    1.44   277.48163   135.48813   192.03171
   107  H   1.0    0.07    1.03    1.43   277.29673   139.60297   196.08832
   108  H   1.0    0.05    1.03    1.43   275.86151   139.88516   193.09367
   109  H   1.0    0.04    1.03    1.43   273.03060   136.28970   194.02380
   110  H   1.0    0.08    1.04    1.43   274.63556   135.72039   196.91693
   111  H   1.0    0.08    1.03    1.43   269.34498   138.08113   194.76999
   112  H   1.0    0.10    1.03    1.43   268.80039   140.33130   197.08289
   113  N   5.0   -0.13    3.53    2.10   282.14554   139.28560   193.55199
   114  C   4.0    0.04    4.43    4.43   284.27580   140.64504   192.49139
   115  C   4.0    0.16    3.50    3.11   285.79018   138.83361   190.81620
   116  O   6.0   -0.32    1.28    1.80   286.60791   139.44350   188.73428
   117  C   4.0   -0.04    4.28    4.16   285.94167   141.66198   194.62097
   118  C   4.0   -0.05    4.18    3.97   287.85594   143.60662   193.67783
   119  C   4.0   -0.00    4.21    4.03   286.63113   146.21313   193.47309
   120  N   5.0   -0.14    3.40    2.02   288.44912   148.06566   192.60502
   121  C   4.0    0.10    3.33    3.06   288.08725   149.83257   190.85370
   122  N   5.0   -0.17    3.26    1.97   285.94694   150.03194   189.57356
   123  N   5.0   -0.19    3.24    1.97   289.95252   151.50214   190.44715
   124  H   1.0    0.11    1.09    1.44   281.95262   139.22553   195.45555
   125  H   1.0    0.07    1.05    1.44   283.59405   142.18615   191.27821
   126  H   1.0    0.05    1.03    1.43   284.72308   142.52621   196.04446
   127  H   1.0    0.06    1.03    1.43   286.89309   140.05754   195.49574
   128  H   1.0    0.05    1.03    1.43   289.44574   143.71584   194.98374
   129  H   1.0    0.05    1.03    1.43   288.56674   143.03363   191.82985
   130  H   1.0    0.07    1.05    1.44   285.04903   146.13019   192.16538
   131  H   1.0    0.05    1.02    1.43   285.92151   146.78631   195.33142
   132  H   1.0    0.08    1.07    1.44   290.11639   148.04920   193.54405
   133  H   1.0    0.13    1.10    1.44   284.65557   148.55566   189.42725
   134  H   1.0    0.09    1.04    1.43   285.83256   151.31004   188.16974
   135  H   1.0    0.09    1.03    1.43   291.50787   151.50096   191.53705
   136  H   1.0    0.08    1.03    1.43   289.73513   152.90704   189.18717
   137  N   5.0   -0.14    3.53    2.10   286.15499   136.53863   191.79787
   138  C   4.0    0.04    4.52    4.56   287.54145   134.64325   190.38987
   139  C   4.0    0.16    3.54    3.13   286.30568   134.28943   187.79936
   140  O   6.0   -0.32    1.33    1.80   287.60126   134.23627   185.87297
   141  C   4.0   -0.02    4.25    4.11   287.79948   132.15932   191.86403
   142  C   4.0   -0.08    4.14    3.88   289.03819   130.15889   190.19800
   143  C   4.0   -0.08    4.11    3.83   289.39999   132.55959   194.23581
   144  H   1.0    0.11    1.09    1.44   285.63064   136.16753   193.60368
   145  H   1.0    0.04    1.06    1.44   289.44371   135.37185   189.97962
   146  H   1.0    0.06    1.06    1.44   285.89828   131.54280   192.38599
   147  H   1.0    0.03    1.00    1.43   289.26244   128.41347   191.25170
   148  H   1.0    0.04    1.01    1.43   287.90915   129.79406   188.52852
   149  H   1.0    0.04    1.00    1.43   290.89484   130.79608   189.59096
   150  H   1.0    0.03    1.00    1.43   289.59108   130.78815   195.25706
   151  H   1.0    0.04    1.00    1.43   291.28428   133.20253   193.72412
   152  H   1.0    0.06    1.01    1.43   288.56882   133.94880   195.49632
   153  N   5.0   -0.14    3.49    2.07   283.79803   134.03926   187.74971
   154  C   4.0    0.04    4.43    4.43   282.51812   133.82803   185.33609
   155  C   4.0    0.17    3.52    3.12   283.57214   135.76285   183.44671
   156  O   6.0   -0.29    1.23    1.80   284.12018   135.16496   181.27980
   157  C   4.0   -0.05    4.29    4.19   279.67642   134.28879   185.57118
   158  C   4.0   -0.05    4.17    3.93   278.26775   132.14139   186.89033
   159  C   4.0   -0.01    4.22    4.04   275.41939   132.69582   186.84699
   160  N   5.0   -0.15    3.38    2.01   273.91030   130.57919   187.71306
   161  C   4.0    0.09    3.36    3.07   273.56896   128.45154   186.39985
   162  N   5.0   -0.19    3.27    1.97   274.39339   128.19710   184.04839
   163  N   5.0   -0.19    3.25    1.97   272.32038   126.52374   187.41975
   164  H   1.0    0.11    1.09    1.44   282.78189   133.93113   189.37307
   165  H   1.0    0.05    1.05    1.44   282.88446   131.95293   184.51699
   166  H   1.0    0.06    1.04    1.43   279.38791   136.05064   186.59671
   167  H   1.0    0.04    1.03    1.43   278.93497   134.52969   183.66126
   168  H   1.0    0.04    1.03    1.43   278.64977   130.36357   185.92092
   169  H   1.0    0.06    1.02    1.43   278.92597   131.95015   188.83391
   170  H   1.0    0.04    1.03    1.43   275.00584   134.30450   188.06283
   171  H   1.0    0.04    1.03    1.43   274.83528   133.20918   184.93424
   172  H   1.0    0.08    1.07    1.44   273.38609   130.56939   189.54597
   173  H   1.0    0.08    1.03    1.43   275.30156   129.59411   183.13968
   174  H   1.0    0.08    1.03    1.43   274.12842   126.49094   183.19787
   175  H   1.0    0.08    1.03    1.43   271.61072   126.57507   189.18001
   176  H   1.0    0.08    1.03    1.43   272.17070   124.93045   186.34907
   177  N   5.0   -0.14    3.52    2.09   283.58102   138.14664   184.27889
   178  C   4.0    0.04    4.41    4.40   284.32131   140.22958   182.67194
   179  C   4.0    0.16    3.47    3.10   286.99970   139.88425   181.65914
   180  O   6.0   -0.28    1.22    1.80   287.58619   140.45819   179.48035
   181  C   4.0   -0.04    4.32    4.24   284.30470   142.72464   184.14334
   182  C   4.0   -0.03    4.17    3.94   281.70932   143.53608   185.10857
   183  C   4.0    0.25    3.14    3.03   282.13663   146.11161   186.43690
   184  O   6.0   -0.29    1.16    1.80   281.82863   148.07090   185.18802
   185  O   6.0   -0.32    1.28    1.80   282.89407   146.01152   188.68599
   186  H   1.0    0.11    1.08    1.44   283.12593   138.55641   186.09030
   187  H   1.0    0.06    1.05    1.44   283.04067   140.34389   181.04298
   188  H   1.0    0.07    1.04    1.43   285.57378   142.54017   185.76036
   189  H   1.0    0.06    1.03    1.43   285.03394   144.21396   182.90994
   190  H   1.0    0.05    1.02    1.43   280.38612   143.79135   183.55070
   191  H   1.0    0.06    1.02    1.43   280.96374   142.18037   186.46884
   192  N   5.0   -0.13    3.55    2.11   288.66416   139.07678   183.36000
   193  C   4.0    0.04    4.43    4.43   291.32320   138.76197   182.77389
   194  C   4.0    0.16    3.45    3.10   291.64498   136.73373   180.73834
   195  O   6.0   -0.27    1.23    1.80   292.99569   137.08769   178.88136
   196  C   4.0   -0.05    4.35    4.29   292.76618   138.10965   185.18723
   197  C   4.0   -0.02    4.19    3.98   292.77478   140.33260   187.05348
   198  C   4.0   -0.08    4.11    3.81   293.41763   139.42307   189.71229
   199  C   4.0   -0.08    4.10    3.81   294.65607   142.36441   186.24222
   200  H   1.0    0.11    1.09    1.44   288.08514   138.70262   185.15056
   201  H   1.0    0.06    1.05    1.44   292.05805   140.51745   181.95023
   202  H   1.0    0.05    1.03    1.43   291.85101   136.46991   186.03788
   203  H   1.0    0.04    1.03    1.43   294.70456   137.59912   184.71106
   204  H   1.0    0.05    1.06    1.44   290.87874   141.15877   187.09608
   205  H   1.0    0.04    1.00    1.43   293.19400   140.96503   191.04757
   206  H   1.0    0.04    1.00    1.43   292.17115   137.89578   190.27948
   207  H   1.0    0.04    1.00    1.43   295.36081   138.76175   189.78874
   208  H   1.0    0.04    1.00    1.43   294.49741   144.01687   187.45154
   209  H   1.0    0.04    1.00    1.43   296.58051   141.65213   186.39365
   210  H   1.0    0.04    1.00    1.43   294.34547   142.96689   184.30158
   211  N   5.0   -0.14    3.48    2.07   290.34713   134.61917   181.13532
   212  C   4.0    0.04    4.24    4.08   290.33433   132.56396   179.31496
   213  C   4.0    0.10    3.26    3.04   289.64405   133.60645   176.70747
   214  O   6.0   -0.27    1.11    1.80   290.99334   133.28225   174.84251
   215  C   4.0   -0.07    4.10    3.81   288.45770   130.54940   180.15203
   216  H   1.0    0.11    1.10    1.44   289.26967   134.42768   182.71455
   217  H   1.0    0.05    1.05    1.44   292.24557   131.77059   179.15341
   218  H   1.0    0.04    1.00    1.43   288.36250   129.06420   178.74006
   219  H   1.0    0.04    1.00    1.43   289.07336   129.74370   181.93653
   220  H   1.0    0.06    1.00    1.43   286.59959   131.39013   180.39323
   221  N   5.0   -0.22    3.22    1.96   304.17020   140.88606   192.52897
   222  C   4.0    0.03    4.33    4.25   301.73750   141.54730   193.60310
   223  C   4.0    0.14    3.47    3.10   300.25823   139.17010   194.32507
   224  O   6.0   -0.31    1.30    1.80   299.30792   138.93654   196.43021
   225  C   4.0   -0.05    4.26    4.12   300.29255   143.21280   191.74403
   226  C   4.0   -0.03    4.20    4.00   297.61531   143.76488   192.63276
   227  C   4.0    0.25    3.11    3.02   297.32559   145.22324   195.15065
   228  O   6.0   -0.33    1.30    1.80   295.05788   145.70098   195.70974
   229  O   6.0   -0.30    1.18    1.80   299.18743   145.80001   196.43750
   230  H   1.0    0.08    1.03    1.43   304.52847   141.37079   190.71176
   231  H   1.0    0.06    1.06    1.44   302.03351   142.59734   195.36847
   232  H   1.0    0.05    1.03    1.43   301.34537   144.97261   191.51506
   233  H   1.0    0.03    1.03    1.43   300.23250   142.24619   189.91886
   234  H   1.0    0.04    1.03    1.43   296.62162   144.84323   191.18475
   235  H   1.0    0.05    1.04    1.43   296.60916   141.98719   192.90656
   236  N   5.0   -0.15    3.49    2.07   300.03303   137.39864   192.54344
   237  C   4.0    0.03    4.51    4.56   298.80589   135.00679   193.11885
   238  C   4.0    0.16    3.56    3.14   299.81768   133.97504   195.62614
   239  O   6.0   -0.32    1.28    1.80   298.43805   133.15430   197.29042
   240  C   4.0   -0.03    4.34    4.27   299.23871   133.03221   191.02135
   241  C   4.0   -0.05    4.18    3.96   297.90086   133.83449   188.57735
   242  C   4.0   -0.07    4.15    3.90   298.33213   130.43563   191.90286
   243  C   4.0   -0.08    4.02    3.65   298.35364   132.00606   186.39439
   244  H   1.0    0.07    1.06    1.44   300.86605   137.62830   190.83347
   245  H   1.0    0.04    1.05    1.44   296.77203   135.33471   193.37499
   246  H   1.0    0.04    1.05    1.44   301.27628   132.94161   190.66920
   247  H   1.0    0.03    1.03    1.43   295.87384   133.97623   188.92518
   248  H   1.0    0.03    1.03    1.43   298.58988   135.69651   188.02052
   249  H   1.0    0.04    1.00    1.43   298.79644   129.01470   190.49956
   250  H   1.0    0.05    1.01    1.43   299.24494   129.89111   193.65875
   251  H   1.0    0.04    1.00    1.43   296.30058   130.45702   192.20395
   252  H   1.0    0.04    1.00    1.43   297.65554   132.81538   184.63944
   253  H   1.0    0.04    1.00    1.43   300.36214   131.62201   186.16611
   254  H   1.0    0.04    1.00    1.43   297.38936   130.22198   186.70251
   255  N   5.0   -0.14    3.54    2.11   302.33274   133.92989   195.76505
   256  C   4.0    0.03    4.47    4.49   303.65076   132.79745   197.87102
   257  C   4.0    0.15    3.50    3.12   302.89091   134.11934   200.31705
   258  O   6.0   -0.30    1.31    1.80   302.27302   132.93101   202.20597
   259  C   4.0    0.05    4.23    4.06   306.53483   132.89384   197.44087
   260  O   6.0   -0.26    2.12    1.84   307.17526   131.78338   195.09843
   261  C   4.0   -0.06    4.09    3.78   307.90844   131.44097   199.51273
   262  H   1.0    0.07    1.08    1.44   303.35164   134.70249   194.34754
   263  H   1.0    0.05    1.05    1.44   303.06656   130.81207   198.04999
   264  H   1.0    0.04    1.03    1.43   307.11128   134.89222   197.45347
   265  H   1.0    0.11    1.02    1.43   306.54960   132.86700   193.75476
   266  H   1.0    0.04    1.00    1.43   309.92773   131.77324   199.37249
   267  H   1.0    0.06    1.00    1.43   307.23047   132.01058   201.36296
   268  H   1.0    0.05    1.00    1.43   307.55696   129.43226   199.27454
   269  N   5.0   -0.14    3.50    2.08   302.90095   136.64084   200.24099
   270  C   4.0    0.03    4.44    4.45   302.06475   138.06648   202.42527
   271  C   4.0    0.17    3.52    3.12   299.47671   137.08542   203.29824
   272  O   6.0   -0.31    1.28    1.80   299.04949   136.62881   205.53134
   273  C   4.0   -0.05    4.27    4.14   301.91360   140.89298   201.83504
   274  C   4.0   -0.03    4.23    4.07   301.34565   142.39471   204.25166
   275  C   4.0    0.16    3.22    3.04   300.40965   145.04433   203.67858
   276  O   6.0   -0.30    1.25    1.80   298.27322   145.73640   204.22527
   277  N   5.0   -0.18    3.19    1.95   302.10058   146.58590   202.60792
   278  H   1.0    0.08    1.06    1.44   303.51652   137.58849   198.69181
   279  H   1.0    0.05    1.05    1.44   303.38231   137.74127   203.99801
   280  H   1.0    0.04    1.02    1.43   303.71167   141.47345   201.00854
   281  H   1.0    0.07    1.03    1.43   300.44518   141.20925   200.42009
   282  H   1.0    0.06    1.04    1.43   299.88618   141.42741   205.34165
   283  H   1.0    0.04    1.03    1.43   303.04024   142.51167   205.41913
   284  H   1.0    0.08    1.03    1.43   303.77088   145.92301   201.99180
   285  H   1.0    0.10    1.03    1.43   301.52581   148.28967   201.97533
   286  N   5.0   -0.13    3.52    2.09   297.74415   136.90619   201.48207
   287  C   4.0    0.04    4.42    4.42   295.17556   136.12393   202.03613
   288  C   4.0    0.16    3.49    3.11   295.20412   133.63341   203.51826
   289  O   6.0   -0.31    1.27    1.80   293.91531   133.32719   205.42129
   290  C   4.0   -0.05    4.27    4.14   293.66637   135.76276   199.59276
   291  C   4.0   -0.04    4.16    3.93   293.25706   138.20772   198.10488
   292  C   4.0   -0.01    4.19    3.98   291.32423   139.99045   199.34757
   293  N   5.0   -0.14    3.41    2.02   292.18111   142.58904   199.32770
   294  C   4.0    0.11    3.36    3.07   293.27908   143.81885   201.23937
   295  N   5.0   -0.17    3.24    1.97   293.19190   142.98458   203.61064
   296  N   5.0   -0.16    3.28    1.98   294.33928   146.03461   200.72092
   297  H   1.0    0.11    1.09    1.44   298.18440   137.34567   199.66827
   298  H   1.0    0.06    1.05    1.44   294.27902   137.52649   203.27381
   299  H   1.0    0.06    1.04    1.43   294.69137   134.41973   198.41532
   300  H   1.0    0.04    1.03    1.43   291.83876   134.94580   200.07759
   301  H   1.0    0.07    1.03    1.43   295.05240   139.19815   197.89788
   302  H   1.0    0.04    1.03    1.43   292.60526   137.70964   196.21588
   303  H   1.0    0.04    1.03    1.43   289.53359   139.90830   198.32910
   304  H   1.0    0.06    1.05    1.44   290.95900   139.40626   201.28420
   305  H   1.0    0.10    1.10    1.44   292.63227   143.31839   197.60481
   306  H   1.0    0.11    1.05    1.44   292.09030   141.52812   204.16548
   307  H   1.0    0.11    1.04    1.43   294.11315   143.98629   204.94127
   308  H   1.0    0.13    1.11    1.45   294.77422   146.33876   198.82853
   309  H   1.0    0.12    1.06    1.44   295.48456   146.78871   202.05289
   310  N   5.0   -0.14    3.52    2.09   296.62342   131.82940   202.47887
   311  C   4.0    0.03    4.42    4.42   296.75721   129.30649   203.53269
   312  C   4.0    0.16    3.49    3.11   297.66447   129.44284   206.27475
   313  O   6.0   -0.29    1.25    1.80   296.56177   128.44525   208.04800
   314  C   4.0   -0.04    4.36    4.32   298.55070   127.61844   202.02733
   315  C   4.0   -0.02    4.17    3.95   297.72255   127.12545   199.29345
   316  C   4.0   -0.07    4.11    3.81   299.78423   125.62212   197.94281
   317  C   4.0   -0.08    4.10    3.81   295.22135   125.69294   199.18429
   318  H   1.0    0.11    1.09    1.44   297.64104   132.24178   200.90774
   319  H   1.0    0.05    1.05    1.44   294.86287   128.46543   203.58933
   320  H   1.0    0.06    1.03    1.43   300.42527   128.48057   202.03270
   321  H   1.0    0.05    1.03    1.43   298.68503   125.81533   203.02630
   322  H   1.0    0.05    1.06    1.44   297.49630   128.93771   198.32276
   323  H   1.0    0.05    1.00    1.43   299.27848   125.27761   195.98263
   324  H   1.0    0.05    1.00    1.43   301.58448   126.61158   197.99894
   325  H   1.0    0.05    1.00    1.43   300.05277   123.78963   198.83890
   326  H   1.0    0.04    1.00    1.43   294.90656   124.96193   197.29183
   327  H   1.0    0.04    1.00    1.43   295.26239   124.09611   200.48240
   328  H   1.0    0.03    1.00    1.43   293.64371   126.90056   199.70123
   329  N   5.0   -0.13    3.56    2.12   299.74384   130.84549   206.57194
   330  C   4.0    0.05    4.45    4.47   300.92665   131.08840   209.02100
   331  C   4.0    0.17    3.49    3.11   298.96634   132.00042   210.94105
   332  O   6.0   -0.27    1.22    1.80   298.80714   131.08441   213.06965
   333  C   4.0   -0.03    4.32    4.24   303.10247   132.97725   208.87666
   334  C   4.0    0.16    3.22    3.04   305.31554   131.94704   207.33443
   335  O   6.0   -0.29    1.22    1.80   305.27015   129.93789   206.21778
   336  N   5.0   -0.19    3.18    1.95   307.32799   133.50051   207.28672
   337  H   1.0    0.12    1.11    1.44   300.73902   131.44836   205.04870
   338  H   1.0    0.07    1.05    1.44   301.61179   129.23173   209.66002
   339  H   1.0    0.06    1.03    1.43   302.40221   134.70865   207.99678
   340  H   1.0    0.05    1.03    1.43   303.74916   133.40668   210.78636
   341  H   1.0    0.09    1.03    1.43   308.91889   132.89192   206.43110
   342  H   1.0    0.08    1.03    1.43   307.40675   135.04780   208.39046
   343  N   5.0   -0.13    3.52    2.09   297.56857   133.94624   210.16691
   344  C   4.0    0.05    4.46    4.47   295.68821   135.07279   211.80325
   345  C   4.0    0.16    3.51    3.12   293.65692   133.15466   212.50269
   346  O   6.0   -0.26    1.27    1.80   292.98105   132.85774   214.70683
   347  C   4.0   -0.03    4.26    4.12   294.54426   137.41667   210.56709
   348  C   4.0   -0.02    4.19    3.99   292.45900   138.57621   212.18301
   349  C   4.0    0.26    3.10    3.02   293.21236   139.28284   214.91989
   350  O   6.0   -0.28    1.20    1.80   295.44910   139.03021   215.61893
   351  O   6.0   -0.27    1.17    1.80   291.46058   140.09478   216.28043
   352  H   1.0    0.11    1.10    1.44   297.78023   134.65615   208.39767
   353  H   1.0    0.08    1.07    1.44   296.59461   135.63052   213.58382
   354  H   1.0    0.06    1.03    1.43   296.05651   138.79217   210.30636
   355  H   1.0    0.07    1.03    1.43   293.77177   136.89135   208.72605
   356  H   1.0    0.06    1.03    1.43   291.74686   140.29948   211.29943
   357  H   1.0    0.06    1.03    1.43   290.86261   137.27501   212.35194
   358  N   5.0   -0.13    3.48    2.07   292.65431   131.85444   210.59284
   359  C   4.0    0.04    4.42    4.42   290.83342   129.87121   211.09129
   360  C   4.0    0.10    3.34    3.06   291.77085   128.25166   213.29035
   361  O   6.0   -0.28    1.11    1.80   290.38323   127.67734   215.06269
   362  C   4.0   -0.02    4.32    4.24   290.35258   128.25434   208.72469
   363  C   4.0   -0.05    4.18    3.97   288.85808   129.81439   206.79049
   364  C   4.0   -0.07    4.14    3.88   288.99856   125.80916   209.44938
   365  C   4.0   -0.08    4.01    3.64   288.46183   128.45513   204.28225
   366  H   1.0    0.11    1.09    1.44   293.28163   132.10431   208.79872
   367  H   1.0    0.05    1.05    1.44   289.04968   130.73314   211.73172
   368  H   1.0    0.06    1.06    1.44   292.19744   127.75975   207.92732
   369  H   1.0    0.04    1.03    1.43   287.02817   130.31449   207.60423
   370  H   1.0    0.06    1.03    1.43   289.88714   131.56665   206.44066
   371  H   1.0    0.03    1.00    1.43   288.56988   124.70030   207.77816
   372  H   1.0    0.05    1.00    1.43   290.20249   124.66163   210.66230
   373  H   1.0    0.04    1.00    1.43   287.25652   126.20680   210.46402
   374  H   1.0    0.04    1.00    1.43   287.63992   129.74518   202.91302
   375  H   1.0    0.04    1.00    1.43   290.25840   127.76994   203.55769
   376  H   1.0    0.03    1.00    1.43   287.20067   126.85028   204.49258
   377  N   5.0   -0.22    3.20    1.96   292.18813   115.57456   197.21172
   378  C   4.0    0.03    4.23    4.06   293.24286   117.64345   195.78579
   379  C   4.0    0.07    3.20    3.04   295.84319   118.49981   196.68879
   380  O   6.0   -0.32    1.15    1.80   296.94317   120.24485   195.64032
   381  C   4.0   -0.05    4.37    4.32   291.46871   119.93356   195.77157
   382  C   4.0   -0.03    4.18    3.97   288.87435   119.39794   194.60358
   383  C   4.0   -0.08    4.11    3.82   287.22637   121.74038   194.93679
   384  C   4.0   -0.08    4.10    3.81   289.06863   118.68698   191.81550
   385  H   1.0    0.08    1.02    1.43   291.87416   115.81978   199.07804
   386  H   1.0    0.04    1.06    1.44   293.49765   116.93361   193.85481
   387  H   1.0    0.04    1.03    1.43   291.22828   120.55509   197.72609
   388  H   1.0    0.04    1.03    1.43   292.41575   121.44109   194.73201
   389  H   1.0    0.03    1.05    1.44   288.01453   117.81573   195.62953
   390  H   1.0    0.04    1.00    1.43   285.34711   121.40108   194.18808
   391  H   1.0    0.03    1.00    1.43   287.05497   122.20392   196.92846
   392  H   1.0    0.03    1.00    1.43   288.06733   123.33763   193.95843
   393  H   1.0    0.03    1.00    1.43   287.18602   118.41643   191.04040
   394  H   1.0    0.03    1.00    1.43   290.02088   120.17380   190.76709
   395  H   1.0    0.03    1.00    1.43   290.10087   116.92558   191.58995
   396  N   5.0   -0.20    3.23    1.96   300.17148   119.13175   191.08574
   397  C   4.0    0.03    4.22    4.04   299.36343   120.65299   188.94430
   398  C   4.0    0.07    3.21    3.04   301.53558   122.41118   188.16161
   399  O   6.0   -0.29    1.12    1.80   302.46740   123.92995   189.64187
   400  C   4.0   -0.04    4.36    4.32   297.03266   122.16014   189.74379
   401  C   4.0   -0.03    4.19    3.98   296.10946   124.07212   187.77752
   402  C   4.0   -0.08    4.11    3.82   295.34820   122.80772   185.30259
   403  C   4.0   -0.09    4.11    3.82   293.86406   125.52532   188.86256
   404  H   1.0    0.11    1.05    1.44   299.48750   119.63289   192.80336
   405  H   1.0    0.03    1.05    1.44   298.95597   119.37279   187.37688
   406  H   1.0    0.04    1.03    1.43   295.52540   120.82700   190.19827
   407  H   1.0    0.06    1.03    1.43   297.51415   123.15819   191.48556
   408  H   1.0    0.04    1.05    1.44   297.65633   125.39506   187.39861
   409  H   1.0    0.04    1.00    1.43   294.59807   124.22333   184.01862
   410  H   1.0    0.03    1.00    1.43   296.96446   121.91301   184.41050
   411  H   1.0    0.03    1.00    1.43   293.89664   121.39838   185.65919
   412  H   1.0    0.03    1.00    1.43   293.26936   127.00088   187.56536
   413  H   1.0    0.03    1.00    1.43   292.28242   124.25057   189.17081
   414  H   1.0    0.03    1.00    1.43   294.36040   126.38197   190.66099
   415  N   5.0   -0.22    3.22    1.96   282.98163   119.08909   187.42339
   416  C   4.0    0.03    4.31    4.21   282.09023   121.18907   188.93764
   417  C   4.0    0.07    3.22    3.04   279.24996   120.90860   189.41869
   418  O   6.0   -0.30    1.11    1.80   278.34381   121.17949   191.53807
   419  C   4.0   -0.03    4.33    4.25   282.74847   123.71074   187.65767
   420  C   4.0   -0.06    4.19    3.98   285.63098   124.01935   187.50682
   421  C   4.0   -0.07    4.13    3.86   281.55226   125.89959   189.10857
   422  C   4.0   -0.08    4.01    3.64   286.44437   125.82640   185.41738
   423  H   1.0    0.07    1.03    1.43   283.62972   119.46163   185.65858
   424  H   1.0    0.04    1.05    1.44   282.99928   121.09749   190.80169
   425  H   1.0    0.04    1.06    1.44   281.96326   123.64230   185.74547
   426  H   1.0    0.03    1.03    1.43   286.32226   124.70143   189.32385
   427  H   1.0    0.03    1.04    1.43   286.50001   122.19023   187.13216
   428  H   1.0    0.04    1.00    1.43   282.16476   127.69683   188.33176
   429  H   1.0    0.05    1.00    1.43   279.50263   125.80148   189.01312
   430  H   1.0    0.04    1.00    1.43   282.10920   125.82777   191.08494
   431  H   1.0    0.03    1.00    1.43   288.47964   126.09707   185.47457
   432  H   1.0    0.04    1.00    1.43   285.95218   125.05155   183.57978
   433  H   1.0    0.04    1.00    1.43   285.54105   127.66248   185.60052
   434  H   1.0    0.09    1.07    1.44   274.55750   137.97096   211.88597
   435  H   1.0    0.07    1.05    1.44   288.04740   134.59034   176.47565
   436  H   1.0    0.09    1.07    1.44   305.40843   141.62841   193.42799
   437  H   1.0    0.07    1.05    1.44   293.55525   127.62998   213.31248
   438  H   1.0    0.09    1.08    1.44   290.66996   115.15742   196.56850
   439  H   1.0    0.05    1.05    1.44   296.66779   117.63374   198.15200
   440  H   1.0    0.09    1.07    1.44   299.68918   117.51796   190.84992
   441  H   1.0    0.05    1.04    1.44   302.22625   122.33518   186.40427
   442  H   1.0    0.08    1.07    1.44   284.27845   118.32697   188.21712
   443  H   1.0    0.05    1.05    1.44   278.08572   120.49535   187.98871

  Z AO/shell   Hii/eV     exponent
  1     Wed Apr 25 08:07:45 CEST 2018   EN: 2.200 GM2: 0.406  GM3: 0.0800  RAES: 1.40
     1s    -10.707211    1.230000
  6     Wed Apr 25 08:07:45 CEST 2018   EN: 2.550 GM2: 0.538  GM3: 0.1500  RAES: 3.00
     2s    -13.970922    2.096432
     2p    -10.063292    1.800000
  7     Wed Apr 25 08:07:45 CEST 2018   EN: 3.040 GM2: 0.461  GM3:-0.0640  RAES: 1.90
     2s    -16.686243    2.339881
     2p    -12.523956    2.014332
  8     Wed Apr 25 08:07:45 CEST 2018   EN: 3.440 GM2: 0.452  GM3:-0.0517  RAES: 1.80
     2s    -20.229985    2.439742
     2p    -15.503117    2.137023
 no old-style atom pair restraining (fixing) potential

molecular fragmentation (1/2 indicates fragments):
111111111111111111111111111111111111111111111111111111111111111111111111
111111111111111111111111111111111111111111111111111111111111111111111111
111111111111111111111111111111111111111111111111111111111111111111111111
111122222222222222222222222222222222222222222222222222222222222222222222
222222222222222222222222222222222222222222222222222222222222222222222222
222222222222222222222222222222222222222222222222222222222222222222222222
21122222222
# atoms in fragment 1/2:   222   221
 fragment masses (1/2) :     1552.75     1443.77
CMA distance (Bohr)    :  15.304
constraining FC (au)   :  0.0500
           ------------------------------------------------- 
          |        Self-Consistent Charge Iterations        |
           ------------------------------------------------- 

 Ncao       : 1073
 Nao        : 1073
 Nshell     : 653
 Nel        : 1194
 T(el)      :   500.0
 intcut     :    35.0
 scfconv/Eh :  0.100E-06
   qconv/e  :  0.100E-04
 intneglect :  0.100E-08
 broydamp   :      0.400
 iter      E             dE          RMSdq      gap      omega  full diag
   1   -684.0904725 -0.684090E+03  0.456E+00    3.23       0.0  T
   2   -685.8133287 -0.172286E+01  0.209E+00    1.94       1.0  T
   3   -685.9255420 -0.112213E+00  0.121E+00    2.24       1.0  T
   4   -686.0284696 -0.102928E+00  0.239E-01    1.83       1.0  T
   5   -686.0343703 -0.590074E-02  0.119E-01    2.00       1.0  T
   6   -686.0351315 -0.761203E-03  0.456E-02    2.03       1.0  T
   7   -686.0353551 -0.223588E-03  0.194E-02    2.05       1.0  T
   8   -686.0353755 -0.204034E-04  0.882E-03    2.04       1.0  T
   9   -686.0353843 -0.875486E-05  0.383E-03    2.03       1.2  T
  10   -686.0353854 -0.112064E-05  0.169E-03    2.03       2.8  T
  11   -686.0353857 -0.336301E-06  0.774E-04    2.03       6.1  T
  12   -686.0353858 -0.645904E-07  0.350E-04    2.03      13.6  T
  13   -686.0353858 -0.110722E-07  0.173E-04    2.03      27.5  T
  14   -686.0353858 -0.355521E-08  0.643E-05    2.03      73.8  T
  15   -686.0353858 -0.443492E-09  0.329E-05    2.03     144.2  T
speedup 15.97
cpu  time for SCC   41.50 s
wall time for SCC    2.60 s

   *** convergence criteria satisfied after 15 iterations ***

          eigenvalues
 #    :         585        586        587        588        589        590        591        592
 occ. :        2.000      2.000      2.000      2.000      2.000      2.000      2.000      2.000
 eps  :       -10.527    -10.515    -10.427    -10.393    -10.368    -10.079    -10.003     -9.942
 #    :         593        594        595        596        597        598        599        600
 occ. :        2.000      2.000      2.000      2.000      2.000      0.000      0.000      0.000
 eps  :        -9.865     -9.826     -9.821     -9.689     -9.624     -7.594     -7.571     -7.506
 #    :         601        602        603        604        605        606        607        608
 occ. :        0.000      0.000      0.000      0.000      0.000      0.000      0.000      0.000
 eps  :        -7.492     -7.432     -6.976     -6.828     -6.773     -6.682     -6.623     -6.571


   #   Z            q   n(s)   n(p)   n(d)      C6AA      α(0)
   1   7 N     -0.386  1.299  4.087  0.000    29.976     8.131
   2   6 C      0.038  1.052  2.910  0.000    19.951     6.362
   3   6 C      0.260  1.053  2.687  0.000    22.617     7.788
   4   8 O     -0.513  1.738  4.775  0.000    24.084     6.580
   5   6 C     -0.045  1.052  2.993  0.000    21.372     6.581
   6   6 C     -0.091  1.066  3.025  0.000    22.230     6.713
   7   6 C      0.373  1.024  2.603  0.000    20.673     7.441
   8   8 O     -0.662  1.786  4.876  0.000    27.688     7.055
   9   8 O     -0.644  1.768  4.876  0.000    27.235     6.997
  10   1 H      0.171  0.829  0.000  0.000     1.266     1.762
  11   1 H      0.026  0.974  0.000  0.000     2.642     2.542
  12   1 H      0.044  0.956  0.000  0.000     2.398     2.422
  13   1 H      0.011  0.989  0.000  0.000     2.870     2.649
  14   1 H      0.029  0.971  0.000  0.000     2.600     2.521
  15   1 H      0.012  0.988  0.000  0.000     2.852     2.641
  16   7 N     -0.168  1.247  3.921  0.000    24.636     7.372
  17   6 C      0.011  1.068  2.920  0.000    20.381     6.427
  18   6 C      0.274  1.040  2.685  0.000    22.359     7.743
  19   8 O     -0.462  1.732  4.730  0.000    22.964     6.425
  20   6 C     -0.033  1.071  2.962  0.000    21.125     6.537
  21   6 C     -0.059  1.048  3.010  0.000    21.625     6.620
  22   6 C     -0.126  1.039  3.087  0.000    22.975     6.835
  23   6 C     -0.114  1.036  3.077  0.000    22.740     6.800
  24   1 H      0.224  0.776  0.000  0.000     0.991     1.560
  25   1 H      0.064  0.936  0.000  0.000     2.151     2.294
  26   1 H      0.066  0.934  0.000  0.000     2.130     2.282
  27   1 H      0.030  0.970  0.000  0.000     2.579     2.512
  28   1 H      0.023  0.977  0.000  0.000     2.693     2.566
  29   1 H      0.073  0.927  0.000  0.000     2.053     2.241
  30   1 H      0.060  0.940  0.000  0.000     2.201     2.320
  31   1 H      0.056  0.944  0.000  0.000     2.248     2.345
  32   1 H      0.034  0.966  0.000  0.000     2.533     2.489
  33   1 H      0.050  0.950  0.000  0.000     2.314     2.379
  34   1 H      0.057  0.943  0.000  0.000     2.238     2.339
  35   7 N     -0.179  1.243  3.936  0.000    24.885     7.409
  36   6 C      0.022  1.062  2.917  0.000    20.218     6.403
  37   6 C      0.283  1.036  2.680  0.000    22.199     7.716
  38   8 O     -0.454  1.726  4.729  0.000    22.799     6.402
  39   6 C     -0.118  1.066  3.052  0.000    22.751     6.790
  40   6 C      0.292  1.031  2.677  0.000    22.047     7.688
  41   8 O     -0.478  1.756  4.722  0.000    23.295     6.471
  42   7 N     -0.293  1.287  4.006  0.000    27.547     7.795
  43   1 H      0.223  0.777  0.000  0.000     0.997     1.564
  44   1 H      0.096  0.904  0.000  0.000     1.821     2.110
  45   1 H      0.101  0.899  0.000  0.000     1.777     2.085
  46   1 H      0.079  0.921  0.000  0.000     1.992     2.207
  47   1 H      0.241  0.759  0.000  0.000     0.917     1.500
  48   1 H      0.241  0.759  0.000  0.000     0.918     1.501
  49   7 N     -0.169  1.238  3.930  0.000    24.647     7.373
  50   6 C      0.021  1.061  2.918  0.000    20.223     6.403
  51   6 C      0.278  1.040  2.682  0.000    22.302     7.734
  52   8 O     -0.480  1.733  4.747  0.000    23.357     6.480
  53   6 C     -0.102  1.060  3.041  0.000    22.432     6.742
  54   6 C      0.296  1.033  2.671  0.000    21.980     7.676
  55   8 O     -0.490  1.754  4.737  0.000    23.572     6.509
  56   7 N     -0.277  1.259  4.018  0.000    27.165     7.741
  57   1 H      0.189  0.811  0.000  0.000     1.162     1.688
  58   1 H      0.113  0.887  0.000  0.000     1.675     2.024
  59   1 H      0.068  0.932  0.000  0.000     2.106     2.269
  60   1 H      0.067  0.933  0.000  0.000     2.118     2.276
  61   1 H      0.243  0.757  0.000  0.000     0.911     1.495
  62   1 H      0.210  0.790  0.000  0.000     1.059     1.612
  63   7 N     -0.182  1.246  3.936  0.000    24.938     7.417
  64   6 C      0.026  1.061  2.913  0.000    20.140     6.390
  65   6 C      0.270  1.041  2.689  0.000    22.447     7.759
  66   8 O     -0.482  1.728  4.754  0.000    23.396     6.485
  67   6 C     -0.109  1.062  3.047  0.000    22.573     6.763
  68   6 C      0.289  1.038  2.674  0.000    22.107     7.699
  69   8 O     -0.489  1.736  4.753  0.000    23.552     6.507
  70   7 N     -0.277  1.263  4.015  0.000    27.166     7.741
  71   1 H      0.218  0.782  0.000  0.000     1.019     1.581
  72   1 H      0.073  0.927  0.000  0.000     2.056     2.242
  73   1 H      0.094  0.906  0.000  0.000     1.841     2.122
  74   1 H      0.089  0.911  0.000  0.000     1.884     2.147
  75   1 H      0.196  0.804  0.000  0.000     1.125     1.661
  76   1 H      0.226  0.774  0.000  0.000     0.984     1.554
  77   7 N     -0.171  1.247  3.924  0.000    24.692     7.380
  78   6 C      0.012  1.064  2.924  0.000    20.370     6.426
  79   6 C      0.265  1.045  2.689  0.000    22.524     7.772
  80   8 O     -0.479  1.726  4.753  0.000    23.323     6.475
  81   6 C     -0.084  1.061  3.023  0.000    22.089     6.690
  82   6 C     -0.020  1.058  2.963  0.000    20.904     6.503
  83   6 C     -0.120  1.043  3.077  0.000    22.860     6.817
  84   6 C     -0.124  1.042  3.082  0.000    22.938     6.829
  85   1 H      0.231  0.769  0.000  0.000     0.960     1.535
  86   1 H      0.090  0.910  0.000  0.000     1.879     2.144
  87   1 H      0.062  0.938  0.000  0.000     2.178     2.308
  88   1 H      0.079  0.921  0.000  0.000     1.989     2.205
  89   1 H      0.040  0.960  0.000  0.000     2.455     2.450
  90   1 H      0.047  0.953  0.000  0.000     2.358     2.401
  91   1 H      0.032  0.968  0.000  0.000     2.563     2.504
  92   1 H      0.059  0.941  0.000  0.000     2.216     2.328
  93   1 H      0.046  0.954  0.000  0.000     2.367     2.406
  94   1 H      0.059  0.941  0.000  0.000     2.211     2.325
  95   1 H      0.035  0.965  0.000  0.000     2.513     2.479
  96   7 N     -0.179  1.246  3.933  0.000    24.876     7.408
  97   6 C      0.015  1.065  2.920  0.000    20.320     6.418
  98   6 C      0.272  1.042  2.686  0.000    22.412     7.753
  99   8 O     -0.490  1.739  4.752  0.000    23.572     6.509
 100   6 C     -0.067  1.051  3.016  0.000    21.780     6.643
 101   6 C     -0.108  1.061  3.048  0.000    22.559     6.762
 102   6 C      0.297  1.037  2.666  0.000    21.961     7.673
 103   8 O     -0.518  1.760  4.758  0.000    24.185     6.593
 104   7 N     -0.290  1.267  4.023  0.000    27.477     7.785
 105   1 H      0.226  0.774  0.000  0.000     0.984     1.554
 106   1 H      0.093  0.907  0.000  0.000     1.854     2.130
 107   1 H      0.059  0.941  0.000  0.000     2.212     2.326
 108   1 H      0.054  0.946  0.000  0.000     2.273     2.358
 109   1 H      0.077  0.923  0.000  0.000     2.005     2.214
 110   1 H      0.099  0.901  0.000  0.000     1.796     2.096
 111   1 H      0.242  0.758  0.000  0.000     0.917     1.500
 112   1 H      0.225  0.775  0.000  0.000     0.986     1.555
 113   7 N     -0.185  1.249  3.936  0.000    25.005     7.427
 114   6 C      0.020  1.062  2.919  0.000    20.244     6.406
 115   6 C      0.278  1.042  2.680  0.000    22.291     7.732
 116   8 O     -0.496  1.741  4.755  0.000    23.702     6.527
 117   6 C     -0.084  1.057  3.027  0.000    22.091     6.691
 118   6 C     -0.079  1.051  3.028  0.000    22.012     6.679
 119   6 C     -0.030  1.054  2.976  0.000    21.191     6.568
 120   7 N     -0.143  1.209  3.934  0.000    24.086     7.289
 121   6 C      0.238  1.019  2.743  0.000    23.025     7.856
 122   7 N     -0.269  1.263  4.006  0.000    26.965     7.712
 123   7 N     -0.276  1.238  4.039  0.000    27.144     7.738
 124   1 H      0.219  0.781  0.000  0.000     1.013     1.577
 125   1 H      0.081  0.919  0.000  0.000     1.973     2.197
 126   1 H      0.061  0.939  0.000  0.000     2.185     2.311
 127   1 H      0.072  0.928  0.000  0.000     2.068     2.249
 128   1 H      0.068  0.932  0.000  0.000     2.113     2.273
 129   1 H      0.063  0.937  0.000  0.000     2.166     2.301
 130   1 H      0.099  0.901  0.000  0.000     1.795     2.095
 131   1 H      0.073  0.927  0.000  0.000     2.054     2.241
 132   1 H      0.224  0.776  0.000  0.000     0.991     1.560
 133   1 H      0.254  0.746  0.000  0.000     0.867     1.459
 134   1 H      0.226  0.774  0.000  0.000     0.983     1.553
 135   1 H      0.243  0.757  0.000  0.000     0.912     1.496
 136   1 H      0.248  0.752  0.000  0.000     0.890     1.478
 137   7 N     -0.186  1.249  3.936  0.000    25.022     7.429
 138   6 C      0.021  1.065  2.914  0.000    20.213     6.401
 139   6 C      0.277  1.043  2.680  0.000    22.312     7.735
 140   8 O     -0.495  1.737  4.758  0.000    23.681     6.524
 141   6 C     -0.028  1.063  2.965  0.000    21.039     6.524
 142   6 C     -0.123  1.041  3.082  0.000    22.899     6.822
 143   6 C     -0.129  1.042  3.086  0.000    23.022     6.841
 144   1 H      0.224  0.776  0.000  0.000     0.992     1.561
 145   1 H      0.061  0.939  0.000  0.000     2.193     2.316
 146   1 H      0.067  0.933  0.000  0.000     2.124     2.279
 147   1 H      0.066  0.934  0.000  0.000     2.127     2.281
 148   1 H      0.053  0.947  0.000  0.000     2.285     2.364
 149   1 H      0.047  0.953  0.000  0.000     2.363     2.404
 150   1 H      0.058  0.942  0.000  0.000     2.218     2.329
 151   1 H      0.041  0.959  0.000  0.000     2.435     2.440
 152   1 H      0.050  0.950  0.000  0.000     2.325     2.384
 153   7 N     -0.180  1.247  3.933  0.000    24.899     7.411
 154   6 C      0.020  1.063  2.917  0.000    20.237     6.405
 155   6 C      0.283  1.040  2.677  0.000    22.208     7.717
 156   8 O     -0.496  1.747  4.749  0.000    23.690     6.526
 157   6 C     -0.090  1.057  3.033  0.000    22.204     6.707
 158   6 C     -0.091  1.056  3.035  0.000    22.243     6.715
 159   6 C     -0.028  1.054  2.975  0.000    21.157     6.562
 160   7 N     -0.142  1.210  3.932  0.000    24.085     7.289
 161   6 C      0.228  1.019  2.753  0.000    23.205     7.887
 162   7 N     -0.242  1.228  4.014  0.000    26.325     7.620
 163   7 N     -0.257  1.237  4.020  0.000    26.669     7.670
 164   1 H      0.233  0.767  0.000  0.000     0.954     1.530
 165   1 H      0.080  0.920  0.000  0.000     1.980     2.201
 166   1 H      0.075  0.925  0.000  0.000     2.034     2.231
 167   1 H      0.061  0.939  0.000  0.000     2.185     2.311
 168   1 H      0.078  0.922  0.000  0.000     1.995     2.209
 169   1 H      0.075  0.925  0.000  0.000     2.029     2.228
 170   1 H      0.081  0.919  0.000  0.000     1.971     2.195
 171   1 H      0.085  0.915  0.000  0.000     1.925     2.170
 172   1 H      0.235  0.765  0.000  0.000     0.943     1.521
 173   1 H      0.246  0.754  0.000  0.000     0.900     1.486
 174   1 H      0.257  0.743  0.000  0.000     0.855     1.449
 175   1 H      0.255  0.745  0.000  0.000     0.865     1.457
 176   1 H      0.257  0.743  0.000  0.000     0.857     1.450
 177   7 N     -0.181  1.241  3.940  0.000    24.910     7.413
 178   6 C      0.030  1.059  2.911  0.000    20.080     6.380
 179   6 C      0.281  1.040  2.679  0.000    22.248     7.724
 180   8 O     -0.526  1.759  4.767  0.000    24.372     6.619
 181   6 C     -0.050  1.050  3.000  0.000    21.451     6.592
 182   6 C     -0.094  1.063  3.031  0.000    22.289     6.722
 183   6 C      0.368  1.026  2.606  0.000    20.767     7.458
 184   8 O     -0.622  1.772  4.850  0.000    26.658     6.922
 185   8 O     -0.608  1.755  4.853  0.000    26.328     6.879
 186   1 H      0.212  0.788  0.000  0.000     1.046     1.602
 187   1 H      0.056  0.944  0.000  0.000     2.245     2.343
 188   1 H      0.058  0.942  0.000  0.000     2.228     2.334
 189   1 H      0.028  0.972  0.000  0.000     2.618     2.530
 190   1 H      0.024  0.976  0.000  0.000     2.678     2.559
 191   1 H      0.040  0.960  0.000  0.000     2.443     2.444
 192   7 N     -0.180  1.247  3.934  0.000    24.907     7.412
 193   6 C      0.028  1.060  2.912  0.000    20.098     6.383
 194   6 C      0.279  1.040  2.681  0.000    22.287     7.731
 195   8 O     -0.516  1.758  4.758  0.000    24.144     6.588
 196   6 C     -0.080  1.060  3.020  0.000    22.027     6.681
 197   6 C     -0.013  1.056  2.957  0.000    20.778     6.483
 198   6 C     -0.114  1.041  3.073  0.000    22.737     6.798
 199   6 C     -0.114  1.041  3.073  0.000    22.729     6.798
 200   1 H      0.228  0.772  0.000  0.000     0.975     1.547
 201   1 H      0.058  0.942  0.000  0.000     2.229     2.335
 202   1 H      0.067  0.933  0.000  0.000     2.115     2.274
 203   1 H      0.062  0.938  0.000  0.000     2.177     2.308
 204   1 H      0.037  0.963  0.000  0.000     2.495     2.470
 205   1 H      0.044  0.956  0.000  0.000     2.401     2.423
 206   1 H      0.038  0.962  0.000  0.000     2.469     2.457
 207   1 H      0.048  0.952  0.000  0.000     2.348     2.396
 208   1 H      0.042  0.958  0.000  0.000     2.427     2.436
 209   1 H      0.044  0.956  0.000  0.000     2.392     2.419
 210   1 H      0.031  0.969  0.000  0.000     2.566     2.505
 211   7 N     -0.178  1.250  3.929  0.000    24.863     7.406
 212   6 C      0.035  1.056  2.908  0.000    19.988     6.367
 213   6 C      0.215  1.085  2.700  0.000    23.454     7.931
 214   8 O     -0.376  1.757  4.618  0.000    21.204     6.174
 215   6 C     -0.137  1.044  3.093  0.000    23.184     6.865
 216   1 H      0.242  0.758  0.000  0.000     0.917     1.500
 217   1 H      0.081  0.919  0.000  0.000     1.967     2.193
 218   1 H      0.078  0.922  0.000  0.000     1.995     2.209
 219   1 H      0.089  0.911  0.000  0.000     1.891     2.150
 220   1 H      0.081  0.919  0.000  0.000     1.965     2.192
 221   7 N     -0.403  1.311  4.093  0.000    30.468     8.198
 222   6 C      0.030  1.056  2.914  0.000    20.086     6.383
 223   6 C      0.265  1.052  2.683  0.000    22.529     7.773
 224   8 O     -0.503  1.746  4.757  0.000    23.859     6.549
 225   6 C     -0.058  1.055  3.003  0.000    21.615     6.619
 226   6 C     -0.100  1.064  3.037  0.000    22.412     6.740
 227   6 C      0.363  1.027  2.610  0.000    20.839     7.470
 228   8 O     -0.625  1.760  4.865  0.000    26.750     6.934
 229   8 O     -0.607  1.768  4.839  0.000    26.293     6.875
 230   1 H      0.168  0.832  0.000  0.000     1.284     1.775
 231   1 H      0.048  0.952  0.000  0.000     2.341     2.393
 232   1 H      0.040  0.960  0.000  0.000     2.448     2.447
 233   1 H      0.038  0.962  0.000  0.000     2.470     2.458
 234   1 H      0.039  0.961  0.000  0.000     2.459     2.452
 235   1 H      0.037  0.963  0.000  0.000     2.483     2.464
 236   7 N     -0.175  1.246  3.930  0.000    24.794     7.395
 237   6 C      0.009  1.069  2.922  0.000    20.430     6.435
 238   6 C      0.283  1.040  2.677  0.000    22.216     7.718
 239   8 O     -0.470  1.737  4.733  0.000    23.137     6.449
 240   6 C     -0.030  1.070  2.960  0.000    21.071     6.529
 241   6 C     -0.064  1.052  3.013  0.000    21.733     6.637
 242   6 C     -0.118  1.037  3.081  0.000    22.818     6.811
 243   6 C     -0.114  1.037  3.078  0.000    22.748     6.802
 244   1 H      0.217  0.783  0.000  0.000     1.025     1.586
 245   1 H      0.081  0.919  0.000  0.000     1.971     2.196
 246   1 H      0.051  0.949  0.000  0.000     2.312     2.378
 247   1 H      0.051  0.949  0.000  0.000     2.305     2.374
 248   1 H      0.034  0.966  0.000  0.000     2.524     2.485
 249   1 H      0.068  0.932  0.000  0.000     2.111     2.272
 250   1 H      0.040  0.960  0.000  0.000     2.447     2.446
 251   1 H      0.058  0.942  0.000  0.000     2.226     2.333
 252   1 H      0.040  0.960  0.000  0.000     2.444     2.445
 253   1 H      0.043  0.957  0.000  0.000     2.411     2.428
 254   1 H      0.054  0.946  0.000  0.000     2.273     2.358
 255   7 N     -0.181  1.236  3.946  0.000    24.930     7.416
 256   6 C      0.006  1.067  2.927  0.000    20.486     6.445
 257   6 C      0.274  1.040  2.686  0.000    22.364     7.745
 258   8 O     -0.478  1.745  4.733  0.000    23.299     6.472
 259   6 C      0.112  1.048  2.840  0.000    18.842     6.198
 260   8 O     -0.461  1.729  4.732  0.000    22.064     6.341
 261   6 C     -0.130  1.040  3.090  0.000    23.056     6.847
 262   1 H      0.205  0.795  0.000  0.000     1.081     1.629
 263   1 H      0.088  0.912  0.000  0.000     1.899     2.155
 264   1 H      0.031  0.969  0.000  0.000     2.569     2.507
 265   1 H      0.334  0.666  0.000  0.000     0.627     1.243
 266   1 H      0.077  0.923  0.000  0.000     2.006     2.215
 267   1 H      0.048  0.952  0.000  0.000     2.340     2.392
 268   1 H      0.072  0.928  0.000  0.000     2.060     2.244
 269   7 N     -0.173  1.240  3.933  0.000    24.748     7.389
 270   6 C      0.019  1.064  2.917  0.000    20.252     6.407
 271   6 C      0.281  1.038  2.681  0.000    22.251     7.725
 272   8 O     -0.508  1.751  4.757  0.000    23.964     6.563
 273   6 C     -0.073  1.056  3.018  0.000    21.900     6.662
 274   6 C     -0.102  1.056  3.046  0.000    22.446     6.744
 275   6 C      0.290  1.038  2.672  0.000    22.083     7.694
 276   8 O     -0.501  1.744  4.757  0.000    23.805     6.541
 277   7 N     -0.275  1.266  4.009  0.000    27.109     7.733
 278   1 H      0.211  0.789  0.000  0.000     1.052     1.606
 279   1 H      0.074  0.926  0.000  0.000     2.043     2.235
 280   1 H      0.075  0.925  0.000  0.000     2.028     2.227
 281   1 H      0.069  0.931  0.000  0.000     2.100     2.266
 282   1 H      0.057  0.943  0.000  0.000     2.234     2.337
 283   1 H      0.079  0.921  0.000  0.000     1.985     2.203
 284   1 H      0.232  0.768  0.000  0.000     0.955     1.530
 285   1 H      0.232  0.768  0.000  0.000     0.955     1.530
 286   7 N     -0.178  1.247  3.931  0.000    24.854     7.404
 287   6 C      0.019  1.061  2.919  0.000    20.253     6.408
 288   6 C      0.278  1.041  2.681  0.000    22.301     7.733
 289   8 O     -0.507  1.747  4.760  0.000    23.930     6.559
 290   6 C     -0.086  1.058  3.029  0.000    22.145     6.699
 291   6 C     -0.081  1.055  3.026  0.000    22.039     6.684
 292   6 C     -0.032  1.053  2.979  0.000    21.231     6.575
 293   7 N     -0.162  1.228  3.934  0.000    24.514     7.353
 294   6 C      0.239  1.022  2.739  0.000    23.001     7.852
 295   7 N     -0.259  1.231  4.027  0.000    26.714     7.676
 296   7 N     -0.296  1.290  4.006  0.000    27.624     7.806
 297   1 H      0.236  0.764  0.000  0.000     0.941     1.519
 298   1 H      0.066  0.934  0.000  0.000     2.125     2.280
 299   1 H      0.095  0.905  0.000  0.000     1.830     2.115
 300   1 H      0.063  0.937  0.000  0.000     2.161     2.299
 301   1 H      0.062  0.938  0.000  0.000     2.170     2.304
 302   1 H      0.073  0.927  0.000  0.000     2.055     2.242
 303   1 H      0.080  0.920  0.000  0.000     1.983     2.202
 304   1 H      0.087  0.913  0.000  0.000     1.908     2.160
 305   1 H      0.225  0.775  0.000  0.000     0.986     1.556
 306   1 H      0.232  0.768  0.000  0.000     0.956     1.531
 307   1 H      0.227  0.773  0.000  0.000     0.976     1.548
 308   1 H      0.261  0.739  0.000  0.000     0.844     1.439
 309   1 H      0.234  0.766  0.000  0.000     0.947     1.525
 310   7 N     -0.177  1.246  3.931  0.000    24.825     7.400
 311   6 C      0.024  1.059  2.916  0.000    20.165     6.394
 312   6 C      0.278  1.041  2.680  0.000    22.288     7.731
 313   8 O     -0.506  1.755  4.751  0.000    23.925     6.558
 314   6 C     -0.076  1.059  3.018  0.000    21.952     6.669
 315   6 C     -0.015  1.057  2.958  0.000    20.810     6.488
 316   6 C     -0.110  1.041  3.069  0.000    22.660     6.787
 317   6 C     -0.118  1.041  3.077  0.000    22.813     6.810
 318   1 H      0.234  0.766  0.000  0.000     0.949     1.526
 319   1 H      0.074  0.926  0.000  0.000     2.045     2.236
 320   1 H      0.054  0.946  0.000  0.000     2.272     2.357
 321   1 H      0.051  0.949  0.000  0.000     2.308     2.376
 322   1 H      0.051  0.949  0.000  0.000     2.308     2.376
 323   1 H      0.058  0.942  0.000  0.000     2.219     2.330
 324   1 H      0.027  0.973  0.000  0.000     2.626     2.534
 325   1 H      0.042  0.958  0.000  0.000     2.423     2.434
 326   1 H      0.063  0.937  0.000  0.000     2.164     2.301
 327   1 H      0.035  0.965  0.000  0.000     2.523     2.484
 328   1 H      0.040  0.960  0.000  0.000     2.447     2.446
 329   7 N     -0.191  1.254  3.937  0.000    25.144     7.447
 330   6 C      0.039  1.054  2.907  0.000    19.912     6.353
 331   6 C      0.285  1.039  2.676  0.000    22.166     7.710
 332   8 O     -0.524  1.759  4.764  0.000    24.312     6.611
 333   6 C     -0.111  1.063  3.048  0.000    22.616     6.769
 334   6 C      0.292  1.034  2.674  0.000    22.044     7.688
 335   8 O     -0.469  1.744  4.726  0.000    23.117     6.446
 336   7 N     -0.293  1.267  4.026  0.000    27.561     7.797
 337   1 H      0.239  0.761  0.000  0.000     0.927     1.508
 338   1 H      0.065  0.935  0.000  0.000     2.139     2.287
 339   1 H      0.088  0.912  0.000  0.000     1.901     2.156
 340   1 H      0.072  0.928  0.000  0.000     2.068     2.249
 341   1 H      0.242  0.758  0.000  0.000     0.915     1.498
 342   1 H      0.229  0.771  0.000  0.000     0.971     1.543
 343   7 N     -0.192  1.253  3.939  0.000    25.175     7.452
 344   6 C      0.040  1.053  2.907  0.000    19.899     6.351
 345   6 C      0.290  1.041  2.669  0.000    22.076     7.694
 346   8 O     -0.529  1.764  4.765  0.000    24.448     6.629
 347   6 C     -0.056  1.053  3.003  0.000    21.575     6.613
 348   6 C     -0.083  1.063  3.020  0.000    22.093     6.692
 349   6 C      0.373  1.025  2.602  0.000    20.679     7.442
 350   8 O     -0.639  1.769  4.871  0.000    27.108     6.981
 351   8 O     -0.666  1.776  4.889  0.000    27.790     7.068
 352   1 H      0.229  0.771  0.000  0.000     0.972     1.544
 353   1 H      0.062  0.938  0.000  0.000     2.179     2.309
 354   1 H      0.051  0.949  0.000  0.000     2.310     2.377
 355   1 H      0.055  0.945  0.000  0.000     2.253     2.347
 356   1 H      0.030  0.970  0.000  0.000     2.589     2.516
 357   1 H      0.007  0.993  0.000  0.000     2.937     2.680
 358   7 N     -0.187  1.252  3.934  0.000    25.046     7.433
 359   6 C      0.041  1.060  2.899  0.000    19.883     6.349
 360   6 C      0.223  1.080  2.697  0.000    23.312     7.907
 361   8 O     -0.380  1.747  4.632  0.000    21.276     6.184
 362   6 C     -0.022  1.065  2.957  0.000    20.929     6.507
 363   6 C     -0.064  1.050  3.014  0.000    21.729     6.636
 364   6 C     -0.121  1.040  3.081  0.000    22.868     6.819
 365   6 C     -0.114  1.038  3.076  0.000    22.741     6.801
 366   1 H      0.234  0.766  0.000  0.000     0.949     1.526
 367   1 H      0.056  0.944  0.000  0.000     2.244     2.342
 368   1 H      0.061  0.939  0.000  0.000     2.190     2.314
 369   1 H      0.034  0.966  0.000  0.000     2.532     2.488
 370   1 H      0.035  0.965  0.000  0.000     2.513     2.479
 371   1 H      0.083  0.917  0.000  0.000     1.948     2.183
 372   1 H      0.031  0.969  0.000  0.000     2.578     2.511
 373   1 H      0.057  0.943  0.000  0.000     2.240     2.340
 374   1 H      0.056  0.944  0.000  0.000     2.246     2.344
 375   1 H      0.042  0.958  0.000  0.000     2.428     2.437
 376   1 H      0.064  0.936  0.000  0.000     2.154     2.295
 377   7 N     -0.396  1.314  4.082  0.000    30.262     8.170
 378   6 C      0.037  1.055  2.908  0.000    19.973     6.366
 379   6 C      0.192  1.088  2.720  0.000    23.887     8.004
 380   8 O     -0.374  1.751  4.623  0.000    21.166     6.168
 381   6 C     -0.071  1.059  3.012  0.000    21.841     6.652
 382   6 C     -0.011  1.056  2.954  0.000    20.734     6.477
 383   6 C     -0.117  1.042  3.075  0.000    22.786     6.805
 384   6 C     -0.112  1.039  3.073  0.000    22.696     6.793
 385   1 H      0.155  0.845  0.000  0.000     1.367     1.831
 386   1 H      0.079  0.921  0.000  0.000     1.993     2.207
 387   1 H      0.036  0.964  0.000  0.000     2.508     2.477
 388   1 H      0.054  0.946  0.000  0.000     2.265     2.354
 389   1 H      0.029  0.971  0.000  0.000     2.601     2.522
 390   1 H      0.044  0.956  0.000  0.000     2.390     2.418
 391   1 H      0.043  0.957  0.000  0.000     2.413     2.429
 392   1 H      0.046  0.954  0.000  0.000     2.365     2.405
 393   1 H      0.040  0.960  0.000  0.000     2.453     2.449
 394   1 H      0.046  0.954  0.000  0.000     2.368     2.407
 395   1 H      0.035  0.965  0.000  0.000     2.521     2.483
 396   7 N     -0.393  1.319  4.073  0.000    30.167     8.157
 397   6 C      0.042  1.055  2.903  0.000    19.890     6.353
 398   6 C      0.201  1.090  2.709  0.000    23.717     7.975
 399   8 O     -0.367  1.758  4.609  0.000    21.030     6.148
 400   6 C     -0.068  1.061  3.007  0.000    21.786     6.644
 401   6 C     -0.012  1.056  2.956  0.000    20.760     6.481
 402   6 C     -0.119  1.041  3.078  0.000    22.842     6.814
 403   6 C     -0.117  1.042  3.074  0.000    22.781     6.805
 404   1 H      0.171  0.829  0.000  0.000     1.270     1.765
 405   1 H      0.040  0.960  0.000  0.000     2.444     2.445
 406   1 H      0.050  0.950  0.000  0.000     2.320     2.382
 407   1 H      0.054  0.946  0.000  0.000     2.267     2.355
 408   1 H      0.016  0.984  0.000  0.000     2.800     2.617
 409   1 H      0.047  0.953  0.000  0.000     2.355     2.400
 410   1 H      0.030  0.970  0.000  0.000     2.592     2.518
 411   1 H      0.050  0.950  0.000  0.000     2.314     2.379
 412   1 H      0.045  0.955  0.000  0.000     2.388     2.417
 413   1 H      0.047  0.953  0.000  0.000     2.353     2.399
 414   1 H      0.041  0.959  0.000  0.000     2.430     2.438
 415   7 N     -0.389  1.313  4.076  0.000    30.062     8.143
 416   6 C      0.035  1.060  2.905  0.000    19.994     6.369
 417   6 C      0.198  1.093  2.709  0.000    23.784     7.987
 418   8 O     -0.380  1.760  4.620  0.000    21.292     6.187
 419   6 C     -0.029  1.071  2.958  0.000    21.054     6.526
 420   6 C     -0.064  1.050  3.014  0.000    21.733     6.637
 421   6 C     -0.121  1.041  3.080  0.000    22.876     6.820
 422   6 C     -0.112  1.038  3.074  0.000    22.700     6.794
 423   1 H      0.169  0.831  0.000  0.000     1.278     1.771
 424   1 H      0.047  0.953  0.000  0.000     2.355     2.400
 425   1 H      0.053  0.947  0.000  0.000     2.288     2.366
 426   1 H      0.047  0.953  0.000  0.000     2.356     2.400
 427   1 H      0.041  0.959  0.000  0.000     2.432     2.439
 428   1 H      0.054  0.946  0.000  0.000     2.276     2.359
 429   1 H      0.043  0.957  0.000  0.000     2.412     2.429
 430   1 H      0.045  0.955  0.000  0.000     2.388     2.416
 431   1 H      0.040  0.960  0.000  0.000     2.455     2.450
 432   1 H      0.041  0.959  0.000  0.000     2.430     2.438
 433   1 H      0.032  0.968  0.000  0.000     2.553     2.499
 434   1 H      0.182  0.818  0.000  0.000     1.200     1.716
 435   1 H      0.063  0.937  0.000  0.000     2.167     2.302
 436   1 H      0.183  0.817  0.000  0.000     1.195     1.712
 437   1 H      0.051  0.949  0.000  0.000     2.310     2.377
 438   1 H      0.187  0.813  0.000  0.000     1.175     1.698
 439   1 H      0.060  0.940  0.000  0.000     2.194     2.316
 440   1 H      0.179  0.821  0.000  0.000     1.218     1.728
 441   1 H      0.060  0.940  0.000  0.000     2.197     2.318
 442   1 H      0.172  0.828  0.000  0.000     1.262     1.760
 443   1 H      0.079  0.921  0.000  0.000     1.988     2.204

 Mol. C6AA /au·bohr⁶  :    1753645.889112
 Mol. C8AA /au·bohr⁸  :   38474107.642487
 Mol. α(0) /au        :       1969.877980

 
molecular dipole:
                 x           y           z       tot (Debye)
 q only:     -304.410    -160.797    -231.096
   full:     -304.161    -158.337    -228.257    1047.042
molecular quadrupole (traceless):
                xx          xy          yy          xz          yz          zz
 q only:   -52914.052  -72302.628   47403.913 -104695.745  -54442.384    5510.139
  q+dip:   -53641.473  -71164.575   47409.009 -103426.155  -53141.977    6232.464
   full:   -53642.279  -71167.456   47414.810 -103424.368  -53140.399    6227.469
speedup 15.95
cpu  time for grad   46.34 s
wall time for grad    2.91 s

SCC energy    :    -686.0520202
rep           :       8.0632218
ES            :       2.3656852
AES           :      -0.0963768
AXC           :       0.2078460
disp          :      -0.6022136
XB            :       0.0000000
fix           :       0.0000000
Gborn         :       0.0000000
Gsasa         :       0.0000000
Ghb           :       0.0000000
Gshift        :       0.0000000
Gsolv         :      -0.6388974     -400.91
Etot ala COSMO:    -686.0520202
grad norm     :       0.5036110
total E       :    -677.9217060
atomizationE  :     123.4071227    77439.14
(atE without considering molecular charge,
 total energy contains solvation terms)
H-L gap (eV)  :          2.0308

------------------------------------------------------------------------
 * finished run on 2019/02/13 at 00:18:49.628     
------------------------------------------------------------------------
 total:
 * wall-time:     0 d,  0 h,  0 min,  3.293 sec
 *  cpu-time:     0 d,  0 h,  0 min, 52.345 sec
 * ratio c/w:    15.894 speedup
 SCF:
 * wall-time:     0 d,  0 h,  0 min,  3.105 sec
 *  cpu-time:     0 d,  0 h,  0 min, 49.527 sec
 * ratio c/w:    15.950 speedup

