      -----------------------------------------------------------      
     |                   =====================                   |     
     |                           x T B                           |     
     |                   =====================                   |     
     |                         S. Grimme                         |     
     |          Mulliken Center for Theoretical Chemistry        |     
     |                    University of Bonn                     |     
     |                Version 6.1 RC1 (SAW190329)                |     
      -----------------------------------------------------------      

   This program is distributed in the hope that it will be useful,
   but WITHOUT ANY WARRANTY; without even the implied warranty of
   MERCHANTABILITY or FITNESS FOR A PARTICULAR PURPOSE.
   
   FOR NON-COMMERCIAL, ACADEMIA USE ONLY.
   
   Cite this work as:
   S. Grimme, C. Bannwarth, P. Shushkov, J. Comput. Theory Chem., 2017,
   13, 1989-2009. DOI: 10.1021/acs.jctc.7b00118
   C. Bannwarth, S. Ehlert and S. Grimme., J. Comput. Theory Chem., 2019,
   just accepted. DOI: 10.1021/acs.jctc.8b01176
   
   for sTDA-xTB:
   S. Grimme and C. Bannwarth, J. Chem. Phys., 2016, 145, 054103.
   DOI: 10.1063/1.4959605
   
   in the mass-spec context:
   V. Asgeirsson, C. Bauer and S. Grimme, Chem. Sci., 2017, 8, 4879.
   DOI: 10.1039/c7sc00601b
   
   for metadynamics refer to:
   S. Grimme, ChemRxiv, Preprint. DOI: 10.26434/chemrxiv.7660532.v1
   
   with help from (in alphabetical order)
   C. Bannwarth, F. Bohle, G. Brandenburg, E. Caldeweyher, M. Checinski,
   S. Dohm, S. Ehlert, S. Ehrlich, F. März, H. Neugebauer, J. Pisarek,
   P. Pracht, P. Shushkov, and S. Spicher.
   
 * started run on 2019/05/31 at 02:07:14.427     

           -------------------------------------------------
          |                Calculation Setup                |
           -------------------------------------------------

          program call               : /home/lum/qr/xtb-190329/bin/xtb xtb_tmp.xyz --chrg -1 --grad --gfn 2 --etemp 500 --acc 0.1 --gbsa h2o --parallel 4
          hostname                   : cu39
          coordinate file            : xtb_tmp.xyz
          omp threads                :                     4
          number of atoms            :                   457
          number of electrons        :                  1292
          charge                     :                    -1
          spin                       :                   0.0
          first test random number   :      0.22726011896371


molecular fragmentation (1/2 indicates fragments):
111111111111111111111222222222222222222222222222222222222222222222222222
222222222222222222222222222222222222222222222222222222222222222222222222
222222222222222222222222222222222222222222222222222222222222222222222222
222222222222222222222222222222222222222222222222222222222222222222222222
222222222222222222222222222222222222222222222222222222222222222222222222
222222222222222222222222222222222222222222222222222222222222222222222222
2222222222211222222222222
# atoms in fragment 1/2:    23   434
 fragment masses (1/2) :      165.19     3148.50
CMA distance (Bohr)    :  14.591
constraining FC (au)   :  0.0500

########################################################################
# WARNING! Please study the warnings concerning your input carefully
#  - XTBPATH is not set, using XTBHOME instead
#  - Process number higher than OMP_NUM_THREADS, I hope you know what you are doing.
########################################################################

           ------------------------------------------------- 
          |                 G F N 2 - x T B                 |
          | Geometry, Frequencies, Noncovalent interactions |
          |            JCTC 2018 parametrisation            |
           ------------------------------------------------- 
 
             k(s)              :                1.8500
             k(p)              :                2.2300
             k(d)              :                2.2300
             k(f)              :                2.0000
             kEN (H0ij)        :               -2.0000
             D4 a1             :                0.5200
             D4 a2             :                5.0000
             D4 s6             :                1.0000
             D4 s8             :                2.7000
             D4 s9             :                5.0000
             alphaj            :                2.0000

  Z AO/shell   Hii/eV     exponent
  1     Wed Apr 25 08:07:45 CEST 2018   EN: 2.200 GM2: 0.406  GM3: 0.0800  RAES: 1.40
     1s    -10.707211    1.230000
  6     Wed Apr 25 08:07:45 CEST 2018   EN: 2.550 GM2: 0.538  GM3: 0.1500  RAES: 3.00
     2s    -13.970922    2.096432
     2p    -10.063292    1.800000
  7     Wed Apr 25 08:07:45 CEST 2018   EN: 3.040 GM2: 0.461  GM3:-0.0640  RAES: 1.90
     2s    -16.686243    2.339881
     2p    -12.523956    2.014332
  8     Wed Apr 25 08:07:45 CEST 2018   EN: 3.440 GM2: 0.452  GM3:-0.0517  RAES: 1.80
     2s    -20.229985    2.439742
     2p    -15.503117    2.137023

 Solvent             : h2o
 Using internal parameter file: .param_gbsa2_h2o
 Gsolv ref. state (COSMO-RS): gsolv [1 M gas/solution]
 temperature (mdtemp)       :    298.150000000000     
 dielectric constant        :    80.2000000000000     
 rho                        :    1.00000000000000     
 mass                       :    18.0000000000000     
 surface tension            :    15.5689454083859     
 probe radius               :   0.975313790000000     
 vdW radii scaling          :    1.00000000000000     
 Gshift (Eh)                :   1.857443126794793E-003
 c1                         :    1.55243817000000     
 soset                      :   0.130326360000000     
 HB correction              :  T
 Number of grid points      :          230

            Z     q(EN)     CN     RAES       Cart. coordinates
     1  N   5.0   -0.67    3.00    1.93    21.25903    19.06774    47.24668
     2  C   4.0    0.07    3.98    3.58    20.91188    20.06005    49.76739
     3  C   4.0    0.08    3.00    3.02    18.13286    20.82760    50.14617
     4  O   6.0   -0.39    1.00    1.80    16.91279    21.85143    48.47608
     5  C   4.0   -0.13    3.99    3.61    22.47931    22.48009    50.15144
     6  C   4.0   -0.05    3.02    3.02    25.27553    22.05559    50.43190
     7  C   4.0   -0.11    3.03    3.02    26.19955    20.70012    52.48296
     8  C   4.0   -0.12    3.03    3.02    26.99990    23.10787    48.75508
     9  C   4.0   -0.10    3.03    3.02    28.76429    20.39372    52.85537
    10  C   4.0   -0.11    3.03    3.02    29.57279    22.86080    49.13698
    11  C   4.0    0.09    3.03    3.02    30.48506    21.49482    51.19701
    12  O   6.0   -0.53    1.99    1.82    33.01812    21.26827    51.52853
    13  H   1.0    0.27    1.00    1.43    21.21637    20.32493    45.78691
    14  H   1.0    0.14    0.99    1.43    21.43626    18.60165    51.13209
    15  H   1.0    0.11    0.99    1.43    22.12444    23.73104    48.55233
    16  H   1.0    0.10    0.99    1.43    21.76739    23.40216    51.86010
    17  H   1.0    0.15    1.00    1.43    24.89487    19.87249    53.81209
    18  H   1.0    0.10    1.00    1.43    26.35262    24.13348    47.11576
    19  H   1.0    0.14    1.00    1.43    29.44009    19.32801    54.45940
    20  H   1.0    0.11    1.00    1.43    30.87228    23.73764    47.83191
    21  H   1.0    0.31    0.99    1.43    33.38544    20.03657    52.90988
    22  N   5.0   -0.72    3.00    1.93    19.22390    39.16707    60.32473
    23  C   4.0    0.06    3.98    3.59    20.91021    37.50922    58.96551
    24  C   4.0    0.06    3.00    3.02    21.39986    38.32702    56.23751
    25  O   6.0   -0.48    1.00    1.80    23.39665    37.77539    55.18930
    26  C   4.0   -0.14    3.99    3.60    19.90274    34.80789    59.00611
    27  C   4.0   -0.11    3.99    3.60    19.88690    33.75913    61.69893
    28  C   4.0    0.27    3.00    3.02    18.74296    31.14403    61.73469
    29  O   6.0   -0.41    1.00    1.80    16.74432    30.69657    60.63773
    30  N   5.0   -0.65    3.00    1.93    20.01804    29.42863    63.05423
    31  H   1.0    0.26    1.00    1.43    17.45195    38.51838    60.68216
    32  H   1.0    0.11    0.99    1.43    22.75773    37.56087    59.91260
    33  H   1.0    0.13    0.99    1.43    17.98196    34.78562    58.25452
    34  H   1.0    0.11    0.99    1.43    21.09755    33.63471    57.80200
    35  H   1.0    0.13    0.99    1.43    21.78448    33.70928    62.49175
    36  H   1.0    0.11    0.99    1.43    18.67203    34.94154    62.87823
    37  H   1.0    0.31    1.00    1.43    21.69962    29.88289    63.85719
    38  H   1.0    0.30    1.00    1.43    19.39452    27.63226    63.18203
    39  N   5.0   -0.71    3.00    1.93    27.91868    40.61911    53.54981
    40  C   4.0    0.08    3.98    3.59    29.99595    38.88312    53.20375
    41  C   4.0    0.27    3.01    3.02    30.23767    37.90913    50.48339
    42  O   6.0   -0.47    1.00    1.80    32.25123    37.04184    49.73224
    43  C   4.0   -0.13    3.99    3.60    29.69817    36.62336    54.99289
    44  C   4.0   -0.04    3.03    3.02    30.35622    37.33617    57.66281
    45  C   4.0   -0.10    3.03    3.02    32.85590    37.61735    58.41356
    46  C   4.0   -0.10    3.03    3.02    28.45813    37.76863    59.41863
    47  C   4.0   -0.10    3.03    3.02    33.44027    38.26786    60.87704
    48  C   4.0   -0.10    3.03    3.02    29.03499    38.43586    61.87998
    49  C   4.0   -0.09    3.03    3.02    31.53252    38.67458    62.62103
    50  H   1.0    0.31    1.00    1.43    26.42664    40.00703    54.58146
    51  H   1.0    0.12    0.99    1.43    31.76777    39.88048    53.62651
    52  H   1.0    0.13    0.99    1.43    27.74829    35.96226    54.88736
    53  H   1.0    0.10    0.99    1.43    30.93006    35.10852    54.33284
    54  H   1.0    0.10    1.00    1.43    34.36543    37.33726    57.06906
    55  H   1.0    0.12    1.00    1.43    26.51758    37.57504    58.82871
    56  H   1.0    0.12    1.00    1.43    35.39276    38.47147    61.42838
    57  H   1.0    0.12    1.00    1.43    27.53994    38.77633    63.22342
    58  H   1.0    0.12    1.00    1.43    31.98855    39.17589    64.54583
    59  N   5.0   -0.48    3.01    1.93    28.14287    37.99945    49.09130
    60  C   4.0    0.07    3.99    3.60    27.95428    37.07129    46.53702
    61  C   4.0    0.07    3.00    3.02    28.06585    39.19979    44.57364
    62  O   6.0   -0.40    1.00    1.80    27.26139    38.91461    42.42923
    63  C   4.0   -0.12    3.99    3.60    25.48687    35.58693    46.22693
    64  C   4.0   -0.10    3.98    3.58    25.10761    33.50661    48.21065
    65  C   4.0   -0.23    3.98    3.59    22.67777    32.05309    47.64779
    66  C   4.0   -0.22    3.98    3.59    27.34313    31.68714    48.30439
    67  H   1.0    0.26    1.00    1.43    26.54722    38.84111    49.74658
    68  H   1.0    0.16    0.99    1.43    29.58921    35.85098    46.16024
    69  H   1.0    0.12    0.99    1.43    23.92532    36.93128    46.35395
    70  H   1.0    0.13    0.99    1.43    25.48947    34.78296    44.33103
    71  H   1.0    0.12    0.99    1.43    24.91881    34.40657    50.06617
    72  H   1.0    0.10    0.99    1.43    22.26088    30.74216    49.17453
    73  H   1.0    0.11    0.99    1.43    21.10055    33.35061    47.43640
    74  H   1.0    0.10    0.99    1.43    22.88179    30.97218    45.91277
    75  H   1.0    0.09    0.99    1.43    26.92940    30.08942    49.52862
    76  H   1.0    0.11    0.99    1.43    27.76244    30.95136    46.43255
    77  H   1.0    0.12    0.99    1.43    29.02672    32.62421    49.01909
    78  N   5.0   -0.68    3.00    1.93    42.49266    43.41667    44.74118
    79  C   4.0    0.06    3.98    3.59    44.57674    41.76188    45.39892
    80  C   4.0    0.07    3.00    3.02    46.89263    42.24747    43.73833
    81  O   6.0   -0.38    1.00    1.80    46.71646    42.49410    41.44848
    82  C   4.0   -0.13    3.99    3.60    43.69169    39.00363    45.02533
    83  C   4.0   -0.04    3.12    3.03    41.53236    38.45007    46.75449
    84  C   4.0    0.01    3.22    3.04    39.00711    38.52228    46.20092
    85  C   4.0    0.01    3.18    3.03    41.71798    37.83732    49.37632
    86  N   5.0   -0.48    3.10    1.94    37.61431    37.96564    48.30164
    87  C   4.0    0.12    3.23    3.04    39.21545    37.51626    50.26482
    88  C   4.0   -0.12    3.02    3.02    43.72741    37.51730    51.04965
    89  C   4.0   -0.10    3.02    3.02    38.71555    36.85547    52.75545
    90  C   4.0   -0.11    3.03    3.02    43.22007    36.80748    53.49858
    91  C   4.0   -0.12    3.03    3.02    40.73793    36.48030    54.34975
    92  H   1.0    0.28    1.00    1.43    41.70881    43.13444    43.00622
    93  H   1.0    0.11    0.99    1.43    45.01922    42.10166    47.38661
    94  H   1.0    0.12    0.99    1.43    43.10246    38.78652    43.06066
    95  H   1.0    0.10    0.99    1.43    45.26438    37.74199    45.44379
    96  H   1.0    0.12    1.00    1.43    38.10681    38.93101    44.42812
    97  H   1.0    0.28    1.00    1.43    35.71564    37.81851    48.40479
    98  H   1.0    0.11    1.00    1.43    45.64295    37.85157    50.45349
    99  H   1.0    0.11    1.00    1.43    36.79051    36.65088    53.38744
   100  H   1.0    0.11    0.99    1.43    44.77254    36.49971    54.79144
   101  H   1.0    0.11    0.99    1.43    40.41671    35.96375    56.29891
   102  N   5.0   -0.50    3.03    1.93    36.20026    30.72883    43.46238
   103  C   4.0    0.05    4.02    3.65    34.04996    29.11479    44.04514
   104  C   4.0    0.06    3.00    3.02    31.70419    30.37171    42.92003
   105  O   6.0   -0.39    1.00    1.80    31.45523    32.67467    42.90388
   106  C   4.0   -0.14    4.01    3.63    33.91661    29.00453    46.94288
   107  C   4.0   -0.14    4.01    3.64    36.32200    30.34303    47.81572
   108  C   4.0   -0.01    4.03    3.67    36.83758    32.19967    45.67824
   109  H   1.0    0.10    0.99    1.43    34.31861    27.26318    43.17553
   110  H   1.0    0.11    0.99    1.43    32.25482    30.01538    47.61071
   111  H   1.0    0.10    0.99    1.43    33.81207    27.06595    47.60753
   112  H   1.0    0.11    0.99    1.43    36.08815    31.28730    49.62565
   113  H   1.0    0.10    0.99    1.43    37.88064    29.00580    47.93049
   114  H   1.0    0.15    0.99    1.43    35.54427    33.81068    45.80692
   115  H   1.0    0.11    0.99    1.43    38.77580    32.84774    45.66118
   116  N   5.0   -0.69    3.00    1.93    32.90501    19.58385    42.28763
   117  C   4.0    0.07    3.98    3.59    33.86989    19.39395    44.84881
   118  C   4.0    0.29    3.01    3.02    36.35186    20.87424    45.08531
   119  O   6.0   -0.38    1.00    1.80    37.81521    21.10237    43.30826
   120  C   4.0   -0.14    3.98    3.59    34.27766    16.60976    45.53719
   121  C   4.0   -0.14    3.98    3.59    34.63595    16.26185    48.38018
   122  C   4.0   -0.03    3.99    3.60    34.47514    13.49283    49.15858
   123  N   5.0   -0.47    3.02    1.93    34.70031    13.32121    51.88936
   124  C   4.0    0.37    3.01    3.02    34.68824    11.16850    53.16163
   125  N   5.0   -0.64    3.01    1.93    34.70283     8.94643    51.93513
   126  N   5.0   -0.65    3.02    1.93    34.96419    11.21123    55.66034
   127  H   1.0    0.27    1.00    1.43    33.19547    18.11222    41.11285
   128  H   1.0    0.11    0.99    1.43    32.45705    20.23520    46.10061
   129  H   1.0    0.11    0.99    1.43    32.60190    15.57237    44.93408
   130  H   1.0    0.13    0.99    1.43    35.91435    15.89545    44.51032
   131  H   1.0    0.15    0.99    1.43    36.45267    17.03637    48.95604
   132  H   1.0    0.13    0.99    1.43    33.14422    17.27906    49.36344
   133  H   1.0    0.12    0.99    1.43    32.65205    12.72617    48.54478
   134  H   1.0    0.14    0.99    1.43    36.00306    12.42373    48.27277
   135  H   1.0    0.30    1.00    1.43    34.50934    14.96635    52.92856
   136  H   1.0    0.26    1.00    1.43    34.17487     8.88655    50.10936
   137  H   1.0    0.26    1.00    1.43    34.53757     7.33010    52.92772
   138  H   1.0    0.32    1.00    1.43    34.84180    12.88239    56.66899
   139  H   1.0    0.27    1.00    1.43    34.80765     9.59953    56.65319
   140  N   5.0   -0.50    3.01    1.93    36.84660    21.80062    47.39266
   141  C   4.0    0.07    4.00    3.61    39.32038    22.86983    47.90316
   142  C   4.0    0.29    3.02    3.02    41.28576    20.93022    47.00273
   143  O   6.0   -0.43    1.00    1.80    40.92710    18.67121    47.43845
   144  C   4.0   -0.13    3.99    3.60    39.59468    23.31799    50.76253
   145  C   4.0   -0.05    3.03    3.02    41.70027    25.12966    51.36929
   146  C   4.0   -0.08    3.03    3.02    44.20604    24.33956    51.34073
   147  C   4.0   -0.10    3.03    3.02    41.16824    27.63791    51.92602
   148  C   4.0   -0.09    3.03    3.02    46.13750    26.03237    51.83258
   149  C   4.0   -0.11    3.03    3.02    43.09569    29.32360    52.46321
   150  C   4.0   -0.09    3.03    3.02    45.58617    28.52385    52.41566
   151  H   1.0    0.26    1.00    1.43    35.59039    21.66041    48.83376
   152  H   1.0    0.11    0.99    1.43    39.52887    24.63829    46.85662
   153  H   1.0    0.11    0.99    1.43    37.82269    24.10827    51.45832
   154  H   1.0    0.12    0.99    1.43    39.94563    21.49548    51.66058
   155  H   1.0    0.16    1.00    1.43    44.66824    22.40462    50.90079
   156  H   1.0    0.11    1.00    1.43    39.23614    28.27444    51.98769
   157  H   1.0    0.15    0.99    1.43    48.07810    25.40138    51.73779
   158  H   1.0    0.11    1.00    1.43    42.64798    31.26354    52.91051
   159  H   1.0    0.13    1.00    1.43    47.10880    29.80704    52.85150
   160  N   5.0   -0.33    3.03    1.93    43.37256    21.78077    45.88392
   161  C   4.0    0.07    4.03    3.67    45.46786    20.10641    45.24968
   162  C   4.0    0.29    3.01    3.02    46.06152    18.21520    47.33622
   163  O   6.0   -0.42    1.00    1.80    45.69743    18.64968    49.57004
   164  C   4.0   -0.13    4.01    3.64    47.68272    21.93429    44.90790
   165  C   4.0   -0.15    4.01    3.64    46.40690    24.21766    43.69517
   166  C   4.0   -0.05    4.01    3.65    43.87702    24.36948    45.08642
   167  H   1.0    0.12    0.99    1.43    45.07360    19.09145    43.48451
   168  H   1.0    0.13    0.99    1.43    48.43826    22.42675    46.76677
   169  H   1.0    0.13    0.99    1.43    49.21135    21.12907    43.78765
   170  H   1.0    0.10    0.99    1.43    47.52042    25.92730    43.92229
   171  H   1.0    0.12    0.99    1.43    46.11490    23.86595    41.68776
   172  H   1.0    0.11    0.99    1.43    44.04134    25.59440    46.74187
   173  H   1.0    0.11    0.99    1.43    42.37259    25.04377    43.84400
   174  N   5.0   -0.48    3.01    1.93    46.95250    15.99213    46.48600
   175  C   4.0    0.08    3.99    3.61    47.80365    14.06442    48.23675
   176  C   4.0    0.29    3.01    3.02    50.14624    14.80302    49.76858
   177  O   6.0   -0.41    1.00    1.80    50.17482    14.56479    52.06657
   178  C   4.0   -0.10    3.98    3.58    48.33123    11.59337    46.82843
   179  C   4.0    0.32    2.99    3.02    49.94023    11.79991    44.34972
   180  O   6.0   -0.42    1.00    1.80    50.71100    13.94154    43.67022
   181  O   6.0   -0.38    1.00    1.80    50.27184     9.78049    43.21105
   182  H   1.0    0.27    1.00    1.43    47.83563    15.90192    44.78271
   183  H   1.0    0.15    0.99    1.43    46.30292    13.79342    49.64134
   184  H   1.0    0.12    0.99    1.43    49.34300    10.28243    48.05729
   185  H   1.0    0.12    0.99    1.43    46.56738    10.68991    46.26885
   186  N   5.0   -0.46    3.00    1.93    52.08977    15.66372    48.39086
   187  C   4.0    0.10    4.00    3.61    54.58061    15.86244    49.47101
   188  C   4.0    0.27    3.02    3.02    55.48629    18.57705    49.85905
   189  O   6.0   -0.41    1.00    1.80    57.14192    19.07658    51.39878
   190  C   4.0   -0.01    3.98    3.59    56.52118    14.50759    47.80285
   191  O   6.0   -0.45    1.99    1.82    56.05521    11.89619    47.93055
   192  H   1.0    0.29    1.00    1.43    51.94269    15.45719    46.47007
   193  H   1.0    0.16    0.99    1.43    54.54273    14.93497    51.32696
   194  H   1.0    0.14    0.99    1.43    56.32614    15.22716    45.86043
   195  H   1.0    0.12    0.99    1.43    58.42957    14.95333    48.49396
   196  H   1.0    0.26    0.99    1.43    57.19863    11.01544    46.81121
   197  N   5.0   -0.45    3.01    1.93    54.35674    20.30349    48.40974
   198  C   4.0    0.08    4.00    3.62    55.37359    22.83589    48.25153
   199  C   4.0    0.28    3.01    3.02    54.33866    24.46910    50.40686
   200  O   6.0   -0.41    1.00    1.80    52.38506    23.98186    51.52865
   201  C   4.0   -0.11    3.98    3.59    54.63492    24.01604    45.71613
   202  C   4.0    0.31    2.99    3.02    55.26265    22.08198    43.56436
   203  O   6.0   -0.38    1.00    1.80    57.17892    22.48121    42.27688
   204  O   6.0   -0.42    1.00    1.80    53.76337    20.26080    43.37823
   205  H   1.0    0.29    1.00    1.43    53.41714    19.73111    46.82232
   206  H   1.0    0.13    0.99    1.43    57.44429    22.73024    48.41136
   207  H   1.0    0.12    0.99    1.43    52.60680    24.37635    45.70406
   208  H   1.0    0.12    0.99    1.43    55.67697    25.76122    45.39734
   209  N   5.0   -0.48    3.01    1.93    55.76358    26.50994    50.89029
   210  C   4.0    0.07    3.99    3.60    54.90029    28.59046    52.43094
   211  C   4.0    0.06    3.00    3.02    54.17218    30.79210    50.69498
   212  O   6.0   -0.40    1.00    1.80    55.26030    31.17774    48.69068
   213  C   4.0   -0.12    3.99    3.60    56.96604    29.50579    54.26133
   214  C   4.0   -0.02    3.03    3.02    57.29789    27.72892    56.44830
   215  C   4.0   -0.07    3.03    3.02    58.59017    25.46265    56.14838
   216  C   4.0   -0.08    3.03    3.02    56.30313    28.31930    58.80605
   217  C   4.0   -0.10    3.03    3.02    58.92087    23.84291    58.17391
   218  C   4.0   -0.10    3.03    3.02    56.64477    26.71047    60.83934
   219  C   4.0   -0.11    3.03    3.02    57.96932    24.47373    60.53019
   220  H   1.0    0.24    1.00    1.43    57.22631    26.90789    49.73040
   221  H   1.0    0.17    0.99    1.43    53.24844    27.93736    53.48320
   222  H   1.0    0.12    0.99    1.43    58.73490    29.69234    53.21218
   223  H   1.0    0.11    0.99    1.43    56.41298    31.36567    54.95713
   224  H   1.0    0.13    1.00    1.43    59.35042    24.95808    54.32298
   225  H   1.0    0.13    0.99    1.43    55.26866    30.06140    59.05997
   226  H   1.0    0.12    1.00    1.43    59.94295    22.09901    57.90088
   227  H   1.0    0.12    1.00    1.43    55.90432    27.22037    62.66932
   228  H   1.0    0.11    1.00    1.43    58.30226    23.24903    62.12714
   229  N   5.0   -0.71    3.00    1.93    50.53671    33.38833    59.29050
   230  C   4.0    0.08    3.98    3.59    48.96749    31.25047    59.94606
   231  C   4.0    0.27    3.01    3.02    49.63150    28.98822    58.27254
   232  O   6.0   -0.45    1.00    1.80    50.48341    29.31902    56.14787
   233  C   4.0   -0.13    3.99    3.60    46.14199    31.86876    59.50403
   234  C   4.0   -0.05    3.03    3.02    45.29347    34.02489    61.14446
   235  C   4.0   -0.12    3.03    3.02    45.86485    36.50872    60.51026
   236  C   4.0   -0.10    3.03    3.02    43.97142    33.57625    63.36719
   237  C   4.0   -0.08    3.03    3.02    45.16432    38.48122    62.06614
   238  C   4.0   -0.09    3.02    3.02    43.23274    35.53959    64.92662
   239  C   4.0    0.10    3.03    3.02    43.85067    38.01114    64.28949
   240  O   6.0   -0.47    1.99    1.83    43.20610    40.02582    65.77777
   241  H   1.0    0.27    1.00    1.43    50.48890    33.95333    57.45531
   242  H   1.0    0.12    0.99    1.43    49.29955    30.84267    61.93973
   243  H   1.0    0.11    0.99    1.43    45.90308    32.34575    57.51066
   244  H   1.0    0.12    0.99    1.43    45.05433    30.17415    59.93856
   245  H   1.0    0.10    1.00    1.43    46.88864    36.93622    58.79941
   246  H   1.0    0.13    0.99    1.43    43.50907    31.65959    63.89628
   247  H   1.0    0.13    1.00    1.43    45.64360    40.39355    61.55570
   248  H   1.0    0.13    0.99    1.43    42.17503    35.13077    66.62646
   249  H   1.0    0.25    0.99    1.43    42.22273    39.43552    67.20163
   250  N   5.0   -0.49    3.01    1.93    49.16249    26.69678    59.25805
   251  C   4.0    0.08    3.99    3.61    49.14705    24.46475    57.67868
   252  C   4.0    0.30    3.02    3.02    46.52609    23.28162    57.84804
   253  O   6.0   -0.42    1.00    1.80    44.88060    24.19008    59.20454
   254  C   4.0   -0.09    3.99    3.60    51.28343    22.63575    58.38477
   255  C   4.0    0.28    3.00    3.02    50.80842    21.29808    60.87062
   256  O   6.0   -0.43    1.00    1.80    48.67342    20.92080    61.69810
   257  N   5.0   -0.66    3.00    1.93    52.88098    20.53581    62.07434
   258  H   1.0    0.29    1.00    1.43    48.17248    26.56326    60.89684
   259  H   1.0    0.14    0.99    1.43    49.47279    25.08590    55.72875
   260  H   1.0    0.12    0.99    1.43    51.48891    21.21117    56.90399
   261  H   1.0    0.13    0.99    1.43    53.04598    23.70073    58.46856
   262  H   1.0    0.27    1.00    1.43    52.73843    19.55654    63.70836
   263  H   1.0    0.26    1.00    1.43    54.60897    20.82609    61.33186
   264  N   5.0   -0.50    3.01    1.93    46.08490    21.23224    56.44138
   265  C   4.0    0.07    4.00    3.62    43.53873    20.20561    56.30864
   266  C   4.0    0.31    3.01    3.02    42.37098    20.07145    58.94764
   267  O   6.0   -0.45    1.00    1.80    40.25187    20.87617    59.39591
   268  C   4.0   -0.14    3.98    3.59    43.60830    17.57417    55.11377
   269  C   4.0   -0.14    3.98    3.59    41.01999    16.28733    55.10715
   270  C   4.0   -0.03    3.99    3.60    41.10157    13.80523    53.64553
   271  N   5.0   -0.47    3.02    1.93    41.08611    14.29317    50.94318
   272  C   4.0    0.37    3.01    3.02    41.15686    12.53408    49.16545
   273  N   5.0   -0.64    3.01    1.93    41.19729    10.08216    49.75590
   274  N   5.0   -0.65    3.02    1.93    40.93063    13.24610    46.75755
   275  H   1.0    0.25    1.00    1.43    47.32352    20.65714    55.10968
   276  H   1.0    0.12    0.99    1.43    42.34495    21.48145    55.19029
   277  H   1.0    0.16    0.99    1.43    44.30707    17.78040    53.18665
   278  H   1.0    0.13    0.99    1.43    44.95590    16.40431    56.14649
   279  H   1.0    0.13    0.99    1.43    40.41943    15.90720    57.04166
   280  H   1.0    0.13    0.99    1.43    39.60137    17.52779    54.27122
   281  H   1.0    0.11    0.99    1.43    42.82704    12.78763    54.16620
   282  H   1.0    0.14    0.99    1.43    39.44318    12.67668    54.13793
   283  H   1.0    0.28    1.00    1.43    41.10081    16.11730    50.34826
   284  H   1.0    0.26    1.00    1.43    41.56335     9.52813    51.53991
   285  H   1.0    0.26    1.00    1.43    41.39367     8.78178    48.37592
   286  H   1.0    0.31    1.00    1.43    40.96102    15.12085    46.36329
   287  H   1.0    0.26    1.00    1.43    41.26432    12.02691    45.33512
   288  N   5.0   -0.49    3.01    1.93    43.75593    18.76133    60.62035
   289  C   4.0    0.10    3.99    3.61    42.85003    18.29624    63.15639
   290  C   4.0    0.33    3.02    3.02    42.13785    20.73677    64.51991
   291  O   6.0   -0.44    1.00    1.80    40.02458    21.08704    65.39777
   292  C   4.0   -0.02    3.98    3.59    44.87135    16.89803    64.68872
   293  O   6.0   -0.47    1.99    1.82    44.09491    16.84694    67.23644
   294  H   1.0    0.28    1.00    1.43    45.64249    18.63654    60.33482
   295  H   1.0    0.14    0.99    1.43    41.11742    17.16342    63.05537
   296  H   1.0    0.10    0.99    1.43    45.07761    14.97829    63.93752
   297  H   1.0    0.13    0.99    1.43    46.66763    17.91619    64.48809
   298  H   1.0    0.25    0.99    1.43    45.29785    15.87547    68.19738
   299  N   5.0   -0.47    3.01    1.93    43.99632    22.43152    64.76033
   300  C   4.0    0.10    4.00    3.62    43.48253    24.68609    66.21739
   301  C   4.0    0.31    3.01    3.02    41.39284    26.25971    64.98735
   302  O   6.0   -0.50    1.00    1.80    39.78156    27.31432    66.31310
   303  C   4.0   -0.02    3.98    3.58    45.87116    26.21867    66.73635
   304  O   6.0   -0.49    1.99    1.82    46.90097    27.18289    64.47061
   305  H   1.0    0.30    1.00    1.43    45.64982    22.23869    63.81011
   306  H   1.0    0.13    0.99    1.43    42.72452    24.09024    68.05947
   307  H   1.0    0.11    0.99    1.43    45.36438    27.76332    68.02045
   308  H   1.0    0.11    0.99    1.43    47.23795    24.97458    67.67353
   309  H   1.0    0.24    0.99    1.43    48.35144    28.18996    64.93250
   310  N   5.0   -0.47    3.01    1.93    41.39608    26.39247    62.49446
   311  C   4.0    0.08    4.00    3.62    39.42440    27.68534    61.09860
   312  C   4.0    0.31    3.02    3.02    36.81245    26.66772    61.79382
   313  O   6.0   -0.48    1.00    1.80    35.10461    28.10694    62.46868
   314  C   4.0   -0.12    3.99    3.61    39.83446    27.33074    58.25247
   315  C   4.0   -0.03    3.03    3.02    37.52264    28.11628    56.79920
   316  C   4.0   -0.10    3.03    3.02    36.91166    30.64945    56.51152
   317  C   4.0   -0.09    3.04    3.02    35.94824    26.30939    55.73360
   318  C   4.0   -0.11    3.03    3.02    34.77921    31.34309    55.17150
   319  C   4.0   -0.10    3.03    3.02    33.79662    27.00033    54.41900
   320  C   4.0   -0.11    3.03    3.02    33.20917    29.53058    54.12912
   321  H   1.0    0.31    1.00    1.43    42.77606    25.53062    61.46953
   322  H   1.0    0.12    0.99    1.43    39.42029    29.70051    61.59590
   323  H   1.0    0.11    0.99    1.43    41.46870    28.43751    57.65530
   324  H   1.0    0.15    0.99    1.43    40.23353    25.33989    57.90230
   325  H   1.0    0.11    1.00    1.43    38.12325    32.08087    57.31129
   326  H   1.0    0.12    1.00    1.43    36.44799    24.34118    55.91814
   327  H   1.0    0.10    1.00    1.43    34.35387    33.31785    54.92461
   328  H   1.0    0.13    1.00    1.43    32.58948    25.57433    53.60845
   329  H   1.0    0.10    1.00    1.43    31.55097    30.08591    53.08123
   330  N   5.0   -0.48    3.01    1.93    36.47803    24.19706    61.56010
   331  C   4.0    0.07    4.00    3.62    34.04302    23.07026    62.12637
   332  C   4.0    0.30    3.01    3.02    33.35243    23.58897    64.88409
   333  O   6.0   -0.42    1.00    1.80    31.22520    24.28700    65.48411
   334  C   4.0   -0.13    3.98    3.59    34.03031    20.27360    61.37900
   335  C   4.0   -0.10    3.98    3.59    33.66538    20.10597    58.52498
   336  C   4.0    0.31    2.99    3.02    34.09518    17.54098    57.24215
   337  O   6.0   -0.45    1.00    1.80    34.50945    15.59959    58.48606
   338  O   6.0   -0.53    1.00    1.80    33.98532    17.59184    54.86163
   339  H   1.0    0.30    1.00    1.43    37.89509    23.03583    60.97828
   340  H   1.0    0.14    0.99    1.43    32.57172    24.03060    61.01769
   341  H   1.0    0.15    0.99    1.43    35.80032    19.38670    61.95415
   342  H   1.0    0.14    0.99    1.43    32.47161    19.31882    62.32873
   343  H   1.0    0.13    0.99    1.43    31.73698    20.70197    58.07928
   344  H   1.0    0.12    0.99    1.43    34.95327    21.41664    57.59454
   345  N   5.0   -0.48    3.00    1.93    35.21991    23.34504    66.56746
   346  C   4.0    0.08    3.99    3.61    34.72419    23.73845    69.23445
   347  C   4.0    0.31    3.01    3.02    33.81293    26.44205    69.78709
   348  O   6.0   -0.38    1.00    1.80    32.23032    26.86145    71.41284
   349  C   4.0   -0.01    3.98    3.58    37.09345    23.14854    70.81832
   350  O   6.0   -0.46    1.99    1.82    38.82189    25.14476    70.99759
   351  H   1.0    0.30    1.00    1.43    36.90576    22.57634    66.05995
   352  H   1.0    0.13    0.99    1.43    33.19201    22.47598    69.83766
   353  H   1.0    0.13    0.99    1.43    36.52102    22.73989    72.75817
   354  H   1.0    0.13    0.99    1.43    37.99583    21.46008    70.00576
   355  H   1.0    0.31    0.99    1.43    39.18565    25.80958    69.31347
   356  N   5.0   -0.46    3.01    1.93    34.93357    28.25752    68.42184
   357  C   4.0    0.09    3.99    3.61    34.51158    30.91818    68.90515
   358  C   4.0    0.28    3.01    3.02    31.99706    31.84315    67.80354
   359  O   6.0   -0.39    1.00    1.80    30.60530    33.30211    68.91780
   360  C   4.0   -0.01    3.98    3.59    36.63387    32.51225    67.71187
   361  O   6.0   -0.49    1.99    1.82    39.01715    32.09814    68.77005
   362  H   1.0    0.31    1.00    1.43    36.27074    27.79641    67.13129
   363  H   1.0    0.15    0.99    1.43    34.44867    31.22424    70.95223
   364  H   1.0    0.13    0.99    1.43    36.66073    32.13285    65.67047
   365  H   1.0    0.12    0.99    1.43    36.18499    34.50318    68.02382
   366  H   1.0    0.31    0.99    1.43    39.51975    30.37691    68.38363
   367  N   5.0   -0.48    3.01    1.93    31.56162    30.99247    65.45901
   368  C   4.0    0.09    3.99    3.61    29.33103    31.67468    64.04659
   369  C   4.0    0.30    3.01    3.02    26.97779    30.26335    64.94547
   370  O   6.0   -0.47    1.00    1.80    24.87482    31.21165    64.74185
   371  C   4.0   -0.02    3.98    3.59    29.69955    31.05889    61.22418
   372  O   6.0   -0.50    1.99    1.82    30.07613    28.46564    60.80484
   373  H   1.0    0.29    1.00    1.43    32.82948    29.81569    64.63976
   374  H   1.0    0.13    0.99    1.43    28.97362    33.70355    64.26221
   375  H   1.0    0.11    0.99    1.43    27.98592    31.59196    60.20519
   376  H   1.0    0.12    0.99    1.43    31.28490    32.16698    60.48946
   377  H   1.0    0.31    0.99    1.43    31.79558    28.05134    61.32057
   378  N   5.0   -0.46    3.00    1.93    27.39522    27.93709    65.81486
   379  C   4.0    0.04    3.99    3.61    25.38393    26.22143    66.44453
   380  C   4.0    0.28    3.01    3.02    24.19409    24.94479    64.14131
   381  O   6.0   -0.43    1.00    1.80    22.23665    23.72020    64.33631
   382  H   1.0    0.31    1.00    1.43    29.14877    27.16798    65.77078
   383  H   1.0    0.13    0.99    1.43    26.13461    24.75382    67.68437
   384  H   1.0    0.14    0.99    1.43    23.89023    27.23700    67.44789
   385  N   5.0   -0.46    3.01    1.93    25.35575    25.31919    61.93330
   386  C   4.0    0.07    4.00    3.62    24.41319    24.10802    59.67079
   387  C   4.0    0.28    3.01    3.02    25.20240    21.31908    59.68861
   388  O   6.0   -0.42    1.00    1.80    27.38683    20.65091    60.01474
   389  C   4.0   -0.13    3.99    3.60    25.42846    25.45399    57.33515
   390  C   4.0   -0.10    3.98    3.58    24.20801    28.05486    56.95856
   391  C   4.0   -0.23    3.99    3.59    25.81337    29.58765    55.11991
   392  C   4.0   -0.22    3.98    3.59    21.50997    27.82119    55.96487
   393  H   1.0    0.29    1.00    1.43    27.08093    26.14794    61.82347
   394  H   1.0    0.12    0.99    1.43    22.34728    24.20661    59.74117
   395  H   1.0    0.13    0.99    1.43    27.47053    25.66206    57.55285
   396  H   1.0    0.11    0.99    1.43    25.10759    24.27942    55.66989
   397  H   1.0    0.14    0.99    1.43    24.16557    29.02124    58.78838
   398  H   1.0    0.10    0.99    1.43    24.97506    31.42901    54.76087
   399  H   1.0    0.11    0.99    1.43    27.70426    29.85797    55.87397
   400  H   1.0    0.10    0.99    1.43    25.96958    28.57132    53.33935
   401  H   1.0    0.11    0.99    1.43    20.65024    29.67761    55.78689
   402  H   1.0    0.10    0.99    1.43    21.51598    26.93168    54.11073
   403  H   1.0    0.12    0.99    1.43    20.32547    26.70062    57.21417
   404  N   5.0   -0.49    3.01    1.93    23.26974    19.71340    59.37096
   405  C   4.0    0.08    3.99    3.61    23.53195    16.99148    59.31415
   406  C   4.0    0.26    3.01    3.02    23.26516    16.16498    56.55257
   407  O   6.0   -0.45    1.00    1.80    21.61791    17.05865    55.19332
   408  C   4.0   -0.09    3.98    3.58    21.49864    15.70550    60.94867
   409  C   4.0   -0.22    3.98    3.59    21.79718    12.83540    60.84992
   410  C   4.0   -0.21    3.98    3.59    21.66836    16.63511    63.67504
   411  H   1.0    0.24    1.00    1.43    21.50160    20.37920    59.11698
   412  H   1.0    0.13    0.99    1.43    25.42076    16.55270    60.03272
   413  H   1.0    0.12    0.99    1.43    19.65125    16.21347    60.16198
   414  H   1.0    0.10    0.99    1.43    20.32949    11.94735    61.97705
   415  H   1.0    0.14    0.99    1.43    21.63486    12.11915    58.92934
   416  H   1.0    0.11    0.99    1.43    23.62155    12.27242    61.61215
   417  H   1.0    0.10    0.99    1.43    20.16634    15.79844    64.79622
   418  H   1.0    0.11    0.99    1.43    23.47239    16.09298    64.49877
   419  H   1.0    0.14    0.99    1.43    21.49868    18.68103    63.79223
   420  N   5.0   -0.49    3.01    1.93    25.04575    14.56426    55.74461
   421  C   4.0    0.07    3.99    3.60    25.06918    13.48209    53.23481
   422  C   4.0    0.07    3.00    3.02    23.80859    10.86842    53.24972
   423  O   6.0   -0.41    1.00    1.80    24.33535     9.29249    54.86888
   424  C   4.0   -0.12    3.99    3.60    27.81270    13.14158    52.33446
   425  C   4.0   -0.04    3.12    3.03    27.85643    12.15202    49.69614
   426  C   4.0    0.02    3.22    3.04    27.87198     9.67426    48.96829
   427  C   4.0    0.00    3.18    3.03    27.75370    13.61093    47.42737
   428  N   5.0   -0.48    3.10    1.94    27.87130     9.49004    46.39578
   429  C   4.0    0.11    3.22    3.04    27.75052    11.85844    45.39513
   430  C   4.0   -0.12    3.02    3.02    27.65832    16.19701    46.92430
   431  C   4.0   -0.11    3.01    3.02    27.68321    12.66784    42.88795
   432  C   4.0   -0.12    3.03    3.02    27.57567    16.98512    44.44374
   433  C   4.0   -0.12    3.03    3.02    27.60799    15.24841    42.44595
   434  H   1.0    0.24    1.00    1.43    26.17463    13.71191    57.02348
   435  H   1.0    0.13    0.99    1.43    24.03213    14.75302    51.98391
   436  H   1.0    0.12    0.99    1.43    28.77408    14.96079    52.43765
   437  H   1.0    0.13    0.99    1.43    28.72979    11.80649    53.61383
   438  H   1.0    0.12    1.00    1.43    27.87424     8.01066    50.12643
   439  H   1.0    0.23    1.00    1.43    27.57535     7.86196    45.45691
   440  H   1.0    0.12    1.00    1.43    27.63937    17.54492    48.45059
   441  H   1.0    0.11    1.00    1.43    27.74270    11.33160    41.34823
   442  H   1.0    0.10    1.00    1.43    27.49155    18.97912    44.02707
   443  H   1.0    0.11    1.00    1.43    27.57458    15.92990    40.52341
   444  H   1.0    0.29    1.00    1.43    22.77525    18.30456    47.14081
   445  H   1.0    0.13    1.00    1.43    17.27607    20.49067    51.79646
   446  H   1.0    0.29    1.00    1.43    19.88913    39.52927    61.84750
   447  H   1.0    0.14    1.00    1.43    20.09165    39.31561    55.29818
   448  H   1.0    0.30    1.00    1.43    28.47365    42.01767    54.34265
   449  H   1.0    0.14    1.00    1.43    28.81150    40.87353    45.03591
   450  H   1.0    0.30    1.00    1.43    41.23313    43.21820    45.86668
   451  H   1.0    0.12    1.00    1.43    48.60790    42.37082    44.52172
   452  H   1.0    0.27    1.00    1.43    37.32893    29.85797    42.53488
   453  H   1.0    0.11    1.00    1.43    30.32925    29.31079    42.17500
   454  H   1.0    0.28    1.00    1.43    31.21721    19.78893    42.33055
   455  H   1.0    0.13    1.00    1.43    52.77266    31.96189    51.18892
   456  H   1.0    0.30    1.00    1.43    50.06412    34.74142    60.20612
   457  H   1.0    0.13    1.00    1.43    22.53499    10.42610    51.92557

           ------------------------------------------------- 
          |        Self-Consistent Charge Iterations        |
           ------------------------------------------------- 

          ...................................................
          :                      SETUP                      :
          :.................................................:
          :  # basis functions                1168          :
          :  # atomic orbitals                1168          :
          :  # shells                          694          :
          :  # electrons                      1292          :
          :  max. iterations                   250          :
          :  Hamiltonian                  GFN2-xTB          :
          :  restarted?                      false          :
          :  GBSA solvation                   true          :
          :  PC potential                    false          :
          :  electronic temp.          500.0000000     K    :
          :  accuracy                    0.1000000          :
          :  -> integral cutoff          0.3500000E+02      :
          :  -> integral neglect         0.1000000E-08      :
          :  -> SCF convergence          0.1000000E-06 Eh   :
          :  -> wf. convergence          0.1000000E-04 e    :
          :  Broyden damping             0.4000000          :
          ...................................................

 iter      E             dE          RMSdq      gap      omega  full diag
   1   -739.9287162 -0.739929E+03  0.443E+00    1.99       0.0  T
   2   -741.5701712 -0.164146E+01  0.237E+00    1.27       1.0  T
   3   -741.6266583 -0.564871E-01  0.122E+00    1.54       1.0  T
   4   -741.6662977 -0.396394E-01  0.296E-01    1.05       1.0  T
   5   -741.6904654 -0.241677E-01  0.114E-01    1.16       1.0  T
   6   -741.6914169 -0.951543E-03  0.602E-02    1.20       1.0  T
   7   -741.6918729 -0.456032E-03  0.282E-02    1.21       1.0  T
   8   -741.6919397 -0.667378E-04  0.108E-02    1.23       1.0  T
   9   -741.6919534 -0.137336E-04  0.574E-03    1.23       1.0  T
  10   -741.6919572 -0.374171E-05  0.295E-03    1.22       1.6  T
  11   -741.6919581 -0.910869E-06  0.135E-03    1.22       3.5  T
  12   -741.6919583 -0.264755E-06  0.673E-04    1.22       6.9  T
  13   -741.6919584 -0.486499E-07  0.353E-04    1.22      13.3  T
  14   -741.6919584 -0.174928E-07  0.168E-04    1.22      27.9  T
  15   -741.6919584 -0.404305E-08  0.771E-05    1.22      60.7  T
  16   -741.6919584 -0.797968E-09  0.372E-05    1.22     125.7  T

   *** convergence criteria satisfied after 16 iterations ***

         #    Occupation            Energy/Eh            Energy/eV
      -------------------------------------------------------------
         1        2.0000           -0.7418184             -20.1859
       ...           ...                  ...                  ...
       640        2.0000           -0.3685838             -10.0297
       641        2.0000           -0.3671018              -9.9893
       642        2.0000           -0.3621542              -9.8547
       643        2.0000           -0.3610924              -9.8258
       644        2.0000           -0.3567482              -9.7076
       645        2.0000           -0.3549716              -9.6593
       646        2.0000           -0.3427372              -9.3264 (HOMO)
       647        0.0000           -0.2977826              -8.1031 (LUMO)
       648        0.0000           -0.2969849              -8.0814
       649                         -0.2893416              -7.8734
       650                         -0.2812693              -7.6537
       651                         -0.2807826              -7.6405
       ...                                ...                  ...
      1168                          0.7240891              19.7035
      -------------------------------------------------------------
                  HL-Gap            0.0449545 Eh            1.2233 eV
             Fermi-level           -0.3206360 Eh           -8.7250 eV

 SCC (total)                   0 d,  0 h,  0 min, 14.583 sec
 SCC setup                      ...        0 min,  0.319 sec (  2.187%)
 Dispersion                     ...        0 min,  0.220 sec (  1.508%)
 integral evaluation            ...        0 min,  0.551 sec (  3.781%)
 zeroth order Hamiltonian       ...        0 min,  0.025 sec (  0.168%)
 iterations                     ...        0 min, 11.475 sec ( 78.690%)
 molecular gradient             ...        0 min,  1.906 sec ( 13.067%)
 printout                       ...        0 min,  0.087 sec (  0.597%)

         :::::::::::::::::::::::::::::::::::::::::::::::::::::
         ::                     SUMMARY                     ::
         :::::::::::::::::::::::::::::::::::::::::::::::::::::
         :: total energy             -732.279009457454 Eh   ::
         :: total w/o Gsasa/hb       -732.207059387041 Eh   ::
         :: gradient norm               0.590588088367 Eh/α ::
         :: HOMO-LUMO gap               1.223275222901 eV   ::
         ::.................................................::
         :: SCC energy               -741.707254857917 Eh   ::
         :: -> isotropic ES             1.995305704525 Eh   ::
         :: -> anisotropic ES          -0.083027715009 Eh   ::
         :: -> anisotropic XC           0.228658650509 Eh   ::
         :: -> dispersion              -0.680780699444 Eh   ::
         :: -> Gsolv                   -0.394999584487 Eh   ::
         ::    -> Gborn                -0.323049514074 Eh   ::
         ::    -> Gsasa                -0.017153899556 Eh   ::
         ::    -> Ghb                  -0.056653613984 Eh   ::
         ::    -> Gshift                0.001857443127 Eh   ::
         :: repulsion energy            9.347362928528 Eh   ::
         :: add. restraining            0.000000000000 Eh   ::
         :::::::::::::::::::::::::::::::::::::::::::::::::::::

           -------------------------------------------------
          |                Property Printout                |
           -------------------------------------------------

    * Orbital Energies and Occupations

         #    Occupation            Energy/Eh            Energy/eV
      -------------------------------------------------------------
         1        2.0000           -0.7418184             -20.1859
       ...           ...                  ...                  ...
       634        2.0000           -0.3783386             -10.2951
       635        2.0000           -0.3780584             -10.2875
       636        2.0000           -0.3745700             -10.1926
       637        2.0000           -0.3733724             -10.1600
       638        2.0000           -0.3711198             -10.0987
       639        2.0000           -0.3687668             -10.0347
       640        2.0000           -0.3685838             -10.0297
       641        2.0000           -0.3671018              -9.9893
       642        2.0000           -0.3621542              -9.8547
       643        2.0000           -0.3610924              -9.8258
       644        2.0000           -0.3567482              -9.7076
       645        2.0000           -0.3549716              -9.6593
       646        2.0000           -0.3427372              -9.3264 (HOMO)
       647        0.0000           -0.2977826              -8.1031 (LUMO)
       648        0.0000           -0.2969849              -8.0814
       649                         -0.2893416              -7.8734
       650                         -0.2812693              -7.6537
       651                         -0.2807826              -7.6405
       652                         -0.2765409              -7.5251
       653                         -0.2754624              -7.4957
       654                         -0.2541800              -6.9166
       655                         -0.2458199              -6.6891
       656                         -0.2420738              -6.5872
       657                         -0.2408984              -6.5552
       ...                                ...                  ...
      1168                          0.7240891              19.7035
      -------------------------------------------------------------
                  HL-Gap            0.0449545 Eh            1.2233 eV
             Fermi-level           -0.3206360 Eh           -8.7250 eV

   #   Z        covCN         q      C6AA      α(0)
   1   7 N      2.635    -0.376    29.710     8.095
   2   6 C      3.781     0.040    19.928     6.359
   3   6 C      2.769     0.202    23.711     7.975
   4   8 O      0.856    -0.371    21.114     6.161
   5   6 C      3.815    -0.062    21.684     6.628
   6   6 C      2.966    -0.000    28.034     8.685
   7   6 C      2.925    -0.042    29.049     8.839
   8   6 C      2.924    -0.041    29.022     8.835
   9   6 C      2.917    -0.070    29.749     8.944
  10   6 C      2.918    -0.065    29.620     8.925
  11   6 C      2.844     0.144    24.858     8.171
  12   8 O      1.654    -0.440    21.650     6.281
  13   1 H      0.860     0.161     1.329     1.806
  14   1 H      0.924     0.070     2.085     2.258
  15   1 H      0.924     0.050     2.324     2.384
  16   1 H      0.924     0.034     2.530     2.487
  17   1 H      0.926     0.027     2.628     2.535
  18   1 H      0.926     0.042     2.427     2.436
  19   1 H      0.926     0.038     2.480     2.463
  20   1 H      0.926     0.043     2.411     2.428
  21   1 H      0.800     0.347     0.595     1.212
  22   7 N      2.635    -0.388    30.051     8.142
  23   6 C      3.785     0.040    19.922     6.358
  24   6 C      2.765     0.193    23.872     8.002
  25   8 O      0.856    -0.371    21.115     6.161
  26   6 C      3.810    -0.051    21.488     6.598
  27   6 C      3.810    -0.098    22.354     6.730
  28   6 C      2.746     0.292    22.051     7.689
  29   8 O      0.859    -0.519    24.218     6.598
  30   7 N      2.639    -0.284    27.328     7.764
  31   1 H      0.860     0.166     1.300     1.786
  32   1 H      0.923     0.059     2.214     2.327
  33   1 H      0.924     0.060     2.197     2.318
  34   1 H      0.924     0.042     2.419     2.432
  35   1 H      0.925     0.068     2.111     2.272
  36   1 H      0.924     0.070     2.088     2.259
  37   1 H      0.860     0.226     0.981     1.551
  38   1 H      0.860     0.204     1.084     1.631
  39   7 N      2.635    -0.396    30.256     8.169
  40   6 C      3.788     0.037    19.958     6.363
  41   6 C      2.753     0.266    22.513     7.770
  42   8 O      0.858    -0.500    23.780     6.538
  43   6 C      3.814    -0.072    21.865     6.655
  44   6 C      2.970     0.012    27.741     8.639
  45   6 C      2.925    -0.041    29.019     8.834
  46   6 C      2.926    -0.045    29.122     8.850
  47   6 C      2.920    -0.036    28.895     8.815
  48   6 C      2.919    -0.037    28.913     8.818
  49   6 C      2.920    -0.038    28.947     8.823
  50   1 H      0.860     0.174     1.252     1.752
  51   1 H      0.923     0.040     2.455     2.450
  52   1 H      0.924     0.062     2.171     2.304
  53   1 H      0.924     0.048     2.346     2.395
  54   1 H      0.926     0.035     2.512     2.478
  55   1 H      0.926     0.042     2.421     2.433
  56   1 H      0.926     0.034     2.526     2.485
  57   1 H      0.926     0.030     2.589     2.516
  58   1 H      0.926     0.027     2.625     2.534
  59   7 N      2.690    -0.161    24.485     7.349
  60   6 C      3.790     0.024    20.190     6.399
  61   6 C      2.765     0.199    23.759     7.983
  62   8 O      0.856    -0.366    21.019     6.147
  63   6 C      3.811    -0.072    21.872     6.657
  64   6 C      3.849    -0.011    20.745     6.478
  65   6 C      3.757    -0.116    22.777     6.804
  66   6 C      3.756    -0.107    22.605     6.779
  67   1 H      0.860     0.219     1.014     1.577
  68   1 H      0.924     0.113     1.668     2.020
  69   1 H      0.924     0.050     2.320     2.382
  70   1 H      0.925     0.070     2.087     2.259
  71   1 H      0.924     0.039     2.459     2.452
  72   1 H      0.925     0.044     2.400     2.423
  73   1 H      0.925     0.041     2.433     2.439
  74   1 H      0.925     0.043     2.404     2.424
  75   1 H      0.925     0.045     2.388     2.417
  76   1 H      0.925     0.034     2.534     2.489
  77   1 H      0.925     0.032     2.561     2.503
  78   7 N      2.636    -0.382    29.880     8.118
  79   6 C      3.785     0.040    19.917     6.357
  80   6 C      2.765     0.200    23.743     7.980
  81   8 O      0.856    -0.376    21.217     6.176
  82   6 C      3.809    -0.059    21.622     6.619
  83   6 C      3.059    -0.036    28.844     8.807
  84   6 C      3.040    -0.006    28.125     8.698
  85   6 C      3.117    -0.024    28.436     8.734
  86   7 N      2.776    -0.106    23.329     7.174
  87   6 C      3.095     0.047    26.836     8.490
  88   6 C      2.912    -0.043    29.065     8.840
  89   6 C      2.910    -0.051    29.276     8.872
  90   6 C      2.920    -0.046    29.154     8.854
  91   6 C      2.923    -0.040    29.002     8.831
  92   1 H      0.860     0.160     1.337     1.812
  93   1 H      0.924     0.055     2.256     2.349
  94   1 H      0.924     0.044     2.397     2.421
  95   1 H      0.925     0.036     2.508     2.477
  96   1 H      0.926     0.039     2.459     2.452
  97   1 H      0.860     0.204     1.088     1.634
  98   1 H      0.926     0.019     2.749     2.593
  99   1 H      0.926     0.030     2.590     2.517
 100   1 H      0.925     0.017     2.775     2.605
 101   1 H      0.926     0.022     2.706     2.572
 102   7 N      2.711    -0.273    27.052     7.725
 103   6 C      3.820     0.030    20.060     6.374
 104   6 C      2.768     0.198    23.789     7.988
 105   8 O      0.856    -0.365    20.994     6.143
 106   6 C      3.828    -0.059    21.615     6.615
 107   6 C      3.833    -0.061    21.640     6.618
 108   6 C      3.778     0.013    20.388     6.433
 109   1 H      0.924     0.037     2.486     2.466
 110   1 H      0.925     0.050     2.325     2.384
 111   1 H      0.925     0.047     2.360     2.402
 112   1 H      0.925     0.041     2.437     2.441
 113   1 H      0.925     0.034     2.531     2.488
 114   1 H      0.924     0.050     2.317     2.380
 115   1 H      0.925     0.033     2.550     2.497
 116   7 N      2.636    -0.390    30.108     8.149
 117   6 C      3.787     0.029    20.105     6.386
 118   6 C      2.760     0.276    22.335     7.739
 119   8 O      0.859    -0.502    23.818     6.543
 120   6 C      3.807    -0.077    21.973     6.673
 121   6 C      3.806    -0.091    22.238     6.713
 122   6 C      3.741    -0.029    21.163     6.563
 123   7 N      2.702    -0.165    24.578     7.363
 124   6 C      2.738     0.220    23.357     7.913
 125   7 N      2.649    -0.264    26.850     7.696
 126   7 N      2.651    -0.281    27.264     7.755
 127   1 H      0.860     0.158     1.347     1.818
 128   1 H      0.924     0.044     2.400     2.422
 129   1 H      0.924     0.061     2.189     2.314
 130   1 H      0.925     0.049     2.327     2.385
 131   1 H      0.925     0.064     2.152     2.294
 132   1 H      0.925     0.066     2.133     2.284
 133   1 H      0.924     0.076     2.023     2.224
 134   1 H      0.924     0.081     1.965     2.192
 135   1 H      0.859     0.245     0.902     1.488
 136   1 H      0.860     0.236     0.941     1.520
 137   1 H      0.860     0.245     0.902     1.488
 138   1 H      0.859     0.248     0.890     1.478
 139   1 H      0.860     0.236     0.938     1.517
 140   7 N      2.693    -0.191    25.132     7.446
 141   6 C      3.799     0.035    19.982     6.365
 142   6 C      2.762     0.275    22.356     7.743
 143   8 O      0.859    -0.491    23.596     6.513
 144   6 C      3.812    -0.079    22.004     6.677
 145   6 C      2.969     0.003    27.962     8.674
 146   6 C      2.924    -0.052    29.300     8.877
 147   6 C      2.925    -0.045    29.116     8.849
 148   6 C      2.919    -0.037    28.925     8.819
 149   6 C      2.919    -0.033    28.818     8.803
 150   6 C      2.920    -0.034    28.854     8.809
 151   1 H      0.860     0.227     0.978     1.549
 152   1 H      0.924     0.045     2.380     2.412
 153   1 H      0.924     0.078     1.999     2.211
 154   1 H      0.924     0.064     2.155     2.296
 155   1 H      0.926     0.051     2.312     2.378
 156   1 H      0.926     0.050     2.319     2.381
 157   1 H      0.926     0.026     2.651     2.546
 158   1 H      0.926     0.038     2.473     2.459
 159   1 H      0.926     0.031     2.575     2.509
 160   7 N      2.756    -0.075    22.693     7.075
 161   6 C      3.833     0.026    20.121     6.382
 162   6 C      2.757     0.280    22.267     7.727
 163   8 O      0.858    -0.458    22.881     6.413
 164   6 C      3.835    -0.053    21.492     6.596
 165   6 C      3.832    -0.066    21.733     6.633
 166   6 C      3.767    -0.008    20.753     6.493
 167   1 H      0.924     0.052     2.294     2.368
 168   1 H      0.924     0.040     2.452     2.449
 169   1 H      0.925     0.044     2.403     2.424
 170   1 H      0.925     0.055     2.254     2.348
 171   1 H      0.925     0.060     2.201     2.320
 172   1 H      0.924     0.064     2.149     2.292
 173   1 H      0.924     0.073     2.056     2.242
 174   7 N      2.690    -0.198    25.290     7.469
 175   6 C      3.797     0.025    20.154     6.392
 176   6 C      2.758     0.277    22.321     7.737
 177   8 O      0.858    -0.479    23.320     6.474
 178   6 C      3.802    -0.116    22.714     6.785
 179   6 C      2.681     0.374    20.655     7.437
 180   8 O      0.856    -0.633    26.938     6.959
 181   8 O      0.857    -0.611    26.381     6.886
 182   1 H      0.860     0.204     1.085     1.632
 183   1 H      0.924     0.086     1.921     2.168
 184   1 H      0.924     0.054     2.269     2.356
 185   1 H      0.925     0.071     2.079     2.255
 186   7 N      2.688    -0.207    25.498     7.500
 187   6 C      3.799     0.025    20.154     6.392
 188   6 C      2.762     0.269    22.453     7.760
 189   8 O      0.858    -0.490    23.561     6.508
 190   6 C      3.680     0.091    19.269     6.287
 191   8 O      1.656    -0.476    22.387     6.387
 192   1 H      0.859     0.215     1.034     1.593
 193   1 H      0.923     0.094     1.845     2.124
 194   1 H      0.923     0.012     2.856     2.643
 195   1 H      0.923     0.036     2.501     2.473
 196   1 H      0.805     0.352     0.584     1.201
 197   7 N      2.691    -0.191    25.146     7.448
 198   6 C      3.804     0.046    19.806     6.336
 199   6 C      2.756     0.274    22.367     7.744
 200   8 O      0.858    -0.471    23.145     6.450
 201   6 C      3.803    -0.100    22.411     6.740
 202   6 C      2.684     0.374    20.671     7.440
 203   8 O      0.856    -0.618    26.567     6.911
 204   8 O      0.856    -0.626    26.779     6.938
 205   1 H      0.859     0.216     1.026     1.587
 206   1 H      0.923     0.037     2.490     2.468
 207   1 H      0.925     0.034     2.525     2.485
 208   1 H      0.925     0.039     2.462     2.454
 209   7 N      2.693    -0.167    24.610     7.368
 210   6 C      3.792     0.027    20.132     6.390
 211   6 C      2.768     0.201    23.731     7.978
 212   8 O      0.856    -0.373    21.158     6.167
 213   6 C      3.812    -0.072    21.862     6.655
 214   6 C      2.970     0.016    27.658     8.626
 215   6 C      2.924    -0.036    28.893     8.815
 216   6 C      2.925    -0.040    28.989     8.830
 217   6 C      2.919    -0.035    28.877     8.812
 218   6 C      2.918    -0.039    28.966     8.826
 219   6 C      2.920    -0.045    29.114     8.848
 220   1 H      0.860     0.196     1.125     1.661
 221   1 H      0.924     0.116     1.647     2.007
 222   1 H      0.924     0.064     2.152     2.294
 223   1 H      0.924     0.075     2.027     2.227
 224   1 H      0.926     0.022     2.705     2.572
 225   1 H      0.926     0.052     2.293     2.368
 226   1 H      0.926     0.037     2.492     2.469
 227   1 H      0.926     0.057     2.232     2.336
 228   1 H      0.926     0.053     2.286     2.364
 229   7 N      2.635    -0.375    29.695     8.093
 230   6 C      3.786     0.029    20.097     6.385
 231   6 C      2.760     0.271    22.414     7.753
 232   8 O      0.858    -0.477    23.275     6.468
 233   6 C      3.812    -0.069    21.820     6.649
 234   6 C      2.968    -0.001    28.046     8.687
 235   6 C      2.925    -0.042    29.045     8.838
 236   6 C      2.926    -0.043    29.070     8.842
 237   6 C      2.919    -0.060    29.493     8.906
 238   6 C      2.917    -0.075    29.882     8.964
 239   6 C      2.847     0.144    24.868     8.173
 240   8 O      1.659    -0.443    21.693     6.287
 241   1 H      0.860     0.152     1.389     1.846
 242   1 H      0.924     0.053     2.288     2.365
 243   1 H      0.924     0.041     2.434     2.440
 244   1 H      0.925     0.040     2.454     2.450
 245   1 H      0.926     0.039     2.459     2.452
 246   1 H      0.926     0.037     2.494     2.470
 247   1 H      0.926     0.048     2.351     2.398
 248   1 H      0.925     0.051     2.307     2.375
 249   1 H      0.805     0.347     0.596     1.212
 250   7 N      2.691    -0.186    25.024     7.429
 251   6 C      3.798     0.027    20.124     6.387
 252   6 C      2.763     0.278    22.290     7.732
 253   8 O      0.860    -0.476    23.261     6.466
 254   6 C      3.809    -0.109    22.565     6.762
 255   6 C      2.744     0.287    22.140     7.704
 256   8 O      0.859    -0.495    23.679     6.524
 257   7 N      2.640    -0.266    26.886     7.701
 258   1 H      0.860     0.223     0.994     1.562
 259   1 H      0.924     0.086     1.919     2.167
 260   1 H      0.924     0.080     1.979     2.200
 261   1 H      0.924     0.083     1.952     2.185
 262   1 H      0.860     0.252     0.874     1.465
 263   1 H      0.860     0.222     0.999     1.566
 264   7 N      2.690    -0.174    24.772     7.392
 265   6 C      3.802     0.020    20.242     6.405
 266   6 C      2.758     0.288    22.123     7.702
 267   8 O      0.858    -0.478    23.294     6.471
 268   6 C      3.808    -0.098    22.356     6.731
 269   6 C      3.804    -0.075    21.925     6.666
 270   6 C      3.740    -0.034    21.268     6.580
 271   7 N      2.703    -0.137    23.964     7.271
 272   6 C      2.737     0.218    23.405     7.921
 273   7 N      2.649    -0.248    26.453     7.639
 274   7 N      2.654    -0.254    26.596     7.659
 275   1 H      0.860     0.204     1.088     1.634
 276   1 H      0.924     0.068     2.105     2.269
 277   1 H      0.924     0.090     1.875     2.141
 278   1 H      0.924     0.068     2.105     2.269
 279   1 H      0.924     0.068     2.104     2.268
 280   1 H      0.924     0.066     2.133     2.284
 281   1 H      0.924     0.089     1.891     2.150
 282   1 H      0.924     0.105     1.742     2.064
 283   1 H      0.860     0.228     0.974     1.546
 284   1 H      0.860     0.253     0.870     1.461
 285   1 H      0.860     0.251     0.879     1.469
 286   1 H      0.860     0.232     0.955     1.531
 287   1 H      0.860     0.237     0.934     1.514
 288   7 N      2.691    -0.183    24.963     7.420
 289   6 C      3.797     0.017    20.291     6.414
 290   6 C      2.767     0.286    22.154     7.708
 291   8 O      0.859    -0.489    23.535     6.504
 292   6 C      3.679     0.063    19.736     6.363
 293   8 O      1.656    -0.490    22.685     6.430
 294   1 H      0.860     0.220     1.010     1.574
 295   1 H      0.924     0.088     1.900     2.155
 296   1 H      0.924     0.061     2.191     2.315
 297   1 H      0.924     0.059     2.211     2.325
 298   1 H      0.805     0.360     0.565     1.181
 299   7 N      2.690    -0.173    24.734     7.386
 300   6 C      3.806     0.016    20.310     6.416
 301   6 C      2.756     0.276    22.324     7.737
 302   8 O      0.859    -0.516    24.150     6.589
 303   6 C      3.676     0.065    19.714     6.361
 304   8 O      1.655    -0.470    22.265     6.370
 305   1 H      0.860     0.235     0.945     1.523
 306   1 H      0.923     0.093     1.854     2.129
 307   1 H      0.924     0.061     2.187     2.313
 308   1 H      0.924     0.069     2.091     2.262
 309   1 H      0.805     0.341     0.609     1.225
 310   7 N      2.690    -0.169    24.655     7.375
 311   6 C      3.800     0.030    20.063     6.377
 312   6 C      2.762     0.277    22.315     7.736
 313   8 O      0.859    -0.516    24.131     6.586
 314   6 C      3.814    -0.079    22.000     6.676
 315   6 C      2.972     0.006    27.894     8.663
 316   6 C      2.925    -0.038    28.945     8.823
 317   6 C      2.927    -0.045    29.106     8.848
 318   6 C      2.922    -0.031    28.775     8.797
 319   6 C      2.920    -0.033    28.816     8.803
 320   6 C      2.920    -0.034    28.843     8.807
 321   1 H      0.860     0.250     0.883     1.472
 322   1 H      0.923     0.074     2.038     2.233
 323   1 H      0.924     0.064     2.155     2.296
 324   1 H      0.924     0.067     2.121     2.277
 325   1 H      0.926     0.036     2.505     2.475
 326   1 H      0.926     0.038     2.470     2.458
 327   1 H      0.926     0.039     2.468     2.457
 328   1 H      0.926     0.050     2.314     2.379
 329   1 H      0.926     0.044     2.394     2.420
 330   7 N      2.691    -0.173    24.741     7.387
 331   6 C      3.804     0.023    20.191     6.397
 332   6 C      2.758     0.274    22.366     7.745
 333   8 O      0.859    -0.498    23.741     6.533
 334   6 C      3.803    -0.058    21.623     6.620
 335   6 C      3.805    -0.098    22.375     6.734
 336   6 C      2.685     0.367    20.780     7.460
 337   8 O      0.856    -0.568    25.348     6.750
 338   8 O      0.857    -0.586    25.776     6.807
 339   1 H      0.860     0.241     0.919     1.502
 340   1 H      0.923     0.078     2.003     2.213
 341   1 H      0.924     0.059     2.207     2.323
 342   1 H      0.925     0.053     2.284     2.363
 343   1 H      0.924     0.054     2.277     2.360
 344   1 H      0.925     0.049     2.330     2.387
 345   7 N      2.688    -0.196    25.255     7.464
 346   6 C      3.796     0.010    20.407     6.432
 347   6 C      2.753     0.287    22.139     7.705
 348   8 O      0.858    -0.491    23.583     6.511
 349   6 C      3.677     0.069    19.638     6.349
 350   8 O      1.654    -0.480    22.457     6.397
 351   1 H      0.860     0.234     0.946     1.524
 352   1 H      0.923     0.071     2.074     2.252
 353   1 H      0.924     0.068     2.104     2.268
 354   1 H      0.923     0.056     2.248     2.345
 355   1 H      0.803     0.325     0.652     1.268
 356   7 N      2.688    -0.188    25.078     7.438
 357   6 C      3.795     0.007    20.470     6.443
 358   6 C      2.757     0.272    22.398     7.750
 359   8 O      0.858    -0.480    23.353     6.479
 360   6 C      3.680     0.074    19.551     6.333
 361   8 O      1.655    -0.451    21.856     6.311
 362   1 H      0.860     0.222     0.999     1.566
 363   1 H      0.924     0.082     1.957     2.188
 364   1 H      0.923     0.039     2.456     2.451
 365   1 H      0.924     0.063     2.160     2.298
 366   1 H      0.804     0.331     0.636     1.252
 367   7 N      2.691    -0.195    25.226     7.459
 368   6 C      3.795     0.011    20.401     6.432
 369   6 C      2.759     0.275    22.351     7.742
 370   8 O      0.858    -0.482    23.396     6.485
 371   6 C      3.681     0.071    19.599     6.340
 372   8 O      1.654    -0.463    22.107     6.347
 373   1 H      0.860     0.225     0.986     1.556
 374   1 H      0.924     0.081     1.971     2.196
 375   1 H      0.924     0.073     2.051     2.240
 376   1 H      0.924     0.051     2.303     2.373
 377   1 H      0.804     0.323     0.656     1.273
 378   7 N      2.687    -0.169    24.661     7.376
 379   6 C      3.746    -0.033    21.226     6.572
 380   6 C      2.757     0.273    22.389     7.748
 381   8 O      0.859    -0.500    23.774     6.537
 382   1 H      0.860     0.222     1.003     1.568
 383   1 H      0.924     0.092     1.858     2.132
 384   1 H      0.924     0.096     1.825     2.112
 385   7 N      2.692    -0.170    24.673     7.377
 386   6 C      3.803     0.024    20.175     6.395
 387   6 C      2.754     0.273    22.387     7.748
 388   8 O      0.858    -0.477    23.281     6.469
 389   6 C      3.811    -0.074    21.903     6.662
 390   6 C      3.850    -0.011    20.739     6.477
 391   6 C      3.758    -0.114    22.727     6.797
 392   6 C      3.756    -0.108    22.618     6.781
 393   1 H      0.860     0.217     1.022     1.584
 394   1 H      0.924     0.059     2.208     2.324
 395   1 H      0.924     0.063     2.163     2.300
 396   1 H      0.924     0.055     2.262     2.352
 397   1 H      0.924     0.028     2.621     2.532
 398   1 H      0.925     0.045     2.383     2.414
 399   1 H      0.925     0.045     2.381     2.413
 400   1 H      0.925     0.046     2.374     2.410
 401   1 H      0.925     0.041     2.436     2.441
 402   1 H      0.925     0.042     2.419     2.432
 403   1 H      0.925     0.029     2.607     2.525
 404   7 N      2.694    -0.168    24.632     7.371
 405   6 C      3.798     0.015    20.326     6.420
 406   6 C      2.757     0.271    22.420     7.754
 407   8 O      0.858    -0.481    23.362     6.480
 408   6 C      3.852    -0.016    20.829     6.491
 409   6 C      3.756    -0.121    22.865     6.818
 410   6 C      3.756    -0.119    22.835     6.813
 411   1 H      0.860     0.202     1.095     1.639
 412   1 H      0.924     0.071     2.072     2.251
 413   1 H      0.924     0.046     2.366     2.406
 414   1 H      0.925     0.062     2.178     2.308
 415   1 H      0.925     0.038     2.477     2.461
 416   1 H      0.925     0.053     2.281     2.362
 417   1 H      0.925     0.056     2.245     2.343
 418   1 H      0.925     0.044     2.400     2.423
 419   1 H      0.925     0.043     2.413     2.429
 420   7 N      2.691    -0.166    24.590     7.365
 421   6 C      3.793     0.028    20.106     6.385
 422   6 C      2.767     0.199    23.758     7.983
 423   8 O      0.856    -0.350    20.716     6.102
 424   6 C      3.810    -0.071    21.851     6.654
 425   6 C      3.057    -0.043    29.008     8.833
 426   6 C      3.042    -0.017    28.385     8.738
 427   6 C      3.115    -0.022    28.391     8.728
 428   7 N      2.774    -0.104    23.268     7.164
 429   6 C      3.091     0.043    26.925     8.505
 430   6 C      2.910    -0.043    29.059     8.839
 431   6 C      2.906    -0.056    29.393     8.890
 432   6 C      2.918    -0.044    29.084     8.844
 433   6 C      2.920    -0.040    28.998     8.831
 434   1 H      0.860     0.214     1.038     1.596
 435   1 H      0.924     0.082     1.963     2.191
 436   1 H      0.924     0.074     2.040     2.234
 437   1 H      0.924     0.069     2.102     2.267
 438   1 H      0.926     0.057     2.229     2.335
 439   1 H      0.860     0.205     1.079     1.627
 440   1 H      0.926     0.027     2.630     2.536
 441   1 H      0.926     0.038     2.480     2.463
 442   1 H      0.926     0.017     2.784     2.609
 443   1 H      0.926     0.025     2.658     2.549
 444   1 H      0.862     0.178     1.223     1.732
 445   1 H      0.930     0.061     2.182     2.310
 446   1 H      0.862     0.185     1.184     1.704
 447   1 H      0.930     0.081     1.965     2.192
 448   1 H      0.862     0.177     1.231     1.738
 449   1 H      0.930     0.074     2.046     2.237
 450   1 H      0.862     0.185     1.183     1.704
 451   1 H      0.930     0.064     2.158     2.297
 452   1 H      0.862     0.163     1.315     1.796
 453   1 H      0.930     0.060     2.201     2.320
 454   1 H      0.862     0.178     1.224     1.733
 455   1 H      0.930     0.084     1.940     2.178
 456   1 H      0.862     0.185     1.185     1.705
 457   1 H      0.930     0.081     1.968     2.193

 Mol. C6AA /au·bohr⁶  :    2131790.105232
 Mol. C8AA /au·bohr⁸  :   48545260.616583
 Mol. α(0) /au        :       2216.093292


Wiberg/Mayer (AO) data.
largest (>0.10) Wiberg bond orders for each atom
          total WBO             WBO to atom ...
     1  N   3.003        C    2 1.025    H   13 0.955    H  444 0.952
     2  C   3.983        N    1 1.025    C    3 0.974    H   14 0.951    C    5 0.937
     3  C   3.894        O    4 1.899    C    2 0.974    H  445 0.956
     4  O   2.036        C    3 1.899
     5  C   3.993        C    6 1.008    H   15 0.972    H   16 0.955    C    2 0.937
     6  C   3.987        C    8 1.406    C    7 1.398    C    5 1.008
     7  C   3.991        C    9 1.456    C    6 1.398    H   17 0.964    C   10 0.106
     8  C   3.989        C   10 1.452    C    6 1.406    H   18 0.968    C    9 0.104
     9  C   3.988        C    7 1.456    C   11 1.360    H   19 0.962    C    8 0.104
    10  C   3.986        C    8 1.452    C   11 1.361    H   20 0.962    C    7 0.106
    11  C   3.944        C   10 1.361    C    9 1.360    O   12 1.086
    12  O   2.114        C   11 1.086    H   21 0.781
    13  H   0.974        N    1 0.955
    14  H   0.995        C    2 0.951
    15  H   0.997        C    5 0.972
    16  H   0.998        C    5 0.955
    17  H   0.999        C    7 0.964
    18  H   0.998        C    8 0.968
    19  H   0.998        C    9 0.962
    20  H   0.998        C   10 0.962
    21  H   0.879        O   12 0.781
    22  N   2.998        C   23 1.022    H  446 0.954    H   31 0.952
    23  C   3.987        N   22 1.022    C   24 0.983    C   26 0.954    H   32 0.942
    24  C   3.893        O   25 1.870    C   23 0.983    H  447 0.953
    25  O   2.037        C   24 1.870
    26  C   3.992        C   27 0.995    H   34 0.973    H   33 0.972    C   23 0.954
    27  C   3.994        C   26 0.995    H   35 0.969    C   28 0.969    H   36 0.951
    28  C   3.942        O   29 1.620    N   30 1.324    C   27 0.969
    29  O   1.917        C   28 1.620    N   30 0.199
    30  N   3.409        C   28 1.324    H   38 0.933    H   37 0.894    O   29 0.199
    31  H   0.972        N   22 0.952
    32  H   0.996        C   23 0.942
    33  H   0.996        C   26 0.972
    34  H   0.998        C   26 0.973
    35  H   0.995        C   27 0.969
    36  H   0.995        C   27 0.951
    37  H   0.949        N   30 0.894
    38  H   0.957        N   30 0.933
    39  N   3.004        C   40 1.023    H  448 0.957    H   50 0.934
    40  C   3.986        N   39 1.023    H   51 0.957    C   43 0.956    C   41 0.937
    41  C   3.944        O   42 1.607    N   59 1.313    C   40 0.937
    42  O   1.942        C   41 1.607    N   59 0.191
    43  C   3.992        C   44 1.012    H   52 0.968    H   53 0.958    C   40 0.956
    44  C   3.988        C   46 1.412    C   45 1.408    C   43 1.012    C   49 0.109
    45  C   3.991        C   47 1.449    C   44 1.408    H   54 0.964    C   48 0.112
    46  C   3.989        C   48 1.442    C   44 1.412    H   55 0.958    C   47 0.110
    47  C   3.992        C   45 1.449    C   49 1.435    H   56 0.971    C   46 0.110
    48  C   3.992        C   46 1.442    C   49 1.439    H   57 0.971    C   45 0.112
    49  C   3.991        C   48 1.439    C   47 1.435    H   58 0.972    C   44 0.109
    50  H   0.970        N   39 0.934
    51  H   0.998        C   40 0.957
    52  H   0.996        C   43 0.968
    53  H   0.997        C   43 0.958
    54  H   0.999        C   45 0.964
    55  H   0.998        C   46 0.958
    56  H   0.998        C   47 0.971
    57  H   0.999        C   48 0.971
    58  H   0.999        C   49 0.972
    59  N   3.485        C   41 1.313    C   60 0.990    H   67 0.915    O   42 0.191
    60  C   3.967        N   59 0.990    C   61 0.980    C   63 0.971    H   68 0.910
    61  C   3.902        O   62 1.896    C   60 0.980    H  449 0.953
    62  O   2.044        C   61 1.896
    63  C   3.986        C   64 0.994    H   69 0.974    C   60 0.971    H   70 0.970
    64  C   3.995        C   66 1.009    C   65 1.007    C   63 0.994    H   71 0.967
    65  C   3.995        C   64 1.007    H   74 0.986    H   73 0.986    H   72 0.986
    66  C   3.996        C   64 1.009    H   76 0.984    H   77 0.981    H   75 0.980
    67  H   0.952        N   59 0.915
    68  H   0.987        C   60 0.910
    69  H   0.997        C   63 0.974
    70  H   0.994        C   63 0.970
    71  H   0.998        C   64 0.967
    72  H   0.997        C   65 0.986
    73  H   0.998        C   65 0.986
    74  H   0.998        C   65 0.986
    75  H   0.998        C   66 0.980
    76  H   0.999        C   66 0.984
    77  H   0.999        C   66 0.981
    78  N   2.996        C   79 1.018    H   92 0.957    H  450 0.949
    79  C   3.986        N   78 1.018    C   80 0.986    H   93 0.963    C   82 0.927
    80  C   3.897        O   81 1.888    C   79 0.986    H  451 0.956
    81  O   2.031        C   80 1.888
    82  C   3.994        C   83 1.018    H   94 0.973    H   95 0.970    C   79 0.927
    83  C   3.973        C   84 1.560    C   85 1.208    C   82 1.018
    84  C   3.955        C   83 1.560    N   86 1.218    H   96 0.969
    85  C   3.983        C   88 1.331    C   87 1.243    C   83 1.208
    86  N   3.561        C   84 1.218    C   87 1.194    H   97 0.913
    87  C   3.962        C   89 1.333    C   85 1.243    N   86 1.194
    88  C   3.992        C   90 1.505    C   85 1.331    H   98 0.970    C   89 0.111
    89  C   3.988        C   91 1.498    C   87 1.333    H   99 0.962    C   88 0.111
    90  C   3.989        C   88 1.505    C   91 1.366    H  100 0.969
    91  C   3.990        C   89 1.498    C   90 1.366    H  101 0.970
    92  H   0.974        N   78 0.957
    93  H   0.997        C   79 0.963
    94  H   0.998        C   82 0.973
    95  H   0.999        C   82 0.970
    96  H   0.998        C   84 0.969
    97  H   0.958        N   86 0.913
    98  H   0.999        C   88 0.970
    99  H   0.999        C   89 0.962
   100  H   0.999        C   90 0.969
   101  H   0.999        C   91 0.970
   102  N   3.090        C  108 1.011    C  103 1.003    H  452 0.957
   103  C   3.988        N  102 1.003    C  104 0.978    H  109 0.965    C  106 0.953
   104  C   3.903        O  105 1.893    C  103 0.978    H  453 0.955
   105  O   2.042        C  104 1.893
   106  C   3.993        C  107 1.004    H  111 0.976    H  110 0.973    C  103 0.953
   107  C   3.996        C  106 1.004    C  108 0.997    H  113 0.975    H  112 0.975
   108  C   3.983        N  102 1.011    C  107 0.997    H  115 0.976    H  114 0.969
   109  H   0.999        C  103 0.965
   110  H   0.997        C  106 0.973
   111  H   0.998        C  106 0.976
   112  H   0.998        C  107 0.975
   113  H   0.999        C  107 0.975
   114  H   0.997        C  108 0.969
   115  H   0.999        C  108 0.976
   116  N   2.995        C  117 1.017    H  127 0.958    H  454 0.953
   117  C   3.984        N  116 1.017    C  120 0.970    H  128 0.955    C  118 0.940
[...]
   132  H   0.996        C  121 0.966
   133  H   0.994        C  122 0.954
   134  H   0.993        C  122 0.961
   135  H   0.940        N  123 0.841
   136  H   0.944        N  125 0.921
   137  H   0.940        N  125 0.921
   138  H   0.938        N  126 0.848
   139  H   0.944        N  126 0.923
   140  N   3.445        C  118 1.284    C  141 0.985    H  151 0.891    O  119 0.192
   141  C   3.975        N  140 0.985    C  144 0.964    H  152 0.952    C  142 0.938
   142  C   3.946        O  143 1.574    N  160 1.316    C  141 0.938
   143  O   1.942        C  142 1.574    N  160 0.183
   144  C   3.987        C  145 1.009    C  141 0.964    H  154 0.962    H  153 0.960
   145  C   3.988        C  147 1.417    C  146 1.406    C  144 1.009    C  150 0.109
   146  C   3.989        C  148 1.444    C  145 1.406    H  155 0.958    C  149 0.111
   147  C   3.989        C  149 1.438    C  145 1.417    H  156 0.962    C  148 0.111
   148  C   3.992        C  146 1.444    C  150 1.434    H  157 0.964    C  147 0.111
   149  C   3.992        C  150 1.442    C  147 1.438    H  158 0.969    C  146 0.111
   150  C   3.991        C  149 1.442    C  148 1.434    H  159 0.969    C  145 0.109
   151  H   0.948        N  140 0.891
   152  H   0.998        C  141 0.952
   153  H   0.993        C  144 0.960
   154  H   0.996        C  144 0.962
   155  H   0.997        C  146 0.958
   156  H   0.997        C  147 0.962
   157  H   0.999        C  148 0.964
   158  H   0.998        C  149 0.969
   159  H   0.998        C  150 0.969
   160  N   3.533        C  142 1.316    C  166 0.975    C  161 0.971    O  143 0.183
   161  C   3.975        C  164 0.974    N  160 0.971    H  167 0.953    C  162 0.947
   162  C   3.953        O  163 1.640    N  174 1.277    C  161 0.947
   163  O   1.979        C  162 1.640    N  174 0.186
   164  C   3.993        C  165 1.003    H  168 0.975    C  161 0.974    H  169 0.973
   165  C   3.993        C  166 1.005    C  164 1.003    H  171 0.978    H  170 0.976
   166  C   3.966        C  165 1.005    N  160 0.975    H  173 0.965    H  172 0.962
   167  H   0.997        C  161 0.953
   168  H   0.998        C  164 0.975
   169  H   0.998        C  164 0.973
   170  H   0.996        C  165 0.976
   171  H   0.996        C  165 0.978
   172  H   0.996        C  166 0.962
   173  H   0.994        C  166 0.965
   174  N   3.431        C  162 1.277    C  175 0.980    H  182 0.894    O  163 0.186
   175  C   3.965        C  178 0.984    N  174 0.980    H  183 0.952    C  176 0.933
   176  C   3.944        O  177 1.640    N  186 1.290    C  175 0.933
   177  O   1.952        C  176 1.640    N  186 0.191
   178  C   3.983        C  175 0.984    H  184 0.965    H  185 0.964    C  179 0.913
   179  C   3.930        O  181 1.544    O  180 1.442    C  178 0.913
   180  O   1.849        C  179 1.442    O  181 0.206
   181  O   1.838        C  179 1.544    O  180 0.206
   182  H   0.958        N  174 0.894
   183  H   0.992        C  175 0.952
   184  H   0.996        C  178 0.965
   185  H   0.995        C  178 0.964
   186  N   3.451        C  176 1.290    C  187 0.995    H  192 0.870    O  177 0.191
   187  C   3.971        N  186 0.995    C  190 0.970    H  193 0.944    C  188 0.935
   188  C   3.951        O  189 1.627    N  197 1.310    C  187 0.935
   189  O   1.939        C  188 1.627    N  197 0.194
   190  C   3.965        O  191 1.007    C  187 0.970    H  194 0.969    H  195 0.966
   191  O   1.926        C  190 1.007    H  196 0.862
   192  H   0.954        N  186 0.870
   193  H   0.991        C  187 0.944
   194  H   1.000        C  190 0.969
   195  H   0.998        C  190 0.966
   196  H   0.876        O  191 0.862
   197  N   3.455        C  188 1.310    C  198 0.984    H  205 0.875    O  189 0.194
   198  C   3.970        N  197 0.984    C  201 0.970    H  206 0.952    C  199 0.932
   199  C   3.955        O  200 1.646    N  209 1.287    C  198 0.932
   200  O   1.964        C  199 1.646    N  209 0.193
   201  C   3.984        H  208 0.978    H  207 0.973    C  198 0.970    C  202 0.903
   202  C   3.935        O  203 1.534    O  204 1.471    C  201 0.903
   203  O   1.830        C  202 1.534    O  204 0.216
   204  O   1.831        C  202 1.471    O  203 0.216
   205  H   0.953        N  197 0.875
   206  H   0.998        C  198 0.952
   207  H   0.999        C  201 0.973
   208  H   0.998        C  201 0.978
   209  N   3.463        C  199 1.287    C  210 0.979    H  220 0.927    O  200 0.193
   210  C   3.953        N  209 0.979    C  211 0.976    C  213 0.938    H  221 0.932
   211  C   3.895        O  212 1.892    C  210 0.976    H  455 0.952
   212  O   2.037        C  211 1.892
   213  C   3.982        C  214 1.006    H  223 0.966    H  222 0.965    C  210 0.938
   214  C   3.987        C  215 1.413    C  216 1.412    C  213 1.006    C  219 0.108
   215  C   3.992        C  217 1.445    C  214 1.413    H  224 0.970    C  218 0.111
   216  C   3.988        C  218 1.444    C  214 1.412    H  225 0.967    C  217 0.111
   217  C   3.991        C  215 1.445    C  219 1.436    H  226 0.971    C  216 0.111
   218  C   3.990        C  216 1.444    C  219 1.435    H  227 0.969    C  215 0.111
   219  C   3.987        C  217 1.436    C  218 1.435    H  228 0.967    C  214 0.108
   220  H   0.961        N  209 0.927
   221  H   0.987        C  210 0.932
   222  H   0.996        C  213 0.965
   223  H   0.993        C  213 0.966
   224  H   1.000        C  215 0.970
   225  H   0.997        C  216 0.967
   226  H   0.998        C  217 0.971
   227  H   0.996        C  218 0.969
   228  H   0.997        C  219 0.967
   229  N   3.007        C  230 1.030    H  241 0.957    H  456 0.944
   230  C   3.986        N  229 1.030    H  242 0.954    C  231 0.947    C  233 0.939
   231  C   3.941        O  232 1.647    N  250 1.275    C  230 0.947
   232  O   1.974        C  231 1.647    N  250 0.187
   233  C   3.994        C  234 1.013    H  244 0.970    H  243 0.969    C  230 0.939
   234  C   3.988        C  236 1.407    C  235 1.399    C  233 1.013
   235  C   3.991        C  237 1.455    C  234 1.399    H  245 0.963    C  238 0.104
   236  C   3.990        C  238 1.452    C  234 1.407    H  246 0.967    C  237 0.107
   237  C   3.989        C  235 1.455    C  239 1.368    H  247 0.969    C  236 0.107
   238  C   3.987        C  236 1.452    C  239 1.372    H  248 0.963    C  235 0.104
   239  C   3.936        C  238 1.372    C  237 1.368    O  240 1.066
   240  O   2.082        C  239 1.066    H  249 0.860
   241  H   0.977        N  229 0.957
   242  H   0.997        C  230 0.954
   243  H   0.998        C  233 0.969
   244  H   0.998        C  233 0.970
   245  H   0.998        C  235 0.963
   246  H   0.999        C  236 0.967
   247  H   0.997        C  237 0.969
   248  H   0.997        C  238 0.963
   249  H   0.880        O  240 0.860
   250  N   3.439        C  231 1.275    C  251 0.995    H  258 0.897    O  232 0.187
   251  C   3.974        N  250 0.995    C  254 0.971    C  252 0.949    H  259 0.930
   252  C   3.948        O  253 1.593    N  264 1.307    C  251 0.949
   253  O   1.987        C  252 1.593    N  264 0.184
   254  C   3.989        C  255 0.976    C  251 0.971    H  261 0.958    H  260 0.945
   255  C   3.951        O  256 1.593    N  257 1.347    C  254 0.976
   256  O   1.951        C  255 1.593    N  257 0.196
   257  N   3.427        C  255 1.347    H  263 0.926    H  262 0.914    O  256 0.196
   258  H   0.950        N  250 0.897
   259  H   0.992        C  251 0.930
   260  H   0.993        C  254 0.945
   261  H   0.993        C  254 0.958
   262  H   0.936        N  257 0.914
   263  H   0.950        N  257 0.926
   264  N   3.463        C  252 1.307    C  265 0.967    H  275 0.925    O  253 0.184
   265  C   3.957        C  268 0.978    N  264 0.967    H  276 0.946    C  266 0.941
   266  C   3.947        O  267 1.622    N  288 1.284    C  265 0.941
   267  O   1.975        C  266 1.622    N  288 0.184
   268  C   3.979        C  269 1.006    C  265 0.978    H  278 0.971    H  277 0.954
   269  C   3.990        C  270 1.010    C  268 1.006    H  279 0.970    H  280 0.968
   270  C   3.952        C  269 1.010    N  271 0.980    H  281 0.957    H  282 0.954
   271  N   3.486        C  272 1.334    C  270 0.980    H  283 0.896    N  274 0.104    N  273 0.103
   272  C   3.978        N  271 1.334    N  273 1.306    N  274 1.302
   273  N   3.378        C  272 1.306    H  285 0.918    H  284 0.913    N  271 0.103
   274  N   3.385        C  272 1.302    H  287 0.923    H  286 0.903    N  271 0.104
   275  H   0.958        N  264 0.925
   276  H   0.995        C  265 0.946
   277  H   0.992        C  268 0.954
   278  H   0.995        C  268 0.971
   279  H   0.995        C  269 0.970
   280  H   0.996        C  269 0.968
   281  H   0.992        C  270 0.957
   282  H   0.989        C  270 0.954
   283  H   0.948        N  271 0.896
   284  H   0.936        N  273 0.913
   285  H   0.937        N  273 0.918
   286  H   0.946        N  274 0.903
   287  H   0.943        N  274 0.923
   288  N   3.444        C  266 1.284    C  289 0.983    H  294 0.903    O  267 0.184
   289  C   3.966        N  288 0.983    C  292 0.977    H  295 0.953    C  290 0.936
   290  C   3.945        O  291 1.615    N  299 1.309    C  289 0.936
   291  O   1.969        C  290 1.615    N  299 0.192
   292  C   3.954        O  293 1.005    C  289 0.977    H  296 0.967    H  297 0.960
   293  O   1.917        C  292 1.005    H  298 0.857
   294  H   0.951        N  288 0.903
   295  H   0.992        C  289 0.953
   296  H   0.996        C  292 0.967
   297  H   0.996        C  292 0.960
   298  H   0.870        O  293 0.857
   299  N   3.472        C  290 1.309    C  300 0.987    H  305 0.897    O  291 0.192
   300  C   3.969        N  299 0.987    C  303 0.980    H  306 0.941    C  301 0.939
   301  C   3.947        O  302 1.531    N  310 1.376    C  300 0.939
   302  O   1.951        C  301 1.531    N  310 0.188
   303  C   3.953        O  304 0.994    C  300 0.980    H  307 0.967    H  308 0.963
   304  O   1.945        C  303 0.994    H  309 0.865
   305  H   0.945        N  299 0.897
   306  H   0.991        C  300 0.941
   307  H   0.996        C  303 0.967
   308  H   0.995        C  303 0.963
   309  H   0.883        O  304 0.865
   310  N   3.510        C  301 1.376    C  311 0.975    H  321 0.866    O  302 0.188
   311  C   3.964        N  310 0.975    C  314 0.968    H  322 0.951    C  312 0.939
   312  C   3.947        O  313 1.551    N  330 1.361    C  311 0.939
   313  O   1.942        C  312 1.551    N  330 0.191
   314  C   3.985        C  315 1.004    C  311 0.968    H  324 0.964    H  323 0.961
   315  C   3.987        C  316 1.413    C  317 1.411    C  314 1.004    C  320 0.110
   316  C   3.991        C  318 1.445    C  315 1.413    H  325 0.967    C  319 0.112
   317  C   3.990        C  319 1.443    C  315 1.411    H  326 0.955    C  318 0.110
   318  C   3.991        C  316 1.445    C  320 1.438    H  327 0.958    C  317 0.110
   319  C   3.991        C  317 1.443    C  320 1.438    H  328 0.966    C  316 0.112
   320  C   3.991        C  319 1.438    C  318 1.438    H  329 0.968    C  315 0.110
   321  H   0.937        N  310 0.866
   322  H   0.994        C  311 0.951
   323  H   0.995        C  314 0.961
   324  H   0.995        C  314 0.964
   325  H   0.999        C  316 0.967
   326  H   0.998        C  317 0.955
   327  H   0.998        C  318 0.958
   328  H   0.997        C  319 0.966
   329  H   0.997        C  320 0.968
   330  N   3.505        C  312 1.361    C  331 0.976    H  339 0.879    O  313 0.191
   331  C   3.959        C  334 0.976    N  330 0.976    H  340 0.944    C  332 0.939
   332  C   3.945        O  333 1.605    N  345 1.312    C  331 0.939
   333  O   1.954        C  332 1.605    N  345 0.191
   334  C   3.985        C  335 1.006    C  331 0.976    H  342 0.974    H  341 0.970
   335  C   3.984        C  334 1.006    H  343 0.955    H  344 0.951    C  336 0.945
   336  C   3.937        O  337 1.529    O  338 1.426    C  335 0.945
   337  O   1.911        C  336 1.529    O  338 0.202
   338  O   1.898        C  336 1.426    O  337 0.202
   339  H   0.942        N  330 0.879
   340  H   0.994        C  331 0.944
   341  H   0.996        C  334 0.970
   342  H   0.996        C  334 0.974
   343  H   0.997        C  335 0.955
   344  H   0.997        C  335 0.951
   345  N   3.464        C  332 1.312    C  346 0.982    H  351 0.881    O  333 0.191
   346  C   3.966        N  345 0.982    C  349 0.965    H  352 0.951    C  347 0.933
   347  C   3.949        O  348 1.647    N  356 1.294    C  346 0.933
   348  O   1.958        C  347 1.647    N  356 0.196
   349  C   3.958        O  350 1.017    H  353 0.970    C  346 0.965    H  354 0.958
   350  O   1.940        C  349 1.017    H  355 0.830
   351  H   0.945        N  345 0.881
   352  H   0.995        C  346 0.951
   353  H   0.995        C  349 0.970
   354  H   0.996        C  349 0.958
   355  H   0.895        O  350 0.830
   356  N   3.461        C  347 1.294    C  357 0.984    H  362 0.888    O  348 0.196
   357  C   3.964        N  356 0.984    C  360 0.962    H  363 0.953    C  358 0.931
   358  C   3.951        O  359 1.652    N  367 1.290    C  357 0.931
   359  O   1.966        C  358 1.652    N  367 0.199
   360  C   3.963        O  361 1.021    H  365 0.969    H  364 0.964    C  357 0.962
   361  O   1.962        C  360 1.021    H  366 0.855
   362  H   0.951        N  356 0.888
   363  H   0.993        C  357 0.953
   364  H   0.998        C  360 0.964
   365  H   0.995        C  360 0.969
   366  H   0.891        O  361 0.855
   367  N   3.458        C  358 1.290    C  368 0.986    H  373 0.887    O  359 0.199
   368  C   3.966        N  367 0.986    C  371 0.959    H  374 0.948    C  369 0.939
   369  C   3.952        O  370 1.602    N  378 1.322    C  368 0.939
   370  O   1.963        C  369 1.602    N  378 0.195
   371  C   3.956        O  372 1.011    H  376 0.966    H  375 0.965    C  368 0.959
   372  O   1.972        C  371 1.011    H  377 0.839
   373  H   0.949        N  367 0.887
   374  H   0.993        C  368 0.948
   375  H   0.994        C  371 0.965
   376  H   0.997        C  371 0.966
   377  H   0.896        O  372 0.839
   378  N   3.492        C  369 1.322    C  379 1.001    H  382 0.890    O  370 0.195
   379  C   3.964        N  378 1.001    H  383 0.951    H  384 0.951    C  380 0.948
   380  C   3.955        O  381 1.614    N  385 1.319    C  379 0.948
   381  O   1.933        C  380 1.614    N  385 0.196
   382  H   0.951        N  378 0.890
   383  H   0.991        C  379 0.951
   384  H   0.990        C  379 0.951
   385  N   3.483        C  380 1.319    C  386 0.977    H  393 0.897    O  381 0.196
   386  C   3.963        C  389 0.983    N  385 0.977    H  394 0.949    C  387 0.927
   387  C   3.949        O  388 1.646    N  404 1.295    C  386 0.927
   388  O   1.964        C  387 1.646    N  404 0.200
   389  C   3.987        C  390 0.992    C  386 0.983    H  395 0.968    H  396 0.966
   390  C   3.994        C  392 1.010    C  391 1.008    C  389 0.992    H  397 0.966
   391  C   3.993        C  390 1.008    H  398 0.984    H  399 0.982    H  400 0.981
   392  C   3.995        C  390 1.010    H  401 0.983    H  403 0.982    H  402 0.980
   393  H   0.953        N  385 0.897
   394  H   0.996        C  386 0.949
   395  H   0.996        C  389 0.968
   396  H   0.996        C  389 0.966
   397  H   0.999        C  390 0.966
   398  H   0.997        C  391 0.984
   399  H   0.998        C  391 0.982
   400  H   0.998        C  391 0.981
   401  H   0.998        C  392 0.983
   402  H   0.998        C  392 0.980
   403  H   0.999        C  392 0.982
   404  N   3.477        C  387 1.295    C  405 0.978    H  411 0.925    O  388 0.200
   405  C   3.959        N  404 0.978    C  408 0.959    H  412 0.954    C  406 0.932
   406  C   3.950        O  407 1.636    N  420 1.297    C  405 0.932
   407  O   1.962        C  406 1.636    N  420 0.197
   408  C   3.989        C  410 1.008    C  409 1.007    H  413 0.966    C  405 0.959
   409  C   3.992        C  408 1.007    H  416 0.985    H  415 0.984    H  414 0.983
   410  C   3.992        C  408 1.008    H  418 0.986    H  419 0.983    H  417 0.983
   411  H   0.959        N  404 0.925
   412  H   0.995        C  405 0.954
   413  H   0.998        C  408 0.966
   414  H   0.995        C  409 0.983
   415  H   0.999        C  409 0.984
   416  H   0.997        C  409 0.985
   417  H   0.996        C  410 0.983
   418  H   0.998        C  410 0.986
   419  H   0.998        C  410 0.983
   420  N   3.472        C  406 1.297    C  421 0.976    H  434 0.921    O  407 0.197
   421  C   3.959        N  420 0.976    C  422 0.966    H  435 0.956    C  424 0.944
   422  C   3.899        O  423 1.912    C  421 0.966    H  457 0.953
   423  O   2.049        C  422 1.912
   424  C   3.981        C  425 1.012    H  437 0.968    H  436 0.961    C  421 0.944
   425  C   3.972        C  426 1.570    C  427 1.206    C  424 1.012
   426  C   3.952        C  425 1.570    N  428 1.211    H  438 0.967
   427  C   3.985        C  430 1.329    C  429 1.244    C  425 1.206
   428  N   3.552        C  426 1.211    C  429 1.188    H  439 0.929
   429  C   3.964        C  431 1.336    C  427 1.244    N  428 1.188
   430  C   3.993        C  432 1.501    C  427 1.329    H  440 0.965    C  431 0.115
   431  C   3.989        C  433 1.493    C  429 1.336    H  441 0.968    C  430 0.115
   432  C   3.991        C  430 1.501    C  433 1.370    H  442 0.968
   433  C   3.991        C  431 1.493    C  432 1.370    H  443 0.972
   434  H   0.954        N  420 0.921
   435  H   0.993        C  421 0.956
   436  H   0.994        C  424 0.961
   437  H   0.995        C  424 0.968
   438  H   0.996        C  426 0.967
   439  H   0.957        N  428 0.929
   440  H   0.999        C  430 0.965
   441  H   0.998        C  431 0.968
   442  H   0.999        C  432 0.968
   443  H   0.999        C  433 0.972
   444  H   0.968        N    1 0.952
   445  H   0.996        C    3 0.956
   446  H   0.966        N   22 0.954
   447  H   0.993        C   24 0.953
   448  H   0.969        N   39 0.957
   449  H   0.994        C   61 0.953
   450  H   0.966        N   78 0.949
   451  H   0.996        C   80 0.956
   452  H   0.973        N  102 0.957
   453  H   0.996        C  104 0.955
   454  H   0.968        N  116 0.953
   455  H   0.993        C  211 0.952
   456  H   0.965        N  229 0.944
   457  H   0.993        C  422 0.953
 
molecular dipole:
                 x           y           z       tot (Debye)
 q only:      -49.294     -35.406     -43.979
   full:      -47.063     -36.200     -44.198     188.142
molecular quadrupole (traceless):
                xx          xy          yy          xz          yz          zz
 q only:    -1177.628   -2193.964    1433.713   -2802.061   -2561.265    -256.085
  q+dip:     -949.864   -2169.159    1289.633   -2667.882   -2613.974    -339.770
   full:     -951.573   -2165.687    1292.579   -2666.583   -2612.074    -341.007


           -------------------------------------------------
          | TOTAL ENERGY             -732.279009457454 Eh   |
          | GRADIENT NORM               0.590588088367 Eh/α |
          | HOMO-LUMO GAP               1.223275222901 eV   |
           -------------------------------------------------

------------------------------------------------------------------------
 * finished run on 2019/05/31 at 02:07:29.803     
------------------------------------------------------------------------
 total:
 * wall-time:     0 d,  0 h,  0 min, 15.374 sec
 *  cpu-time:     0 d,  0 h,  0 min, 58.361 sec
 * ratio c/w:     3.796 speedup
 SCF:
 * wall-time:     0 d,  0 h,  0 min, 14.591 sec
 *  cpu-time:     0 d,  0 h,  0 min, 55.853 sec
 * ratio c/w:     3.828 speedup

