      -----------------------------------------------------------      
     |                   =====================                   |     
     |                           x T B                           |     
     |                   =====================                   |     
     |                         S. Grimme                         |     
     |          Mulliken Center for Theoretical Chemistry        |     
     |                    University of Bonn                     |     
     |                Version 6.1 RC1 (SAW190329)                |     
      -----------------------------------------------------------      

   This program is distributed in the hope that it will be useful,
   but WITHOUT ANY WARRANTY; without even the implied warranty of
   MERCHANTABILITY or FITNESS FOR A PARTICULAR PURPOSE.
   
   FOR NON-COMMERCIAL, ACADEMIA USE ONLY.
   
   Cite this work as:
   S. Grimme, C. Bannwarth, P. Shushkov, J. Comput. Theory Chem., 2017,
   13, 1989-2009. DOI: 10.1021/acs.jctc.7b00118
   C. Bannwarth, S. Ehlert and S. Grimme., J. Comput. Theory Chem., 2019,
   just accepted. DOI: 10.1021/acs.jctc.8b01176
   
   for sTDA-xTB:
   S. Grimme and C. Bannwarth, J. Chem. Phys., 2016, 145, 054103.
   DOI: 10.1063/1.4959605
   
   in the mass-spec context:
   V. Asgeirsson, C. Bauer and S. Grimme, Chem. Sci., 2017, 8, 4879.
   DOI: 10.1039/c7sc00601b
   
   for metadynamics refer to:
   S. Grimme, ChemRxiv, Preprint. DOI: 10.26434/chemrxiv.7660532.v1
   
   with help from (in alphabetical order)
   C. Bannwarth, F. Bohle, G. Brandenburg, E. Caldeweyher, M. Checinski,
   S. Dohm, S. Ehlert, S. Ehrlich, F. März, H. Neugebauer, J. Pisarek,
   P. Pracht, P. Shushkov, and S. Spicher.
   
 * started run on 2019/05/31 at 07:35:57.530     

           -------------------------------------------------
          |                Calculation Setup                |
           -------------------------------------------------

          program call               : /home/lum/install/xtb/xtb-190329/bin/xtb xtb_tmp.xyz --chrg 0 --grad --gfn 2 --etemp 500 --acc 0.1 --gbsa h2o --parallel 1
          hostname                   : cu05
          coordinate file            : xtb_tmp.xyz
          omp threads                :                     1
          number of atoms            :                   659
          number of electrons        :                  1778
          charge                     :                     0
          spin                       :                   0.0
          first test random number   :      0.70398545257689


molecular fragmentation (1/2 indicates fragments):
111111111111111111111111111111111111112222222222222222222222222222222222
222222222222222222222222222222222222222222222222222222222222222222222222
222222222222222222222222222222222222222222222222222222222222222222222222
222222222222222222222222222222222222222222222222222222222222222222222222
222222222222222222222222222222222222222222222222222222222222222222222222
222222222222222222222222222222222222222222222222222222222222222222222222
222222222222222222222222222222222222222222222222222222222222222222222222
222222222222222222222222222222222222222222222222222222222222222222222222
222222222222222222222222222222222222222222222222222222211222222222222222
22222222222
# atoms in fragment 1/2:    40   619
 fragment masses (1/2) :      228.33     4311.16
CMA distance (Bohr)    :  20.953
constraining FC (au)   :  0.0500

########################################################################
# WARNING! Please study the warnings concerning your input carefully
#  - XTBPATH is not set, using XTBHOME instead
########################################################################

           ------------------------------------------------- 
          |                 G F N 2 - x T B                 |
          | Geometry, Frequencies, Noncovalent interactions |
          |            JCTC 2018 parametrisation            |
           ------------------------------------------------- 
 
             k(s)              :                1.8500
             k(p)              :                2.2300
             k(d)              :                2.2300
             k(f)              :                2.0000
             kEN (H0ij)        :               -2.0000
             D4 a1             :                0.5200
             D4 a2             :                5.0000
             D4 s6             :                1.0000
             D4 s8             :                2.7000
             D4 s9             :                5.0000
             alphaj            :                2.0000

  Z AO/shell   Hii/eV     exponent
  1     Wed Apr 25 08:07:45 CEST 2018   EN: 2.200 GM2: 0.406  GM3: 0.0800  RAES: 1.40
     1s    -10.707211    1.230000
  6     Wed Apr 25 08:07:45 CEST 2018   EN: 2.550 GM2: 0.538  GM3: 0.1500  RAES: 3.00
     2s    -13.970922    2.096432
     2p    -10.063292    1.800000
  7     Wed Apr 25 08:07:45 CEST 2018   EN: 3.040 GM2: 0.461  GM3:-0.0640  RAES: 1.90
     2s    -16.686243    2.339881
     2p    -12.523956    2.014332
  8     Wed Apr 25 08:07:45 CEST 2018   EN: 3.440 GM2: 0.452  GM3:-0.0517  RAES: 1.80
     2s    -20.229985    2.439742
     2p    -15.503117    2.137023
 16     Tue Apr 24 11:44:34 CEST 2018   EN: 2.580 GM2: 0.340  GM3:-0.0502  RAES: 3.10
     3s    -20.029654    1.981333
     3p    -11.377694    2.025643
     3d     -0.420282    1.702555

 Solvent             : h2o
 Using internal parameter file: .param_gbsa2_h2o
 Gsolv ref. state (COSMO-RS): gsolv [1 M gas/solution]
 temperature (mdtemp)       :    298.150000000000     
 dielectric constant        :    80.2000000000000     
 rho                        :    1.00000000000000     
 mass                       :    18.0000000000000     
 surface tension            :    15.5689454083859     
 probe radius               :   0.975313790000000     
 vdW radii scaling          :    1.00000000000000     
 Gshift (Eh)                :   1.857443126794793E-003
 c1                         :    1.55243817000000     
 soset                      :   0.130326360000000     
 HB correction              :  T
 Number of grid points      :          230

            Z     q(EN)     CN     RAES       Cart. coordinates
     1  N   5.0   -0.72    3.00    1.93    59.89008    57.89025    38.67735
     2  C   4.0    0.07    3.99    3.60    57.89661    57.05669    40.36894
     3  C   4.0    0.27    3.01    3.02    57.76579    58.80695    42.66373
     4  O   6.0   -0.49    1.00    1.80    55.72784    59.46401    43.59167
     5  C   4.0   -0.09    3.98    3.58    58.30447    54.27448    41.12684
     6  C   4.0   -0.16    3.98    3.59    58.01046    52.59715    38.77712
     7  C   4.0   -0.22    3.98    3.59    56.44203    53.49835    43.19104
     8  C   4.0   -0.24    3.98    3.58    58.50587    49.80364    39.28534
     9  H   1.0    0.25    1.00    1.43    61.24828    56.64029    38.16560
    10  H   1.0    0.11    0.99    1.43    56.06842    57.23861    39.39875
    11  H   1.0    0.11    0.99    1.43    60.23763    54.12057    41.85275
    12  H   1.0    0.10    0.99    1.43    56.09877    52.81975    38.03665
    13  H   1.0    0.10    0.99    1.43    59.32793    53.23388    37.32631
    14  H   1.0    0.10    0.99    1.43    56.82542    51.57915    43.79955
    15  H   1.0    0.12    0.99    1.43    56.60283    54.73613    44.82271
    16  H   1.0    0.11    0.99    1.43    54.51684    53.59085    42.48052
    17  H   1.0    0.10    0.99    1.43    58.52385    48.78231    37.50315
    18  H   1.0    0.10    0.99    1.43    60.32818    49.54908    40.20328
    19  H   1.0    0.10    0.99    1.43    57.03074    48.99120    40.45752
    20  N   5.0   -0.48    3.01    1.93    59.96794    59.53102    43.61744
    21  C   4.0    0.06    3.99    3.60    60.11958    61.17922    45.79678
    22  C   4.0    0.08    3.00    3.02    58.84722    63.71723    45.26336
    23  O   6.0   -0.41    1.00    1.80    57.41807    64.70118    46.81679
    24  C   4.0   -0.15    3.99    3.60    62.88484    61.54308    46.55124
    25  C   4.0   -0.10    3.98    3.58    63.20392    63.25372    48.88372
    26  C   4.0   -0.23    3.98    3.59    65.08466    62.09487    50.73906
    27  C   4.0   -0.22    3.98    3.59    64.03919    65.90938    48.12183
    28  H   1.0    0.24    1.00    1.43    61.60939    58.84428    42.89965
    29  H   1.0    0.13    0.99    1.43    59.06316    60.31021    47.35970
    30  H   1.0    0.10    0.99    1.43    63.66452    59.67164    46.92520
    31  H   1.0    0.10    0.99    1.43    63.89107    62.33704    44.93725
    32  H   1.0    0.13    0.99    1.43    61.37550    63.41682    49.83829
    33  H   1.0    0.11    0.99    1.43    65.26394    63.28177    52.40700
    34  H   1.0    0.10    0.99    1.43    64.44886    60.23313    51.33296
    35  H   1.0    0.10    0.99    1.43    66.92848    61.92538    49.84994
    36  H   1.0    0.11    0.99    1.43    64.18688    67.11700    49.77772
    37  H   1.0    0.10    0.99    1.43    65.87041    65.85314    47.19187
    38  H   1.0    0.12    0.99    1.43    62.67932    66.75432    46.83521
    39  N   5.0   -0.69    3.00    1.93    54.68559    65.07976    40.76331
    40  C   4.0    0.07    3.98    3.59    51.99169    64.79130    40.35492
    41  C   4.0    0.30    3.01    3.02    50.62851    64.50203    42.89341
    42  O   6.0   -0.46    1.00    1.80    48.61244    65.56954    43.30412
    43  C   4.0   -0.21    3.98    3.59    51.45536    62.58465    38.59386
    44  H   1.0    0.26    1.00    1.43    55.88705    63.78913    40.00703
    45  H   1.0    0.11    0.99    1.43    51.26427    66.54923    39.52003
    46  H   1.0    0.10    0.99    1.43    49.43902    62.48158    38.22236
    47  H   1.0    0.10    0.99    1.43    52.45612    62.85908    36.82131
    48  H   1.0    0.14    0.99    1.43    52.06067    60.81986    39.44653
    49  N   5.0   -0.46    3.00    1.93    51.77166    63.04579    44.60121
    50  C   4.0    0.01    3.99    3.61    50.71346    62.75331    47.10752
    51  C   4.0    0.09    3.00    3.02    50.37130    65.33072    48.35803
    52  O   6.0   -0.41    1.00    1.80    48.37744    65.99017    49.32926
    53  H   1.0    0.31    1.00    1.43    53.35920    62.06634    44.16647
    54  H   1.0    0.13    0.99    1.43    48.87393    61.81037    47.00810
    55  H   1.0    0.11    0.99    1.43    52.02404    61.65982    48.25954
    56  N   5.0   -0.69    3.00    1.93    44.80109    68.77043    45.92857
    57  C   4.0    0.07    3.98    3.58    42.43565    67.85269    46.97476
    58  C   4.0    0.08    3.00    3.02    41.95031    69.13552    49.53448
    59  O   6.0   -0.45    1.00    1.80    39.97213    70.23496    50.01990
    60  C   4.0   -0.12    3.99    3.60    42.48063    64.96119    47.29708
    61  C   4.0   -0.04    3.03    3.02    41.49429    63.60541    44.99662
    62  C   4.0   -0.08    3.03    3.02    42.87884    63.55694    42.76460
    63  C   4.0   -0.10    3.03    3.02    39.15755    62.40546    45.05934
    64  C   4.0   -0.11    3.03    3.02    41.92487    62.38356    40.63304
    65  C   4.0   -0.11    3.03    3.02    38.20821    61.21397    42.93126
    66  C   4.0   -0.11    3.03    3.02    39.58273    61.21778    40.70690
    67  H   1.0    0.32    1.00    1.43    46.09408    67.50294    45.30069
    68  H   1.0    0.11    0.99    1.43    40.87548    68.41681    45.72252
    69  H   1.0    0.14    0.99    1.43    44.42014    64.39834    47.71546
    70  H   1.0    0.10    0.99    1.43    41.30796    64.46755    48.91989
    71  H   1.0    0.15    1.00    1.43    44.72698    64.41188    42.70206
    72  H   1.0    0.12    0.99    1.43    38.07453    62.36574    46.79031
    73  H   1.0    0.11    1.00    1.43    43.01465    62.36734    38.90762
    74  H   1.0    0.11    0.99    1.43    36.39684    60.27583    43.01131
    75  H   1.0    0.10    0.99    1.43    38.84060    60.29817    39.04210
    76  N   5.0   -0.69    3.00    1.93    40.26454    75.83730    49.41906
    77  C   4.0    0.08    3.99    3.60    37.69135    76.29672    48.61097
    78  C   4.0    0.29    3.02    3.02    35.94793    76.08827    50.90091
    79  O   6.0   -0.47    1.00    1.80    34.42451    77.75873    51.42108
    80  C   4.0   -0.09    3.98    3.58    36.87762    74.51774    46.47541
    81  C   4.0   -0.23    3.98    3.59    34.10040    74.98539    45.84808
    82  C   4.0   -0.23    3.98    3.59    38.50252    74.94413    44.13062
    83  H   1.0    0.28    1.00    1.43    41.24782    74.40041    48.62250
    84  H   1.0    0.11    0.99    1.43    37.54730    78.26589    47.96122
    85  H   1.0    0.14    0.99    1.43    37.12773    72.57665    47.14399
    86  H   1.0    0.09    0.99    1.43    33.52108    73.80387    44.27294
    87  H   1.0    0.11    0.99    1.43    32.90207    74.56771    47.46215
    88  H   1.0    0.10    0.99    1.43    33.81533    76.95140    45.32015
    89  H   1.0    0.10    0.99    1.43    37.88268    73.70430    42.61561
    90  H   1.0    0.10    0.99    1.43    38.34246    76.88875    43.48610
    91  H   1.0    0.10    0.99    1.43    40.47915    74.54656    44.50769
    92  N   5.0   -0.47    3.01    1.93    36.20440    74.01377    52.31931
    93  C   4.0    0.07    3.99    3.61    34.66300    73.78408    54.56243
    94  C   4.0    0.08    3.00    3.02    34.93166    76.16135    56.20519
    95  O   6.0   -0.42    1.00    1.80    33.06662    77.23256    57.06907
    96  C   4.0   -0.02    3.98    3.58    35.28301    71.40707    56.15911
    97  O   6.0   -0.47    1.99    1.82    37.62590    70.29992    55.72533
    98  H   1.0    0.30    1.00    1.43    37.40507    72.59353    51.84194
    99  H   1.0    0.12    0.99    1.43    32.66298    73.70616    54.00235
   100  H   1.0    0.11    0.99    1.43    35.08139    71.94275    58.16278
   101  H   1.0    0.12    0.99    1.43    33.89793    69.93803    55.72448
   102  H   1.0    0.27    0.99    1.43    38.97168    71.57802    55.74819
   103  N   5.0   -0.69    3.00    1.93    31.56027    81.97632    53.59548
   104  C   4.0    0.07    3.98    3.58    28.84361    81.82722    53.88812
   105  C   4.0    0.08    3.00    3.02    28.08455    82.46761    56.60596
   106  O   6.0   -0.41    1.00    1.80    26.35771    83.94602    57.07099
   107  C   4.0   -0.13    3.99    3.60    27.89334    79.20188    53.16152
   108  C   4.0   -0.10    3.98    3.58    28.13857    78.61668    50.33076
   109  C   4.0   -0.23    3.98    3.59    27.58130    75.81804    49.89856
   110  C   4.0   -0.23    3.98    3.59    26.36115    80.23209    48.73283
   111  H   1.0    0.32    1.00    1.43    32.49728    80.45970    52.88980
   112  H   1.0    0.12    0.99    1.43    27.96272    83.27770    52.69639
   113  H   1.0    0.13    0.99    1.43    28.98796    77.82307    54.23651
   114  H   1.0    0.10    0.99    1.43    25.91430    79.04498    53.72122
   115  H   1.0    0.13    0.99    1.43    30.08867    78.98324    49.74982
   116  H   1.0    0.09    0.99    1.43    27.70688    75.37165    47.89803
   117  H   1.0    0.10    0.99    1.43    28.93577    74.65039    50.91219
   118  H   1.0    0.09    0.99    1.43    25.68854    75.35457    50.54995
   119  H   1.0    0.10    0.99    1.43    26.53467    79.72078    46.75047
   120  H   1.0    0.10    0.99    1.43    24.41168    79.93602    49.31192
   121  H   1.0    0.10    0.99    1.43    26.79490    82.23124    48.91396
   122  N   5.0   -0.72    3.00    1.93    28.97741    67.41442    63.68373
   123  C   4.0    0.06    3.98    3.59    29.51312    67.84147    61.03683
   124  C   4.0    0.27    3.01    3.02    32.07447    66.71681    60.31572
   125  O   6.0   -0.48    1.00    1.80    32.29075    65.42601    58.39493
   126  C   4.0   -0.14    3.99    3.60    29.40296    70.66378    60.41458
   127  C   4.0   -0.11    3.98    3.58    26.78021    71.56949    59.57180
   128  C   4.0   -0.23    3.98    3.59    24.72808    70.90081    61.48568
   129  C   4.0   -0.23    3.98    3.59    26.85654    74.42637    59.16100
   130  H   1.0    0.25    1.00    1.43    28.70477    68.94535    64.80352
   131  H   1.0    0.10    0.99    1.43    28.11788    66.80631    59.89828
   132  H   1.0    0.11    0.99    1.43    30.00918    71.71341    62.08181
   133  H   1.0    0.10    0.99    1.43    30.74497    71.06535    58.90187
   134  H   1.0    0.10    0.99    1.43    26.33963    70.64899    57.77152
   135  H   1.0    0.10    0.99    1.43    22.95048    71.76933    60.93331
   136  H   1.0    0.09    0.99    1.43    24.44368    68.87050    61.59890
   137  H   1.0    0.10    0.99    1.43    25.25452    71.58617    63.34679
   138  H   1.0    0.10    0.99    1.43    25.14557    75.06803    58.22632
   139  H   1.0    0.11    0.99    1.43    27.00076    75.38948    60.96926
   140  H   1.0    0.11    0.99    1.43    28.46873    74.96339    58.00601
   141  N   5.0   -0.49    3.01    1.93    34.01237    67.23434    61.82370
   142  C   4.0    0.06    4.00    3.62    36.48393    66.15717    61.33402
   143  C   4.0    0.30    3.01    3.02    36.22509    63.31713    60.82529
   144  O   6.0   -0.46    1.00    1.80    37.34107    62.29168    59.07029
   145  C   4.0   -0.14    3.99    3.60    38.24504    66.53138    63.59349
   146  C   4.0   -0.12    3.98    3.59    39.08487    69.28096    63.93916
   147  C   4.0    0.27    3.00    3.02    40.70932    69.49846    66.29513
   148  O   6.0   -0.38    1.00    1.80    42.60560    68.20662    66.61031
   149  N   5.0   -0.65    3.00    1.93    39.94383    71.18230    68.02055
   150  H   1.0    0.23    1.00    1.43    33.78627    68.33438    63.37841
   151  H   1.0    0.14    0.99    1.43    37.28897    67.01756    59.62229
   152  H   1.0    0.12    0.99    1.43    37.25463    65.88033    65.28268
   153  H   1.0    0.13    0.99    1.43    39.90834    65.33969    63.33919
   154  H   1.0    0.12    0.99    1.43    40.21735    69.85810    62.31366
   155  H   1.0    0.10    0.99    1.43    37.44329    70.50739    64.08573
   156  H   1.0    0.26    1.00    1.43    38.44068    72.31919    67.76359
   157  H   1.0    0.28    1.00    1.43    40.98705    71.44178    69.59447
   158  N   5.0   -0.48    3.01    1.93    34.79257    62.07010    62.47797
   159  C   4.0    0.08    4.00    3.61    34.48526    59.35623    62.34405
   160  C   4.0    0.28    3.01    3.02    32.99946    58.59313    59.98564
   161  O   6.0   -0.46    1.00    1.80    33.64231    56.77745    58.68446
   162  C   4.0   -0.15    3.98    3.59    33.19678    58.37435    64.73218
   163  C   4.0   -0.12    3.98    3.58    34.97502    58.46967    67.01144
   164  C   4.0    0.30    2.99    3.02    37.12088    56.47532    66.78559
   165  O   6.0   -0.47    1.00    1.80    38.95928    57.02396    65.39252
   166  O   6.0   -0.41    1.00    1.80    36.86322    54.47685    67.98753
   167  H   1.0    0.24    1.00    1.43    33.97393    62.99594    63.94011
   168  H   1.0    0.15    0.99    1.43    36.36434    58.48652    62.18649
   169  H   1.0    0.10    0.99    1.43    31.51861    59.52737    65.08222
   170  H   1.0    0.12    0.99    1.43    32.59479    56.42433    64.41069
   171  H   1.0    0.12    0.99    1.43    35.80831    60.34860    67.17879
   172  H   1.0    0.11    0.99    1.43    33.91760    58.05328    68.73374
   173  N   5.0   -0.47    3.01    1.93    30.99402    60.01032    59.44699
   174  C   4.0    0.08    4.00    3.62    29.52733    59.56881    57.17503
   175  C   4.0    0.30    3.01    3.02    31.27629    59.62775    54.87400
   176  O   6.0   -0.48    1.00    1.80    31.09804    58.05416    53.17812
   177  C   4.0   -0.10    3.98    3.59    27.41896    61.54893    56.90545
   178  C   4.0   -0.23    3.98    3.59    26.22772    61.43544    54.27905
   179  C   4.0   -0.23    3.98    3.59    25.40335    61.14584    58.93011
   180  H   1.0    0.25    1.00    1.43    30.45225    61.40777    60.64486
   181  H   1.0    0.12    0.99    1.43    28.70423    57.66194    57.24225
   182  H   1.0    0.12    0.99    1.43    28.29957    63.40268    57.16298
   183  H   1.0    0.09    0.99    1.43    24.65731    62.75309    54.16648
   184  H   1.0    0.12    0.99    1.43    27.59276    61.92507    52.82351
   185  H   1.0    0.11    0.99    1.43    25.52817    59.54197    53.89514
   186  H   1.0    0.09    0.99    1.43    23.93197    62.56654    58.74235
   187  H   1.0    0.10    0.99    1.43    24.54756    59.29053    58.71794
   188  H   1.0    0.10    0.99    1.43    26.21465    61.28321    60.81059
   189  N   5.0   -0.48    3.01    1.93    32.91248    61.53808    54.82358
   190  C   4.0    0.07    4.00    3.62    34.61821    61.90697    52.72452
   191  C   4.0    0.29    3.01    3.02    36.62104    59.82874    52.61659
   192  O   6.0   -0.48    1.00    1.80    37.31005    58.99647    50.56344
   193  C   4.0   -0.12    3.99    3.60    35.80385    64.55688    52.79009
   194  C   4.0   -0.02    3.03    3.02    34.12477    66.38562    51.40769
   195  C   4.0   -0.09    3.03    3.02    31.87772    67.21901    52.48478
   196  C   4.0   -0.08    3.03    3.02    34.72174    67.14287    48.96830
   197  C   4.0   -0.12    3.03    3.02    30.27008    68.79462    51.15308
   198  C   4.0   -0.11    3.03    3.02    33.10487    68.69807    47.62624
   199  C   4.0   -0.11    3.03    3.02    30.87529    69.52574    48.71423
   200  H   1.0    0.31    1.00    1.43    32.94675    62.82983    56.23896
   201  H   1.0    0.13    0.99    1.43    33.53160    61.69922    50.96416
   202  H   1.0    0.15    0.99    1.43    36.08511    65.12373    54.75039
   203  H   1.0    0.11    0.99    1.43    37.65351    64.49574    51.88297
   204  H   1.0    0.13    1.00    1.43    31.38334    66.61527    54.36912
   205  H   1.0    0.12    1.00    1.43    36.46040    66.51013    48.10848
   206  H   1.0    0.10    0.99    1.43    28.53022    69.43545    52.00784
   207  H   1.0    0.10    1.00    1.43    33.58416    69.24724    45.72188
   208  H   1.0    0.10    1.00    1.43    29.60510    70.72513    47.66403
   209  N   5.0   -0.47    3.01    1.93    37.49369    58.96822    54.80929
   210  C   4.0    0.07    4.00    3.61    39.13494    56.77073    54.92145
   211  C   4.0    0.30    3.01    3.02    37.88289    54.57335    53.50369
   212  O   6.0   -0.46    1.00    1.80    39.00940    53.39382    51.85785
   213  C   4.0   -0.14    3.99    3.60    39.64650    56.11353    57.68649
   214  C   4.0   -0.15    3.98    3.59    40.80053    53.49403    58.05412
   215  C   4.0   -0.03    3.99    3.60    41.85588    53.22362    60.72466
   216  N   5.0   -0.47    3.02    1.93    44.28687    54.47804    60.89715
   217  C   4.0    0.37    3.00    3.02    45.32116    55.52759    62.93180
   218  N   5.0   -0.64    3.01    1.93    44.03599    55.93980    65.03691
   219  N   5.0   -0.65    3.02    1.93    47.79284    56.08236    62.82913
   220  H   1.0    0.30    1.00    1.43    37.12495    59.89873    56.44740
   221  H   1.0    0.12    0.99    1.43    40.91321    57.16658    53.92591
   222  H   1.0    0.13    0.99    1.43    40.90775    57.54565    58.46462
   223  H   1.0    0.15    0.99    1.43    37.86356    56.19037    58.71588
   224  H   1.0    0.12    0.99    1.43    39.36617    52.04369    57.76288
   225  H   1.0    0.12    0.99    1.43    42.29390    53.16607    56.67080
   226  H   1.0    0.14    0.99    1.43    40.53884    54.04172    62.08169
   227  H   1.0    0.11    0.99    1.43    42.08529    51.21801    61.17251
   228  H   1.0    0.23    1.00    1.43    45.41044    54.20732    59.37237
   229  H   1.0    0.32    1.00    1.43    42.08565    55.96349    65.10631
   230  H   1.0    0.26    1.00    1.43    44.89084    56.85668    66.47041
   231  H   1.0    0.26    1.00    1.43    48.75434    55.88650    61.19900
   232  H   1.0    0.26    1.00    1.43    48.68291    56.92847    64.28243
   233  N   5.0   -0.48    3.01    1.93    35.50767    54.07819    54.18042
   234  C   4.0    0.07    4.00    3.62    34.07538    52.06290    52.99791
   235  C   4.0    0.31    3.02    3.02    33.89962    52.47990    50.14369
   236  O   6.0   -0.46    1.00    1.80    34.34593    50.78251    48.62828
   237  C   4.0   -0.13    3.99    3.60    31.40130    51.95229    54.10611
   238  C   4.0   -0.03    3.03    3.02    29.70133    50.29609    52.53365
   239  C   4.0   -0.09    3.03    3.02    29.98214    47.68516    52.51110
   240  C   4.0   -0.09    3.03    3.02    27.82324    51.38216    51.05461
   241  C   4.0   -0.11    3.03    3.02    28.38259    46.18523    51.08482
   242  C   4.0   -0.11    3.03    3.02    26.21845    49.88933    49.62971
   243  C   4.0   -0.11    3.03    3.02    26.48329    47.28618    49.65932
   244  H   1.0    0.30    1.00    1.43    34.69865    55.03043    55.63230
   245  H   1.0    0.12    0.99    1.43    35.06734    50.26206    53.28245
   246  H   1.0    0.10    0.99    1.43    31.51376    51.25463    56.04502
   247  H   1.0    0.14    0.99    1.43    30.65152    53.87299    54.15002
   248  H   1.0    0.11    0.99    1.43    31.44493    46.78919    53.61881
   249  H   1.0    0.12    0.99    1.43    27.61631    53.41331    51.05079
   250  H   1.0    0.11    0.99    1.43    28.64135    44.16023    51.12779
   251  H   1.0    0.10    1.00    1.43    24.74958    50.76329    48.51732
   252  H   1.0    0.11    1.00    1.43    25.19046    46.12094    48.60016
   253  N   5.0   -0.47    3.01    1.93    33.17737    54.77949    49.43626
   254  C   4.0    0.07    4.00    3.61    32.92129    55.39674    46.78107
   255  C   4.0    0.30    3.02    3.02    35.40454    54.84033    45.40384
   256  O   6.0   -0.48    1.00    1.80    35.43243    53.80323    43.33024
   257  C   4.0   -0.22    3.98    3.59    32.18864    58.16196    46.47646
   258  H   1.0    0.30    1.00    1.43    32.68030    56.09791    50.74057
   259  H   1.0    0.12    0.99    1.43    31.47542    54.16848    45.93832
   260  H   1.0    0.09    0.99    1.43    31.85661    58.59440    44.49803
   261  H   1.0    0.11    0.99    1.43    30.47450    58.54156    47.54269
   262  H   1.0    0.12    0.99    1.43    33.69791    59.36210    47.18540
   263  N   5.0   -0.48    3.01    1.93    37.48821    55.61563    46.57796
   264  C   4.0    0.08    4.00    3.62    39.92879    55.26083    45.40494
   265  C   4.0    0.30    3.01    3.02    40.44865    52.44006    45.08321
   266  O   6.0   -0.46    1.00    1.80    41.18706    51.61189    43.04592
   267  C   4.0   -0.12    3.99    3.60    42.01358    56.60151    46.88181
   268  C   4.0   -0.04    3.02    3.02    44.49680    56.74502    45.48900
   269  C   4.0   -0.09    3.03    3.02    44.63428    57.06966    42.88613
   270  C   4.0   -0.11    3.04    3.02    46.75278    56.65825    46.82872
   271  C   4.0   -0.09    3.03    3.02    46.92685    57.26375    41.66342
   272  C   4.0   -0.11    3.03    3.02    49.06732    56.87930    45.62854
   273  C   4.0    0.10    3.03    3.02    49.17414    57.17372    43.02164
   274  O   6.0   -0.51    1.99    1.83    51.37899    57.32629    41.71694
   275  H   1.0    0.31    1.00    1.43    37.40736    56.56098    48.24307
   276  H   1.0    0.12    0.99    1.43    39.81461    56.03587    43.48395
   277  H   1.0    0.13    0.99    1.43    41.35262    58.52472    47.25771
   278  H   1.0    0.13    0.99    1.43    42.26674    55.65426    48.69760
   279  H   1.0    0.12    1.00    1.43    42.94464    57.18530    41.75789
   280  H   1.0    0.11    1.00    1.43    46.68892    56.42435    48.85440
   281  H   1.0    0.11    1.00    1.43    47.01601    57.48016    39.63895
   282  H   1.0    0.11    0.99    1.43    50.80449    56.81184    46.69906
   283  H   1.0    0.29    0.99    1.43    52.79983    57.80640    42.80656
   284  N   5.0   -0.48    3.01    1.93    39.97537    50.96904    47.07127
   285  C   4.0    0.08    4.00    3.62    40.14011    48.23921    46.84941
   286  C   4.0    0.31    3.01    3.02    38.76368    47.36391    44.45608
   287  O   6.0   -0.45    1.00    1.80    39.78921    45.99807    42.87866
   288  C   4.0   -0.13    3.99    3.60    38.95769    46.91795    49.15397
   289  C   4.0   -0.03    3.03    3.02    38.03793    44.31801    48.43605
   290  C   4.0   -0.09    3.03    3.02    39.72490    42.36129    47.97868
   291  C   4.0   -0.10    3.03    3.02    35.47716    43.85513    48.09180
   292  C   4.0   -0.08    3.03    3.02    38.89992    40.04188    47.10851
   293  C   4.0   -0.08    3.03    3.02    34.63074    41.54141    47.24160
   294  C   4.0    0.12    3.03    3.02    36.33669    39.61239    46.69229
   295  O   6.0   -0.45    1.99    1.82    35.43399    37.42449    45.72102
   296  H   1.0    0.30    1.00    1.43    39.42891    51.72281    48.75185
   297  H   1.0    0.11    0.99    1.43    42.12350    47.66863    46.62704
   298  H   1.0    0.11    0.99    1.43    40.35229    46.82150    50.66973
   299  H   1.0    0.14    0.99    1.43    37.35557    48.04907    49.78361
   300  H   1.0    0.11    0.99    1.43    41.72064    42.65599    48.29768
   301  H   1.0    0.12    1.00    1.43    34.12994    45.32562    48.51562
   302  H   1.0    0.13    0.99    1.43    40.22890    38.52321    46.76890
   303  H   1.0    0.12    1.00    1.43    32.64397    41.14424    47.05380
   304  H   1.0    0.32    0.99    1.43    36.65108    36.03471    46.06687
   305  N   5.0   -0.47    3.01    1.93    36.39239    48.16828    44.24036
   306  C   4.0    0.08    4.00    3.62    34.81508    47.30266    42.17864
   307  C   4.0    0.29    3.02    3.02    36.11913    47.82215    39.65809
   308  O   6.0   -0.49    1.00    1.80    36.17593    46.23808    37.95836
   309  C   4.0   -0.15    3.98    3.59    32.26538    48.67717    42.16724
   310  C   4.0   -0.17    3.98    3.58    30.44461    47.82335    44.24187
   311  C   4.0   -0.16    3.98    3.58    29.54330    45.09056    43.97312
   312  C   4.0   -0.06    3.98    3.58    27.82628    44.72951    41.68368
   313  N   5.0   -0.73    3.98    2.82    26.94308    42.05942    41.54711
   314  H   1.0    0.30    1.00    1.43    35.59816    49.22342    45.63102
   315  H   1.0    0.12    0.99    1.43    34.60458    45.24496    42.32843
   316  H   1.0    0.14    0.99    1.43    32.66206    50.68467    42.40345
   317  H   1.0    0.10    0.99    1.43    31.41221    48.40259    40.31563
   318  H   1.0    0.13    0.99    1.43    31.35780    48.04933    46.07304
   319  H   1.0    0.10    0.99    1.43    28.81289    49.08031    44.22284
   320  H   1.0    0.11    0.99    1.43    31.18091    43.84919    43.84187
   321  H   1.0    0.10    0.99    1.43    28.52763    44.60325    45.69689
   322  H   1.0    0.10    0.99    1.43    26.18835    45.97095    41.84030
   323  H   1.0    0.10    0.99    1.43    28.86364    45.14870    39.95607
   324  H   1.0    0.23    1.00    1.43    25.75290    41.78549    40.03030
   325  H   1.0    0.24    1.00    1.43    28.47247    40.86500    41.36348
   326  H   1.0    0.24    1.00    1.43    26.00479    41.57440    43.18434
   327  N   5.0   -0.48    3.01    1.93    36.92564    50.18705    39.36960
   328  C   4.0    0.08    4.00    3.61    38.06873    51.02457    37.03685
   329  C   4.0    0.29    3.01    3.02    40.56407    49.66983    36.51854
   330  O   6.0   -0.48    1.00    1.80    41.13989    49.08328    34.34059
   331  C   4.0   -0.14    3.98    3.59    38.40398    53.90060    37.03423
   332  C   4.0   -0.11    3.97    3.58    36.09922    55.34986    36.01194
   333  C   4.0   -0.23    3.98    3.59    35.93285    55.14414    33.13546
   334  C   4.0   -0.22    3.98    3.59    33.64247    54.49979    37.26473
   335  H   1.0    0.30    1.00    1.43    36.88416    51.39643    40.85892
   336  H   1.0    0.12    0.99    1.43    36.83982    50.44428    35.47046
   337  H   1.0    0.12    0.99    1.43    38.80205    54.48054    38.97325
   338  H   1.0    0.10    0.99    1.43    40.05603    54.37328    35.89149
   339  H   1.0    0.10    0.99    1.43    36.40594    57.34321    36.47822
   340  H   1.0    0.09    0.99    1.43    34.29795    56.17443    32.44221
   341  H   1.0    0.10    0.99    1.43    37.60996    55.94820    32.26031
   342  H   1.0    0.10    0.99    1.43    35.80976    53.18462    32.53187
   343  H   1.0    0.09    0.99    1.43    32.10489    55.71793    36.66153
   344  H   1.0    0.11    0.99    1.43    33.21496    52.55768    36.76572
   345  H   1.0    0.13    0.99    1.43    33.82032    54.61927    39.30533
   346  N   5.0   -0.48    3.01    1.93    42.02165    49.19809    38.50966
   347  C   4.0    0.08    4.00    3.62    44.33559    47.78623    38.24267
   348  C   4.0    0.29    3.01    3.02    43.80138    45.06141    37.45137
   349  O   6.0   -0.49    1.00    1.80    45.36577    43.90881    36.16660
   350  C   4.0   -0.14    3.99    3.60    45.91223    47.80772    40.66020
   351  C   4.0   -0.09    3.98    3.58    47.19406    50.34526    41.22649
   352  C   4.0   -0.22    3.99    3.60    48.47442    50.18286    43.80538
   353  C   4.0   -0.23    3.98    3.59    49.16261    51.06098    39.24302
   354  H   1.0    0.31    1.00    1.43    41.51861    49.77018    40.27130
   355  H   1.0    0.12    0.99    1.43    45.43555    48.58885    36.67722
   356  H   1.0    0.13    0.99    1.43    44.66117    47.30048    42.22283
   357  H   1.0    0.11    0.99    1.43    47.35789    46.34185    40.48628
   358  H   1.0    0.14    0.99    1.43    45.73487    51.80861    41.29777
   359  H   1.0    0.11    0.99    1.43    49.39019    51.96481    44.24607
   360  H   1.0    0.11    0.99    1.43    47.08842    49.78147    45.26618
   361  H   1.0    0.10    0.99    1.43    49.89008    48.69185    43.78707
   362  H   1.0    0.12    0.99    1.43    50.07444    52.82062    39.78179
   363  H   1.0    0.10    0.99    1.43    50.59575    49.59258    39.10340
   364  H   1.0    0.10    0.99    1.43    48.32282    51.32735    37.38734
   365  N   5.0   -0.46    3.01    1.93    41.60113    44.07832    38.17947
   366  C   4.0    0.07    4.00    3.61    40.82282    41.57453    37.38432
   367  C   4.0    0.30    3.01    3.02    40.10809    41.62600    34.56916
   368  O   6.0   -0.42    1.00    1.80    40.98847    40.09927    33.05403
   369  C   4.0   -0.14    3.98    3.59    38.59645    40.63498    38.95863
   370  C   4.0   -0.15    3.98    3.59    37.95258    37.89505    38.30418
   371  C   4.0   -0.14    3.98    3.59    39.81158    36.06169    39.54210
   372  C   4.0   -0.04    3.98    3.58    39.54067    33.35802    38.60858
   373  N   5.0   -0.72    3.98    2.81    40.50425    33.02693    35.99882
   374  H   1.0    0.31    1.00    1.43    40.61572    44.90445    39.60956
   375  H   1.0    0.12    0.99    1.43    42.44079    40.28606    37.54477
   376  H   1.0    0.13    0.99    1.43    39.08789    40.77538    40.95864
   377  H   1.0    0.14    0.99    1.43    36.99319    41.87369    38.58908
   378  H   1.0    0.12    0.99    1.43    36.05783    37.45771    38.97653
   379  H   1.0    0.15    0.99    1.43    37.97241    37.66689    36.25371
   380  H   1.0    0.12    0.99    1.43    41.75353    36.67059    39.21262
   381  H   1.0    0.12    0.99    1.43    39.48236    36.06238    41.57962
   382  H   1.0    0.12    0.99    1.43    40.63713    32.12037    39.83889
   383  H   1.0    0.12    0.99    1.43    37.55765    32.80261    38.67413
   384  H   1.0    0.26    1.00    1.43    40.35379    31.16926    35.48254
   385  H   1.0    0.31    0.99    1.43    39.50419    34.06793    34.63468
   386  H   1.0    0.31    0.99    1.43    42.40900    33.55787    35.84123
   387  N   5.0   -0.47    3.01    1.93    38.48613    43.43767    33.92468
   388  C   4.0    0.08    4.00    3.62    37.76051    43.74914    31.29776
   389  C   4.0    0.30    3.01    3.02    40.17265    43.84745    29.70304
   390  O   6.0   -0.39    1.00    1.80    40.44054    42.66171    27.73325
   391  C   4.0   -0.15    3.98    3.59    36.18497    46.14205    30.94004
   392  C   4.0   -0.16    3.98    3.59    33.67209    46.00032    32.36722
   393  C   4.0   -0.16    3.98    3.58    31.91075    48.17472    31.63132
   394  C   4.0   -0.07    3.98    3.58    29.50214    48.11017    33.21981
   395  N   5.0   -0.73    3.98    2.82    27.62885    49.98373    32.27129
   396  H   1.0    0.29    1.00    1.43    37.75230    44.62299    35.25182
   397  H   1.0    0.16    0.99    1.43    36.72076    42.06639    30.66063
   398  H   1.0    0.13    0.99    1.43    37.31095    47.75680    31.56256
   399  H   1.0    0.11    0.99    1.43    35.84218    46.34155    28.91550
   400  H   1.0    0.12    0.99    1.43    32.79111    44.19087    31.92223
   401  H   1.0    0.14    0.99    1.43    34.04462    46.04825    34.39087
   402  H   1.0    0.10    0.99    1.43    32.89898    49.96483    31.89693
   403  H   1.0    0.11    0.99    1.43    31.46151    47.98216    29.62939
   404  H   1.0    0.11    0.99    1.43    28.67589    46.22610    33.11433
   405  H   1.0    0.10    0.99    1.43    29.95323    48.55727    35.18065
   406  H   1.0    0.23    1.00    1.43    26.02560    49.99949    33.37906
   407  H   1.0    0.23    1.00    1.43    28.40684    51.76971    32.26688
   408  H   1.0    0.23    1.00    1.43    27.12256    49.54875    30.44031
   409  N   5.0   -0.47    3.01    1.93    41.95088    45.40236    30.62810
   410  C   4.0    0.08    3.99    3.61    44.36761    45.72054    29.38585
   411  C   4.0    0.31    3.01    3.02    45.70977    43.16271    29.23193
   412  O   6.0   -0.36    1.00    1.80    46.21060    42.20905    27.16798
   413  C   4.0   -0.21    3.98    3.59    45.95076    47.67136    30.78215
   414  H   1.0    0.30    1.00    1.43    41.60648    46.52897    32.14724
   415  H   1.0    0.14    0.99    1.43    44.04252    46.30372    27.41660
   416  H   1.0    0.10    0.99    1.43    47.63192    48.10987    29.69815
   417  H   1.0    0.12    0.99    1.43    44.85317    49.38627    31.04102
   418  H   1.0    0.13    0.99    1.43    46.52509    46.93895    32.61273
   419  N   5.0   -0.48    3.01    1.93    46.31717    42.10582    31.41808
   420  C   4.0    0.09    3.99    3.60    47.57106    39.68475    31.70394
   421  C   4.0    0.32    3.01    3.02    47.09214    37.93607    29.46093
   422  O   6.0   -0.35    1.00    1.80    48.80060    37.21966    28.06706
   423  C   4.0   -0.10    3.98    3.59    46.59843    38.41181    34.10385
   424  C   4.0    0.32    2.99    3.02    47.21452    35.53460    34.17772
   425  O   6.0   -0.36    1.00    1.80    49.29505    34.85084    33.34424
   426  O   6.0   -0.45    1.00    1.80    45.55031    34.14009    35.12245
   427  H   1.0    0.30    1.00    1.43    45.81824    42.93325    33.08611
   428  H   1.0    0.14    0.99    1.43    49.63172    39.95795    31.80798
   429  H   1.0    0.12    0.99    1.43    47.45041    39.30094    35.75805
   430  H   1.0    0.15    0.99    1.43    44.55435    38.63285    34.19136
   431  N   5.0   -0.47    3.01    1.93    44.69374    37.16786    29.21460
   432  C   4.0    0.08    3.99    3.60    44.00438    35.12728    27.53901
   433  C   4.0    0.10    3.00    3.02    44.42463    35.71103    24.73628
   434  O   6.0   -0.38    1.00    1.80    44.44076    33.98831    23.18761
   435  C   4.0   -0.13    3.98    3.59    41.29621    34.25273    28.04496
   436  C   4.0   -0.09    3.97    3.58    39.32619    36.34610    27.87273
   437  C   4.0    0.33    2.99    3.02    37.47520    36.39360    30.16575
   438  O   6.0   -0.45    1.00    1.80    37.90925    34.95221    31.98794
   439  O   6.0   -0.40    1.00    1.80    35.67668    37.89126    30.02964
   440  H   1.0    0.28    1.00    1.43    43.33276    37.87277    30.35598
   441  H   1.0    0.16    0.99    1.43    45.28842    33.52879    27.91450
   442  H   1.0    0.13    0.99    1.43    40.87806    32.73295    26.71557
   443  H   1.0    0.15    0.99    1.43    41.22575    33.46987    29.95891
   444  H   1.0    0.16    0.99    1.43    40.19816    38.21708    27.84980
   445  H   1.0    0.13    0.99    1.43    38.20248    36.20397    26.14981
   446  N   5.0   -0.71    3.00    1.93    59.09349    42.06193    48.18898
   447  C   4.0    0.06    3.98    3.58    57.37492    44.14626    47.70622
   448  C   4.0    0.08    3.00    3.02    56.35561    45.13486    50.23626
   449  O   6.0   -0.48    1.00    1.80    56.49367    47.36187    50.82748
   450  C   4.0   -0.15    4.01    3.64    55.11268    43.42616    46.06177
   451  C   4.0   -0.14    3.98    3.58    55.75500    43.31684    43.25755
   452  S   6.0   -0.17    2.01    3.10    52.99146    43.92793    41.26308
   453  C   4.0   -0.20    3.98    3.58    51.30817    40.98305    41.68561
   454  H   1.0    0.26    1.00    1.43    58.73996    40.38042    47.36481
   455  H   1.0    0.11    0.99    1.43    58.40571    45.71379    46.82441
   456  H   1.0    0.11    0.99    1.43    54.32558    41.63006    46.70018
   457  H   1.0    0.11    0.99    1.43    53.66936    44.87815    46.33790
   458  H   1.0    0.10    0.99    1.43    57.06726    44.81867    42.75511
   459  H   1.0    0.11    0.99    1.43    56.53261    41.49789    42.69965
   460  H   1.0    0.12    0.99    1.43    49.84050    40.89210    40.25228
   461  H   1.0    0.11    0.99    1.43    52.62128    39.42597    41.43778
   462  H   1.0    0.10    0.99    1.43    50.44632    40.93349    43.54834
   463  N   5.0   -0.71    3.00    1.93    57.48541    52.05221    53.13066
   464  C   4.0    0.08    3.98    3.59    55.09861    53.39519    53.07903
   465  C   4.0    0.31    3.02    3.02    54.55078    54.49895    55.70275
   466  O   6.0   -0.44    1.00    1.80    54.10017    56.74459    56.04555
   467  C   4.0   -0.01    3.98    3.59    52.91168    51.62424    52.31798
   468  O   6.0   -0.50    1.99    1.82    50.54381    52.68055    52.85337
   469  H   1.0    0.31    1.00    1.43    57.45187    50.13382    53.02421
   470  H   1.0    0.11    0.99    1.43    55.24440    54.98697    51.75833
   471  H   1.0    0.11    0.99    1.43    53.09792    51.10789    50.32206
   472  H   1.0    0.14    0.99    1.43    53.02793    49.90257    53.44582
   473  H   1.0    0.25    0.99    1.43    50.23803    54.12064    51.77854
   474  N   5.0   -0.48    3.01    1.93    54.67707    52.83146    57.58460
   475  C   4.0    0.02    4.00    3.61    54.61582    53.71396    60.16842
   476  C   4.0    0.10    3.00    3.02    56.46180    55.91827    60.46931
   477  O   6.0   -0.42    1.00    1.80    55.86997    57.90881    61.49167
   478  H   1.0    0.24    1.00    1.43    55.05505    50.98327    57.23738
   479  H   1.0    0.14    0.99    1.43    52.73115    54.37030    60.69928
   480  H   1.0    0.11    0.99    1.43    55.18107    52.17930    61.42454
   481  N   5.0   -0.70    3.00    1.93    54.72813    62.21975    57.13070
   482  C   4.0    0.08    3.98    3.58    53.00134    63.66862    58.69052
   483  C   4.0    0.09    3.00    3.02    54.51541    64.94351    60.80529
   484  O   6.0   -0.39    1.00    1.80    54.25532    67.18496    61.32448
   485  C   4.0   -0.12    3.99    3.60    50.89836    61.99117    59.76626
   486  C   4.0   -0.03    3.02    3.02    48.58868    61.86274    58.09245
   487  C   4.0   -0.08    3.03    3.02    48.78124    61.78096    55.47355
   488  C   4.0   -0.08    3.03    3.02    46.19451    61.85175    59.18178
   489  C   4.0   -0.09    3.03    3.02    46.62861    61.72591    53.98313
   490  C   4.0   -0.09    3.03    3.02    44.03968    61.79678    57.69541
   491  C   4.0   -0.09    3.03    3.02    44.25576    61.74459    55.08710
   492  H   1.0    0.32    1.00    1.43    54.41396    60.34137    56.91246
   493  H   1.0    0.13    0.99    1.43    52.17535    65.20286    57.56266
   494  H   1.0    0.14    0.99    1.43    51.69353    60.10811    60.07129
   495  H   1.0    0.11    0.99    1.43    50.34582    62.75626    61.59855
   496  H   1.0    0.12    1.00    1.43    50.61165    61.79095    54.57437
   497  H   1.0    0.12    1.00    1.43    46.01353    61.94521    61.21103
   498  H   1.0    0.12    1.00    1.43    46.81488    61.71671    51.95119
   499  H   1.0    0.14    1.00    1.43    42.18855    61.86331    58.55283
   500  H   1.0    0.12    1.00    1.43    42.58379    61.75680    53.92000
   501  N   5.0   -0.71    3.00    1.93    54.02508    57.74208    70.98842
   502  C   4.0    0.07    3.98    3.59    53.06596    57.47145    68.44182
   503  C   4.0    0.08    3.00    3.02    54.40954    55.34353    67.03148
   504  O   6.0   -0.46    1.00    1.80    53.21145    53.80732    65.78198
   505  C   4.0   -0.13    3.98    3.59    53.27111    59.97996    66.98938
   506  C   4.0    0.07    3.22    3.04    51.10076    61.62755    67.67854
   507  N   5.0   -0.46    3.15    1.95    51.10245    63.14198    69.77245
   508  C   4.0    0.05    3.35    3.07    48.70114    61.79274    66.72100
   509  C   4.0    0.17    3.41    3.08    48.77174    64.14923    69.97523
   510  N   5.0   -0.40    2.10    1.90    47.28344    63.37097    68.16386
   511  H   1.0    0.26    1.00    1.43    54.77849    59.42333    71.51158
   512  H   1.0    0.11    0.99    1.43    51.07832    56.88614    68.57399
   513  H   1.0    0.12    0.99    1.43    55.06121    60.87655    67.47814
   514  H   1.0    0.13    0.99    1.43    53.28473    59.60281    64.96329
   515  H   1.0    0.22    1.00    1.43    52.59383    63.38351    70.95146
   516  H   1.0    0.10    1.00    1.43    47.91385    60.94361    65.06432
   517  H   1.0    0.11    1.00    1.43    48.21173    65.42528    71.44392
   518  N   5.0   -0.69    3.00    1.93    51.54946    49.41108    69.55210
   519  C   4.0    0.08    3.98    3.59    48.91787    49.22579    68.82933
   520  C   4.0    0.29    3.02    3.02    48.65293    48.41152    66.07740
   521  O   6.0   -0.48    1.00    1.80    46.90746    47.02742    65.44447
   522  C   4.0   -0.12    3.99    3.60    47.52367    51.73761    69.20174
   523  C   4.0   -0.03    3.12    3.03    46.75264    52.22773    71.88133
   524  C   4.0    0.02    3.22    3.04    46.05211    50.50175    73.67070
   525  C   4.0    0.01    3.18    3.03    46.49048    54.65707    73.03300
   526  N   5.0   -0.48    3.11    1.94    45.38789    51.69798    75.85729
   527  C   4.0    0.12    3.22    3.04    45.64243    54.23769    75.54225
   528  C   4.0   -0.11    3.02    3.02    46.88695    57.13669    72.22930
   529  C   4.0   -0.11    3.02    3.02    45.26499    56.21238    77.23360
   530  C   4.0   -0.09    3.03    3.02    46.53880    59.07954    73.92258
   531  C   4.0   -0.11    3.03    3.02    45.75065    58.63354    76.40494
   532  H   1.0    0.27    1.00    1.43    52.15663    51.05640    70.34204
   533  H   1.0    0.11    0.99    1.43    48.01696    47.72713    69.93691
   534  H   1.0    0.13    0.99    1.43    48.76824    53.23893    68.53732
   535  H   1.0    0.13    0.99    1.43    45.83080    51.68576    68.01606
   536  H   1.0    0.11    1.00    1.43    46.01428    48.47773    73.58373
   537  H   1.0    0.23    1.00    1.43    44.77209    50.81097    77.42179
   538  H   1.0    0.11    1.00    1.43    47.47851    57.54061    70.31999
   539  H   1.0    0.11    1.00    1.43    44.61762    55.85100    79.13477
   540  H   1.0    0.13    1.00    1.43    46.86006    61.00478    73.33841
   541  H   1.0    0.13    0.99    1.43    45.52276    60.21865    77.67278
   542  N   5.0   -0.48    3.00    1.93    50.27270    49.41436    64.42469
   543  C   4.0    0.01    3.99    3.61    50.15682    48.66703    61.79551
   544  C   4.0    0.08    3.00    3.02    50.58184    45.82762    61.49508
   545  O   6.0   -0.45    1.00    1.80    49.13094    44.49068    60.28401
   546  H   1.0    0.30    1.00    1.43    51.63041    50.64428    64.98981
   547  H   1.0    0.13    0.99    1.43    48.29077    49.09275    61.01458
   548  H   1.0    0.10    0.99    1.43    51.60533    49.65707    60.72558
   549  N   5.0   -0.69    3.00    1.93    44.89310    42.58213    63.85198
   550  C   4.0    0.08    3.99    3.60    42.64323    43.16131    62.40792
   551  C   4.0    0.29    3.02    3.02    42.37084    41.31079    60.22444
   552  O   6.0   -0.46    1.00    1.80    40.45464    40.05375    59.88793
   553  C   4.0   -0.12    3.99    3.60    42.78024    45.87150    61.38072
   554  C   4.0   -0.04    3.03    3.02    40.34972    46.49959    60.04758
   555  C   4.0   -0.08    3.03    3.02    39.99078    45.86518    57.52386
   556  C   4.0   -0.10    3.03    3.02    38.38210    47.61646    61.37950
   557  C   4.0   -0.10    3.03    3.02    37.66591    46.24029    56.38395
   558  C   4.0   -0.10    3.03    3.02    36.08389    48.06756    60.22001
   559  C   4.0   -0.10    3.03    3.02    35.70843    47.32677    57.74028
   560  H   1.0    0.34    1.00    1.43    45.95598    44.09396    64.39301
   561  H   1.0    0.12    0.99    1.43    40.96291    42.93708    63.60993
   562  H   1.0    0.13    0.99    1.43    43.08618    47.11859    62.99180
   563  H   1.0    0.13    0.99    1.43    44.38453    46.01541    60.09575
   564  H   1.0    0.13    0.99    1.43    41.52190    45.04968    56.44537
   565  H   1.0    0.12    1.00    1.43    38.63973    48.11652    63.34029
   566  H   1.0    0.11    0.99    1.43    37.37672    45.65321    54.44975
   567  H   1.0    0.12    1.00    1.43    34.57972    48.96024    61.26290
   568  H   1.0    0.11    1.00    1.43    33.88135    47.56686    56.87315
   569  N   5.0   -0.49    3.01    1.93    44.35392    41.27516    58.66087
   570  C   4.0    0.07    3.99    3.61    44.29649    39.76168    56.38939
   571  C   4.0    0.09    3.00    3.02    43.76823    37.01004    57.07376
   572  O   6.0   -0.45    1.00    1.80    42.09785    35.78184    56.03147
   573  C   4.0   -0.13    3.99    3.60    46.79061    39.97904    54.92859
   574  C   4.0   -0.03    3.03    3.02    46.88090    42.36516    53.37649
   575  C   4.0   -0.09    3.03    3.02    47.34355    44.69228    54.50609
   576  C   4.0   -0.10    3.03    3.02    46.45342    42.27565    50.78719
   577  C   4.0   -0.10    3.03    3.02    47.34754    46.88566    53.08078
   578  C   4.0   -0.12    3.03    3.02    46.47987    44.46538    49.35199
   579  C   4.0   -0.10    3.03    3.02    46.90957    46.77445    50.50373
   580  H   1.0    0.28    1.00    1.43    45.96622    42.19971    59.12336
   581  H   1.0    0.14    0.99    1.43    42.70756    40.37651    55.19731
   582  H   1.0    0.12    0.99    1.43    48.33128    39.91790    56.29756
   583  H   1.0    0.11    0.99    1.43    46.95261    38.34238    53.68336
   584  H   1.0    0.15    1.00    1.43    47.75657    44.78396    56.49861
   585  H   1.0    0.11    0.99    1.43    46.10871    40.47480    49.88344
   586  H   1.0    0.13    1.00    1.43    47.72949    48.68614    53.95730
   587  H   1.0    0.10    0.99    1.43    46.17021    44.36837    47.33281
   588  H   1.0    0.11    1.00    1.43    46.92148    48.48412    49.39312
   589  N   5.0   -0.69    3.00    1.93    37.11839    35.85004    59.71615
   590  C   4.0    0.09    4.01    3.64    35.34363    36.26498    57.67724
   591  C   4.0    0.30    3.02    3.02    34.95907    33.80441    56.21056
   592  O   6.0   -0.38    1.00    1.80    32.84495    32.94018    55.82177
   593  C   4.0   -0.10    3.98    3.59    36.32795    38.37624    55.98244
   594  S   6.0   -0.17    2.02    3.10    33.98222    39.43967    53.70727
   595  H   1.0    0.33    1.00    1.43    38.58444    37.07912    59.83611
   596  H   1.0    0.12    0.99    1.43    33.48881    36.80274    58.44618
   597  H   1.0    0.14    0.99    1.43    36.81781    40.00973    57.13777
   598  H   1.0    0.15    0.99    1.43    37.98333    37.75338    54.93154
   599  H   1.0    0.19    1.00    1.43    34.49201    37.72905    51.95486
   600  N   5.0   -0.46    3.01    1.93    37.07887    32.62713    55.51342
   601  C   4.0    0.09    4.00    3.61    36.93815    30.50287    53.80158
   602  C   4.0    0.09    3.00    3.02    36.07027    28.10597    55.16842
   603  O   6.0   -0.38    1.00    1.80    34.90901    26.43739    54.05947
   604  C   4.0   -0.14    3.98    3.59    39.44265    30.04349    52.44787
   605  C   4.0   -0.11    3.98    3.58    40.44677    32.36834    51.04566
   606  C   4.0    0.31    2.99    3.02    38.44804    33.85652    49.50439
   607  O   6.0   -0.41    1.00    1.80    36.74623    34.97498    50.68106
   608  O   6.0   -0.47    1.00    1.80    38.73871    33.90560    47.15171
   609  H   1.0    0.29    1.00    1.43    38.76677    33.49059    55.73482
   610  H   1.0    0.18    0.99    1.43    35.46639    30.90914    52.38960
   611  H   1.0    0.12    0.99    1.43    40.85063    29.44751    53.83966
   612  H   1.0    0.13    0.99    1.43    39.13918    28.50201    51.10954
   613  H   1.0    0.14    0.99    1.43    41.24805    33.70344    52.40072
   614  H   1.0    0.12    0.99    1.43    41.93277    31.77782    49.74749
   615  N   5.0   -0.71    3.00    1.93    38.60631    56.51446    78.41938
   616  C   4.0    0.08    3.98    3.59    39.25368    58.94388    77.32566
   617  C   4.0    0.10    3.00    3.02    37.94684    61.00424    78.86751
   618  O   6.0   -0.38    1.00    1.80    39.12204    62.63435    80.03021
   619  C   4.0   -0.12    3.98    3.59    38.55766    59.01446    74.51934
   620  C   4.0    0.11    3.34    3.06    40.07596    60.94403    73.13244
   621  N   5.0   -0.36    2.10    1.90    40.32815    63.37296    73.96509
   622  C   4.0    0.03    3.24    3.04    41.47727    60.62742    70.97550
   623  C   4.0    0.19    3.43    3.09    41.85102    64.46720    72.35044
   624  N   5.0   -0.46    3.13    1.94    42.58836    62.89788    70.49001
   625  H   1.0    0.26    1.00    1.43    37.88985    55.16986    77.25774
   626  H   1.0    0.13    0.99    1.43    41.29624    59.24999    77.51199
   627  H   1.0    0.11    0.99    1.43    38.95536    57.16839    73.68241
   628  H   1.0    0.11    0.99    1.43    36.53691    59.37148    74.29640
   629  H   1.0    0.13    1.00    1.43    41.68816    59.01803    69.76365
   630  H   1.0    0.13    1.00    1.43    42.46265    66.39291    72.46631
   631  H   1.0    0.29    1.00    1.43    43.93108    63.26742    69.14003
   632  H   1.0    0.29    1.00    1.43    59.20809    58.40837    37.20799
   633  H   1.0    0.14    1.00    1.43    59.16851    64.61030    43.62926
   634  H   1.0    0.29    1.00    1.43    55.20116    66.56753    40.12043
   635  H   1.0    0.16    1.00    1.43    51.80910    66.55610    48.40576
   636  H   1.0    0.29    1.00    1.43    44.48098    69.75538    44.57950
   637  H   1.0    0.15    1.00    1.43    43.27669    69.09188    50.87979
   638  H   1.0    0.29    1.00    1.43    41.20998    77.21813    49.11568
   639  H   1.0    0.14    1.00    1.43    36.64652    76.85850    56.58507
   640  H   1.0    0.30    1.00    1.43    31.94829    83.25070    52.53814
   641  H   1.0    0.15    1.00    1.43    29.00273    81.67513    58.05509
   642  H   1.0    0.28    1.00    1.43    27.55274    66.49773    63.83392
   643  H   1.0    0.17    1.00    1.43    44.68540    37.49544    24.17155
   644  H   1.0    0.29    1.00    1.43    60.65597    42.48118    47.66414
   645  H   1.0    0.14    1.00    1.43    55.54774    43.94289    51.46004
   646  H   1.0    0.30    1.00    1.43    58.44363    52.54670    51.81542
   647  H   1.0    0.14    1.00    1.43    58.22944    55.76595    59.81870
   648  H   1.0    0.30    1.00    1.43    54.72439    62.84428    55.54876
   649  H   1.0    0.15    1.00    1.43    55.76242    63.94115    61.81092
   650  H   1.0    0.30    1.00    1.43    52.76801    57.46778    72.10067
   651  H   1.0    0.14    1.00    1.43    56.29099    55.19119    67.12101
   652  H   1.0    0.30    1.00    1.43    51.90798    48.21122    70.70290
   653  H   1.0    0.14    1.00    1.43    52.08137    45.00631    62.30000
   654  H   1.0    0.30    1.00    1.43    44.45664    41.77337    65.28305
   655  H   1.0    0.14    1.00    1.43    44.79712    36.15389    58.40773
   656  H   1.0    0.31    1.00    1.43    36.30479    35.95057    61.20629
   657  H   1.0    0.15    1.00    1.43    36.44851    27.87645    57.00563
   658  H   1.0    0.30    1.00    1.43    39.99532    55.81232    79.10509
   659  H   1.0    0.14    1.00    1.43    36.06024    61.06266    78.95911

           ------------------------------------------------- 
          |        Self-Consistent Charge Iterations        |
           ------------------------------------------------- 

          ...................................................
          :                      SETUP                      :
          :.................................................:
          :  # basis functions                1634          :
          :  # atomic orbitals                1632          :
          :  # shells                          982          :
          :  # electrons                      1778          :
          :  max. iterations                   250          :
          :  Hamiltonian                  GFN2-xTB          :
          :  restarted?                      false          :
          :  GBSA solvation                   true          :
          :  PC potential                    false          :
          :  electronic temp.          500.0000000     K    :
          :  accuracy                    0.1000000          :
          :  -> integral cutoff          0.3500000E+02      :
          :  -> integral neglect         0.1000000E-08      :
          :  -> SCF convergence          0.1000000E-06 Eh   :
          :  -> wf. convergence          0.1000000E-04 e    :
          :  Broyden damping             0.4000000          :
          ...................................................

 iter      E             dE          RMSdq      gap      omega  full diag
   1  -1010.0683806 -0.101007E+04  0.427E+00    1.31       0.0  T
   2  -1012.4960846 -0.242770E+01  0.227E+00    1.49       1.0  T
   3  -1012.5903943 -0.943097E-01  0.121E+00    1.98       1.0  T
   4  -1012.6464152 -0.560209E-01  0.317E-01    1.43       1.0  T
   5  -1012.6804462 -0.340310E-01  0.132E-01    1.55       1.0  T
   6  -1012.6826041 -0.215791E-02  0.721E-02    1.53       1.0  T
   7  -1012.6832114 -0.607312E-03  0.379E-02    1.51       1.0  T
   8  -1012.6834522 -0.240786E-03  0.153E-02    1.50       1.0  T
   9  -1012.6834759 -0.237303E-04  0.888E-03    1.49       1.0  T
  10  -1012.6834898 -0.138534E-04  0.425E-03    1.48       1.0  T
  11  -1012.6834926 -0.284102E-05  0.206E-03    1.48       1.9  T
  12  -1012.6834934 -0.716982E-06  0.918E-04    1.48       4.2  T
  13  -1012.6834935 -0.111621E-06  0.465E-04    1.47       8.4  T
  14  -1012.6834935 -0.362054E-07  0.239E-04    1.47      16.3  T
  15  -1012.6834935 -0.971045E-08  0.110E-04    1.47      35.3  T
  16  -1012.6834935 -0.213242E-08  0.571E-05    1.47      68.3  T
  17  -1012.6834935 -0.487148E-09  0.292E-05    1.47     133.2  T

   *** convergence criteria satisfied after 17 iterations ***

         #    Occupation            Energy/Eh            Energy/eV
      -------------------------------------------------------------
         1        2.0000           -0.7360710             -20.0295
       ...           ...                  ...                  ...
       883        2.0000           -0.3620842              -9.8528
       884        2.0000           -0.3591083              -9.7718
       885        2.0000           -0.3566790              -9.7057
       886        2.0000           -0.3552115              -9.6658
       887        2.0000           -0.3547345              -9.6528
       888        2.0000           -0.3513600              -9.5610
       889        2.0000           -0.3509509              -9.5499 (HOMO)
       890                         -0.2967660              -8.0754 (LUMO)
       891                         -0.2922968              -7.9538
       892                         -0.2911526              -7.9227
       893                         -0.2900358              -7.8923
       894                         -0.2892082              -7.8698
       ...                                ...                  ...
      1632                          0.7144345              19.4408
      -------------------------------------------------------------
                  HL-Gap            0.0541849 Eh            1.4744 eV
             Fermi-level           -0.3234099 Eh           -8.8004 eV

 SCC (total)                   0 d,  0 h,  0 min, 55.778 sec
 SCC setup                      ...        0 min,  0.400 sec (  0.717%)
 Dispersion                     ...        0 min,  0.538 sec (  0.965%)
 integral evaluation            ...        0 min,  1.305 sec (  2.340%)
 zeroth order Hamiltonian       ...        0 min,  0.015 sec (  0.026%)
 iterations                     ...        0 min, 45.397 sec ( 81.388%)
 molecular gradient             ...        0 min,  7.863 sec ( 14.097%)
 printout                       ...        0 min,  0.261 sec (  0.468%)

         :::::::::::::::::::::::::::::::::::::::::::::::::::::
         ::                     SUMMARY                     ::
         :::::::::::::::::::::::::::::::::::::::::::::::::::::
         :: total energy             -999.498476409885 Eh   ::
         :: total w/o Gsasa/hb       -999.395720122154 Eh   ::
         :: gradient norm               0.827188463363 Eh/α ::
         :: HOMO-LUMO gap               1.474446492253 eV   ::
         ::.................................................::
         :: SCC energy              -1012.718090818747 Eh   ::
         :: -> isotropic ES             2.804602458364 Eh   ::
         :: -> anisotropic ES          -0.180132899880 Eh   ::
         :: -> anisotropic XC           0.393630888898 Eh   ::
         :: -> dispersion              -0.933329881715 Eh   ::
         :: -> Gsolv                   -0.722026514202 Eh   ::
         ::    -> Gborn                -0.619270226470 Eh   ::
         ::    -> Gsasa                -0.036454748004 Eh   ::
         ::    -> Ghb                  -0.068158982855 Eh   ::
         ::    -> Gshift                0.001857443127 Eh   ::
         :: repulsion energy           13.119972245510 Eh   ::
         :: add. restraining            0.000000000000 Eh   ::
         :::::::::::::::::::::::::::::::::::::::::::::::::::::

           -------------------------------------------------
          |                Property Printout                |
           -------------------------------------------------

    * Orbital Energies and Occupations

         #    Occupation            Energy/Eh            Energy/eV
      -------------------------------------------------------------
         1        2.0000           -0.7360710             -20.0295
       ...           ...                  ...                  ...
       877        2.0000           -0.3659246              -9.9573
       878        2.0000           -0.3657544              -9.9527
       879        2.0000           -0.3631818              -9.8827
       880        2.0000           -0.3630608              -9.8794
       881        2.0000           -0.3628109              -9.8726
       882        2.0000           -0.3623836              -9.8610
       883        2.0000           -0.3620842              -9.8528
       884        2.0000           -0.3591083              -9.7718
       885        2.0000           -0.3566790              -9.7057
       886        2.0000           -0.3552115              -9.6658
       887        2.0000           -0.3547345              -9.6528
       888        2.0000           -0.3513600              -9.5610
       889        2.0000           -0.3509509              -9.5499 (HOMO)
       890                         -0.2967660              -8.0754 (LUMO)
       891                         -0.2922968              -7.9538
       892                         -0.2911526              -7.9227
       893                         -0.2900358              -7.8923
       894                         -0.2892082              -7.8698
       895                         -0.2876275              -7.8267
       896                         -0.2864685              -7.7952
       897                         -0.2857706              -7.7762
       898                         -0.2812071              -7.6520
       899                         -0.2795422              -7.6067
       900                         -0.2790052              -7.5921
       ...                                ...                  ...
      1632                          0.7144345              19.4408
      -------------------------------------------------------------
                  HL-Gap            0.0541849 Eh            1.4744 eV
             Fermi-level           -0.3234099 Eh           -8.8004 eV

   #   Z        covCN         q      C6AA      α(0)
   1   7 N      2.635    -0.393    30.191     8.161
   2   6 C      3.790     0.023    20.199     6.401
   3   6 C      2.757     0.266    22.517     7.771
   4   8 O      0.859    -0.496    23.705     6.528
   5   6 C      3.852    -0.024    20.962     6.512
   6   6 C      3.804    -0.058    21.621     6.620
   7   6 C      3.755    -0.117    22.801     6.809
   8   6 C      3.751    -0.109    22.650     6.787
   9   1 H      0.860     0.163     1.316     1.797
  10   1 H      0.923     0.045     2.382     2.413
  11   1 H      0.924     0.043     2.407     2.426
  12   1 H      0.924     0.036     2.498     2.472
  13   1 H      0.924     0.033     2.542     2.493
  14   1 H      0.925     0.051     2.303     2.373
  15   1 H      0.925     0.037     2.486     2.466
  16   1 H      0.925     0.050     2.319     2.381
  17   1 H      0.925     0.030     2.583     2.513
  18   1 H      0.925     0.041     2.432     2.439
  19   1 H      0.925     0.041     2.434     2.440
  20   7 N      2.691    -0.154    24.322     7.325
  21   6 C      3.794     0.025    20.164     6.394
  22   6 C      2.765     0.206    23.630     7.961
  23   8 O      0.856    -0.361    20.919     6.132
  24   6 C      3.809    -0.086    22.124     6.696
  25   6 C      3.849    -0.013    20.781     6.484
  26   6 C      3.756    -0.121    22.873     6.819
  27   6 C      3.755    -0.115    22.762     6.803
  28   1 H      0.860     0.225     0.988     1.557
  29   1 H      0.923     0.088     1.898     2.155
  30   1 H      0.924     0.077     2.008     2.216
  31   1 H      0.924     0.067     2.116     2.275
  32   1 H      0.924     0.042     2.425     2.436
  33   1 H      0.925     0.045     2.388     2.417
  34   1 H      0.925     0.048     2.350     2.397
  35   1 H      0.925     0.046     2.368     2.406
  36   1 H      0.925     0.043     2.413     2.429
  37   1 H      0.925     0.045     2.379     2.412
  38   1 H      0.925     0.031     2.568     2.506
  39   7 N      2.636    -0.392    30.141     8.154
  40   6 C      3.785     0.038    19.953     6.363
  41   6 C      2.759     0.268    22.474     7.763
  42   8 O      0.859    -0.501    23.812     6.542
  43   6 C      3.756    -0.121    22.867     6.818
  44   1 H      0.860     0.153     1.379     1.840
  45   1 H      0.923     0.033     2.540     2.492
  46   1 H      0.925     0.041     2.436     2.441
  47   1 H      0.925     0.049     2.329     2.387
  48   1 H      0.925     0.066     2.134     2.284
  49   7 N      2.687    -0.163    24.522     7.355
  50   6 C      3.745    -0.017    20.954     6.530
  51   6 C      2.763     0.206    23.620     7.959
  52   8 O      0.856    -0.346    20.635     6.090
  53   1 H      0.860     0.233     0.954     1.530
  54   1 H      0.924     0.085     1.924     2.169
  55   1 H      0.925     0.105     1.741     2.064
  56   7 N      2.635    -0.391    30.129     8.152
  57   6 C      3.781     0.052    19.731     6.328
  58   6 C      2.765     0.194    23.862     8.000
  59   8 O      0.856    -0.361    20.912     6.131
  60   6 C      3.810    -0.066    21.761     6.640
  61   6 C      2.968     0.012    27.736     8.639
  62   6 C      2.924    -0.042    29.035     8.837
  63   6 C      2.925    -0.042    29.046     8.838
  64   6 C      2.919    -0.032    28.786     8.798
  65   6 C      2.918    -0.036    28.894     8.815
  66   6 C      2.920    -0.037    28.928     8.820
  67   1 H      0.860     0.180     1.213     1.725
  68   1 H      0.923     0.037     2.495     2.470
  69   1 H      0.924     0.070     2.087     2.259
  70   1 H      0.924     0.035     2.511     2.478
  71   1 H      0.926     0.046     2.370     2.407
  72   1 H      0.926     0.038     2.479     2.462
  73   1 H      0.926     0.023     2.681     2.560
  74   1 H      0.926     0.041     2.436     2.441
  75   1 H      0.926     0.035     2.518     2.481
  76   7 N      2.636    -0.391    30.112     8.150
  77   6 C      3.791     0.033    20.034     6.374
  78   6 C      2.767     0.272    22.408     7.752
  79   8 O      0.859    -0.495    23.683     6.525
  80   6 C      3.852    -0.022    20.924     6.506
  81   6 C      3.758    -0.112    22.695     6.792
  82   6 C      3.757    -0.109    22.633     6.783
  83   1 H      0.860     0.155     1.366     1.831
  84   1 H      0.923     0.032     2.552     2.498
  85   1 H      0.924     0.051     2.306     2.375
  86   1 H      0.925     0.049     2.334     2.389
  87   1 H      0.925     0.038     2.480     2.463
  88   1 H      0.925     0.038     2.479     2.462
  89   1 H      0.925     0.046     2.372     2.408
  90   1 H      0.925     0.039     2.467     2.456
  91   1 H      0.925     0.034     2.533     2.489
  92   7 N      2.688    -0.169    24.663     7.376
  93   6 C      3.797     0.018    20.282     6.412
  94   6 C      2.765     0.201    23.729     7.978
  95   8 O      0.856    -0.354    20.783     6.112
  96   6 C      3.675     0.072    19.600     6.344
  97   8 O      1.654    -0.448    21.798     6.303
  98   1 H      0.860     0.239     0.929     1.510
  99   1 H      0.923     0.073     2.054     2.241
 100   1 H      0.923     0.037     2.484     2.465
 101   1 H      0.924     0.076     2.020     2.223
 102   1 H      0.803     0.339     0.616     1.233
 103   7 N      2.636    -0.400    30.376     8.186
 104   6 C      3.782     0.047    19.804     6.339
 105   6 C      2.766     0.202    23.703     7.973
 106   8 O      0.856    -0.395    21.580     6.228
 107   6 C      3.810    -0.065    21.732     6.636
 108   6 C      3.849    -0.007    20.671     6.467
 109   6 C      3.758    -0.109    22.641     6.784
 110   6 C      3.755    -0.112    22.703     6.794
 111   1 H      0.860     0.185     1.188     1.707
 112   1 H      0.924     0.036     2.500     2.473
 113   1 H      0.924     0.056     2.247     2.344
 114   1 H      0.924     0.035     2.515     2.480
 115   1 H      0.924     0.039     2.457     2.451
 116   1 H      0.925     0.043     2.413     2.429
 117   1 H      0.925     0.034     2.530     2.487
 118   1 H      0.925     0.043     2.407     2.426
 119   1 H      0.925     0.043     2.413     2.429
 120   1 H      0.925     0.039     2.457     2.451
 121   1 H      0.925     0.029     2.600     2.522
 122   7 N      2.635    -0.394    30.200     8.162
 123   6 C      3.786     0.027    20.130     6.391
 124   6 C      2.760     0.258    22.664     7.796
 125   8 O      0.859    -0.493    23.629     6.517
 126   6 C      3.809    -0.076    21.936     6.667
 127   6 C      3.849    -0.010    20.720     6.475
 128   6 C      3.756    -0.112    22.701     6.794
 129   6 C      3.758    -0.115    22.751     6.800
 130   1 H      0.860     0.167     1.293     1.781
 131   1 H      0.923     0.049     2.335     2.390
 132   1 H      0.924     0.052     2.299     2.371
 133   1 H      0.924     0.037     2.496     2.470
 134   1 H      0.924     0.036     2.498     2.472
 135   1 H      0.925     0.041     2.439     2.442
 136   1 H      0.925     0.039     2.464     2.455
 137   1 H      0.925     0.040     2.454     2.450
 138   1 H      0.925     0.037     2.489     2.467
 139   1 H      0.925     0.039     2.463     2.454
 140   1 H      0.925     0.041     2.439     2.442
 141   7 N      2.690    -0.168    24.632     7.371
 142   6 C      3.800     0.010    20.403     6.431
 143   6 C      2.760     0.279    22.277     7.729
 144   8 O      0.858    -0.471    23.162     6.453
 145   6 C      3.810    -0.066    21.759     6.640
 146   6 C      3.805    -0.104    22.483     6.750
 147   6 C      2.746     0.288    22.121     7.701
 148   8 O      0.859    -0.492    23.618     6.516
 149   7 N      2.638    -0.287    27.407     7.775
 150   1 H      0.860     0.220     1.011     1.575
 151   1 H      0.923     0.097     1.817     2.108
 152   1 H      0.924     0.053     2.280     2.361
 153   1 H      0.924     0.077     2.015     2.220
 154   1 H      0.924     0.088     1.897     2.154
 155   1 H      0.925     0.065     2.139     2.287
 156   1 H      0.860     0.229     0.968     1.541
 157   1 H      0.860     0.220     1.012     1.575
 158   7 N      2.691    -0.177    24.842     7.403
 159   6 C      3.799     0.022    20.204     6.400
 160   6 C      2.759     0.268    22.468     7.762
 161   8 O      0.859    -0.489    23.531     6.504
 162   6 C      3.806    -0.056    21.567     6.611
 163   6 C      3.799    -0.096    22.340     6.730
 164   6 C      2.684     0.368    20.764     7.457
 165   8 O      0.856    -0.607    26.288     6.874
 166   8 O      0.856    -0.631    26.906     6.954
 167   1 H      0.860     0.205     1.082     1.629
 168   1 H      0.923     0.091     1.873     2.140
 169   1 H      0.924     0.048     2.342     2.393
 170   1 H      0.924     0.042     2.427     2.436
 171   1 H      0.924     0.032     2.565     2.504
 172   1 H      0.924     0.027     2.636     2.539
 173   7 N      2.690    -0.168    24.645     7.373
 174   6 C      3.803     0.018    20.278     6.411
 175   6 C      2.759     0.277    22.316     7.736
 176   8 O      0.858    -0.487    23.504     6.500
 177   6 C      3.853    -0.023    20.945     6.509
 178   6 C      3.756    -0.119    22.842     6.815
 179   6 C      3.756    -0.122    22.900     6.823
 180   1 H      0.860     0.201     1.099     1.642
 181   1 H      0.923     0.073     2.052     2.240
 182   1 H      0.924     0.056     2.252     2.347
 183   1 H      0.925     0.063     2.161     2.299
 184   1 H      0.925     0.042     2.426     2.436
 185   1 H      0.925     0.054     2.273     2.358
 186   1 H      0.925     0.061     2.192     2.315
 187   1 H      0.925     0.053     2.278     2.360
 188   1 H      0.925     0.038     2.479     2.462
 189   7 N      2.690    -0.187    25.056     7.434
 190   6 C      3.801     0.028    20.105     6.384
 191   6 C      2.757     0.269    22.459     7.761
 192   8 O      0.859    -0.491    23.581     6.511
 193   6 C      3.811    -0.071    21.851     6.654
 194   6 C      2.972     0.013    27.711     8.635
 195   6 C      2.924    -0.048    29.187     8.860
 196   6 C      2.925    -0.036    28.904     8.817
 197   6 C      2.919    -0.037    28.909     8.817
 198   6 C      2.919    -0.031    28.782     8.798
 199   6 C      2.920    -0.036    28.901     8.816
 200   1 H      0.860     0.234     0.946     1.524
 201   1 H      0.923     0.075     2.032     2.229
 202   1 H      0.925     0.075     2.037     2.232
 203   1 H      0.924     0.048     2.339     2.392
 204   1 H      0.926     0.050     2.325     2.385
 205   1 H      0.926     0.035     2.513     2.479
 206   1 H      0.926     0.038     2.482     2.464
 207   1 H      0.926     0.040     2.453     2.449
 208   1 H      0.926     0.039     2.464     2.455
 209   7 N      2.691    -0.180    24.889     7.409
 210   6 C      3.798     0.020    20.246     6.407
 211   6 C      2.757     0.277    22.308     7.734
 212   8 O      0.858    -0.489    23.539     6.505
 213   6 C      3.808    -0.087    22.161     6.701
 214   6 C      3.804    -0.079    22.001     6.678
 215   6 C      3.739    -0.022    21.052     6.547
 216   7 N      2.703    -0.143    24.099     7.291
 217   6 C      2.735     0.229    23.197     7.885
 218   7 N      2.647    -0.242    26.322     7.620
 219   7 N      2.655    -0.243    26.344     7.623
 220   1 H      0.860     0.229     0.971     1.544
 221   1 H      0.923     0.079     1.995     2.209
 222   1 H      0.924     0.079     1.991     2.207
 223   1 H      0.925     0.067     2.123     2.279
 224   1 H      0.924     0.050     2.315     2.379
 225   1 H      0.924     0.072     2.061     2.245
 226   1 H      0.924     0.087     1.913     2.163
 227   1 H      0.924     0.073     2.050     2.239
 228   1 H      0.860     0.235     0.943     1.521
 229   1 H      0.859     0.254     0.867     1.459
 230   1 H      0.860     0.215     1.031     1.591
 231   1 H      0.860     0.231     0.961     1.535
 232   1 H      0.860     0.229     0.971     1.544
 233   7 N      2.690    -0.186    25.035     7.431
 234   6 C      3.800     0.030    20.075     6.379
 235   6 C      2.762     0.277    22.312     7.735
 236   8 O      0.859    -0.492    23.614     6.515
 237   6 C      3.813    -0.079    22.002     6.676
 238   6 C      2.970     0.006    27.874     8.660
 239   6 C      2.924    -0.036    28.905     8.817
 240   6 C      2.925    -0.045    29.110     8.848
 241   6 C      2.918    -0.033    28.829     8.805
 242   6 C      2.918    -0.037    28.927     8.820
 243   6 C      2.921    -0.039    28.981     8.828
 244   1 H      0.860     0.225     0.989     1.558
 245   1 H      0.923     0.059     2.213     2.326
 246   1 H      0.924     0.049     2.330     2.387
 247   1 H      0.924     0.069     2.095     2.264
 248   1 H      0.926     0.019     2.754     2.595
 249   1 H      0.926     0.040     2.448     2.447
 250   1 H      0.926     0.039     2.462     2.453
 251   1 H      0.926     0.061     2.185     2.311
 252   1 H      0.926     0.063     2.167     2.302
 253   7 N      2.692    -0.182    24.950     7.419
 254   6 C      3.800     0.022    20.202     6.399
 255   6 C      2.762     0.273    22.382     7.748
 256   8 O      0.859    -0.486    23.483     6.497
 257   6 C      3.757    -0.131    23.074     6.849
 258   1 H      0.860     0.229     0.967     1.541
 259   1 H      0.923     0.087     1.911     2.162
 260   1 H      0.925     0.079     1.994     2.208
 261   1 H      0.925     0.075     2.032     2.229
 262   1 H      0.925     0.057     2.233     2.337
 263   7 N      2.691    -0.188    25.073     7.437
 264   6 C      3.803     0.031    20.058     6.376
 265   6 C      2.760     0.279    22.283     7.730
 266   8 O      0.859    -0.498    23.730     6.531
 267   6 C      3.810    -0.081    22.031     6.681
 268   6 C      2.965     0.000    28.026     8.683
 269   6 C      2.926    -0.038    28.935     8.821
 270   6 C      2.928    -0.048    29.194     8.861
 271   6 C      2.920    -0.058    29.445     8.898
 272   6 C      2.917    -0.079    29.964     8.976
 273   6 C      2.846     0.143    24.872     8.173
 274   8 O      1.658    -0.441    21.652     6.282
 275   1 H      0.860     0.233     0.951     1.527
 276   1 H      0.924     0.070     2.085     2.258
 277   1 H      0.924     0.076     2.025     2.226
 278   1 H      0.924     0.066     2.134     2.285
 279   1 H      0.926     0.035     2.521     2.483
 280   1 H      0.926     0.049     2.329     2.386
 281   1 H      0.926     0.040     2.452     2.449
 282   1 H      0.926     0.045     2.382     2.414
 283   1 H      0.803     0.337     0.620     1.237
 284   7 N      2.689    -0.185    25.002     7.426
 285   6 C      3.801     0.035    19.978     6.364
 286   6 C      2.761     0.285    22.173     7.711
 287   8 O      0.858    -0.520    24.224     6.599
 288   6 C      3.811    -0.079    22.000     6.676
 289   6 C      2.970    -0.006    28.165     8.705
 290   6 C      2.925    -0.042    29.049     8.839
[...]
   326  H   0.914        N  313 0.898
   327  N   3.489        C  307 1.329    C  328 0.986    H  335 0.887    O  308 0.190
   328  C   3.963        N  327 0.986    C  331 0.976    C  329 0.938    H  336 0.937
   329  C   3.938        O  330 1.575    N  346 1.331    C  328 0.938
   330  O   1.941        C  329 1.575    N  346 0.190
   331  C   3.983        C  332 0.988    C  328 0.976    H  338 0.973    H  337 0.968
   332  C   3.990        C  333 1.010    C  334 1.009    C  331 0.988    H  339 0.965
   333  C   3.993        C  332 1.010    H  341 0.987    H  340 0.983    H  342 0.978
   334  C   3.989        C  332 1.009    H  343 0.983    H  344 0.982    H  345 0.979
   335  H   0.947        N  327 0.887
   336  H   0.991        C  328 0.937
   337  H   0.997        C  331 0.968
   338  H   0.998        C  331 0.973
   339  H   0.998        C  332 0.965
   340  H   0.996        C  333 0.983
   341  H   0.999        C  333 0.987
   342  H   0.998        C  333 0.978
   343  H   0.995        C  334 0.983
   344  H   0.997        C  334 0.982
   345  H   0.996        C  334 0.979
   346  N   3.483        C  329 1.331    C  347 0.991    H  354 0.866    O  330 0.190
   347  C   3.972        N  346 0.991    C  350 0.976    H  355 0.940    C  348 0.938
   348  C   3.937        O  349 1.567    N  365 1.332    C  347 0.938
   349  O   1.940        C  348 1.567    N  365 0.184
   350  C   3.985        C  351 0.991    C  347 0.976    H  357 0.972    H  356 0.969
   351  C   3.992        C  353 1.011    C  352 1.007    C  350 0.991    H  358 0.965
   352  C   3.994        C  351 1.007    H  361 0.986    H  360 0.983    H  359 0.981
   353  C   3.995        C  351 1.011    H  363 0.986    H  364 0.983    H  362 0.981
   354  H   0.940        N  346 0.866
   355  H   0.995        C  347 0.940
   356  H   0.998        C  350 0.969
   357  H   0.998        C  350 0.972
   358  H   0.998        C  351 0.965
   359  H   0.997        C  352 0.981
   360  H   0.999        C  352 0.983
   361  H   0.998        C  352 0.986
   362  H   0.997        C  353 0.981
   363  H   0.998        C  353 0.986
   364  H   0.999        C  353 0.983
   365  N   3.470        C  348 1.332    C  366 0.978    H  374 0.872    O  349 0.184
   366  C   3.965        C  369 0.983    N  365 0.978    H  375 0.950    C  367 0.929
   367  C   3.942        O  368 1.593    N  387 1.337    C  366 0.929
   368  O   1.946        C  367 1.593    N  387 0.198
   369  C   3.984        C  370 1.006    C  366 0.983    H  376 0.970    H  377 0.964
   370  C   3.992        C  371 1.007    C  369 1.006    H  378 0.973    H  379 0.971
   371  C   3.991        C  372 1.012    C  370 1.007    H  380 0.970    H  381 0.968
   372  C   3.923        C  371 1.012    H  382 0.970    H  383 0.965    N  373 0.957
   373  N   3.643        C  372 0.957    H  384 0.911    H  386 0.847    H  385 0.834
   374  H   0.940        N  365 0.872
   375  H   0.998        C  366 0.950
   376  H   0.996        C  369 0.970
   377  H   0.992        C  369 0.964
   378  H   0.994        C  370 0.973
   379  H   0.998        C  370 0.971
   380  H   0.998        C  371 0.970
   381  H   0.995        C  371 0.968
   382  H   0.990        C  372 0.970
   383  H   0.987        C  372 0.965
   384  H   0.925        N  373 0.911
   385  H   0.918        N  373 0.834
   386  H   0.924        N  373 0.847
   387  N   3.472        C  367 1.337    C  388 0.972    H  396 0.867    O  368 0.198
   388  C   3.955        C  391 0.977    N  387 0.972    H  397 0.945    C  389 0.934
   389  C   3.934        O  390 1.625    N  409 1.293    C  388 0.934
   390  O   1.937        C  389 1.625    N  409 0.190
   391  C   3.977        C  392 0.999    C  388 0.977    H  399 0.972    H  398 0.969
   392  C   3.983        C  393 1.002    C  391 0.999    H  400 0.974    H  401 0.962
   393  C   3.986        C  394 1.011    C  392 1.002    H  403 0.970    H  402 0.967
   394  C   3.916        C  393 1.011    N  395 0.962    H  405 0.962    H  404 0.961
   395  N   3.663        C  394 0.962    H  408 0.897    H  407 0.897    H  406 0.887
   396  H   0.937        N  387 0.867
   397  H   0.994        C  388 0.945
   398  H   0.996        C  391 0.969
   399  H   0.996        C  391 0.972
   400  H   0.996        C  392 0.974
   401  H   0.994        C  392 0.962
   402  H   0.994        C  393 0.967
   403  H   0.994        C  393 0.970
   404  H   0.983        C  394 0.961
   405  H   0.985        C  394 0.962
   406  H   0.899        N  395 0.887
   407  H   0.912        N  395 0.897
   408  H   0.912        N  395 0.897
   409  N   3.442        C  389 1.293    C  410 0.981    H  414 0.869    O  390 0.190
   410  C   3.971        C  413 1.000    N  409 0.981    H  415 0.956    C  411 0.930
   411  C   3.937        O  412 1.602    N  419 1.329    C  410 0.930
   412  O   1.928        C  411 1.602    N  419 0.197
   413  C   3.984        C  410 1.000    H  416 0.983    H  418 0.977    H  417 0.976
   414  H   0.943        N  409 0.869
   415  H   0.996        C  410 0.956
   416  H   0.995        C  413 0.983
   417  H   0.991        C  413 0.976
   418  H   0.997        C  413 0.977
   419  N   3.466        C  411 1.329    C  420 0.975    H  427 0.856    O  412 0.197
   420  C   3.971        C  423 0.981    N  419 0.975    H  428 0.957    C  421 0.942
   421  C   3.941        O  422 1.626    N  431 1.291    C  420 0.942
   422  O   1.926        C  421 1.626    N  431 0.184
   423  C   3.982        C  420 0.981    H  429 0.964    H  430 0.957    C  424 0.914
   424  C   3.936        O  425 1.534    O  426 1.456    C  423 0.914
   425  O   1.827        C  424 1.534    O  426 0.213
   426  O   1.824        C  424 1.456    O  425 0.213
   427  H   0.943        N  419 0.856
   428  H   0.998        C  420 0.957
   429  H   0.999        C  423 0.964
   430  H   0.997        C  423 0.957
   431  N   3.454        C  421 1.291    C  432 0.985    H  440 0.910    O  422 0.184
   432  C   3.966        N  431 0.985    C  433 0.984    C  435 0.958    H  441 0.933
   433  C   3.903        O  434 1.884    C  432 0.984    H  643 0.956
   434  O   2.030        C  433 1.884
   435  C   3.981        C  436 1.012    H  442 0.975    H  443 0.960    C  432 0.958
   436  C   3.981        C  435 1.012    H  445 0.972    H  444 0.954    C  437 0.914
   437  C   3.936        O  439 1.529    O  438 1.455    C  436 0.914
   438  O   1.834        C  437 1.455    O  439 0.204
   439  O   1.822        C  437 1.529    O  438 0.204
   440  H   0.955        N  431 0.910
   441  H   0.995        C  432 0.933
   442  H   0.996        C  435 0.975
   443  H   0.996        C  435 0.960
   444  H   0.999        C  436 0.954
   445  H   0.999        C  436 0.972
   446  N   3.003        C  447 1.013    H  454 0.955    H  644 0.953
   447  C   3.985        N  446 1.013    C  448 0.966    C  450 0.966    H  455 0.959
   448  C   3.894        O  449 1.890    C  447 0.966    H  645 0.953
   449  O   2.050        C  448 1.890
   450  C   3.992        C  451 1.007    H  456 0.973    H  457 0.969    C  447 0.966
   451  C   3.974        C  450 1.007    S  452 0.988    H  459 0.975    H  458 0.965
   452  S   2.081        C  453 1.009    C  451 0.988
   453  C   3.983        S  452 1.009    H  462 0.986    H  460 0.985    H  461 0.985
   454  H   0.973        N  446 0.955
   455  H   0.996        C  447 0.959
   456  H   0.997        C  450 0.973
   457  H   0.996        C  450 0.969
   458  H   0.994        C  451 0.965
   459  H   0.997        C  451 0.975
   460  H   0.999        C  453 0.985
   461  H   0.998        C  453 0.985
   462  H   0.997        C  453 0.986
   463  N   2.994        C  464 1.019    H  646 0.955    H  469 0.930
   464  C   3.987        N  463 1.019    H  470 0.966    C  467 0.962    C  465 0.934
   465  C   3.945        O  466 1.630    N  474 1.300    C  464 0.934
   466  O   1.982        C  465 1.630    N  474 0.194
   467  C   3.955        O  468 1.005    H  471 0.969    H  472 0.966    C  464 0.962
   468  O   1.954        C  467 1.005    H  473 0.886
   469  H   0.967        N  463 0.930
   470  H   0.998        C  464 0.966
   471  H   0.999        C  467 0.969
   472  H   0.996        C  467 0.966
   473  H   0.901        O  468 0.886
   474  N   3.471        C  465 1.300    C  475 0.990    H  478 0.922    O  466 0.194
   475  C   3.962        N  474 0.990    C  476 0.986    H  479 0.950    H  480 0.935
   476  C   3.905        O  477 1.895    C  475 0.986    H  647 0.954
   477  O   2.048        C  476 1.895
   478  H   0.952        N  474 0.922
   479  H   0.989        C  475 0.950
   480  H   0.985        C  475 0.935
   481  N   3.006        C  482 1.015    H  648 0.957    H  492 0.926
   482  C   3.986        N  481 1.015    C  483 0.971    H  493 0.960    C  485 0.960
   483  C   3.883        O  484 1.884    C  482 0.971    H  649 0.953
   484  O   2.021        C  483 1.884
   485  C   3.991        C  486 1.009    H  495 0.967    C  482 0.960    H  494 0.949
   486  C   3.988        C  487 1.414    C  488 1.409    C  485 1.009    C  491 0.109
   487  C   3.991        C  489 1.443    C  486 1.414    H  496 0.965    C  490 0.111
   488  C   3.990        C  490 1.445    C  486 1.409    H  497 0.965    C  489 0.111
   489  C   3.992        C  487 1.443    C  491 1.440    H  498 0.970    C  488 0.111
   490  C   3.990        C  488 1.445    C  491 1.436    H  499 0.966    C  487 0.111
   491  C   3.991        C  489 1.440    C  490 1.436    H  500 0.970    C  486 0.109
   492  H   0.964        N  481 0.926
   493  H   0.998        C  482 0.960
   494  H   0.993        C  485 0.949
   495  H   0.997        C  485 0.967
   496  H   0.999        C  487 0.965
   497  H   0.998        C  488 0.965
   498  H   0.999        C  489 0.970
   499  H   0.998        C  490 0.966
   500  H   0.999        C  491 0.970
   501  N   3.006        C  502 1.016    H  650 0.956    H  511 0.950
   502  C   3.985        N  501 1.016    C  503 0.975    H  512 0.947    C  505 0.942
   503  C   3.891        O  504 1.884    C  502 0.975    H  651 0.952
   504  O   2.057        C  503 1.884
   505  C   3.988        C  506 1.021    H  513 0.963    H  514 0.959    C  502 0.942
   506  C   3.943        C  508 1.540    N  507 1.197    C  505 1.021    C  509 0.108
   507  N   3.597        C  509 1.278    C  506 1.197    H  515 0.928
   508  C   3.966        C  506 1.540    N  510 1.290    H  516 0.961
   509  C   3.959        N  510 1.532    N  507 1.278    H  517 0.965    C  506 0.108
   510  N   3.084        C  509 1.532    C  508 1.290
   511  H   0.973        N  501 0.950
   512  H   0.997        C  502 0.947
   513  H   0.994        C  505 0.963
   514  H   0.993        C  505 0.959
   515  H   0.960        N  507 0.928
   516  H   0.998        C  508 0.961
   517  H   0.998        C  509 0.965
   518  N   2.997        C  519 1.017    H  652 0.958    H  532 0.954
   519  C   3.986        N  518 1.017    C  522 0.971    H  533 0.958    C  520 0.940
   520  C   3.946        O  521 1.597    N  542 1.316    C  519 0.940
   521  O   1.967        C  520 1.597    N  542 0.192
   522  C   3.993        C  523 1.014    C  519 0.971    H  534 0.962    H  535 0.957
   523  C   3.974        C  524 1.576    C  525 1.208    C  522 1.014
   524  C   3.951        C  523 1.576    N  526 1.201    H  536 0.967
   525  C   3.981        C  528 1.329    C  527 1.237    C  523 1.208
   526  N   3.549        C  524 1.201    C  527 1.189    H  537 0.937
   527  C   3.960        C  529 1.337    C  525 1.237    N  526 1.189
   528  C   3.991        C  530 1.504    C  525 1.329    H  538 0.959    C  529 0.111
   529  C   3.990        C  531 1.491    C  527 1.337    H  539 0.967    C  528 0.111
   530  C   3.991        C  528 1.504    C  531 1.366    H  540 0.968
   531  C   3.991        C  529 1.491    C  530 1.366    H  541 0.970
   532  H   0.974        N  518 0.954
   533  H   0.998        C  519 0.958
   534  H   0.995        C  522 0.962
   535  H   0.997        C  522 0.957
   536  H   0.998        C  524 0.967
   537  H   0.964        N  526 0.937
   538  H   0.999        C  528 0.959
   539  H   0.999        C  529 0.967
   540  H   0.999        C  530 0.968
   541  H   0.999        C  531 0.970
   542  N   3.477        C  520 1.316    C  543 0.993    H  546 0.886    O  521 0.192
   543  C   3.964        N  542 0.993    C  544 0.988    H  547 0.955    H  548 0.932
   544  C   3.897        O  545 1.886    C  543 0.988    H  653 0.953
   545  O   2.059        C  544 1.886
   546  H   0.938        N  542 0.886
   547  H   0.989        C  543 0.955
   548  H   0.985        C  543 0.932
   549  N   2.980        C  550 1.015    H  654 0.961    H  560 0.895
   550  C   3.988        N  549 1.015    H  561 0.964    C  553 0.960    C  551 0.939
   551  C   3.933        O  552 1.604    N  569 1.303    C  550 0.939
   552  O   1.957        C  551 1.604    N  569 0.189
   553  C   3.989        C  554 1.010    H  563 0.963    H  562 0.962    C  550 0.960
   554  C   3.987        C  556 1.412    C  555 1.409    C  553 1.010    C  559 0.109
   555  C   3.992        C  557 1.445    C  554 1.409    H  564 0.968    C  558 0.111
   556  C   3.991        C  558 1.443    C  554 1.412    H  565 0.969    C  557 0.111
   557  C   3.992        C  555 1.445    C  559 1.436    H  566 0.969    C  556 0.111
   558  C   3.992        C  556 1.443    C  559 1.438    H  567 0.971    C  555 0.111
   559  C   3.990        C  558 1.438    C  557 1.436    H  568 0.962    C  554 0.109
   560  H   0.957        N  549 0.895
   561  H   0.999        C  550 0.964
   562  H   0.994        C  553 0.962
   563  H   0.995        C  553 0.963
   564  H   0.999        C  555 0.968
   565  H   0.999        C  556 0.969
   566  H   0.999        C  557 0.969
   567  H   0.999        C  558 0.971
   568  H   0.998        C  559 0.962
   569  N   3.465        C  551 1.303    C  570 0.984    H  580 0.889    O  552 0.189
   570  C   3.972        N  569 0.984    C  571 0.974    C  573 0.952    H  581 0.951
   571  C   3.890        O  572 1.863    C  570 0.974    H  655 0.953
   572  O   2.036        C  571 1.863
   573  C   3.982        C  574 1.004    H  583 0.970    H  582 0.962    C  570 0.952
   574  C   3.986        C  576 1.416    C  575 1.409    C  573 1.004    C  579 0.109
   575  C   3.985        C  577 1.447    C  574 1.409    H  584 0.950    C  578 0.111
   576  C   3.992        C  578 1.440    C  574 1.416    H  585 0.969    C  577 0.111
   577  C   3.987        C  575 1.447    C  579 1.435    H  586 0.965    C  576 0.111
   578  C   3.992        C  579 1.440    C  576 1.440    H  587 0.970    C  575 0.111
   579  C   3.988        C  578 1.440    C  577 1.435    H  588 0.966    C  574 0.109
   580  H   0.939        N  569 0.889
   581  H   0.996        C  570 0.951
   582  H   0.992        C  573 0.962
   583  H   0.997        C  573 0.970
   584  H   0.994        C  575 0.950
   585  H   1.000        C  576 0.969
   586  H   0.994        C  577 0.965
   587  H   0.999        C  578 0.970
   588  H   0.998        C  579 0.966
   589  N   2.987        C  590 1.010    H  656 0.956    H  595 0.921
   590  C   3.987        N  589 1.010    C  593 0.986    H  596 0.965    C  591 0.938
   591  C   3.939        O  592 1.629    N  600 1.301    C  590 0.938
   592  O   1.931        C  591 1.629    N  600 0.190
   593  C   3.979        S  594 0.996    C  590 0.986    H  598 0.974    H  597 0.968
   594  S   2.009        C  593 0.996    H  599 0.939
   595  H   0.966        N  589 0.921
   596  H   0.999        C  590 0.965
   597  H   0.996        C  593 0.968
   598  H   0.999        C  593 0.974
   599  H   0.967        S  594 0.939
   600  N   3.467        C  591 1.301    C  601 0.987    H  609 0.906    O  592 0.190
   601  C   3.972        N  600 0.987    C  602 0.977    C  604 0.964    H  610 0.938
   602  C   3.900        O  603 1.892    C  601 0.977    H  657 0.952
   603  O   2.035        C  602 1.892
   604  C   3.990        C  605 0.995    H  612 0.976    H  611 0.974    C  601 0.964
   605  C   3.989        C  604 0.995    H  614 0.978    H  613 0.960    C  606 0.928
   606  C   3.934        O  607 1.512    O  608 1.465    C  605 0.928
   607  O   1.838        C  606 1.512    O  608 0.214
   608  O   1.859        C  606 1.465    O  607 0.214
   609  H   0.952        N  600 0.906
   610  H   0.994        C  601 0.938
   611  H   0.997        C  604 0.974
   612  H   0.997        C  604 0.976
   613  H   0.998        C  605 0.960
   614  H   0.999        C  605 0.978
   615  N   3.001        C  616 1.002    H  658 0.955    H  625 0.952
   616  C   3.982        N  615 1.002    C  617 0.973    C  619 0.965    H  626 0.954
   617  C   3.893        O  618 1.897    C  616 0.973    H  659 0.954
   618  O   2.030        C  617 1.897
   619  C   3.995        C  620 1.013    H  627 0.968    C  616 0.965    H  628 0.964
   620  C   3.973        C  622 1.544    N  621 1.281    C  619 1.013
   621  N   3.006        C  623 1.525    C  620 1.281    N  624 0.105
   622  C   3.946        C  620 1.544    N  624 1.230    H  629 0.969    C  623 0.113
   623  C   3.961        N  621 1.525    N  624 1.294    H  630 0.965    C  622 0.113
   624  N   3.605        C  623 1.294    C  622 1.230    H  631 0.866    N  621 0.105
   625  H   0.972        N  615 0.952
   626  H   0.998        C  616 0.954
   627  H   0.998        C  619 0.968
   628  H   0.998        C  619 0.964
   629  H   0.999        C  622 0.969
   630  H   0.999        C  623 0.965
   631  H   0.951        N  624 0.866
   632  H   0.968        N    1 0.957
   633  H   0.994        C   22 0.953
   634  H   0.968        N   39 0.957
   635  H   0.994        C   51 0.955
   636  H   0.971        N   56 0.959
   637  H   0.994        C   58 0.954
   638  H   0.968        N   76 0.957
   639  H   0.994        C   94 0.953
   640  H   0.971        N  103 0.959
   641  H   0.995        C  105 0.954
   642  H   0.969        N  122 0.956
   643  H   0.996        C  433 0.956
   644  H   0.964        N  446 0.953
   645  H   0.994        C  448 0.953
   646  H   0.967        N  463 0.955
   647  H   0.994        C  476 0.954
   648  H   0.971        N  481 0.957
   649  H   0.994        C  483 0.953
   650  H   0.969        N  501 0.956
   651  H   0.993        C  503 0.952
   652  H   0.969        N  518 0.958
   653  H   0.993        C  544 0.953
   654  H   0.972        N  549 0.961
   655  H   0.994        C  571 0.953
   656  H   0.966        N  589 0.956
   657  H   0.994        C  602 0.952
   658  H   0.968        N  615 0.955
   659  H   0.995        C  617 0.954
 
molecular dipole:
                 x           y           z       tot (Debye)
 q only:      -11.326      31.962      14.001
   full:       -8.483      32.076      15.395      92.970
molecular quadrupole (traceless):
                xx          xy          yy          xz          yz          zz
 q only:    -2089.228    1319.285    2251.484     908.948    2832.154    -162.256
  q+dip:    -1967.534    1509.889    2077.218    1134.800    2908.923    -109.684
   full:    -1967.623    1514.262    2084.106    1137.213    2899.101    -116.483


           -------------------------------------------------
          | TOTAL ENERGY             -999.498476409885 Eh   |
          | GRADIENT NORM               0.827188463363 Eh/α |
          | HOMO-LUMO GAP               1.474446492253 eV   |
           -------------------------------------------------

------------------------------------------------------------------------
 * finished run on 2019/05/31 at 07:36:54.940     
------------------------------------------------------------------------
 total:
 * wall-time:     0 d,  0 h,  0 min, 57.410 sec
 *  cpu-time:     0 d,  0 h,  0 min, 29.642 sec
 * ratio c/w:     0.516 speedup
 SCF:
 * wall-time:     0 d,  0 h,  0 min, 55.780 sec
 *  cpu-time:     0 d,  0 h,  0 min, 28.722 sec
 * ratio c/w:     0.515 speedup

