      -----------------------------------------------------------      
     |                   =====================                   |     
     |                           x T B                           |     
     |                   =====================                   |     
     |                         S. Grimme                         |     
     |          Mulliken Center for Theoretical Chemistry        |     
     |                    University of Bonn                     |     
     |                Version 6.1 RC1 (SAW190329)                |     
      -----------------------------------------------------------      

   This program is distributed in the hope that it will be useful,
   but WITHOUT ANY WARRANTY; without even the implied warranty of
   MERCHANTABILITY or FITNESS FOR A PARTICULAR PURPOSE.
   
   FOR NON-COMMERCIAL, ACADEMIA USE ONLY.
   
   Cite this work as:
   S. Grimme, C. Bannwarth, P. Shushkov, J. Comput. Theory Chem., 2017,
   13, 1989-2009. DOI: 10.1021/acs.jctc.7b00118
   C. Bannwarth, S. Ehlert and S. Grimme., J. Comput. Theory Chem., 2019,
   just accepted. DOI: 10.1021/acs.jctc.8b01176
   
   for sTDA-xTB:
   S. Grimme and C. Bannwarth, J. Chem. Phys., 2016, 145, 054103.
   DOI: 10.1063/1.4959605
   
   in the mass-spec context:
   V. Asgeirsson, C. Bauer and S. Grimme, Chem. Sci., 2017, 8, 4879.
   DOI: 10.1039/c7sc00601b
   
   for metadynamics refer to:
   S. Grimme, ChemRxiv, Preprint. DOI: 10.26434/chemrxiv.7660532.v1
   
   with help from (in alphabetical order)
   C. Bannwarth, F. Bohle, G. Brandenburg, E. Caldeweyher, M. Checinski,
   S. Dohm, S. Ehlert, S. Ehrlich, F. März, H. Neugebauer, J. Pisarek,
   P. Pracht, P. Shushkov, and S. Spicher.
   
 * started run on 2019/05/31 at 05:34:51.189     

           -------------------------------------------------
          |                Calculation Setup                |
           -------------------------------------------------

          program call               : /home/lum/install/xtb/xtb-190329/bin/xtb xtb_tmp.xyz --chrg 1 --grad --gfn 2 --etemp 500 --acc 0.1 --gbsa h2o --parallel 2
          hostname                   : cpu02
          coordinate file            : xtb_tmp.xyz
          omp threads                :                     2
          number of atoms            :                   333
          number of electrons        :                   918
          charge                     :                     1
          spin                       :                   0.0
          first test random number   :      0.35669880840899


molecular fragmentation (1/2 indicates fragments):
111111111111111111111111111111111111111111111111111111111111111111111111
111111111111111111111111111111111111111111111111111111111111111111111111
111111111111111111111111111111111111111111111111111111111111111111111111
111111111112222222222222222222222222222222222222222222222222222222222222
222222222222222222222222222222222221122222222
# atoms in fragment 1/2:   229   104
 fragment masses (1/2) :     1589.78      738.85
CMA distance (Bohr)    :   8.481
constraining FC (au)   :  0.0500

########################################################################
# WARNING! Please study the warnings concerning your input carefully
#  - XTBPATH is not set, using XTBHOME instead
#  - Process number higher than OMP_NUM_THREADS, I hope you know what you are doing.
########################################################################

           ------------------------------------------------- 
          |                 G F N 2 - x T B                 |
          | Geometry, Frequencies, Noncovalent interactions |
          |            JCTC 2018 parametrisation            |
           ------------------------------------------------- 
 
             k(s)              :                1.8500
             k(p)              :                2.2300
             k(d)              :                2.2300
             k(f)              :                2.0000
             kEN (H0ij)        :               -2.0000
             D4 a1             :                0.5200
             D4 a2             :                5.0000
             D4 s6             :                1.0000
             D4 s8             :                2.7000
             D4 s9             :                5.0000
             alphaj            :                2.0000

  Z AO/shell   Hii/eV     exponent
  1     Wed Apr 25 08:07:45 CEST 2018   EN: 2.200 GM2: 0.406  GM3: 0.0800  RAES: 1.40
     1s    -10.707211    1.230000
  6     Wed Apr 25 08:07:45 CEST 2018   EN: 2.550 GM2: 0.538  GM3: 0.1500  RAES: 3.00
     2s    -13.970922    2.096432
     2p    -10.063292    1.800000
  7     Wed Apr 25 08:07:45 CEST 2018   EN: 3.040 GM2: 0.461  GM3:-0.0640  RAES: 1.90
     2s    -16.686243    2.339881
     2p    -12.523956    2.014332
  8     Wed Apr 25 08:07:45 CEST 2018   EN: 3.440 GM2: 0.452  GM3:-0.0517  RAES: 1.80
     2s    -20.229985    2.439742
     2p    -15.503117    2.137023
 16     Tue Apr 24 11:44:34 CEST 2018   EN: 2.580 GM2: 0.340  GM3:-0.0502  RAES: 3.10
     3s    -20.029654    1.981333
     3p    -11.377694    2.025643
     3d     -0.420282    1.702555

 Solvent             : h2o
 Using internal parameter file: .param_gbsa2_h2o
 Gsolv ref. state (COSMO-RS): gsolv [1 M gas/solution]
 temperature (mdtemp)       :    298.150000000000     
 dielectric constant        :    80.2000000000000     
 rho                        :    1.00000000000000     
 mass                       :    18.0000000000000     
 surface tension            :    15.5689454083859     
 probe radius               :   0.975313790000000     
 vdW radii scaling          :    1.00000000000000     
 Gshift (Eh)                :   1.857443126794793E-003
 c1                         :    1.55243817000000     
 soset                      :   0.130326360000000     
 HB correction              :  T
 Number of grid points      :          230

            Z     q(EN)     CN     RAES       Cart. coordinates
     1  N   5.0   -0.72    3.00    1.93   194.80462   116.68379   333.71562
     2  C   4.0    0.06    3.98    3.59   196.11266   115.27844   331.76553
     3  C   4.0    0.28    3.01    3.02   195.42817   116.31390   329.13933
     4  O   6.0   -0.47    1.00    1.80   197.04784   116.52633   327.49717
     5  C   4.0   -0.15    3.98    3.59   195.58664   112.44379   332.06211
     6  C   4.0   -0.16    3.98    3.58   197.65108   110.77314   330.88083
     7  C   4.0   -0.15    3.98    3.58   199.21952   109.36681   332.86894
     8  C   4.0   -0.06    3.98    3.58   200.84323   111.05121   334.55540
     9  N   5.0   -0.72    3.98    2.82   203.16892   111.91205   333.21367
    10  H   1.0    0.26    1.00    1.43   193.25003   115.87862   334.47436
    11  H   1.0    0.10    0.99    1.43   198.13348   115.67040   331.99867
    12  H   1.0    0.11    0.99    1.43   195.44517   112.06940   334.08567
    13  H   1.0    0.11    0.99    1.43   193.74581   112.03322   331.23629
    14  H   1.0    0.11    0.99    1.43   196.75858   109.35690   329.68365
    15  H   1.0    0.12    0.99    1.43   198.83777   111.91668   329.64590
    16  H   1.0    0.11    0.99    1.43   197.91787   108.31950   334.07257
    17  H   1.0    0.11    0.99    1.43   200.41194   107.97910   331.92211
    18  H   1.0    0.11    0.99    1.43   199.77281   112.69906   335.17220
    19  H   1.0    0.11    0.99    1.43   201.42268   109.98346   336.21989
    20  H   1.0    0.25    1.00    1.43   204.26567   113.03680   334.36391
    21  H   1.0    0.25    1.00    1.43   204.23302   110.37770   332.65487
    22  H   1.0    0.25    1.00    1.43   202.72632   112.94152   331.62100
    23  N   5.0   -0.49    3.00    1.93   193.04061   117.05633   328.78897
    24  C   4.0    0.09    3.99    3.61   192.34328   118.50280   326.56914
    25  C   4.0    0.31    3.01    3.02   193.87423   120.97157   326.41838
    26  O   6.0   -0.45    1.00    1.80   194.61681   121.84301   324.41308
    27  C   4.0   -0.02    3.98    3.58   189.51405   119.13430   326.60428
    28  O   6.0   -0.48    1.99    1.82   188.98575   120.69368   324.50602
    29  H   1.0    0.24    1.00    1.43   191.71802   116.72176   330.13356
    30  H   1.0    0.13    0.99    1.43   192.76872   117.43093   324.84509
    31  H   1.0    0.11    0.99    1.43   188.44557   117.36178   326.51388
    32  H   1.0    0.12    0.99    1.43   189.06760   120.12382   328.37200
    33  H   1.0    0.27    0.99    1.43   187.19308   120.67791   324.17692
    34  N   5.0   -0.47    3.01    1.93   194.36845   122.03379   328.65361
    35  C   4.0    0.07    3.99    3.61   195.86909   124.32441   328.85171
    36  C   4.0    0.29    3.01    3.02   198.61520   123.73392   328.10165
    37  O   6.0   -0.46    1.00    1.80   199.87739   125.14676   326.77473
    38  C   4.0   -0.15    3.98    3.59   195.68083   125.43120   331.52247
    39  C   4.0   -0.11    3.98    3.59   196.72405   128.11510   331.61011
    40  C   4.0    0.28    3.00    3.02   196.76561   129.39498   334.17483
    41  O   6.0   -0.36    1.00    1.80   197.95262   131.37454   334.45699
    42  N   5.0   -0.63    3.00    1.93   195.47131   128.35311   336.06983
    43  H   1.0    0.24    1.00    1.43   193.39752   121.38500   330.18035
    44  H   1.0    0.13    0.99    1.43   195.16819   125.71556   327.47737
    45  H   1.0    0.12    0.99    1.43   193.68149   125.43388   332.03541
    46  H   1.0    0.12    0.99    1.43   196.73696   124.23125   332.82347
    47  H   1.0    0.13    0.99    1.43   198.65126   128.16737   330.87526
    48  H   1.0    0.12    0.99    1.43   195.59744   129.35037   330.39244
    49  H   1.0    0.26    1.00    1.43   194.37480   126.80824   335.90921
    50  H   1.0    0.30    1.00    1.43   195.30213   129.32866   337.70115
    51  N   5.0   -0.47    3.01    1.93   199.47194   121.50290   328.91923
    52  C   4.0    0.08    3.99    3.60   201.90277   120.52193   328.12893
    53  C   4.0    0.29    3.01    3.02   202.00027   120.21703   325.23805
    54  O   6.0   -0.45    1.00    1.80   204.00772   120.48434   324.09830
    55  C   4.0   -0.02    3.98    3.59   202.34779   117.95346   329.41651
    56  O   6.0   -0.49    1.99    1.82   204.82099   117.01382   329.17805
    57  H   1.0    0.24    1.00    1.43   198.57000   120.63906   330.38696
    58  H   1.0    0.14    0.99    1.43   203.42310   121.84281   328.63878
    59  H   1.0    0.12    0.99    1.43   202.01897   118.20339   331.44376
    60  H   1.0    0.14    0.99    1.43   200.97611   116.62014   328.60818
    61  H   1.0    0.29    0.99    1.43   205.46815   117.36579   327.51143
    62  N   5.0   -0.46    3.01    1.93   199.82925   119.57488   324.13909
    63  C   4.0    0.07    3.99    3.60   199.56060   119.35801   321.41916
    64  C   4.0    0.30    3.01    3.02   199.71156   121.96971   320.17570
    65  O   6.0   -0.45    1.00    1.80   200.87515   122.25616   318.19313
    66  C   4.0   -0.20    3.98    3.59   197.10487   118.01796   320.74015
    67  H   1.0    0.31    1.00    1.43   198.35067   118.98169   325.21361
    68  H   1.0    0.12    0.99    1.43   201.18276   118.29530   320.68146
    69  H   1.0    0.11    0.99    1.43   196.98424   117.78876   318.70510
    70  H   1.0    0.12    0.99    1.43   197.05820   116.16821   321.62991
    71  H   1.0    0.15    0.99    1.43   195.51011   119.14036   321.37899
    72  N   5.0   -0.47    3.01    1.93   198.57786   123.89252   321.34902
    73  C   4.0    0.07    4.00    3.62   199.13444   126.46139   320.52641
    74  C   4.0    0.30    3.01    3.02   202.01546   126.66543   320.32101
    75  O   6.0   -0.47    1.00    1.80   203.05268   127.43105   318.40036
    76  C   4.0   -0.14    3.98    3.59   197.96487   128.37477   322.35013
    77  C   4.0   -0.10    3.97    3.58   198.68114   131.15919   321.92836
    78  C   4.0   -0.21    3.98    3.59   201.29717   131.77457   322.98419
    79  C   4.0   -0.23    3.98    3.59   198.49259   131.97435   319.16743
    80  H   1.0    0.30    1.00    1.43   197.39734   123.59402   322.83017
    81  H   1.0    0.12    0.99    1.43   198.39840   126.74734   318.60864
    82  H   1.0    0.11    0.99    1.43   195.91650   128.18925   322.21071
    83  H   1.0    0.15    0.99    1.43   198.52401   127.86916   324.26481
    84  H   1.0    0.11    0.99    1.43   197.32242   132.27441   323.02006
    85  H   1.0    0.11    0.99    1.43   201.59932   133.80719   322.98195
    86  H   1.0    0.12    0.99    1.43   201.47821   131.10468   324.91870
    87  H   1.0    0.12    0.99    1.43   202.78289   130.92623   321.85256
    88  H   1.0    0.10    0.99    1.43   198.79975   134.00203   319.03608
    89  H   1.0    0.12    0.99    1.43   199.93099   131.04583   318.03435
    90  H   1.0    0.10    0.99    1.43   196.63697   131.55540   318.39257
    91  N   5.0   -0.47    3.00    1.93   203.29048   125.80399   322.32829
    92  C   4.0    0.03    3.99    3.61   206.02591   125.72239   322.33945
    93  C   4.0    0.32    3.01    3.02   207.01596   124.62747   319.85190
    94  O   6.0   -0.43    1.00    1.80   208.34104   125.84465   318.39899
    95  H   1.0    0.29    1.00    1.43   202.35165   125.44811   323.95999
    96  H   1.0    0.12    0.99    1.43   206.84805   127.61031   322.56933
    97  H   1.0    0.14    0.99    1.43   206.65348   124.50847   323.87937
    98  N   5.0   -0.47    3.01    1.93   206.20181   122.28413   319.33729
    99  C   4.0    0.11    4.00    3.61   207.28258   120.93530   317.21071
   100  C   4.0    0.30    3.01    3.02   206.73198   122.30496   314.72466
   101  O   6.0   -0.46    1.00    1.80   208.12695   122.07491   312.87607
   102  C   4.0    0.04    3.97    3.58   206.44956   118.14219   317.18715
   103  O   6.0   -0.47    1.99    1.82   208.38422   116.77152   315.96013
   104  C   4.0   -0.20    3.98    3.58   203.90303   117.72528   315.89699
   105  H   1.0    0.29    1.00    1.43   205.39401   121.29287   320.76867
   106  H   1.0    0.16    0.99    1.43   209.35446   120.93539   317.42397
   107  H   1.0    0.12    0.99    1.43   206.35041   117.56197   319.18645
   108  H   1.0    0.26    0.99    1.43   208.01402   114.98781   316.11075
   109  H   1.0    0.10    0.99    1.43   203.26777   115.79532   316.19701
   110  H   1.0    0.14    0.99    1.43   202.52000   119.03965   316.64557
   111  H   1.0    0.13    0.99    1.43   204.11051   118.08585   313.89102
   112  N   5.0   -0.47    3.01    1.93   204.60886   123.65269   314.62517
   113  C   4.0    0.07    3.99    3.61   203.99957   125.22291   312.47014
   114  C   4.0    0.29    3.01    3.02   205.89222   127.38653   312.13547
   115  O   6.0   -0.49    1.00    1.80   206.54606   128.02144   309.99733
   116  C   4.0   -0.21    3.98    3.59   201.32868   126.26429   312.71836
   117  H   1.0    0.32    1.00    1.43   203.48465   123.79930   316.16870
   118  H   1.0    0.12    0.99    1.43   204.17263   124.06739   310.75569
   119  H   1.0    0.10    0.99    1.43   200.86511   127.42321   311.08829
   120  H   1.0    0.12    0.99    1.43   199.99452   124.71351   312.87492
   121  H   1.0    0.13    0.99    1.43   201.21918   127.41901   314.41097
   122  N   5.0   -0.48    3.01    1.93   206.67060   128.53223   314.22941
   123  C   4.0    0.08    4.00    3.62   208.70580   130.35757   314.18840
   124  C   4.0    0.29    3.02    3.02   211.10836   129.12075   313.15566
   125  O   6.0   -0.45    1.00    1.80   212.43788   130.18563   311.57578
   126  C   4.0   -0.08    3.98    3.58   209.19426   131.51158   316.80528
   127  C   4.0   -0.15    3.98    3.58   206.76870   132.55134   318.01378
   128  C   4.0   -0.21    3.98    3.59   211.24068   133.53580   316.59970
   129  C   4.0   -0.23    3.98    3.58   205.40779   134.59825   316.51240
   130  H   1.0    0.31    1.00    1.43   206.16229   127.83223   315.93612
   131  H   1.0    0.11    0.99    1.43   208.22104   131.87444   312.85868
   132  H   1.0    0.15    0.99    1.43   209.90853   129.99865   318.02676
   133  H   1.0    0.14    0.99    1.43   205.46725   130.98458   318.32096
   134  H   1.0    0.11    0.99    1.43   207.28542   133.30031   319.86651
   135  H   1.0    0.12    0.99    1.43   211.51127   134.45422   318.41628
   136  H   1.0    0.13    0.99    1.43   213.02944   132.68927   316.04129
   137  H   1.0    0.11    0.99    1.43   210.74109   134.95622   315.20235
   138  H   1.0    0.10    0.99    1.43   203.82318   135.29801   317.61505
   139  H   1.0    0.11    0.99    1.43   206.64476   136.18459   316.10616
   140  H   1.0    0.11    0.99    1.43   204.67984   133.85288   314.74559
   141  N   5.0   -0.46    3.01    1.93   211.56205   126.75763   313.93760
   142  C   4.0    0.08    4.00    3.62   213.79527   125.47217   312.99894
   143  C   4.0    0.30    3.02    3.02   213.60884   125.35931   310.11159
   144  O   6.0   -0.45    1.00    1.80   215.40069   125.90023   308.73394
   145  C   4.0   -0.14    3.98    3.59   214.07333   122.79581   314.05196
   146  C   4.0   -0.11    3.97    3.58   215.38504   122.69088   316.62226
   147  C   4.0    0.32    2.99    3.02   213.85879   123.96420   318.80440
   148  O   6.0   -0.37    1.00    1.80   212.47206   122.54384   320.08184
   149  O   6.0   -0.37    1.00    1.80   214.18334   126.27629   319.12672
   150  H   1.0    0.30    1.00    1.43   210.75646   126.13770   315.56083
   151  H   1.0    0.13    0.99    1.43   215.49142   126.58617   313.45751
   152  H   1.0    0.15    0.99    1.43   212.20623   121.92874   314.16727
   153  H   1.0    0.12    0.99    1.43   215.21464   121.71413   312.70957
   154  H   1.0    0.13    0.99    1.43   215.67623   120.71579   317.14370
   155  H   1.0    0.12    0.99    1.43   217.21569   123.64099   316.51415
   156  N   5.0   -0.47    3.01    1.93   211.39425   124.55421   309.22141
   157  C   4.0    0.08    4.00    3.61   210.89568   124.56185   306.52615
   158  C   4.0    0.29    3.02    3.02   211.44295   127.18370   305.42612
   159  O   6.0   -0.43    1.00    1.80   212.66710   127.41860   303.46402
   160  C   4.0   -0.15    3.99    3.60   208.14861   123.90568   305.91505
   161  C   4.0   -0.14    3.98    3.58   207.51912   121.10142   306.21846
   162  C   4.0   -0.04    3.99    3.60   204.66527   120.74666   305.79136
   163  N   5.0   -0.48    3.02    1.93   203.91637   118.19700   305.11269
   164  C   4.0    0.37    3.00    3.02   203.55084   116.30505   306.72418
   165  N   5.0   -0.64    3.02    1.93   204.19870   116.52392   309.14050
   166  N   5.0   -0.65    3.02    1.93   202.50187   114.16540   305.90441
   167  H   1.0    0.30    1.00    1.43   210.02312   124.00152   310.44869
   168  H   1.0    0.14    0.99    1.43   212.19825   123.24020   305.59218
   169  H   1.0    0.14    0.99    1.43   206.94601   125.05096   307.13679
   170  H   1.0    0.11    0.99    1.43   207.81181   124.47530   303.96093
   171  H   1.0    0.13    0.99    1.43   208.57888   120.01437   304.82634
   172  H   1.0    0.13    0.99    1.43   208.09517   120.50077   308.10312
   173  H   1.0    0.11    0.99    1.43   203.62523   121.33953   307.47374
   174  H   1.0    0.10    0.99    1.43   204.09009   121.96709   304.23482
   175  H   1.0    0.23    1.00    1.43   203.55103   117.89111   303.26400
   176  H   1.0    0.27    1.00    1.43   205.24432   117.99797   309.74118
   177  H   1.0    0.27    1.00    1.43   203.96037   115.06396   310.34045
   178  H   1.0    0.26    1.00    1.43   201.70641   114.06619   304.17577
   179  H   1.0    0.26    1.00    1.43   202.07996   112.77289   307.13517
   180  N   5.0   -0.47    3.01    1.93   210.41216   129.14691   306.62669
   181  C   4.0    0.08    4.00    3.63   210.58197   131.61048   305.44827
   182  C   4.0    0.31    3.01    3.02   213.36098   132.19750   304.89377
   183  O   6.0   -0.36    1.00    1.80   214.03188   133.35683   303.00943
   184  C   4.0   -0.14    3.98    3.59   209.33101   133.61953   307.11195
   185  C   4.0   -0.10    3.98    3.58   206.46964   133.78034   306.61927
   186  C   4.0   -0.22    3.98    3.59   205.03887   134.70824   308.94696
   187  C   4.0   -0.22    3.98    3.59   205.95754   135.48296   304.34554
   188  H   1.0    0.30    1.00    1.43   209.11272   128.85974   308.02227
   189  H   1.0    0.13    0.99    1.43   209.66510   131.56496   303.57724
   190  H   1.0    0.13    0.99    1.43   209.71324   133.13164   309.07595
   191  H   1.0    0.12    0.99    1.43   210.19216   135.45038   306.71509
   192  H   1.0    0.12    0.99    1.43   205.78609   131.88036   306.15798
   193  H   1.0    0.11    0.99    1.43   203.05667   134.98718   308.48674
   194  H   1.0    0.11    0.99    1.43   205.14722   133.28883   310.42261
   195  H   1.0    0.11    0.99    1.43   205.81151   136.48184   309.63444
   196  H   1.0    0.10    0.99    1.43   203.97035   135.45390   303.81556
   197  H   1.0    0.12    0.99    1.43   206.50199   137.42542   304.74110
   198  H   1.0    0.11    0.99    1.43   207.01215   134.84056   302.69502
   199  N   5.0   -0.48    3.01    1.93   214.96551   131.43581   306.70293
   200  C   4.0    0.11    3.99    3.60   217.65294   131.87215   306.56759
   201  C   4.0    0.32    3.01    3.02   218.95427   130.41100   304.42614
   202  O   6.0   -0.35    1.00    1.80   220.48137   131.41351   303.02468
   203  C   4.0   -0.01    3.98    3.59   218.82765   131.07382   309.09292
   204  O   6.0   -0.44    1.99    1.82   221.45239   131.48482   309.02602
   205  H   1.0    0.30    1.00    1.43   214.28192   130.55741   308.25941
   206  H   1.0    0.16    0.99    1.43   218.03625   133.88040   306.20952
   207  H   1.0    0.12    0.99    1.43   217.93028   132.18558   310.59903
   208  H   1.0    0.14    0.99    1.43   218.39539   129.06669   309.40407
   209  H   1.0    0.27    0.99    1.43   222.15870   131.07245   310.65822
   210  N   5.0   -0.48    3.00    1.93   218.33867   127.94694   304.28911
   211  C   4.0    0.09    3.99    3.61   219.87925   126.23588   302.83199
   212  C   4.0    0.29    3.01    3.02   218.66776   124.91624   300.55801
   213  O   6.0   -0.39    1.00    1.80   220.07293   123.78809   299.07775
   214  C   4.0    0.00    3.98    3.59   220.95168   124.14037   304.55997
   215  O   6.0   -0.43    1.99    1.82   222.70919   122.57018   303.33793
   216  H   1.0    0.30    1.00    1.43   217.14000   127.23916   305.60593
   217  H   1.0    0.17    0.99    1.43   221.44442   127.37367   302.08015
   218  H   1.0    0.14    0.99    1.43   221.91091   125.03340   306.16006
   219  H   1.0    0.14    0.99    1.43   219.35471   123.01604   305.27118
   220  H   1.0    0.32    0.99    1.43   222.20800   122.46226   301.56364
   221  N   5.0   -0.45    3.00    1.93   216.16843   124.94303   300.36830
   222  C   4.0    0.02    3.99    3.60   214.86224   123.56608   298.40805
   223  C   4.0    0.08    2.99    3.02   214.66202   120.74897   299.06688
   224  O   6.0   -0.36    1.00    1.80   215.14332   119.92495   301.17377
   225  H   1.0    0.31    1.00    1.43   215.10939   125.88664   301.66043
   226  H   1.0    0.12    0.99    1.43   212.97047   124.35254   298.13600
   227  H   1.0    0.14    0.99    1.43   215.90152   123.74619   296.62842
   228  N   5.0   -0.68    3.00    1.93   214.25083   106.48552   306.62504
   229  C   4.0    0.08    3.98    3.59   212.86447   106.44231   308.98860
   230  C   4.0    0.30    3.01    3.02   210.26963   105.17778   308.62013
   231  O   6.0   -0.39    1.00    1.80   209.59260   103.35864   309.87024
   232  C   4.0   -0.11    3.98    3.59   212.68256   109.11710   310.12469
   233  C   4.0    0.28    2.99    3.02   212.01214   111.21763   308.28028
   234  O   6.0   -0.45    1.00    1.80   210.98666   110.86343   306.22257
   235  N   5.0   -0.64    3.01    1.93   212.59418   113.53554   309.06274
   236  H   1.0    0.30    1.00    1.43   213.62683   107.72135   305.30335
   237  H   1.0    0.13    0.99    1.43   213.91615   105.21816   310.28497
   238  H   1.0    0.12    0.99    1.43   211.25532   109.08464   311.61779
   239  H   1.0    0.11    0.99    1.43   214.49480   109.56850   310.99700
   240  H   1.0    0.29    1.00    1.43   212.28257   115.00769   307.88942
   241  H   1.0    0.26    1.00    1.43   213.39361   113.87199   310.75650
   242  N   5.0   -0.45    3.01    1.93   208.91770   106.24335   306.76448
   243  C   4.0    0.08    3.99    3.61   206.36162   105.46710   306.20319
   244  C   4.0    0.27    3.01    3.02   205.71690   105.84622   303.40896
   245  O   6.0   -0.36    1.00    1.80   204.80083   104.17585   302.10933
   246  C   4.0   -0.01    3.98    3.58   204.48068   107.00544   307.84273
   247  O   6.0   -0.46    1.99    1.82   205.25027   107.19415   310.37026
   248  H   1.0    0.29    1.00    1.43   209.53892   107.98046   306.15280
   249  H   1.0    0.16    0.99    1.43   206.20679   103.45133   306.65078
   250  H   1.0    0.13    0.99    1.43   204.42872   108.95053   307.15348
   251  H   1.0    0.12    0.99    1.43   202.59882   106.15350   307.67417
   252  H   1.0    0.29    0.99    1.43   205.44642   105.52935   311.08596
   253  N   5.0   -0.49    3.01    1.93   206.12049   108.20268   302.55744
   254  C   4.0    0.07    3.99    3.60   205.33945   109.02519   300.05484
   255  C   4.0    0.11    3.00    3.02   206.30451   107.27391   297.97150
   256  O   6.0   -0.35    1.00    1.80   205.04224   106.75763   296.11204
   257  C   4.0   -0.20    3.99    3.60   206.33803   111.68954   299.57640
   258  H   1.0    0.25    1.00    1.43   207.08136   109.47470   303.61288
   259  H   1.0    0.15    0.99    1.43   203.27096   108.97866   299.94375
   260  H   1.0    0.12    0.99    1.43   205.67205   112.36922   297.75763
   261  H   1.0    0.12    0.99    1.43   205.68170   112.96022   301.04728
   262  H   1.0    0.13    0.99    1.43   208.39330   111.68194   299.56535
   263  N   5.0   -0.71    3.00    1.93   194.02611   135.55574   302.96790
   264  C   4.0    0.07    3.98    3.59   195.73245   135.61194   305.09543
   265  C   4.0    0.07    3.00    3.02   195.63312   138.07915   306.61538
   266  O   6.0   -0.48    1.00    1.80   196.06776   138.03910   308.89572
   267  C   4.0   -0.14    4.02    3.66   198.44831   135.15191   304.22443
   268  C   4.0   -0.14    3.98    3.58   198.89358   132.44511   303.37156
   269  S   6.0   -0.16    2.02    3.10   198.62817   130.25424   305.99038
   270  C   4.0   -0.21    3.98    3.58   200.03547   127.47270   304.59221
   271  H   1.0    0.26    1.00    1.43   194.78811   135.81198   301.23450
   272  H   1.0    0.12    0.99    1.43   195.19447   134.09446   306.40896
   273  H   1.0    0.11    0.99    1.43   198.89023   136.40540   302.64258
   274  H   1.0    0.11    0.99    1.43   199.73387   135.58256   305.78110
   275  H   1.0    0.11    0.99    1.43   197.55056   131.88653   301.90481
   276  H   1.0    0.10    0.99    1.43   200.78764   132.24973   302.57646
   277  H   1.0    0.11    0.99    1.43   199.78730   125.94027   305.92772
   278  H   1.0    0.11    0.99    1.43   199.08282   127.05772   302.81886
   279  H   1.0    0.10    0.99    1.43   202.03094   127.82140   304.23328
   280  N   5.0   -0.68    3.00    1.93   189.93662   136.73300   310.30381
   281  C   4.0    0.07    3.98    3.59   190.58208   134.82252   312.17030
   282  C   4.0    0.29    3.01    3.02   191.86204   136.01583   314.47099
   283  O   6.0   -0.46    1.00    1.80   191.17258   135.52414   316.62829
   284  C   4.0   -0.21    3.98    3.59   192.30508   132.82909   311.00535
   285  H   1.0    0.27    1.00    1.43   190.32763   136.31419   308.46338
   286  H   1.0    0.12    0.99    1.43   188.83950   133.94460   312.88180
   287  H   1.0    0.10    0.99    1.43   192.56555   131.27643   312.32084
   288  H   1.0    0.11    0.99    1.43   191.47230   132.11442   309.27063
   289  H   1.0    0.12    0.99    1.43   194.14737   133.63577   310.58852
   290  N   5.0   -0.48    3.01    1.93   193.81613   137.52073   313.95208
   291  C   4.0    0.06    3.99    3.61   195.23585   138.70445   315.96717
   292  C   4.0    0.10    3.00    3.02   193.47510   140.13156   317.75584
   293  O   6.0   -0.38    1.00    1.80   193.58901   139.80629   320.04905
   294  C   4.0   -0.13    3.99    3.60   197.22425   140.50031   314.88593
   295  C   4.0   -0.12    3.99    3.60   199.52856   139.04232   313.91028
   296  C   4.0    0.27    3.00    3.02   201.38593   140.88012   312.72748
   297  O   6.0   -0.39    1.00    1.80   203.07203   141.92277   313.90341
   298  N   5.0   -0.65    3.01    1.93   200.96201   141.29887   310.25997
   299  H   1.0    0.29    1.00    1.43   194.37638   137.86625   312.14916
   300  H   1.0    0.13    0.99    1.43   196.14760   137.23825   317.12172
   301  H   1.0    0.14    0.99    1.43   196.35879   141.59094   313.36374
   302  H   1.0    0.13    0.99    1.43   197.82903   141.81662   316.35257
   303  H   1.0    0.10    0.99    1.43   200.46315   138.09106   315.47873
   304  H   1.0    0.12    0.99    1.43   198.93814   137.65468   312.51140
   305  H   1.0    0.29    1.00    1.43   199.54126   140.38571   309.38097
   306  H   1.0    0.29    1.00    1.43   202.07352   142.51361   309.30674
   307  N   5.0   -0.69    3.00    1.93   188.78995   135.85810   321.57082
   308  C   4.0    0.09    3.98    3.59   189.92640   134.45595   323.62498
   309  C   4.0    0.10    3.00    3.02   190.95429   136.18248   325.70827
   310  O   6.0   -0.36    1.00    1.80   190.99908   135.48101   327.91840
   311  C   4.0   -0.13    3.98    3.59   192.02710   132.74888   322.61522
   312  C   4.0   -0.12    3.98    3.59   190.99427   130.46130   321.16690
   313  C   4.0    0.27    3.00    3.02   189.94370   128.44266   322.93479
   314  O   6.0   -0.38    1.00    1.80   188.52348   128.93924   324.68915
   315  N   5.0   -0.64    3.00    1.93   190.67483   126.07539   322.40266
   316  H   1.0    0.33    1.00    1.43   189.72258   135.87652   319.89224
   317  H   1.0    0.16    0.99    1.43   188.48114   133.26663   324.52246
   318  H   1.0    0.12    0.99    1.43   193.22813   133.86503   321.36527
   319  H   1.0    0.12    0.99    1.43   193.15040   132.09686   324.21556
   320  H   1.0    0.13    0.99    1.43   189.47180   131.08453   319.92471
   321  H   1.0    0.10    0.99    1.43   192.48822   129.66121   320.00064
   322  H   1.0    0.27    1.00    1.43   191.88655   125.67556   320.99603
   323  H   1.0    0.32    1.00    1.43   190.11384   124.60329   323.48556
   324  H   1.0    0.29    1.00    1.43   195.85850   116.95716   335.02221
   325  H   1.0    0.13    1.00    1.43   214.12036   119.50677   297.74984
   326  H   1.0    0.31    1.00    1.43   215.87284   106.89931   306.92574
   327  H   1.0    0.16    1.00    1.43   208.02631   106.50658   298.10445
   328  H   1.0    0.30    1.00    1.43   193.24775   134.04489   302.90416
   329  H   1.0    0.14    1.00    1.43   195.21661   139.70631   305.74939
   330  H   1.0    0.31    1.00    1.43   188.26489   137.04058   310.36097
   331  H   1.0    0.15    1.00    1.43   192.20823   141.34995   317.06183
   332  H   1.0    0.31    1.00    1.43   187.25369   135.21499   321.22603
   333  H   1.0    0.17    1.00    1.43   191.59976   137.90491   325.27507

           ------------------------------------------------- 
          |        Self-Consistent Charge Iterations        |
           ------------------------------------------------- 

          ...................................................
          :                      SETUP                      :
          :.................................................:
          :  # basis functions                 822          :
          :  # atomic orbitals                 821          :
          :  # shells                          495          :
          :  # electrons                       918          :
          :  max. iterations                   250          :
          :  Hamiltonian                  GFN2-xTB          :
          :  restarted?                      false          :
          :  GBSA solvation                   true          :
          :  PC potential                    false          :
          :  electronic temp.          500.0000000     K    :
          :  accuracy                    0.1000000          :
          :  -> integral cutoff          0.3500000E+02      :
          :  -> integral neglect         0.1000000E-08      :
          :  -> SCF convergence          0.1000000E-06 Eh   :
          :  -> wf. convergence          0.1000000E-04 e    :
          :  Broyden damping             0.4000000          :
          ...................................................

 iter      E             dE          RMSdq      gap      omega  full diag
   1   -529.7261801 -0.529726E+03  0.440E+00    1.65       0.0  T
   2   -531.1926301 -0.146645E+01  0.227E+00    1.59       1.0  T
   3   -531.2432792 -0.506491E-01  0.118E+00    1.90       1.0  T
   4   -531.2574758 -0.141966E-01  0.267E-01    1.37       1.0  T
   5   -531.2680859 -0.106101E-01  0.122E-01    1.53       1.0  T
   6   -531.2687118 -0.625842E-03  0.500E-02    1.52       1.0  T
   7   -531.2687657 -0.538844E-04  0.193E-02    1.53       1.0  T
   8   -531.2687863 -0.206811E-04  0.865E-03    1.52       1.0  T
   9   -531.2687901 -0.378011E-05  0.384E-03    1.52       1.4  T
  10   -531.2687907 -0.616017E-06  0.178E-03    1.52       3.1  T
  11   -531.2687909 -0.158492E-06  0.793E-04    1.52       6.9  T
  12   -531.2687909 -0.295069E-07  0.373E-04    1.52      14.7  T
  13   -531.2687909 -0.525790E-08  0.165E-04    1.52      33.2  T
  14   -531.2687909 -0.111561E-08  0.671E-05    1.52      81.7  T
  15   -531.2687909 -0.188038E-09  0.279E-05    1.52     196.3  T

   *** convergence criteria satisfied after 15 iterations ***

         #    Occupation            Energy/Eh            Energy/eV
      -------------------------------------------------------------
         1        2.0000           -0.7401122             -20.1395
       ...           ...                  ...                  ...
       453        2.0000           -0.3781522             -10.2900
       454        2.0000           -0.3734489             -10.1621
       455        2.0000           -0.3694033             -10.0520
       456        2.0000           -0.3645273              -9.9193
       457        2.0000           -0.3583093              -9.7501
       458        2.0000           -0.3514257              -9.5628
       459        2.0000           -0.3513558              -9.5609 (HOMO)
       460                         -0.2954963              -8.0409 (LUMO)
       461                         -0.2862718              -7.7899
       462                         -0.2822713              -7.6810
       463                         -0.2822556              -7.6806
       464                         -0.2750856              -7.4855
       ...                                ...                  ...
       821                          0.6315644              17.1857
      -------------------------------------------------------------
                  HL-Gap            0.0558596 Eh            1.5200 eV
             Fermi-level           -0.3228922 Eh           -8.7863 eV

 SCC (total)                   0 d,  0 h,  0 min,  3.997 sec
 SCC setup                      ...        0 min,  0.053 sec (  1.323%)
 Dispersion                     ...        0 min,  0.045 sec (  1.114%)
 integral evaluation            ...        0 min,  0.142 sec (  3.545%)
 zeroth order Hamiltonian       ...        0 min,  0.003 sec (  0.064%)
 iterations                     ...        0 min,  3.123 sec ( 78.128%)
 molecular gradient             ...        0 min,  0.611 sec ( 15.291%)
 printout                       ...        0 min,  0.021 sec (  0.533%)

         :::::::::::::::::::::::::::::::::::::::::::::::::::::
         ::                     SUMMARY                     ::
         :::::::::::::::::::::::::::::::::::::::::::::::::::::
         :: total energy             -525.258839106554 Eh   ::
         :: total w/o Gsasa/hb       -525.181941442915 Eh   ::
         :: gradient norm               0.498939371581 Eh/α ::
         :: HOMO-LUMO gap               1.520015832413 eV   ::
         ::.................................................::
         :: SCC energy               -531.281861689236 Eh   ::
         :: -> isotropic ES             1.852542969169 Eh   ::
         :: -> anisotropic ES          -0.086454139124 Eh   ::
         :: -> anisotropic XC           0.150119020411 Eh   ::
         :: -> dispersion              -0.426361301926 Eh   ::
         :: -> Gsolv                   -0.518384742394 Eh   ::
         ::    -> Gborn                -0.441487078756 Eh   ::
         ::    -> Gsasa                -0.014928202888 Eh   ::
         ::    -> Ghb                  -0.063826903878 Eh   ::
         ::    -> Gshift                0.001857443127 Eh   ::
         :: repulsion energy            5.989295548187 Eh   ::
         :: add. restraining            0.000000000000 Eh   ::
         :::::::::::::::::::::::::::::::::::::::::::::::::::::

           -------------------------------------------------
          |                Property Printout                |
           -------------------------------------------------

    * Orbital Energies and Occupations

         #    Occupation            Energy/Eh            Energy/eV
      -------------------------------------------------------------
         1        2.0000           -0.7401122             -20.1395
       ...           ...                  ...                  ...
       447        2.0000           -0.3953886             -10.7591
       448        2.0000           -0.3948581             -10.7446
       449        2.0000           -0.3947548             -10.7418
       450        2.0000           -0.3936786             -10.7125
       451        2.0000           -0.3922574             -10.6739
       452        2.0000           -0.3849343             -10.4746
       453        2.0000           -0.3781522             -10.2900
       454        2.0000           -0.3734489             -10.1621
       455        2.0000           -0.3694033             -10.0520
       456        2.0000           -0.3645273              -9.9193
       457        2.0000           -0.3583093              -9.7501
       458        2.0000           -0.3514257              -9.5628
       459        2.0000           -0.3513558              -9.5609 (HOMO)
       460                         -0.2954963              -8.0409 (LUMO)
       461                         -0.2862718              -7.7899
       462                         -0.2822713              -7.6810
       463                         -0.2822556              -7.6806
       464                         -0.2750856              -7.4855
       465                         -0.2590163              -7.0482
       466                         -0.2504215              -6.8143
       467                         -0.2450791              -6.6689
       468                         -0.2422334              -6.5915
       469                         -0.2398829              -6.5275
       470                         -0.2380578              -6.4779
       ...                                ...                  ...
       821                          0.6315644              17.1857
      -------------------------------------------------------------
                  HL-Gap            0.0558596 Eh            1.5200 eV
             Fermi-level           -0.3228922 Eh           -8.7863 eV

   #   Z        covCN         q      C6AA      α(0)
   1   7 N      2.636    -0.400    30.362     8.184
   2   6 C      3.784     0.009    20.444     6.441
   3   6 C      2.756     0.258    22.655     7.794
   4   8 O      0.859    -0.481    23.367     6.481
   5   6 C      3.803    -0.085    22.124     6.696
   6   6 C      3.800    -0.082    22.072     6.689
   7   6 C      3.801    -0.094    22.300     6.723
   8   6 C      3.729    -0.051    21.585     6.632
   9   7 N      3.482    -0.136    23.946     7.268
  10   1 H      0.860     0.163     1.316     1.797
  11   1 H      0.924     0.067     2.124     2.279
  12   1 H      0.924     0.070     2.081     2.256
  13   1 H      0.925     0.047     2.357     2.401
  14   1 H      0.925     0.057     2.236     2.339
  15   1 H      0.925     0.060     2.196     2.317
  16   1 H      0.925     0.083     1.946     2.182
  17   1 H      0.925     0.078     1.998     2.210
  18   1 H      0.925     0.117     1.637     2.001
  19   1 H      0.924     0.119     1.625     1.993
  20   1 H      0.859     0.296     0.725     1.334
  21   1 H      0.859     0.296     0.725     1.334
  22   1 H      0.859     0.278     0.782     1.385
  23   7 N      2.688    -0.171    24.699     7.381
  24   6 C      3.797     0.005    20.499     6.447
  25   6 C      2.756     0.273    22.386     7.748
  26   8 O      0.859    -0.457    22.859     6.410
  27   6 C      3.678     0.067    19.668     6.353
  28   8 O      1.655    -0.479    22.447     6.396
  29   1 H      0.860     0.221     1.004     1.570
  30   1 H      0.924     0.106     1.734     2.059
  31   1 H      0.924     0.062     2.171     2.304
  32   1 H      0.924     0.049     2.335     2.390
  33   1 H      0.805     0.350     0.589     1.205
  34   7 N      2.690    -0.180    24.905     7.412
  35   6 C      3.797     0.011    20.395     6.430
  36   6 C      2.755     0.273    22.383     7.747
  37   8 O      0.859    -0.477    23.287     6.470
  38   6 C      3.803    -0.089    22.194     6.707
  39   6 C      3.805    -0.097    22.338     6.728
  40   6 C      2.742     0.292    22.052     7.689
  41   8 O      0.860    -0.531    24.478     6.633
  42   7 N      2.637    -0.282    27.292     7.759
  43   1 H      0.860     0.226     0.981     1.552
  44   1 H      0.923     0.086     1.923     2.169
  45   1 H      0.924     0.087     1.912     2.162
  46   1 H      0.924     0.083     1.951     2.185
  47   1 H      0.924     0.070     2.083     2.257
  48   1 H      0.924     0.075     2.027     2.226
  49   1 H      0.860     0.238     0.932     1.512
  50   1 H      0.860     0.227     0.977     1.549
  51   7 N      2.691    -0.177    24.842     7.402
  52   6 C      3.793     0.002    20.554     6.456
  53   6 C      2.754     0.270    22.444     7.758
  54   8 O      0.858    -0.513    24.077     6.579
  55   6 C      3.678     0.047    20.005     6.407
  56   8 O      1.655    -0.454    21.932     6.322
  57   1 H      0.860     0.224     0.992     1.560
  58   1 H      0.923     0.076     2.023     2.225
  59   1 H      0.924     0.087     1.910     2.161
  60   1 H      0.923     0.081     1.968     2.194
  61   1 H      0.805     0.322     0.660     1.276
  62   7 N      2.689    -0.177    24.832     7.401
  63   6 C      3.793     0.019    20.261     6.410
  64   6 C      2.761     0.268    22.484     7.765
  65   8 O      0.859    -0.486    23.480     6.497
  66   6 C      3.756    -0.146    23.377     6.894
  67   1 H      0.860     0.240     0.924     1.506
  68   1 H      0.923     0.077     2.005     2.215
  69   1 H      0.925     0.079     1.990     2.206
  70   1 H      0.925     0.084     1.938     2.177
  71   1 H      0.925     0.085     1.927     2.171
  72   7 N      2.692    -0.182    24.951     7.419
  73   6 C      3.801     0.020    20.242     6.406
  74   6 C      2.759     0.290    22.089     7.696
  75   8 O      0.858    -0.490    23.563     6.508
  76   6 C      3.805    -0.092    22.241     6.714
  77   6 C      3.848    -0.016    20.818     6.490
  78   6 C      3.755    -0.113    22.713     6.796
  79   6 C      3.755    -0.116    22.770     6.804
  80   1 H      0.860     0.230     0.964     1.538
  81   1 H      0.924     0.084     1.935     2.176
  82   1 H      0.924     0.060     2.195     2.317
  83   1 H      0.925     0.076     2.025     2.225
  84   1 H      0.924     0.042     2.427     2.437
  85   1 H      0.925     0.037     2.487     2.466
  86   1 H      0.925     0.035     2.511     2.478
  87   1 H      0.925     0.030     2.593     2.518
  88   1 H      0.925     0.035     2.520     2.482
  89   1 H      0.925     0.049     2.335     2.389
  90   1 H      0.925     0.046     2.369     2.407
  91   7 N      2.687    -0.180    24.894     7.410
  92   6 C      3.747    -0.014    20.884     6.518
  93   6 C      2.758     0.300    21.911     7.665
  94   8 O      0.858    -0.497    23.708     6.528
  95   1 H      0.860     0.226     0.980     1.551
  96   1 H      0.924     0.056     2.243     2.342
  97   1 H      0.925     0.077     2.011     2.218
  98   7 N      2.689    -0.196    25.253     7.463
  99   6 C      3.800     0.030    20.074     6.379
 100   6 C      2.755     0.275    22.348     7.741
 101   8 O      0.859    -0.505    23.885     6.552
 102   6 C      3.724     0.117    18.775     6.187
 103   8 O      1.656    -0.496    22.815     6.448
 104   6 C      3.752    -0.164    23.750     6.950
 105   1 H      0.860     0.226     0.984     1.554
 106   1 H      0.923     0.064     2.155     2.296
 107   1 H      0.923     0.023     2.689     2.565
 108   1 H      0.805     0.358     0.570     1.186
 109   1 H      0.925     0.079     1.984     2.203
 110   1 H      0.925     0.084     1.941     2.179
 111   1 H      0.925     0.067     2.120     2.277
 112   7 N      2.690    -0.174    24.764     7.391
 113   6 C      3.796     0.023    20.195     6.399
 114   6 C      2.758     0.268    22.469     7.762
 115   8 O      0.859    -0.488    23.520     6.502
 116   6 C      3.757    -0.140    23.254     6.875
 117   1 H      0.860     0.233     0.952     1.528
 118   1 H      0.924     0.087     1.913     2.163
 119   1 H      0.925     0.081     1.968     2.194
 120   1 H      0.925     0.092     1.858     2.131
 121   1 H      0.925     0.068     2.104     2.268
 122   7 N      2.689    -0.176    24.809     7.398
 123   6 C      3.802     0.030    20.062     6.377
 124   6 C      2.763     0.281    22.251     7.725
 125   8 O      0.859    -0.506    23.921     6.557
 126   6 C      3.852    -0.015    20.805     6.488
 127   6 C      3.802    -0.062    21.681     6.629
 128   6 C      3.755    -0.108    22.617     6.781
 129   6 C      3.751    -0.111    22.684     6.792
 130   1 H      0.860     0.229     0.968     1.541
 131   1 H      0.924     0.072     2.065     2.247
 132   1 H      0.924     0.035     2.523     2.484
 133   1 H      0.925     0.052     2.296     2.370
 134   1 H      0.924     0.034     2.527     2.486
 135   1 H      0.925     0.049     2.337     2.391
 136   1 H      0.925     0.017     2.774     2.605
 137   1 H      0.925     0.051     2.308     2.376
 138   1 H      0.925     0.049     2.333     2.389
 139   1 H      0.925     0.040     2.450     2.448
 140   1 H      0.925     0.046     2.369     2.407
 141   7 N      2.690    -0.191    25.147     7.448
 142   6 C      3.803     0.045    19.813     6.337
 143   6 C      2.762     0.276    22.337     7.740
 144   8 O      0.858    -0.515    24.123     6.585
 145   6 C      3.804    -0.062    21.684     6.629
 146   6 C      3.797    -0.095    22.312     6.726
 147   6 C      2.682     0.372    20.692     7.444
 148   8 O      0.856    -0.641    27.147     6.986
 149   8 O      0.856    -0.651    27.409     7.019
 150   1 H      0.860     0.214     1.037     1.595
 151   1 H      0.923     0.033     2.540     2.492
 152   1 H      0.924     0.069     2.097     2.265
 153   1 H      0.924     0.049     2.330     2.387
 154   1 H      0.924     0.032     2.556     2.500
 155   1 H      0.924     0.008     2.928     2.676
 156   7 N      2.690    -0.181    24.912     7.413
 157   6 C      3.798     0.019    20.257     6.408
 158   6 C      2.769     0.273    22.385     7.749
 159   8 O      0.859    -0.501    23.804     6.541
 160   6 C      3.811    -0.092    22.236     6.712
 161   6 C      3.800    -0.092    22.247     6.716
 162   6 C      3.740    -0.033    21.240     6.576
 163   7 N      2.699    -0.136    23.937     7.266
 164   6 C      2.736     0.227    23.224     7.890
 165   7 N      2.651    -0.230    26.042     7.579
 166   7 N      2.653    -0.247    26.445     7.637
 167   1 H      0.860     0.233     0.952     1.529
 168   1 H      0.923     0.078     2.000     2.212
 169   1 H      0.924     0.082     1.963     2.191
 170   1 H      0.924     0.072     2.059     2.244
 171   1 H      0.925     0.082     1.960     2.189
 172   1 H      0.924     0.069     2.093     2.263
 173   1 H      0.924     0.083     1.951     2.184
 174   1 H      0.925     0.099     1.795     2.095
 175   1 H      0.860     0.245     0.901     1.487
 176   1 H      0.860     0.227     0.978     1.549
 177   1 H      0.860     0.251     0.880     1.470
 178   1 H      0.860     0.251     0.880     1.470
 179   1 H      0.860     0.246     0.899     1.485
 180   7 N      2.690    -0.191    25.142     7.447
 181   6 C      3.807     0.028    20.105     6.383
 182   6 C      2.755     0.287    22.139     7.705
 183   8 O      0.858    -0.499    23.769     6.537
 184   6 C      3.807    -0.075    21.921     6.665
 185   6 C      3.849    -0.011    20.736     6.477
 186   6 C      3.755    -0.111    22.675     6.790
 187   6 C      3.755    -0.117    22.800     6.808
 188   1 H      0.860     0.242     0.916     1.499
 189   1 H      0.923     0.072     2.065     2.247
 190   1 H      0.925     0.055     2.259     2.350
 191   1 H      0.924     0.047     2.361     2.403
 192   1 H      0.924     0.048     2.340     2.392
 193   1 H      0.925     0.056     2.248     2.345
 194   1 H      0.925     0.038     2.482     2.464
 195   1 H      0.925     0.036     2.506     2.476
 196   1 H      0.925     0.053     2.280     2.361
 197   1 H      0.925     0.041     2.440     2.443
 198   1 H      0.924     0.033     2.546     2.495
 199   7 N      2.692    -0.193    25.194     7.455
 200   6 C      3.794     0.025    20.155     6.393
 201   6 C      2.759     0.289    22.103     7.699
 202   8 O      0.858    -0.478    23.294     6.471
 203   6 C      3.681     0.078    19.474     6.320
 204   8 O      1.656    -0.486    22.590     6.416
 205   1 H      0.860     0.216     1.029     1.589
 206   1 H      0.923     0.072     2.067     2.248
 207   1 H      0.923     0.038     2.476     2.461
 208   1 H      0.923     0.041     2.441     2.444
 209   1 H      0.805     0.355     0.577     1.193
 210   7 N      2.687    -0.189    25.096     7.440
 211   6 C      3.796     0.007    20.460     6.441
 212   6 C      2.759     0.270    22.446     7.759
 213   8 O      0.859    -0.508    23.970     6.564
 214   6 C      3.680     0.082    19.419     6.312
 215   8 O      1.654    -0.479    22.447     6.396
 216   1 H      0.860     0.216     1.029     1.589
 217   1 H      0.923     0.085     1.924     2.169
 218   1 H      0.924     0.049     2.337     2.391
 219   1 H      0.923     0.036     2.506     2.476
 220   1 H      0.803     0.340     0.612     1.229
 221   7 N      2.685    -0.155    24.348     7.328
 222   6 C      3.743    -0.033    21.233     6.574
 223   6 C      2.762     0.200    23.735     7.978
 224   8 O      0.856    -0.364    20.973     6.140
 225   1 H      0.860     0.233     0.951     1.528
 226   1 H      0.924     0.130     1.537     1.939
 227   1 H      0.924     0.112     1.677     2.025
 228   7 N      2.635    -0.404    30.494     8.201
 229   6 C      3.786     0.030    20.086     6.384
 230   6 C      2.753     0.278    22.290     7.731
 231   8 O      0.858    -0.510    23.997     6.568
 232   6 C      3.807    -0.118    22.746     6.789
 233   6 C      2.742     0.287    22.142     7.704
 234   8 O      0.860    -0.480    23.350     6.479
 235   7 N      2.640    -0.268    26.950     7.710
 236   1 H      0.860     0.171     1.268     1.764
 237   1 H      0.924     0.051     2.302     2.373
 238   1 H      0.924     0.087     1.909     2.161
 239   1 H      0.924     0.070     2.091     2.261
 240   1 H      0.860     0.243     0.912     1.496
 241   1 H      0.860     0.227     0.977     1.548
 242   7 N      2.690    -0.200    25.339     7.476
 243   6 C      3.794     0.002    20.545     6.455
 244   6 C      2.754     0.269    22.465     7.761
 245   8 O      0.858    -0.486    23.482     6.497
 246   6 C      3.677     0.061    19.776     6.371
 247   8 O      1.656    -0.453    21.899     6.317
 248   1 H      0.859     0.241     0.920     1.503
 249   1 H      0.924     0.072     2.067     2.248
 250   1 H      0.924     0.078     1.996     2.209
 251   1 H      0.924     0.048     2.342     2.393
 252   1 H      0.805     0.324     0.653     1.270
 253   7 N      2.690    -0.173    24.740     7.387
 254   6 C      3.789     0.023    20.194     6.400
 255   6 C      2.766     0.213    23.496     7.938
 256   8 O      0.856    -0.377    21.229     6.177
 257   6 C      3.758    -0.144    23.331     6.886
 258   1 H      0.860     0.231     0.960     1.535
 259   1 H      0.924     0.100     1.789     2.092
 260   1 H      0.925     0.083     1.944     2.181
 261   1 H      0.925     0.100     1.783     2.088
 262   1 H      0.925     0.076     2.020     2.223
 263   7 N      2.635    -0.388    30.033     8.139
 264   6 C      3.783     0.035    19.997     6.370
 265   6 C      2.765     0.191    23.910     8.008
 266   8 O      0.856    -0.368    21.055     6.152
 267   6 C      3.842    -0.061    21.640     6.617
 268   6 C      3.796    -0.008    20.722     6.482
 269  16 S      1.977    -0.225   150.668    20.659
 270   6 C      3.745    -0.067    21.864     6.670
 271   1 H      0.860     0.164     1.311     1.794
 272   1 H      0.923     0.079     1.993     2.208
 273   1 H      0.924     0.052     2.298     2.370
 274   1 H      0.924     0.049     2.336     2.390
 275   1 H      0.924     0.048     2.349     2.397
 276   1 H      0.924     0.047     2.363     2.404
 277   1 H      0.926     0.083     1.950     2.184
 278   1 H      0.925     0.065     2.144     2.290
 279   1 H      0.925     0.051     2.301     2.372
 280   7 N      2.635    -0.396    30.276     8.172
 281   6 C      3.785     0.035    20.008     6.371
 282   6 C      2.760     0.267    22.495     7.767
 283   8 O      0.858    -0.501    23.799     6.541
 284   6 C      3.757    -0.128    23.011     6.839
 285   1 H      0.860     0.163     1.316     1.797
 286   1 H      0.923     0.030     2.584     2.514
 287   1 H      0.925     0.057     2.229     2.335
 288   1 H      0.925     0.063     2.163     2.300
 289   1 H      0.925     0.062     2.170     2.304
 290   7 N      2.690    -0.166    24.587     7.364
 291   6 C      3.797     0.028    20.110     6.385
 292   6 C      2.766     0.205    23.636     7.962
 293   8 O      0.856    -0.364    20.981     6.141
 294   6 C      3.809    -0.067    21.780     6.643
 295   6 C      3.809    -0.106    22.507     6.753
 296   6 C      2.746     0.293    22.036     7.686
 297   8 O      0.858    -0.508    23.961     6.563
 298   7 N      2.640    -0.284    27.331     7.764
 299   1 H      0.860     0.239     0.927     1.508
 300   1 H      0.923     0.082     1.957     2.188
 301   1 H      0.924     0.077     2.012     2.218
 302   1 H      0.924     0.059     2.212     2.326
 303   1 H      0.925     0.070     2.090     2.261
 304   1 H      0.925     0.088     1.897     2.154
 305   1 H      0.860     0.222     0.999     1.566
 306   1 H      0.860     0.224     0.990     1.558
 307   7 N      2.635    -0.407    30.555     8.210
 308   6 C      3.783     0.040    19.920     6.358
 309   6 C      2.765     0.201    23.731     7.978
 310   8 O      0.856    -0.393    21.547     6.223
 311   6 C      3.807    -0.050    21.472     6.596
 312   6 C      3.805    -0.096    22.327     6.727
 313   6 C      2.743     0.288    22.123     7.701
 314   8 O      0.859    -0.505    23.897     6.554
 315   7 N      2.638    -0.276    27.125     7.735
 316   1 H      0.860     0.183     1.195     1.713
 317   1 H      0.923     0.072     2.066     2.248
 318   1 H      0.924     0.060     2.197     2.318
 319   1 H      0.924     0.035     2.515     2.480
 320   1 H      0.924     0.075     2.030     2.228
 321   1 H      0.925     0.062     2.173     2.305
 322   1 H      0.860     0.219     1.013     1.577
 323   1 H      0.860     0.227     0.978     1.549
 324   1 H      0.862     0.191     1.151     1.680
 325   1 H      0.930     0.099     1.797     2.096
 326   1 H      0.862     0.182     1.203     1.718
 327   1 H      0.930     0.067     2.120     2.277
 328   1 H      0.862     0.187     1.173     1.696
 329   1 H      0.930     0.084     1.940     2.178
 330   1 H      0.862     0.177     1.229     1.737
 331   1 H      0.930     0.074     2.042     2.234
 332   1 H      0.862     0.176     1.238     1.743
 333   1 H      0.930     0.068     2.105     2.269

 Mol. C6AA /au·bohr⁶  :    1003865.219438
 Mol. C8AA /au·bohr⁸  :   22280275.948306
 Mol. α(0) /au        :       1491.077426


Wiberg/Mayer (AO) data.
largest (>0.10) Wiberg bond orders for each atom
          total WBO             WBO to atom ...
     1  N   2.992        C    2 1.016    H   10 0.955    H  324 0.951
     2  C   3.982        N    1 1.016    C    5 0.973    H   11 0.953    C    3 0.941
     3  C   3.936        O    4 1.616    N   23 1.296    C    2 0.941
     4  O   1.979        C    3 1.616    N   23 0.188
     5  C   3.989        C    6 1.002    H   13 0.978    C    2 0.973    H   12 0.966
     6  C   3.992        C    7 1.009    C    5 1.002    H   14 0.976    H   15 0.971
     7  C   3.985        C    8 1.012    C    6 1.009    H   17 0.968    H   16 0.965
     8  C   3.909        C    7 1.012    H   19 0.965    H   18 0.961    N    9 0.949
     9  N   3.669        C    8 0.949    H   22 0.901    H   20 0.898    H   21 0.896
    10  H   0.973        N    1 0.955
    11  H   0.995        C    2 0.953
    12  H   0.995        C    5 0.966
    13  H   0.998        C    5 0.978
    14  H   0.997        C    6 0.976
    15  H   0.996        C    6 0.971
    16  H   0.993        C    7 0.965
    17  H   0.994        C    7 0.968
    18  H   0.986        C    8 0.961
    19  H   0.986        C    8 0.965
    20  H   0.912        N    9 0.898
    21  H   0.912        N    9 0.896
    22  H   0.923        N    9 0.901
    23  N   3.468        C    3 1.296    C   24 0.989    H   29 0.917    O    4 0.188
    24  C   3.966        N   23 0.989    C   27 0.975    H   30 0.944    C   25 0.930
    25  C   3.947        O   26 1.640    N   34 1.291    C   24 0.930
    26  O   2.006        C   25 1.640    N   34 0.192
    27  C   3.955        O   28 1.002    C   24 0.975    H   31 0.968    H   32 0.965
    28  O   1.936        C   27 1.002    H   33 0.865
    29  H   0.951        N   23 0.917
    30  H   0.988        C   24 0.944
    31  H   0.996        C   27 0.968
    32  H   0.998        C   27 0.965
    33  H   0.877        O   28 0.865
    34  N   3.455        C   25 1.291    C   35 0.982    H   43 0.911    O   26 0.192
    35  C   3.966        N   34 0.982    C   38 0.980    H   44 0.947    C   36 0.933
    36  C   3.945        O   37 1.632    N   51 1.296    C   35 0.933
    37  O   1.995        C   36 1.632    N   51 0.192
    38  C   3.986        C   39 1.009    C   35 0.980    H   46 0.970    H   45 0.963
    39  C   3.991        C   38 1.009    C   40 0.972    H   47 0.961    H   48 0.949
    40  C   3.942        O   41 1.626    N   42 1.314    C   39 0.972
    41  O   1.924        C   40 1.626    N   42 0.195
    42  N   3.394        C   40 1.314    H   50 0.927    H   49 0.919    O   41 0.195
    43  H   0.949        N   34 0.911
    44  H   0.992        C   35 0.947
    45  H   0.992        C   38 0.963
    46  H   0.993        C   38 0.970
    47  H   0.995        C   39 0.961
    48  H   0.994        C   39 0.949
    49  H   0.943        N   42 0.919
    50  H   0.948        N   42 0.927
    51  N   3.458        C   36 1.296    C   52 0.983    H   57 0.911    O   37 0.192
    52  C   3.961        N   51 0.983    C   55 0.965    H   58 0.949    C   53 0.934
    53  C   3.950        O   54 1.593    N   62 1.339    C   52 0.934
    54  O   1.953        C   53 1.593    N   62 0.200
    55  C   3.946        O   56 1.012    C   52 0.965    H   59 0.961    H   60 0.950
    56  O   1.952        C   55 1.012    H   61 0.879
    57  H   0.950        N   51 0.911
    58  H   0.994        C   52 0.949
    59  H   0.992        C   55 0.961
    60  H   0.993        C   55 0.950
    61  H   0.897        O   56 0.879
    62  N   3.487        C   53 1.339    C   63 0.976    H   67 0.875    O   54 0.200
    63  C   3.961        C   66 0.993    N   62 0.976    H   68 0.947    C   64 0.935
    64  C   3.944        O   65 1.605    N   72 1.320    C   63 0.935
    65  O   1.978        C   64 1.605    N   72 0.194
    66  C   3.976        C   63 0.993    H   69 0.979    H   70 0.978    H   71 0.971
    67  H   0.942        N   62 0.875
    68  H   0.994        C   63 0.947
    69  H   0.993        C   66 0.979
    70  H   0.993        C   66 0.978
    71  H   0.993        C   66 0.971
    72  N   3.471        C   64 1.320    C   73 0.975    H   80 0.887    O   65 0.194
    73  C   3.965        C   76 0.983    N   72 0.975    H   81 0.950    C   74 0.936
    74  C   3.938        O   75 1.609    N   91 1.298    C   73 0.936
    75  O   1.971        C   74 1.609    N   91 0.187
    76  C   3.985        C   77 0.993    C   73 0.983    H   82 0.967    H   83 0.956
    77  C   3.994        C   79 1.010    C   78 1.009    C   76 0.993    H   84 0.963
    78  C   3.995        C   77 1.009    H   85 0.986    H   86 0.986    H   87 0.979
    79  C   3.994        C   77 1.010    H   90 0.984    H   88 0.983    H   89 0.982
    80  H   0.947        N   72 0.887
    81  H   0.992        C   73 0.950
    82  H   0.996        C   76 0.967
    83  H   0.994        C   76 0.956
    84  H   0.998        C   77 0.963
    85  H   0.998        C   78 0.986
    86  H   0.999        C   78 0.986
    87  H   0.999        C   78 0.979
    88  H   0.999        C   79 0.983
    89  H   0.998        C   79 0.982
    90  H   0.998        C   79 0.984
    91  N   3.458        C   74 1.298    C   92 0.997    H   95 0.896    O   75 0.187
    92  C   3.973        N   91 0.997    H   96 0.963    H   97 0.959    C   93 0.948
    93  C   3.943        O   94 1.616    N   98 1.302    C   92 0.948
    94  O   1.975        C   93 1.616    N   98 0.186
    95  H   0.948        N   91 0.896
    96  H   0.996        C   92 0.963
    97  H   0.994        C   92 0.959
    98  N   3.445        C   93 1.302    C   99 0.976    H  105 0.888    O   94 0.186
    99  C   3.957        N   98 0.976    C  102 0.957    C  100 0.945    H  106 0.937
   100  C   3.952        O  101 1.579    N  112 1.337    C   99 0.945
   101  O   1.935        C  100 1.579    N  112 0.191
   102  C   3.951        C  104 0.999    O  103 0.992    C   99 0.957    H  107 0.956
   103  O   1.919        C  102 0.992    H  108 0.857
   104  C   3.981        C  102 0.999    H  109 0.981    H  111 0.977    H  110 0.962
   105  H   0.949        N   98 0.888
   106  H   0.996        C   99 0.937
   107  H   0.999        C  102 0.956
   108  H   0.871        O  103 0.857
   109  H   0.994        C  104 0.981
   110  H   0.993        C  104 0.962
   111  H   0.995        C  104 0.977
   112  N   3.489        C  100 1.337    C  113 0.978    H  117 0.881    O  101 0.191
   113  C   3.960        C  116 0.991    N  112 0.978    H  118 0.944    C  114 0.936
   114  C   3.941        O  115 1.580    N  122 1.332    C  113 0.936
   115  O   1.966        C  114 1.580    N  122 0.190
   116  C   3.976        C  113 0.991    H  119 0.978    H  120 0.976    H  121 0.976
   117  H   0.945        N  112 0.881
   118  H   0.992        C  113 0.944
   119  H   0.993        C  116 0.978
   120  H   0.991        C  116 0.976
   121  H   0.995        C  116 0.976
   122  N   3.488        C  114 1.332    C  123 0.985    H  130 0.883    O  115 0.190
   123  C   3.969        N  122 0.985    C  126 0.966    H  131 0.941    C  124 0.938
   124  C   3.939        O  125 1.605    N  141 1.307    C  123 0.938
   125  O   1.946        C  124 1.605    N  141 0.187
   126  C   3.987        C  128 1.008    C  127 0.990    C  123 0.966    H  132 0.963
   127  C   3.993        C  129 1.020    C  126 0.990    H  134 0.975    H  133 0.963
   128  C   3.994        C  126 1.008    H  136 0.987    H  135 0.985    H  137 0.983
   129  C   3.995        C  127 1.020    H  139 0.985    H  138 0.983    H  140 0.983
   130  H   0.947        N  122 0.883
   131  H   0.994        C  123 0.941
   132  H   0.999        C  126 0.963
   133  H   0.997        C  127 0.963
   134  H   0.998        C  127 0.975
   135  H   0.997        C  128 0.985
   136  H   1.000        C  128 0.987
   137  H   0.997        C  128 0.983
   138  H   0.997        C  129 0.983
   139  H   0.998        C  129 0.985
   140  H   0.998        C  129 0.983
   141  N   3.455        C  124 1.307    C  142 0.977    H  150 0.894    O  125 0.187
   142  C   3.967        C  145 0.982    N  141 0.977    H  151 0.954    C  143 0.937
   143  C   3.951        O  144 1.592    N  156 1.334    C  142 0.937
   144  O   1.938        C  143 1.592    N  156 0.195
   145  C   3.990        C  146 1.000    C  142 0.982    H  153 0.971    H  152 0.962
   146  C   3.988        C  145 1.000    H  155 0.978    H  154 0.977    C  147 0.914
   147  C   3.933        O  149 1.504    O  148 1.494    C  146 0.914
   148  O   1.792        C  147 1.494    O  149 0.217
   149  O   1.797        C  147 1.504    O  148 0.217
   150  H   0.954        N  141 0.894
   151  H   0.998        C  142 0.954
   152  H   0.995        C  145 0.962
   153  H   0.997        C  145 0.971
   154  H   0.999        C  146 0.977
   155  H   1.000        C  146 0.978
   156  N   3.476        C  143 1.334    C  157 0.971    H  167 0.883    O  144 0.195
   157  C   3.954        C  160 0.977    N  156 0.971    H  168 0.951    C  158 0.936
   158  C   3.944        O  159 1.586    N  180 1.333    C  157 0.936
   159  O   1.967        C  158 1.586    N  180 0.191
   160  C   3.977        C  161 1.002    C  157 0.977    H  170 0.968    H  169 0.958
   161  C   3.986        C  160 1.002    C  162 0.992    H  171 0.972    H  172 0.969
   162  C   3.956        C  161 0.992    N  163 0.992    H  174 0.965    H  173 0.960
   163  N   3.472        C  164 1.314    C  162 0.992    H  175 0.912    N  165 0.101
   164  C   3.978        N  165 1.324    N  163 1.314    N  166 1.311
   165  N   3.412        C  164 1.324    H  176 0.919    H  177 0.916    N  166 0.101    N  163 0.101
   166  N   3.387        C  164 1.311    H  179 0.917    H  178 0.917    N  165 0.101
   167  H   0.946        N  156 0.883
   168  H   0.993        C  157 0.951
   169  H   0.993        C  160 0.958
   170  H   0.994        C  160 0.968
   171  H   0.993        C  161 0.972
   172  H   0.995        C  161 0.969
   173  H   0.993        C  162 0.960
   174  H   0.990        C  162 0.965
   175  H   0.940        N  163 0.912
   176  H   0.948        N  165 0.919
   177  H   0.937        N  165 0.916
   178  H   0.937        N  166 0.917
   179  H   0.939        N  166 0.917
   180  N   3.477        C  158 1.333    C  181 0.982    H  188 0.861    O  159 0.191
   181  C   3.965        N  180 0.982    C  184 0.979    H  189 0.944    C  182 0.937
   182  C   3.940        O  183 1.638    N  199 1.283    C  181 0.937
   183  O   1.946        C  182 1.638    N  199 0.190
   184  C   3.984        C  185 0.989    C  181 0.979    H  191 0.973    H  190 0.965
   185  C   3.992        C  187 1.011    C  186 1.009    C  184 0.989    H  192 0.966
   186  C   3.994        C  185 1.009    H  195 0.987    H  193 0.979    H  194 0.978
   187  C   3.994        C  185 1.011    H  197 0.986    H  198 0.984    H  196 0.981
   188  H   0.941        N  180 0.861
   189  H   0.994        C  181 0.944
   190  H   0.997        C  184 0.965
   191  H   0.997        C  184 0.973
   192  H   0.998        C  185 0.966
   193  H   0.996        C  186 0.979
   194  H   0.999        C  186 0.978
   195  H   0.999        C  186 0.987
   196  H   0.997        C  187 0.981
   197  H   0.998        C  187 0.986
   198  H   0.999        C  187 0.984
   199  N   3.453        C  182 1.283    C  200 0.990    H  205 0.899    O  183 0.190
   200  C   3.971        N  199 0.990    C  203 0.976    H  206 0.954    C  201 0.931
   201  C   3.948        O  202 1.660    N  210 1.282    C  200 0.931
   202  O   1.972        C  201 1.660    N  210 0.194
   203  C   3.959        O  204 1.006    C  200 0.976    H  207 0.967    H  208 0.961
   204  O   1.921        C  203 1.006    H  209 0.861
   205  H   0.953        N  199 0.899
   206  H   0.994        C  200 0.954
   207  H   0.998        C  203 0.967
   208  H   0.998        C  203 0.961
   209  H   0.874        O  204 0.861
   210  N   3.453        C  201 1.282    C  211 0.990    H  216 0.902    O  202 0.194
   211  C   3.961        N  210 0.990    C  214 0.953    C  212 0.944    H  217 0.943
   212  C   3.957        O  213 1.579    N  221 1.348    C  211 0.944
   213  O   1.934        C  212 1.579    N  221 0.196
   214  C   3.964        O  215 1.018    H  218 0.970    H  219 0.966    C  211 0.953
   215  O   1.931        C  214 1.018    H  220 0.834
   216  H   0.953        N  210 0.902
   217  H   0.993        C  211 0.943
   218  H   0.997        C  214 0.970
   219  H   0.999        C  214 0.966
   220  H   0.884        O  215 0.834
   221  N   3.502        C  212 1.348    C  222 0.998    H  225 0.875    O  213 0.196
   222  C   3.962        N  221 0.998    C  223 0.998    H  227 0.936    H  226 0.929
   223  C   3.905        O  224 1.897    C  222 0.998    H  325 0.949
   224  O   2.045        C  223 1.897
   225  H   0.946        N  221 0.875
   226  H   0.983        C  222 0.929
   227  H   0.987        C  222 0.936
   228  N   2.992        C  229 1.020    H  326 0.954    H  236 0.946
   229  C   3.983        N  228 1.020    C  232 0.969    H  237 0.964    C  230 0.934
   230  C   3.946        O  231 1.633    N  242 1.309    C  229 0.934
   231  O   1.944        C  230 1.633    N  242 0.200
   232  C   3.993        C  233 0.979    C  229 0.969    H  239 0.963    H  238 0.946
   233  C   3.946        O  234 1.582    N  235 1.349    C  232 0.979
   234  O   1.990        C  233 1.582    N  235 0.191
   235  N   3.428        C  233 1.349    H  241 0.929    H  240 0.919    O  234 0.191
   236  H   0.971        N  228 0.946
   237  H   0.997        C  229 0.964
   238  H   0.992        C  232 0.946
   239  H   0.995        C  232 0.963
   240  H   0.941        N  235 0.919
   241  H   0.948        N  235 0.929
   242  N   3.454        C  230 1.309    C  243 0.991    H  248 0.840    O  231 0.200
   243  C   3.968        N  242 0.991    H  249 0.959    C  246 0.947    C  244 0.937
   244  C   3.950        O  245 1.651    N  253 1.293    C  243 0.937
   245  O   1.978        C  244 1.651    N  253 0.202
   246  C   3.956        O  247 1.016    H  251 0.967    H  250 0.963    C  243 0.947
   247  O   1.963        C  246 1.016    H  252 0.878
   248  H   0.942        N  242 0.840
   249  H   0.994        C  243 0.959
   250  H   0.994        C  246 0.963
   251  H   0.997        C  246 0.967
   252  H   0.895        O  247 0.878
   253  N   3.461        C  244 1.293    C  254 0.976    H  258 0.907    O  245 0.202
   254  C   3.961        C  257 0.978    N  253 0.976    C  255 0.973    H  259 0.944
   255  C   3.895        O  256 1.896    C  254 0.973    H  327 0.954
   256  O   2.037        C  255 1.896
   257  C   3.973        H  262 0.982    H  260 0.979    C  254 0.978    H  261 0.971
   258  H   0.947        N  253 0.907
   259  H   0.990        C  254 0.944
   260  H   0.992        C  257 0.979
   261  H   0.990        C  257 0.971
   262  H   0.994        C  257 0.982
   263  N   3.000        C  264 1.024    H  271 0.954    H  328 0.953
   264  C   3.985        N  263 1.024    C  265 0.981    C  267 0.954    H  272 0.941
   265  C   3.885        O  266 1.862    C  264 0.981    H  329 0.953
   266  O   2.049        C  265 1.862
   267  C   3.993        C  268 1.012    H  274 0.967    H  273 0.967    C  264 0.954
   268  C   3.983        C  267 1.012    S  269 0.988    H  275 0.973    H  276 0.971
   269  S   2.079        C  270 1.011    C  268 0.988
   270  C   3.973        S  269 1.011    H  279 0.984    H  278 0.983    H  277 0.977
   271  H   0.973        N  263 0.954
   272  H   0.994        C  264 0.941
   273  H   0.997        C  267 0.967
   274  H   0.998        C  267 0.967
   275  H   0.998        C  268 0.973
   276  H   0.998        C  268 0.971
   277  H   0.993        C  270 0.977
   278  H   0.996        C  270 0.983
   279  H   0.997        C  270 0.984
   280  N   2.989        C  281 1.010    H  330 0.959    H  285 0.954
   281  C   3.985        N  280 1.010    C  284 0.994    H  286 0.964    C  282 0.936
   282  C   3.941        O  283 1.608    N  290 1.315    C  281 0.936
   283  O   1.959        C  282 1.608    N  290 0.195
   284  C   3.989        C  281 0.994    H  287 0.984    H  288 0.980    H  289 0.978
   285  H   0.973        N  280 0.954
   286  H   0.999        C  281 0.964
   287  H   0.997        C  284 0.984
   288  H   0.996        C  284 0.980
   289  H   0.996        C  284 0.978
   290  N   3.477        C  282 1.315    C  291 0.984    H  299 0.886    O  283 0.195
   291  C   3.972        N  290 0.984    C  292 0.971    C  294 0.969    H  300 0.945
   292  C   3.900        O  293 1.898    C  291 0.971    H  331 0.954
   293  O   2.039        C  292 1.898
   294  C   3.987        C  295 0.987    H  302 0.973    C  291 0.969    H  301 0.969
   295  C   3.990        C  294 0.987    H  303 0.968    C  296 0.964    H  304 0.963
   296  C   3.941        O  297 1.650    N  298 1.301    C  295 0.964
   297  O   1.947        C  296 1.650    N  298 0.201
   298  N   3.393        C  296 1.301    H  306 0.928    H  305 0.923    O  297 0.201
   299  H   0.943        N  290 0.886
   300  H   0.993        C  291 0.945
   301  H   0.994        C  294 0.969
   302  H   0.996        C  294 0.973
   303  H   0.995        C  295 0.968
   304  H   0.992        C  295 0.963
   305  H   0.951        N  298 0.923
   306  H   0.949        N  298 0.928
   307  N   2.994        C  308 1.022    H  332 0.957    H  316 0.926
   308  C   3.985        N  307 1.022    C  309 0.980    C  311 0.957    H  317 0.944
   309  C   3.886        O  310 1.879    C  308 0.980    H  333 0.955
   310  O   2.019        C  309 1.879
   311  C   3.994        C  312 0.995    H  319 0.973    H  318 0.969    C  308 0.957
   312  C   3.994        C  311 0.995    C  313 0.969    H  321 0.966    H  320 0.951
   313  C   3.945        O  314 1.639    N  315 1.310    C  312 0.969
   314  O   1.949        C  313 1.639    N  315 0.201
   315  N   3.403        C  313 1.310    H  322 0.931    H  323 0.916    O  314 0.201
   316  H   0.966        N  307 0.926
   317  H   0.995        C  308 0.944
   318  H   0.996        C  311 0.969
   319  H   0.999        C  311 0.973
   320  H   0.994        C  312 0.951
   321  H   0.996        C  312 0.966
   322  H   0.952        N  315 0.931
   323  H   0.948        N  315 0.916
   324  H   0.963        N    1 0.951
   325  H   0.990        C  223 0.949
   326  H   0.967        N  228 0.954
   327  H   0.996        C  255 0.954
   328  H   0.965        N  263 0.953
   329  H   0.993        C  265 0.953
   330  H   0.969        N  280 0.959
   331  H   0.994        C  292 0.954
   332  H   0.969        N  307 0.957
   333  H   0.995        C  309 0.955
 
molecular dipole:
                 x           y           z       tot (Debye)
 q only:      175.083      97.969     331.313
   full:      174.845      97.369     333.545     988.704
molecular quadrupole (traceless):
                xx          xy          yy          xz          yz          zz
 q only:   -29800.766   24631.374  -60847.238   87769.287   48766.567   90648.003
  q+dip:   -30511.129   24416.881  -61675.586   88362.506   48860.839   92186.716
   full:   -30506.373   24413.464  -61675.895   88363.740   48862.348   92182.268


           -------------------------------------------------
          | TOTAL ENERGY             -525.258839106554 Eh   |
          | GRADIENT NORM               0.498939371581 Eh/α |
          | HOMO-LUMO GAP               1.520015832413 eV   |
           -------------------------------------------------

------------------------------------------------------------------------
 * finished run on 2019/05/31 at 05:34:55.635     
------------------------------------------------------------------------
 total:
 * wall-time:     0 d,  0 h,  0 min,  4.445 sec
 *  cpu-time:     0 d,  0 h,  0 min,  8.635 sec
 * ratio c/w:     1.942 speedup
 SCF:
 * wall-time:     0 d,  0 h,  0 min,  3.998 sec
 *  cpu-time:     0 d,  0 h,  0 min,  7.993 sec
 * ratio c/w:     1.999 speedup

