      -----------------------------------------------------------      
     |                   =====================                   |     
     |                           x T B                           |     
     |                   =====================                   |     
     |                         S. Grimme                         |     
     |          Mulliken Center for Theoretical Chemistry        |     
     |                    University of Bonn                     |     
     |                 Version 6.0.1 (SAW181210)                 |     
      -----------------------------------------------------------      

   This program is distributed in the hope that it will be useful,
   but WITHOUT ANY WARRANTY; without even the implied warranty of
   MERCHANTABILITY or FITNESS FOR A PARTICULAR PURPOSE.
   
   FOR NON-COMMERCIAL, ACADEMIA USE ONLY.
   
   Cite this work as:
   S. Grimme, C. Bannwarth, P. Shushkov, J. Comput. Theory Chem., 2017,
   13, 1989-2009.
   C. Bannwarth, S. Ehlert and S. Grimme., ChemRxiv, 2018, preprint.
   http://doi.org/10.26434/chemrxiv.7246238.v1
   
   for sTDA-xTB:
   S. Grimme and C. Bannwarth, J. Chem. Phys., 2016, 145, 054103.
   
   in the mass-spec context:
   V. Asgeirsson, C. Bauer and S. Grimme, Chem. Sci., 2017, 8, 4879.
   
   if GBSA is used:
   P. Shushkov, F. März and S. Grimme, unpublished.
   
   for ANC optimizer:
   S. Grimme, unpublished.
   Rational Function algorithm used in ANCopt:
   F. Eckert, P. Pulay, H.-J. Werner, J. Comput. Chem., 1997, 18, 1473.
   
   with help from (in alphabetical order)
   C. Bannwarth, F. Bohle, G. Brandenburg, E. Caldeweyher, M. Checinski,
   S. Dohm, S. Ehlert, S. Ehrlich, F. März, H. Neugebauer, J. Pisarek,
   P. Pracht, P. Shushkov, and S. Spicher.
   
 * started run on 2019/02/13 at 00:18:24.183     
========================================================================
 # omp threads = 16
========================================================================
number of atoms            : 327
number of electrons        : 930
charge                     : -2
spin                       : .0
first test random number   : .3678

########################################################################
# WARNING! Please study the warnings concerning your input carefully
#  - Process number higher than OMP_NUM_THREADS, I hope you know what you are doing.
########################################################################

           ------------------------------------------------- 
          |                 G F N 2 - x T B                 |
          | Geometry, Frequencies, Noncovalent interactions |
          |            JCTC 2018 parametrisation            |
           ------------------------------------------------- 
 
      method parameters     
 k(s)        :  1.8500
 k(p)        :  2.2300
 k(d)        :  2.2300
 k(f)        :  2.0000
 kEN (H0ij)  : -2.0000
 D4 a1       :  0.5200
 D4 a2       :  5.0000
 D4 s6       :  1.0000
 D4 s8       :  2.7000
 D4 s9       :  5.0000
 alphaj      :  2.0000

 Solvent             : h2o
 Using internal parameter file: .param_gbsa2_h2o
 Gsolv ref. state (COSMO-RS): gsolv [1 M gas/solution]
 temperature (mdtemp)       :    298.150000000000     
 dielectric constant        :    80.2000000000000     
 rho                        :    1.00000000000000     
 mass                       :    18.0000000000000     
 surface tension            :    15.5689454083859     
 probe radius               :   0.975313790000000     
 vdW radii scaling          :    1.00000000000000     
 Gshift (Eh)                :   1.857443126794793E-003
 c1                         :    1.55243817000000     
 soset                      :   0.130326360000000     
 HB correction              :  T

            Z     q(EN)     CN     RAES       Cart. coordinates
     1  N   5.0   -0.19    3.23    1.96   310.86929   142.78189   166.17010
     2  C   4.0    0.02    4.25    4.10   313.38774   141.72498   165.99963
     3  C   4.0    0.15    3.42    3.08   314.02601   140.41264   168.50366
     4  O   6.0   -0.31    1.32    1.80   312.49124   140.32561   170.23485
     5  C   4.0    0.02    4.12    3.85   315.30551   143.75673   165.18708
     6  O   6.0   -0.26    2.04    1.83   315.73394   145.65292   166.99012
     7  H   1.0    0.08    1.01    1.43   310.65747   144.55986   166.92290
     8  H   1.0    0.03    1.05    1.44   313.31876   140.24370   164.54549
     9  H   1.0    0.04    1.01    1.43   317.07774   142.84638   164.60887
    10  H   1.0    0.04    1.02    1.43   314.50332   144.73946   163.55907
    11  H   1.0    0.13    1.03    1.43   316.55722   144.98419   168.47637
    12  N   5.0   -0.15    3.46    2.05   316.31001   139.30642   168.74530
    13  C   4.0    0.04    4.47    4.49   316.71481   137.70235   170.93319
    14  C   4.0    0.17    3.44    3.09   316.64434   139.20880   173.40752
    15  O   6.0   -0.29    1.29    1.80   315.60691   138.33033   175.27182
    16  C   4.0   -0.04    4.25    4.11   319.10597   136.12159   170.64533
    17  C   4.0   -0.03    4.25    4.09   318.58079   133.98961   168.76353
    18  C   4.0    0.16    3.22    3.04   320.95044   132.53648   168.08570
    19  O   6.0   -0.31    1.28    1.80   322.25479   133.13367   166.27051
    20  N   5.0   -0.18    3.21    1.96   321.50123   130.57251   169.55509
    21  H   1.0    0.07    1.06    1.44   317.61188   139.30755   167.35508
    22  H   1.0    0.05    1.07    1.44   315.08423   136.42087   171.09308
    23  H   1.0    0.05    1.02    1.43   320.67219   137.30241   170.00030
    24  H   1.0    0.06    1.03    1.43   319.63057   135.34477   172.48315
    25  H   1.0    0.05    1.03    1.43   317.18265   132.70898   169.56412
    26  H   1.0    0.05    1.03    1.43   317.82258   134.77151   167.01388
    27  H   1.0    0.11    1.06    1.44   320.56926   130.18993   171.17837
    28  H   1.0    0.12    1.06    1.44   322.92531   129.40313   169.05009
    29  N   5.0   -0.13    3.50    2.08   317.72738   141.48688   173.33425
    30  C   4.0    0.05    4.29    4.18   317.57852   143.27031   175.40487
    31  C   4.0    0.09    3.24    3.04   314.82266   143.76003   176.16334
    32  O   6.0   -0.30    1.12    1.80   314.13331   143.68387   178.37475
    33  C   4.0    0.03    4.16    3.91   318.80961   145.74347   174.53634
    34  O   6.0   -0.26    2.11    1.84   317.90131   146.28569   172.08040
    35  H   1.0    0.09    1.09    1.44   318.47443   142.13992   171.70421
    36  H   1.0    0.07    1.05    1.44   318.53777   142.48001   177.06739
    37  H   1.0    0.04    1.01    1.43   318.32045   147.23550   175.87931
    38  H   1.0    0.04    1.01    1.43   320.86782   145.50164   174.49402
    39  H   1.0    0.11    1.02    1.43   318.20738   148.03681   171.68559
    40  N   5.0   -0.19    3.25    1.97   309.91948   140.32409   175.20234
    41  C   4.0    0.03    4.32    4.24   308.89006   138.06448   176.34179
    42  C   4.0    0.15    3.44    3.09   309.81750   137.80253   179.06496
    43  O   6.0   -0.30    1.24    1.80   308.37002   137.13587   180.75277
    44  C   4.0   -0.04    4.36    4.31   309.58493   135.71304   174.82819
    45  C   4.0   -0.02    4.18    3.96   308.42212   135.60922   172.17211
    46  C   4.0   -0.07    4.11    3.82   309.37429   133.23415   170.83683
    47  C   4.0   -0.08    4.11    3.82   305.54086   135.54128   172.30459
    48  H   1.0    0.12    1.05    1.44   311.02558   140.15445   173.65262
    49  H   1.0    0.04    1.05    1.44   306.82913   138.26735   176.46890
    50  H   1.0    0.06    1.03    1.43   311.64613   135.63903   174.70753
    51  H   1.0    0.06    1.04    1.43   308.92421   134.06162   175.87546
    52  H   1.0    0.05    1.05    1.44   309.02835   137.27235   171.09542
    53  H   1.0    0.04    1.00    1.43   308.64768   133.16691   168.91829
    54  H   1.0    0.05    1.00    1.43   311.42832   133.21914   170.74604
    55  H   1.0    0.06    1.00    1.43   308.73011   131.58199   171.87486
    56  H   1.0    0.03    1.00    1.43   304.74659   135.20205   170.44190
    57  H   1.0    0.05    1.00    1.43   304.96354   134.02046   173.55967
    58  H   1.0    0.03    1.00    1.43   304.78543   137.32227   172.99879
    59  N   5.0   -0.13    3.49    2.07   312.24300   138.33983   179.46856
    60  C   4.0    0.05    4.34    4.26   313.29987   138.19441   181.98662
    61  C   4.0    0.10    3.27    3.05   311.74984   139.82129   183.78513
    62  O   6.0   -0.29    1.11    1.80   311.17800   139.09299   185.91290
    63  C   4.0   -0.03    4.26    4.13   316.02882   139.10115   182.00283
    64  C   4.0    0.26    3.10    3.02   317.84515   137.40339   180.38756
    65  O   6.0   -0.31    1.26    1.80   317.38158   135.09008   180.31409
    66  O   6.0   -0.28    1.17    1.80   319.63212   138.51386   179.35979
    67  H   1.0    0.12    1.11    1.44   313.46946   138.61055   178.01989
    68  H   1.0    0.06    1.05    1.44   313.21462   136.23780   182.68467
    69  H   1.0    0.07    1.03    1.43   316.14415   141.02347   181.27215
    70  H   1.0    0.05    1.03    1.43   316.75588   139.07261   183.93511
    71  N   5.0   -0.22    3.21    1.96   300.78400   116.56362   195.36531
    72  C   4.0    0.03    4.24    4.09   302.66135   116.11259   193.43935
    73  C   4.0    0.07    3.19    3.03   301.92723   117.32980   190.91601
    74  O   6.0   -0.30    1.13    1.80   302.92201   116.71709   188.92101
    75  C   4.0    0.06    4.21    4.02   303.26260   113.24635   193.10237
    76  O   6.0   -0.27    2.11    1.84   301.17032   111.74090   193.76239
    77  C   4.0   -0.08    4.06    3.73   305.61055   112.49671   194.59445
    78  H   1.0    0.08    1.03    1.43   299.21855   115.46492   195.35742
    79  H   1.0    0.03    1.06    1.44   304.38575   117.07166   194.08074
    80  H   1.0    0.06    1.05    1.44   303.57462   112.92279   191.07588
    81  H   1.0    0.10    1.02    1.43   301.15824   111.57273   195.60935
    82  H   1.0    0.04    1.00    1.43   306.01333   110.50372   194.30142
    83  H   1.0    0.04    1.00    1.43   307.25156   113.59286   194.03395
    84  H   1.0    0.03    1.00    1.43   305.26007   112.78773   196.60033
    85  N   5.0   -0.21    3.21    1.96   302.26657   122.19207   185.74748
    86  C   4.0    0.03    4.35    4.28   304.43672   123.53487   184.78782
    87  C   4.0    0.15    3.45    3.09   304.12267   124.17282   181.98894
    88  O   6.0   -0.29    1.23    1.80   303.36235   122.60374   180.46471
    89  C   4.0   -0.03    4.32    4.24   306.83991   121.90889   185.09117
    90  C   4.0    0.15    3.26    3.05   309.10064   123.48125   184.32652
    91  O   6.0   -0.30    1.27    1.80   309.78416   123.62422   182.11518
    92  N   5.0   -0.19    3.19    1.95   310.20432   124.76383   186.19394
    93  H   1.0    0.10    1.02    1.43   301.65593   120.70205   184.69534
    94  H   1.0    0.03    1.06    1.44   304.62681   125.28109   185.87324
    95  H   1.0    0.04    1.03    1.43   306.97820   121.30253   187.05109
    96  H   1.0    0.08    1.03    1.43   306.71080   120.25146   183.86810
    97  H   1.0    0.12    1.06    1.44   311.66257   125.97314   185.84599
    98  H   1.0    0.08    1.03    1.43   309.56717   124.63033   187.97822
    99  N   5.0   -0.15    3.49    2.07   304.82911   126.51882   181.35994
   100  C   4.0    0.03    4.49    4.53   304.48042   127.48978   178.83058
   101  C   4.0    0.15    3.40    3.08   306.91482   128.54146   177.67206
   102  O   6.0   -0.32    1.25    1.80   306.87614   130.21316   176.07427
   103  C   4.0   -0.02    4.27    4.14   302.32545   129.44649   178.69117
   104  C   4.0   -0.08    4.11    3.82   299.82057   128.23984   179.45588
   105  C   4.0   -0.07    4.11    3.83   302.88545   131.77236   180.30657
   106  H   1.0    0.07    1.06    1.44   305.19825   127.78094   182.75527
   107  H   1.0    0.06    1.07    1.44   303.93789   125.85927   177.66387
   108  H   1.0    0.04    1.06    1.44   302.21621   130.02527   176.70842
   109  H   1.0    0.03    1.00    1.43   298.26840   129.47779   178.93877
   110  H   1.0    0.04    1.00    1.43   299.56303   126.44717   178.48642
   111  H   1.0    0.04    1.00    1.43   299.77539   127.90721   181.48299
   112  H   1.0    0.03    1.00    1.43   301.34022   133.11249   180.13694
   113  H   1.0    0.04    1.00    1.43   303.08905   131.26389   182.28590
   114  H   1.0    0.06    1.00    1.43   304.60665   132.69804   179.67210
   115  N   5.0   -0.13    3.52    2.09   309.06369   127.50973   178.51270
   116  C   4.0    0.04    4.43    4.42   311.51496   128.30101   177.60855
   117  C   4.0    0.15    3.39    3.08   312.46014   126.52551   175.52057
   118  O   6.0   -0.28    1.23    1.80   311.44506   124.49942   175.07951
   119  C   4.0   -0.03    4.29    4.18   313.39488   128.32703   179.80803
   120  C   4.0   -0.03    4.24    4.08   312.72961   130.40970   181.69994
   121  C   4.0    0.16    3.23    3.04   314.38405   130.18847   184.02286
   122  O   6.0   -0.31    1.25    1.80   314.05194   128.52053   185.60946
   123  N   5.0   -0.18    3.20    1.96   316.16946   131.94312   184.25354
   124  H   1.0    0.12    1.11    1.45   309.05991   126.02681   179.73481
   125  H   1.0    0.05    1.06    1.44   311.31010   130.20391   176.81079
   126  H   1.0    0.07    1.03    1.43   313.31338   126.49271   180.74669
   127  H   1.0    0.06    1.03    1.43   315.31702   128.61102   179.11481
   128  H   1.0    0.05    1.03    1.43   312.99458   132.25588   180.82865
   129  H   1.0    0.06    1.03    1.43   310.75840   130.19395   182.27207
   130  H   1.0    0.12    1.09    1.44   316.57631   133.17180   182.80709
   131  H   1.0    0.10    1.03    1.43   317.41372   131.82015   185.69164
   132  N   5.0   -0.14    3.50    2.08   314.41470   127.44303   174.19676
   133  C   4.0    0.03    4.40    4.39   315.89754   125.92918   172.46721
   134  C   4.0    0.16    3.45    3.10   318.67331   126.24911   173.22469
   135  O   6.0   -0.30    1.29    1.80   319.44317   128.28787   174.03260
   136  C   4.0   -0.03    4.29    4.17   315.58841   126.85193   169.73218
   137  C   4.0   -0.03    4.23    4.05   312.85198   126.74887   168.82885
   138  C   4.0    0.15    3.22    3.04   312.45442   128.41079   166.52099
   139  O   6.0   -0.32    1.26    1.80   313.98915   129.99214   165.82142
   140  N   5.0   -0.20    3.18    1.95   310.27135   128.00718   165.29997
   141  H   1.0    0.09    1.08    1.44   315.26003   129.06409   174.75490
   142  H   1.0    0.06    1.06    1.44   315.25301   123.97728   172.67107
   143  H   1.0    0.06    1.04    1.43   316.24064   128.80591   169.62433
   144  H   1.0    0.05    1.02    1.43   316.80041   125.74180   168.48973
   145  H   1.0    0.04    1.03    1.43   312.29355   124.81357   168.40794
   146  H   1.0    0.05    1.03    1.43   311.61187   127.46623   170.31798
   147  H   1.0    0.07    1.03    1.43   308.96225   126.82111   166.00077
   148  H   1.0    0.09    1.03    1.43   309.81349   129.12303   163.82520
   149  N   5.0   -0.13    3.46    2.06   320.15016   124.24904   172.86811
   150  C   4.0    0.04    4.44    4.45   322.78882   124.24196   173.60757
   151  C   4.0    0.16    3.44    3.09   324.36334   125.88341   171.82504
   152  O   6.0   -0.29    1.25    1.80   324.15856   125.75586   169.52041
   153  C   4.0   -0.04    4.27    4.14   323.79202   121.53253   173.58699
   154  C   4.0   -0.04    4.21    4.03   322.58177   120.01361   175.72487
   155  C   4.0   -0.05    4.16    3.92   322.76849   117.15977   175.33315
   156  C   4.0   -0.03    4.15    3.90   321.32174   115.86866   177.46072
   157  N   5.0   -0.12    4.02    2.93   321.26861   113.07405   177.19475
   158  H   1.0    0.07    1.07    1.44   319.45262   122.67685   172.04381
   159  H   1.0    0.06    1.06    1.44   322.89452   125.04196   175.51227
   160  H   1.0    0.05    1.03    1.43   323.36057   120.71240   171.74299
   161  H   1.0    0.05    1.03    1.43   325.84319   121.58684   173.78212
   162  H   1.0    0.06    1.03    1.43   323.46782   120.53016   177.51369
   163  H   1.0    0.06    1.04    1.43   320.59909   120.56216   175.87932
   164  H   1.0    0.03    1.03    1.43   321.94773   116.68037   173.50454
   165  H   1.0    0.04    1.02    1.43   324.75064   116.60693   175.34049
   166  H   1.0    0.06    1.02    1.43   322.16681   116.38334   179.26954
   167  H   1.0    0.05    1.03    1.43   319.37457   116.54353   177.46537
   168  H   1.0    0.09    1.07    1.44   319.90897   112.41771   178.46082
   169  H   1.0    0.05    1.02    1.43   320.74370   112.58613   175.38717
   170  H   1.0    0.05    1.02    1.43   323.00785   112.30597   177.58214
   171  N   5.0   -0.13    3.48    2.06   325.98124   127.42264   172.99828
   172  C   4.0    0.04    4.31    4.22   327.98759   128.72346   171.67837
   173  C   4.0    0.08    3.24    3.04   329.91407   126.76861   170.72832
   174  O   6.0   -0.29    1.13    1.80   330.23600   124.75004   171.80284
   175  C   4.0   -0.03    4.33    4.25   329.40886   130.51883   173.47401
   176  C   4.0   -0.01    3.53    3.13   328.27564   133.12156   173.59634
   177  C   4.0   -0.03    3.46    3.10   326.20656   133.66554   175.12344
   178  C   4.0   -0.05    3.47    3.10   329.32109   135.06558   172.17944
   179  C   4.0   -0.03    3.43    3.09   325.20212   136.07601   175.22697
   180  C   4.0   -0.05    3.44    3.09   328.35863   137.48944   172.28432
   181  C   4.0    0.07    3.45    3.09   326.27065   138.00981   173.79274
   182  O   6.0   -0.24    2.11    1.84   325.25548   140.36555   173.91187
   183  H   1.0    0.11    1.11    1.45   326.08744   127.42693   174.91249
   184  H   1.0    0.05    1.05    1.44   327.21739   129.77143   170.06546
   185  H   1.0    0.06    1.03    1.43   329.41692   129.66240   175.34991
   186  H   1.0    0.04    1.04    1.43   331.35859   130.67374   172.81103
   187  H   1.0    0.07    1.03    1.43   325.36524   132.17740   176.23955
   188  H   1.0    0.04    1.03    1.43   330.91772   134.69303   170.96714
   189  H   1.0    0.08    1.03    1.43   323.57853   136.50378   176.39054
   190  H   1.0    0.05    1.03    1.43   329.22161   138.97768   171.17884
   191  H   1.0    0.12    1.04    1.43   326.07455   141.44047   172.67708
   192  N   5.0   -0.19    3.24    1.96   329.93384   136.53873   165.53324
   193  C   4.0    0.04    4.34    4.28   327.29085   136.02073   165.09590
   194  C   4.0    0.17    3.43    3.09   326.71450   135.77301   162.27059
   195  O   6.0   -0.27    1.22    1.80   328.31417   136.09493   160.62043
   196  C   4.0   -0.03    4.29    4.17   325.65199   138.06787   166.29764
   197  C   4.0    0.25    3.13    3.03   326.30616   140.73922   165.25558
   198  O   6.0   -0.28    1.20    1.80   326.48227   140.95346   162.90360
   199  O   6.0   -0.30    1.16    1.80   326.56052   142.45036   166.83350
   200  H   1.0    0.10    1.03    1.43   330.55173   138.32821   165.24150
   201  H   1.0    0.05    1.06    1.44   326.86892   134.18804   165.96855
   202  H   1.0    0.05    1.03    1.43   323.66982   137.68888   165.88797
   203  H   1.0    0.05    1.03    1.43   325.91830   138.05829   168.34004
   204  N   5.0   -0.14    3.49    2.07   324.29915   135.16939   161.83718
   205  C   4.0    0.05    4.30    4.21   323.17999   134.71272   159.38696
   206  C   4.0    0.09    3.24    3.04   323.71669   136.82255   157.48936
   207  O   6.0   -0.30    1.12    1.80   323.60165   136.44881   155.21143
   208  C   4.0   -0.04    4.34    4.28   320.29748   134.64464   159.66469
   209  C   4.0    0.16    3.22    3.04   319.36581   132.41616   161.25591
   210  O   6.0   -0.28    1.21    1.80   320.57907   130.47912   161.53737
   211  N   5.0   -0.19    3.19    1.95   317.06333   132.78895   162.23862
   212  H   1.0    0.11    1.13    1.45   323.28403   134.51955   163.33143
   213  H   1.0    0.07    1.05    1.44   323.84545   132.91495   158.59225
   214  H   1.0    0.04    1.03    1.43   319.66793   136.43321   160.47900
   215  H   1.0    0.05    1.03    1.43   319.47514   134.45678   157.78044
   216  H   1.0    0.12    1.05    1.44   316.22559   131.47145   163.35035
   217  H   1.0    0.08    1.03    1.43   316.11512   134.39817   161.89719
   218  N   5.0   -0.20    3.12    1.94   326.36337   119.04298   186.69003
   219  C   4.0    0.01    4.15    3.91   323.78359   119.90977   186.91927
   220  C   4.0    0.15    3.30    3.05   322.45889   120.28918   184.36983
   221  O   6.0   -0.31    1.22    1.80   323.34444   119.56581   182.37488
   222  H   1.0    0.09    1.02    1.43   326.63995   117.24113   186.12845
   223  H   1.0    0.04    1.02    1.43   322.69711   118.53775   188.01834
   224  H   1.0    0.04    1.03    1.43   323.81349   121.70987   187.93517
   225  N   5.0   -0.14    3.49    2.07   320.19917   121.42974   184.58913
   226  C   4.0    0.04    4.33    4.25   318.55436   121.94496   182.47076
   227  C   4.0    0.15    3.38    3.07   319.52856   124.12834   180.82777
   228  O   6.0   -0.30    1.22    1.80   318.93221   124.29788   178.60588
   229  C   4.0   -0.06    4.11    3.82   315.89392   122.44631   183.44624
   230  H   1.0    0.08    1.07    1.44   319.57340   121.95168   186.31170
   231  H   1.0    0.06    1.06    1.44   318.55443   120.28246   181.23117
   232  H   1.0    0.07    1.00    1.43   314.55117   122.52449   181.89572
   233  H   1.0    0.07    1.00    1.43   315.35262   120.93142   184.72693
   234  H   1.0    0.06    1.00    1.43   315.82634   124.23778   184.45618
   235  N   5.0   -0.13    3.52    2.09   321.13293   125.71306   181.99215
   236  C   4.0    0.04    4.40    4.38   322.54740   127.65009   180.69518
   237  C   4.0    0.15    3.42    3.08   325.29006   126.83837   180.22906
   238  O   6.0   -0.32    1.28    1.80   326.44324   127.58114   178.36163
   239  C   4.0   -0.02    4.25    4.11   322.54115   130.17149   182.12116
   240  C   4.0    0.25    3.12    3.03   323.70399   130.05256   184.80025
   241  O   6.0   -0.29    1.17    1.80   324.36926   132.09811   185.75995
   242  O   6.0   -0.33    1.30    1.80   323.92232   127.94170   185.83641
   243  H   1.0    0.10    1.09    1.44   321.40470   125.64583   183.88563
   244  H   1.0    0.07    1.06    1.44   321.66760   127.94581   178.83832
   245  H   1.0    0.06    1.02    1.43   323.55765   131.58287   181.01043
   246  H   1.0    0.06    1.03    1.43   320.59835   130.85005   182.31128
   247  N   5.0   -0.13    3.37    2.01   326.31883   125.26910   181.92296
   248  C   4.0    0.02    4.15    3.91   328.84225   124.28174   181.65359
   249  C   4.0    0.08    3.10    3.02   330.82028   125.33541   183.47818
   250  O   6.0   -0.29    1.12    1.80   332.86674   124.30903   183.70876
   251  H   1.0    0.10    1.08    1.44   325.43725   125.01172   183.60112
   252  H   1.0    0.05    1.02    1.43   328.79211   122.22693   181.85130
   253  H   1.0    0.07    1.04    1.43   329.48524   124.74229   179.74049
   254  N   5.0   -0.19    3.25    1.97   329.00713   127.68429   189.62236
   255  C   4.0    0.03    4.26    4.13   328.19483   127.50685   192.23059
   256  C   4.0    0.07    3.23    3.04   330.14906   125.93921   193.66475
   257  O   6.0   -0.29    1.14    1.80   331.08790   124.06550   192.68125
   258  C   4.0    0.06    4.23    4.06   325.59245   126.17761   192.32061
   259  O   6.0   -0.25    2.12    1.84   323.73112   127.57936   191.05060
   260  C   4.0   -0.07    4.09    3.78   324.66948   125.81742   195.02819
   261  H   1.0    0.10    1.03    1.43   328.59130   126.16809   188.52069
   262  H   1.0    0.04    1.04    1.44   328.05959   129.41516   193.01569
   263  H   1.0    0.05    1.04    1.43   325.84971   124.31858   191.41542
   264  H   1.0    0.15    1.06    1.44   324.12410   127.75800   189.24773
   265  H   1.0    0.04    1.00    1.43   322.83451   124.90034   194.98351
   266  H   1.0    0.03    1.00    1.43   325.97387   124.68418   196.13298
   267  H   1.0    0.04    1.00    1.43   324.44320   127.65114   195.92502
   268  N   5.0   -0.20    3.22    1.96   316.14806   113.16608   197.53545
   269  C   4.0    0.02    4.23    4.05   315.89626   115.26676   195.78667
   270  C   4.0    0.15    3.42    3.08   314.55554   114.38330   193.36515
   271  O   6.0   -0.30    1.24    1.80   314.83914   112.26026   192.50591
   272  C   4.0   -0.08    4.10    3.81   318.50191   116.30719   195.12876
   273  H   1.0    0.07    1.02    1.43   317.88820   112.46567   197.91210
   274  H   1.0    0.03    1.05    1.44   314.71550   116.70531   196.69842
   275  H   1.0    0.04    1.00    1.43   318.33482   117.92051   193.87113
   276  H   1.0    0.03    1.00    1.43   319.48927   116.86905   196.84026
   277  H   1.0    0.05    1.00    1.43   319.60182   114.84901   194.18609
   278  N   5.0   -0.15    3.44    2.04   313.08211   116.13516   192.24338
   279  C   4.0    0.04    4.35    4.29   312.05272   115.63961   189.74538
   280  C   4.0    0.16    3.42    3.09   314.23390   115.58487   187.82908
   281  O   6.0   -0.31    1.23    1.80   315.67037   117.37643   187.57185
   282  C   4.0   -0.07    4.11    3.82   310.17182   117.68061   188.99827
   283  H   1.0    0.07    1.06    1.44   313.22036   117.96156   192.77166
   284  H   1.0    0.05    1.06    1.44   311.14058   113.78559   189.83118
   285  H   1.0    0.06    1.00    1.43   309.26811   117.18518   187.22149
   286  H   1.0    0.04    1.00    1.43   308.72236   117.87342   190.43999
   287  H   1.0    0.05    1.00    1.43   311.15775   119.47004   188.75457
   288  N   5.0   -0.15    3.48    2.07   314.39314   113.45824   186.46062
   289  C   4.0    0.04    4.33    4.26   316.41466   112.97254   184.68232
   290  C   4.0    0.15    3.38    3.07   315.57431   113.24337   181.92480
   291  O   6.0   -0.33    1.30    1.80   317.08840   112.93752   180.19983
   292  C   4.0   -0.07    4.11    3.82   317.48402   110.32207   185.10644
   293  H   1.0    0.08    1.07    1.44   313.30644   111.96317   186.93664
   294  H   1.0    0.06    1.06    1.44   317.87292   114.40963   185.01455
   295  H   1.0    0.04    1.00    1.43   319.09736   110.01097   183.88025
   296  H   1.0    0.04    1.00    1.43   318.07493   110.12204   187.06319
   297  H   1.0    0.04    1.00    1.43   316.04425   108.91424   184.69550
   298  N   5.0   -0.12    3.54    2.10   313.15058   113.78335   181.55585
   299  C   4.0    0.04    4.35    4.29   311.94349   114.09030   179.13604
   300  C   4.0    0.08    3.23    3.04   309.66111   115.84139   179.47622
   301  O   6.0   -0.28    1.15    1.80   308.64877   116.14935   181.52957
   302  C   4.0    0.05    4.22    4.04   310.93515   111.51574   178.11459
   303  O   6.0   -0.25    2.14    1.85   310.02247   110.16824   180.23265
   304  C   4.0   -0.08    4.05    3.71   312.99103   110.04986   176.71566
   305  H   1.0    0.10    1.10    1.44   311.96503   114.03321   183.03756
   306  H   1.0    0.04    1.05    1.44   313.28699   114.89193   177.78773
   307  H   1.0    0.03    1.04    1.43   309.36394   111.92790   176.81164
   308  H   1.0    0.11    1.02    1.43   309.20810   108.64534   179.64908
   309  H   1.0    0.03    1.00    1.43   312.23792   108.24933   176.07188
   310  H   1.0    0.03    1.00    1.43   313.60992   111.11924   175.08009
   311  H   1.0    0.06    1.00    1.43   314.57763   109.70880   177.96908
   312  H   1.0    0.08    1.07    1.44   310.19131   142.88734   164.61389
   313  H   1.0    0.06    1.05    1.44   313.53383   144.15407   174.83868
   314  H   1.0    0.09    1.07    1.44   308.64848   141.34206   174.71157
   315  H   1.0    0.06    1.05    1.44   311.16761   141.53586   183.24447
   316  H   1.0    0.08    1.07    1.44   301.47966   116.33628   196.90054
   317  H   1.0    0.05    1.05    1.44   300.59626   118.67034   190.86541
   318  H   1.0    0.10    1.08    1.44   302.62305   121.56355   187.28710
   319  H   1.0    0.05    1.04    1.44   330.94801   127.13193   169.18882
   320  H   1.0    0.08    1.08    1.44   330.31965   136.19298   167.15317
   321  H   1.0    0.07    1.05    1.44   324.17292   138.55097   158.10214
   322  H   1.0    0.10    1.08    1.44   327.18462   120.00015   185.54900
   323  H   1.0    0.06    1.05    1.44   330.43863   126.88137   184.49574
   324  H   1.0    0.11    1.07    1.44   328.26652   129.02726   188.88719
   325  H   1.0    0.04    1.04    1.43   330.66557   126.44142   195.41177
   326  H   1.0    0.08    1.07    1.44   315.53696   113.61768   199.05702
   327  H   1.0    0.06    1.05    1.44   308.95612   116.77399   177.99152

  Z AO/shell   Hii/eV     exponent
  1     Wed Apr 25 08:07:45 CEST 2018   EN: 2.200 GM2: 0.406  GM3: 0.0800  RAES: 1.40
     1s    -10.707211    1.230000
  6     Wed Apr 25 08:07:45 CEST 2018   EN: 2.550 GM2: 0.538  GM3: 0.1500  RAES: 3.00
     2s    -13.970922    2.096432
     2p    -10.063292    1.800000
  7     Wed Apr 25 08:07:45 CEST 2018   EN: 3.040 GM2: 0.461  GM3:-0.0640  RAES: 1.90
     2s    -16.686243    2.339881
     2p    -12.523956    2.014332
  8     Wed Apr 25 08:07:45 CEST 2018   EN: 3.440 GM2: 0.452  GM3:-0.0517  RAES: 1.80
     2s    -20.229985    2.439742
     2p    -15.503117    2.137023
 no old-style atom pair restraining (fixing) potential

molecular fragmentation (1/2 indicates fragments):
111111111111111111111111111111111111111222222222222222222222222222222222
222222222222222222222222222222222222222222222222222222222222222222222222
222222222222222222222222222222222222222222222222222222222222222222222222
222222222222222222222222222222222222222222222222222222222222222222222222
222222222222222222222221122222222222222
# atoms in fragment 1/2:    41   286
 fragment masses (1/2) :      304.30     2047.20
CMA distance (Bohr)    :  16.157
constraining FC (au)   :  0.0500
           ------------------------------------------------- 
          |        Self-Consistent Charge Iterations        |
           ------------------------------------------------- 

 Ncao       : 819
 Nao        : 819
 Nshell     : 491
 Nel        : 930
 T(el)      :   500.0
 intcut     :    35.0
 scfconv/Eh :  0.100E-06
   qconv/e  :  0.100E-04
 intneglect :  0.100E-08
 broydamp   :      0.400
 iter      E             dE          RMSdq      gap      omega  full diag
   1   -539.2275898 -0.539228E+03  0.502E+00    3.36       0.0  T
   2   -540.7936476 -0.156606E+01  0.229E+00    1.94       1.0  T
   3   -540.8988620 -0.105214E+00  0.133E+00    1.85       1.0  T
   4   -540.9872111 -0.883491E-01  0.277E-01    1.33       1.0  T
   5   -540.9925540 -0.534289E-02  0.135E-01    1.54       1.0  T
   6   -540.9935327 -0.978742E-03  0.590E-02    1.54       1.0  T
   7   -540.9938039 -0.271151E-03  0.271E-02    1.53       1.0  T
   8   -540.9938411 -0.372399E-04  0.136E-02    1.53       1.0  T
   9   -540.9938577 -0.165794E-04  0.598E-03    1.52       1.0  T
  10   -540.9938602 -0.249063E-05  0.263E-03    1.53       2.1  T
  11   -540.9938607 -0.515567E-06  0.108E-03    1.53       5.1  T
  12   -540.9938608 -0.669382E-07  0.472E-04    1.53      11.7  T
  13   -540.9938608 -0.185165E-07  0.228E-04    1.53      24.3  T
  14   -540.9938608 -0.357784E-08  0.101E-04    1.53      55.0  T
  15   -540.9938608 -0.906653E-09  0.418E-05    1.53     132.2  T
  16   -540.9938608 -0.145064E-09  0.184E-05    1.53     301.1  T
speedup 14.19
cpu  time for SCC   30.62 s
wall time for SCC    2.16 s

   *** convergence criteria satisfied after 16 iterations ***

          eigenvalues
 #    :         453        454        455        456        457        458        459        460
 occ. :        2.000      2.000      2.000      2.000      2.000      2.000      2.000      2.000
 eps  :       -10.617    -10.550    -10.362    -10.209    -10.183    -10.161    -10.154    -10.128
 #    :         461        462        463        464        465        466        467        468
 occ. :        2.000      2.000      2.000      2.000      2.000      0.000      0.000      0.000
 eps  :       -10.117     -9.982     -9.890     -9.806     -9.610     -8.084     -8.006     -7.985
 #    :         469        470        471        472        473        474        475        476
 occ. :        0.000      0.000      0.000      0.000      0.000      0.000      0.000      0.000
 eps  :        -7.973     -7.793     -7.787     -7.761     -7.746     -6.706     -6.525     -6.463


   #   Z            q   n(s)   n(p)   n(d)      C6AA      α(0)
   1   7 N     -0.377  1.313  4.064  0.000    29.729     8.098
   2   6 C      0.017  1.063  2.921  0.000    20.313     6.421
   3   6 C      0.270  1.050  2.680  0.000    22.441     7.758
   4   8 O     -0.458  1.745  4.713  0.000    22.875     6.412
   5   6 C      0.066  1.040  2.894  0.000    19.690     6.358
   6   8 O     -0.456  1.704  4.753  0.000    21.975     6.328
   7   1 H      0.169  0.831  0.000  0.000     1.279     1.772
   8   1 H      0.064  0.936  0.000  0.000     2.149     2.293
   9   1 H      0.012  0.988  0.000  0.000     2.853     2.641
  10   1 H      0.075  0.925  0.000  0.000     2.029     2.227
  11   1 H      0.308  0.692  0.000  0.000     0.699     1.313
  12   7 N     -0.198  1.248  3.950  0.000    25.300     7.470
  13   6 C      0.032  1.059  2.909  0.000    20.034     6.372
  14   6 C      0.286  1.037  2.678  0.000    22.162     7.709
  15   8 O     -0.482  1.747  4.735  0.000    23.392     6.485
  16   6 C     -0.053  1.047  3.006  0.000    21.523     6.605
  17   6 C     -0.093  1.057  3.036  0.000    22.267     6.717
  18   6 C      0.294  1.033  2.673  0.000    22.011     7.682
  19   8 O     -0.498  1.739  4.758  0.000    23.731     6.531
  20   7 N     -0.278  1.265  4.014  0.000    27.191     7.745
  21   1 H      0.197  0.803  0.000  0.000     1.122     1.659
  22   1 H      0.075  0.925  0.000  0.000     2.032     2.229
  23   1 H      0.046  0.954  0.000  0.000     2.369     2.407
  24   1 H      0.045  0.955  0.000  0.000     2.386     2.416
  25   1 H      0.063  0.937  0.000  0.000     2.165     2.301
  26   1 H      0.077  0.923  0.000  0.000     2.013     2.219
  27   1 H      0.215  0.785  0.000  0.000     1.031     1.590
  28   1 H      0.221  0.779  0.000  0.000     1.006     1.571
  29   7 N     -0.166  1.238  3.929  0.000    24.595     7.366
  30   6 C      0.031  1.056  2.913  0.000    20.058     6.378
  31   6 C      0.207  1.085  2.708  0.000    23.608     7.957
  32   8 O     -0.355  1.755  4.600  0.000    20.796     6.114
  33   6 C      0.069  1.041  2.890  0.000    19.630     6.346
  34   8 O     -0.478  1.715  4.763  0.000    22.421     6.392
  35   1 H      0.218  0.782  0.000  0.000     1.020     1.582
  36   1 H      0.081  0.919  0.000  0.000     1.971     2.196
  37   1 H      0.064  0.936  0.000  0.000     2.156     2.296
  38   1 H      0.061  0.939  0.000  0.000     2.185     2.312
  39   1 H      0.365  0.635  0.000  0.000     0.553     1.168
  40   7 N     -0.411  1.317  4.094  0.000    30.678     8.226
  41   6 C      0.042  1.056  2.902  0.000    19.881     6.351
  42   6 C      0.271  1.051  2.679  0.000    22.428     7.755
  43   8 O     -0.518  1.747  4.771  0.000    24.188     6.594
  44   6 C     -0.056  1.054  3.002  0.000    21.574     6.611
  45   6 C     -0.005  1.056  2.949  0.000    20.636     6.461
  46   6 C     -0.108  1.041  3.067  0.000    22.614     6.780
  47   6 C     -0.117  1.042  3.075  0.000    22.787     6.806
  48   1 H      0.171  0.829  0.000  0.000     1.265     1.762
  49   1 H      0.039  0.961  0.000  0.000     2.456     2.451
  50   1 H      0.013  0.987  0.000  0.000     2.850     2.640
  51   1 H      0.035  0.965  0.000  0.000     2.523     2.484
  52   1 H      0.036  0.964  0.000  0.000     2.500     2.473
  53   1 H      0.051  0.949  0.000  0.000     2.305     2.374
  54   1 H      0.011  0.989  0.000  0.000     2.872     2.650
  55   1 H      0.047  0.953  0.000  0.000     2.360     2.403
  56   1 H      0.054  0.946  0.000  0.000     2.273     2.357
  57   1 H      0.050  0.950  0.000  0.000     2.317     2.381
  58   1 H      0.033  0.967  0.000  0.000     2.551     2.498
  59   7 N     -0.183  1.251  3.932  0.000    24.965     7.421
  60   6 C      0.054  1.050  2.897  0.000    19.683     6.317
  61   6 C      0.207  1.086  2.707  0.000    23.599     7.956
  62   8 O     -0.380  1.746  4.634  0.000    21.283     6.185
  63   6 C     -0.099  1.074  3.024  0.000    22.381     6.735
  64   6 C      0.381  1.021  2.598  0.000    20.549     7.418
  65   8 O     -0.615  1.758  4.857  0.000    26.498     6.902
  66   8 O     -0.607  1.766  4.841  0.000    26.292     6.875
  67   1 H      0.220  0.780  0.000  0.000     1.010     1.574
  68   1 H      0.052  0.948  0.000  0.000     2.294     2.368
  69   1 H      0.055  0.945  0.000  0.000     2.261     2.351
  70   1 H      0.035  0.965  0.000  0.000     2.520     2.482
  71   7 N     -0.388  1.313  4.075  0.000    30.045     8.141
  72   6 C      0.017  1.066  2.916  0.000    20.303     6.419
  73   6 C      0.192  1.093  2.716  0.000    23.901     8.006
  74   8 O     -0.380  1.757  4.623  0.000    21.279     6.185
  75   6 C      0.109  1.047  2.844  0.000    18.887     6.206
  76   8 O     -0.481  1.737  4.744  0.000    22.489     6.402
  77   6 C     -0.134  1.046  3.087  0.000    23.129     6.858
  78   1 H      0.172  0.828  0.000  0.000     1.260     1.758
  79   1 H      0.081  0.919  0.000  0.000     1.967     2.193
  80   1 H      0.048  0.952  0.000  0.000     2.341     2.393
  81   1 H      0.333  0.667  0.000  0.000     0.631     1.248
  82   1 H      0.062  0.938  0.000  0.000     2.181     2.310
  83   1 H      0.049  0.951  0.000  0.000     2.337     2.391
  84   1 H      0.053  0.947  0.000  0.000     2.287     2.365
  85   7 N     -0.373  1.314  4.060  0.000    29.641     8.086
  86   6 C      0.037  1.057  2.906  0.000    19.970     6.364
  87   6 C      0.280  1.041  2.679  0.000    22.270     7.728
  88   8 O     -0.472  1.743  4.729  0.000    23.181     6.455
  89   6 C     -0.107  1.067  3.040  0.000    22.534     6.757
  90   6 C      0.281  1.039  2.680  0.000    22.246     7.723
  91   8 O     -0.515  1.749  4.765  0.000    24.114     6.584
  92   7 N     -0.287  1.271  4.015  0.000    27.394     7.773
  93   1 H      0.173  0.827  0.000  0.000     1.255     1.755
  94   1 H      0.037  0.963  0.000  0.000     2.485     2.465
  95   1 H      0.069  0.931  0.000  0.000     2.095     2.264
  96   1 H      0.080  0.920  0.000  0.000     1.975     2.198
  97   1 H      0.228  0.772  0.000  0.000     0.973     1.545
  98   1 H      0.224  0.776  0.000  0.000     0.990     1.558
  99   7 N     -0.179  1.248  3.931  0.000    24.868     7.406
 100   6 C      0.014  1.064  2.922  0.000    20.351     6.423
 101   6 C      0.270  1.044  2.686  0.000    22.434     7.756
 102   8 O     -0.491  1.744  4.747  0.000    23.589     6.512
 103   6 C     -0.015  1.059  2.955  0.000    20.799     6.487
 104   6 C     -0.121  1.042  3.079  0.000    22.872     6.819
 105   6 C     -0.110  1.036  3.074  0.000    22.661     6.788
 106   1 H      0.184  0.816  0.000  0.000     1.194     1.711
 107   1 H      0.092  0.908  0.000  0.000     1.858     2.131
 108   1 H      0.055  0.945  0.000  0.000     2.257     2.349
 109   1 H      0.060  0.940  0.000  0.000     2.198     2.318
 110   1 H      0.049  0.951  0.000  0.000     2.326     2.385
 111   1 H      0.048  0.952  0.000  0.000     2.350     2.397
 112   1 H      0.058  0.942  0.000  0.000     2.225     2.333
 113   1 H      0.035  0.965  0.000  0.000     2.512     2.478
 114   1 H      0.027  0.973  0.000  0.000     2.630     2.536
 115   7 N     -0.182  1.245  3.937  0.000    24.949     7.418
 116   6 C      0.030  1.056  2.914  0.000    20.068     6.378
 117   6 C      0.272  1.043  2.685  0.000    22.400     7.750
 118   8 O     -0.455  1.731  4.724  0.000    22.809     6.403
 119   6 C     -0.053  1.049  3.004  0.000    21.526     6.604
 120   6 C     -0.083  1.053  3.030  0.000    22.069     6.687
 121   6 C      0.291  1.039  2.670  0.000    22.064     7.691
 122   8 O     -0.495  1.727  4.767  0.000    23.663     6.522
 123   7 N     -0.294  1.284  4.010  0.000    27.576     7.799
 124   1 H      0.229  0.771  0.000  0.000     0.969     1.542
 125   1 H      0.055  0.945  0.000  0.000     2.256     2.349
 126   1 H      0.074  0.926  0.000  0.000     2.038     2.233
 127   1 H      0.031  0.969  0.000  0.000     2.568     2.506
 128   1 H      0.039  0.961  0.000  0.000     2.467     2.456
 129   1 H      0.067  0.933  0.000  0.000     2.121     2.278
 130   1 H      0.228  0.772  0.000  0.000     0.974     1.546
 131   1 H      0.202  0.798  0.000  0.000     1.097     1.641
 132   7 N     -0.168  1.239  3.929  0.000    24.626     7.370
 133   6 C      0.013  1.065  2.922  0.000    20.369     6.427
 134   6 C      0.275  1.042  2.683  0.000    22.343     7.741
 135   8 O     -0.516  1.759  4.757  0.000    24.149     6.589
 136   6 C     -0.065  1.049  3.015  0.000    21.735     6.636
 137   6 C     -0.103  1.057  3.046  0.000    22.459     6.746
 138   6 C      0.288  1.038  2.673  0.000    22.112     7.699
 139   8 O     -0.500  1.746  4.754  0.000    23.783     6.538
 140   7 N     -0.287  1.266  4.020  0.000    27.401     7.774
 141   1 H      0.183  0.817  0.000  0.000     1.200     1.716
 142   1 H      0.096  0.904  0.000  0.000     1.822     2.111
 143   1 H      0.049  0.951  0.000  0.000     2.329     2.387
 144   1 H      0.071  0.929  0.000  0.000     2.074     2.252
 145   1 H      0.092  0.908  0.000  0.000     1.864     2.135
 146   1 H      0.070  0.930  0.000  0.000     2.089     2.260
 147   1 H      0.236  0.764  0.000  0.000     0.941     1.520
 148   1 H      0.239  0.761  0.000  0.000     0.928     1.509
 149   7 N     -0.156  1.243  3.913  0.000    24.374     7.332
 150   6 C      0.022  1.060  2.918  0.000    20.205     6.400
 151   6 C      0.272  1.043  2.685  0.000    22.396     7.750
 152   8 O     -0.493  1.746  4.748  0.000    23.632     6.518
 153   6 C     -0.079  1.057  3.022  0.000    21.997     6.676
 154   6 C     -0.076  1.051  3.026  0.000    21.947     6.669
 155   6 C     -0.094  1.056  3.039  0.000    22.297     6.723
 156   6 C     -0.046  1.056  2.990  0.000    21.485     6.615
 157   7 N     -0.157  1.233  3.924  0.000    24.384     7.334
 158   1 H      0.236  0.764  0.000  0.000     0.940     1.519
 159   1 H      0.055  0.945  0.000  0.000     2.255     2.349
 160   1 H      0.079  0.921  0.000  0.000     1.986     2.204
 161   1 H      0.066  0.934  0.000  0.000     2.129     2.282
 162   1 H      0.051  0.949  0.000  0.000     2.304     2.374
 163   1 H      0.052  0.948  0.000  0.000     2.292     2.367
 164   1 H      0.084  0.916  0.000  0.000     1.942     2.179
 165   1 H      0.087  0.913  0.000  0.000     1.910     2.161
 166   1 H      0.112  0.888  0.000  0.000     1.677     2.025
 167   1 H      0.099  0.901  0.000  0.000     1.792     2.093
 168   1 H      0.312  0.688  0.000  0.000     0.679     1.291
 169   1 H      0.297  0.703  0.000  0.000     0.722     1.331
 170   1 H      0.297  0.703  0.000  0.000     0.722     1.331
 171   7 N     -0.177  1.252  3.925  0.000    24.842     7.402
 172   6 C      0.036  1.057  2.907  0.000    19.985     6.367
 173   6 C      0.199  1.088  2.713  0.000    23.762     7.983
 174   8 O     -0.345  1.742  4.602  0.000    20.609     6.087
 175   6 C     -0.078  1.058  3.020  0.000    21.983     6.674
 176   6 C      0.003  1.075  2.922  0.000    27.954     8.672
 177   6 C     -0.035  1.081  2.954  0.000    28.879     8.813
 178   6 C     -0.045  1.082  2.963  0.000    29.117     8.849
 179   6 C     -0.054  1.074  2.980  0.000    29.339     8.882
 180   6 C     -0.070  1.076  2.994  0.000    29.746     8.944
 181   6 C      0.145  1.045  2.810  0.000    24.850     8.170
 182   8 O     -0.431  1.719  4.712  0.000    21.449     6.252
 183   1 H      0.225  0.775  0.000  0.000     0.987     1.556
 184   1 H      0.067  0.933  0.000  0.000     2.120     2.277
 185   1 H      0.086  0.914  0.000  0.000     1.913     2.163
 186   1 H      0.076  0.924  0.000  0.000     2.017     2.221
 187   1 H      0.035  0.965  0.000  0.000     2.518     2.481
 188   1 H      0.052  0.948  0.000  0.000     2.299     2.371
 189   1 H      0.029  0.971  0.000  0.000     2.601     2.522
 190   1 H      0.038  0.962  0.000  0.000     2.476     2.461
 191   1 H      0.338  0.662  0.000  0.000     0.616     1.233
 192   7 N     -0.377  1.304  4.074  0.000    29.752     8.101
 193   6 C      0.050  1.055  2.896  0.000    19.753     6.330
 194   6 C      0.286  1.045  2.669  0.000    22.155     7.707
 195   8 O     -0.503  1.749  4.754  0.000    23.853     6.548
 196   6 C     -0.094  1.071  3.023  0.000    22.297     6.723
 197   6 C      0.374  1.021  2.605  0.000    20.670     7.440
 198   8 O     -0.649  1.780  4.869  0.000    27.357     7.013
 199   8 O     -0.642  1.764  4.879  0.000    27.186     6.991
 200   1 H      0.137  0.863  0.000  0.000     1.492     1.914
 201   1 H      0.034  0.966  0.000  0.000     2.529     2.487
 202   1 H      0.015  0.985  0.000  0.000     2.810     2.621
 203   1 H      0.012  0.988  0.000  0.000     2.862     2.646
 204   7 N     -0.205  1.253  3.952  0.000    25.466     7.495
 205   6 C      0.043  1.052  2.905  0.000    19.862     6.347
 206   6 C      0.213  1.082  2.705  0.000    23.488     7.937
 207   8 O     -0.362  1.741  4.621  0.000    20.939     6.135
 208   6 C     -0.105  1.067  3.038  0.000    22.485     6.748
 209   6 C      0.295  1.031  2.675  0.000    22.003     7.680
 210   8 O     -0.482  1.751  4.731  0.000    23.384     6.483
 211   7 N     -0.284  1.263  4.021  0.000    27.342     7.766
 212   1 H      0.229  0.771  0.000  0.000     0.972     1.544
 213   1 H      0.089  0.911  0.000  0.000     1.891     2.150
 214   1 H      0.068  0.932  0.000  0.000     2.110     2.271
 215   1 H      0.103  0.897  0.000  0.000     1.755     2.071
 216   1 H      0.245  0.755  0.000  0.000     0.903     1.489
 217   1 H      0.218  0.782  0.000  0.000     1.018     1.580
 218   7 N     -0.377  1.312  4.065  0.000    29.746     8.100
 219   6 C     -0.016  1.048  2.968  0.000    20.945     6.531
 220   6 C      0.255  1.051  2.694  0.000    22.708     7.803
 221   8 O     -0.463  1.729  4.734  0.000    22.977     6.427
 222   1 H      0.187  0.813  0.000  0.000     1.175     1.698
 223   1 H      0.077  0.923  0.000  0.000     2.014     2.219
 224   1 H      0.040  0.960  0.000  0.000     2.449     2.447
 225   7 N     -0.194  1.246  3.947  0.000    25.201     7.456
 226   6 C      0.023  1.060  2.918  0.000    20.202     6.401
 227   6 C      0.274  1.044  2.682  0.000    22.360     7.743
 228   8 O     -0.480  1.744  4.736  0.000    23.345     6.478
 229   6 C     -0.124  1.040  3.084  0.000    22.927     6.827
 230   1 H      0.198  0.802  0.000  0.000     1.114     1.653
 231   1 H      0.096  0.904  0.000  0.000     1.822     2.111
 232   1 H      0.064  0.936  0.000  0.000     2.149     2.293
 233   1 H      0.087  0.913  0.000  0.000     1.903     2.158
 234   1 H      0.044  0.956  0.000  0.000     2.394     2.420
 235   7 N     -0.196  1.243  3.952  0.000    25.245     7.462
 236   6 C      0.043  1.052  2.905  0.000    19.865     6.347
 237   6 C      0.268  1.049  2.683  0.000    22.468     7.762
 238   8 O     -0.486  1.733  4.753  0.000    23.468     6.495
 239   6 C     -0.087  1.061  3.026  0.000    22.162     6.702
 240   6 C      0.368  1.023  2.608  0.000    20.754     7.455
 241   8 O     -0.628  1.780  4.848  0.000    26.820     6.943
 242   8 O     -0.603  1.742  4.862  0.000    26.194     6.862
 243   1 H      0.207  0.793  0.000  0.000     1.072     1.622
 244   1 H      0.061  0.939  0.000  0.000     2.190     2.314
 245   1 H      0.024  0.976  0.000  0.000     2.671     2.556
 246   1 H      0.031  0.969  0.000  0.000     2.568     2.506
 247   7 N     -0.159  1.233  3.925  0.000    24.439     7.342
 248   6 C     -0.032  1.050  2.982  0.000    21.213     6.571
 249   6 C      0.204  1.078  2.718  0.000    23.663     7.966
 250   8 O     -0.341  1.744  4.597  0.000    20.541     6.076
 251   1 H      0.206  0.794  0.000  0.000     1.074     1.623
 252   1 H      0.125  0.875  0.000  0.000     1.571     1.960
 253   1 H      0.134  0.866  0.000  0.000     1.506     1.919
 254   7 N     -0.368  1.309  4.059  0.000    29.493     8.066
 255   6 C      0.026  1.062  2.912  0.000    20.155     6.395
 256   6 C      0.194  1.088  2.718  0.000    23.858     7.999
 257   8 O     -0.354  1.751  4.602  0.000    20.777     6.111
 258   6 C      0.131  1.045  2.824  0.000    18.552     6.149
 259   8 O     -0.489  1.721  4.768  0.000    22.666     6.427
 260   6 C     -0.132  1.045  3.087  0.000    23.092     6.852
 261   1 H      0.149  0.851  0.000  0.000     1.409     1.859
 262   1 H      0.052  0.948  0.000  0.000     2.299     2.371
 263   1 H      0.016  0.984  0.000  0.000     2.799     2.616
 264   1 H      0.307  0.693  0.000  0.000     0.700     1.314
 265   1 H      0.069  0.931  0.000  0.000     2.093     2.262
 266   1 H      0.057  0.943  0.000  0.000     2.238     2.339
 267   1 H      0.060  0.940  0.000  0.000     2.193     2.316
 268   7 N     -0.389  1.311  4.079  0.000    30.079     8.145
 269   6 C      0.036  1.057  2.907  0.000    19.987     6.368
 270   6 C      0.268  1.051  2.680  0.000    22.467     7.762
 271   8 O     -0.469  1.742  4.726  0.000    23.107     6.445
 272   6 C     -0.117  1.042  3.076  0.000    22.800     6.808
 273   1 H      0.166  0.834  0.000  0.000     1.298     1.784
 274   1 H      0.031  0.969  0.000  0.000     2.579     2.511
 275   1 H      0.036  0.964  0.000  0.000     2.497     2.471
 276   1 H      0.058  0.942  0.000  0.000     2.218     2.329
 277   1 H      0.053  0.947  0.000  0.000     2.282     2.362
 278   7 N     -0.190  1.257  3.933  0.000    25.114     7.443
 279   6 C      0.023  1.060  2.917  0.000    20.190     6.398
 280   6 C      0.270  1.046  2.684  0.000    22.441     7.757
 281   8 O     -0.489  1.749  4.740  0.000    23.550     6.506
 282   6 C     -0.125  1.040  3.085  0.000    22.951     6.830
 283   1 H      0.200  0.800  0.000  0.000     1.106     1.647
 284   1 H      0.073  0.927  0.000  0.000     2.057     2.243
 285   1 H      0.067  0.933  0.000  0.000     2.114     2.274
 286   1 H      0.067  0.933  0.000  0.000     2.123     2.279
 287   1 H      0.055  0.945  0.000  0.000     2.264     2.353
 288   7 N     -0.182  1.250  3.933  0.000    24.951     7.419
 289   6 C      0.015  1.059  2.926  0.000    20.327     6.421
 290   6 C      0.263  1.045  2.692  0.000    22.565     7.778
 291   8 O     -0.459  1.704  4.756  0.000    22.899     6.416
 292   6 C     -0.134  1.043  3.091  0.000    23.135     6.858
 293   1 H      0.217  0.783  0.000  0.000     1.024     1.585
 294   1 H      0.086  0.914  0.000  0.000     1.914     2.164
 295   1 H      0.092  0.908  0.000  0.000     1.860     2.133
 296   1 H      0.068  0.932  0.000  0.000     2.112     2.272
 297   1 H      0.071  0.929  0.000  0.000     2.073     2.252
 298   7 N     -0.136  1.219  3.916  0.000    23.938     7.267
 299   6 C      0.014  1.064  2.922  0.000    20.359     6.427
 300   6 C      0.197  1.086  2.717  0.000    23.793     7.989
 301   8 O     -0.361  1.755  4.606  0.000    20.925     6.133
 302   6 C      0.121  1.049  2.831  0.000    18.708     6.176
 303   8 O     -0.482  1.726  4.757  0.000    22.515     6.405
 304   6 C     -0.149  1.048  3.101  0.000    23.443     6.905
 305   1 H      0.205  0.795  0.000  0.000     1.079     1.627
 306   1 H      0.104  0.896  0.000  0.000     1.746     2.066
 307   1 H      0.028  0.972  0.000  0.000     2.618     2.530
 308   1 H      0.347  0.653  0.000  0.000     0.596     1.213
 309   1 H      0.070  0.930  0.000  0.000     2.091     2.261
 310   1 H      0.071  0.929  0.000  0.000     2.071     2.251
 311   1 H      0.086  0.914  0.000  0.000     1.923     2.169
 312   1 H      0.194  0.806  0.000  0.000     1.137     1.670
 313   1 H      0.094  0.906  0.000  0.000     1.841     2.122
 314   1 H      0.185  0.815  0.000  0.000     1.188     1.707
 315   1 H      0.072  0.928  0.000  0.000     2.062     2.245
 316   1 H      0.189  0.811  0.000  0.000     1.163     1.689
 317   1 H      0.078  0.922  0.000  0.000     1.994     2.208
 318   1 H      0.189  0.811  0.000  0.000     1.164     1.690
 319   1 H      0.085  0.915  0.000  0.000     1.930     2.172
 320   1 H      0.181  0.819  0.000  0.000     1.208     1.722
 321   1 H      0.063  0.937  0.000  0.000     2.160     2.298
 322   1 H      0.164  0.836  0.000  0.000     1.308     1.791
 323   1 H      0.065  0.935  0.000  0.000     2.144     2.290
 324   1 H      0.165  0.835  0.000  0.000     1.300     1.786
 325   1 H      0.080  0.920  0.000  0.000     1.975     2.197
 326   1 H      0.182  0.818  0.000  0.000     1.200     1.716
 327   1 H      0.080  0.920  0.000  0.000     1.978     2.199

 Mol. C6AA /au·bohr⁶  :    1007605.359374
 Mol. C8AA /au·bohr⁸  :   22217149.963759
 Mol. α(0) /au        :       1495.639426

 
molecular dipole:
                 x           y           z       tot (Debye)
 q only:     -648.856    -292.798    -346.916
   full:     -649.077    -290.515    -345.375    2009.443
molecular quadrupole (traceless):
                xx          xy          yy          xz          yz          zz
 q only:  -159344.590 -142303.704   93320.293 -168712.999  -76263.132   66024.297
  q+dip:  -160089.154 -141220.929   93725.054 -168034.435  -75374.397   66364.101
   full:  -160086.441 -141220.127   93724.713 -168032.289  -75373.139   66361.729
speedup 14.31
cpu  time for grad   33.35 s
wall time for grad    2.33 s

SCC energy    :    -541.0035604
rep           :       6.1621469
ES            :       2.1133318
AES           :      -0.0781677
AXC           :       0.1386576
disp          :      -0.4062022
XB            :       0.0000000
fix           :       0.0000000
Gborn         :       0.0000000
Gsasa         :       0.0000000
Ghb           :       0.0000000
Gshift        :       0.0000000
Gsolv         :      -0.5803227     -364.16
Etot ala COSMO:    -541.0035604
grad norm     :       0.6314307
total E       :    -534.8079100
atomizationE  :      92.4753420    58029.15
(atE without considering molecular charge,
 total energy contains solvation terms)
H-L gap (eV)  :          1.5251

------------------------------------------------------------------------
 * finished run on 2019/02/13 at 00:18:26.814     
------------------------------------------------------------------------
 total:
 * wall-time:     0 d,  0 h,  0 min,  2.629 sec
 *  cpu-time:     0 d,  0 h,  0 min, 37.662 sec
 * ratio c/w:    14.325 speedup
 SCF:
 * wall-time:     0 d,  0 h,  0 min,  2.449 sec
 *  cpu-time:     0 d,  0 h,  0 min, 35.239 sec
 * ratio c/w:    14.386 speedup

