      -----------------------------------------------------------      
     |                   =====================                   |     
     |                           x T B                           |     
     |                   =====================                   |     
     |                         S. Grimme                         |     
     |          Mulliken Center for Theoretical Chemistry        |     
     |                    University of Bonn                     |     
     |                 Version 6.0.1 (SAW181210)                 |     
      -----------------------------------------------------------      

   This program is distributed in the hope that it will be useful,
   but WITHOUT ANY WARRANTY; without even the implied warranty of
   MERCHANTABILITY or FITNESS FOR A PARTICULAR PURPOSE.
   
   FOR NON-COMMERCIAL, ACADEMIA USE ONLY.
   
   Cite this work as:
   S. Grimme, C. Bannwarth, P. Shushkov, J. Comput. Theory Chem., 2017,
   13, 1989-2009.
   C. Bannwarth, S. Ehlert and S. Grimme., ChemRxiv, 2018, preprint.
   http://doi.org/10.26434/chemrxiv.7246238.v1
   
   for sTDA-xTB:
   S. Grimme and C. Bannwarth, J. Chem. Phys., 2016, 145, 054103.
   
   in the mass-spec context:
   V. Asgeirsson, C. Bauer and S. Grimme, Chem. Sci., 2017, 8, 4879.
   
   if GBSA is used:
   P. Shushkov, F. März and S. Grimme, unpublished.
   
   for ANC optimizer:
   S. Grimme, unpublished.
   Rational Function algorithm used in ANCopt:
   F. Eckert, P. Pulay, H.-J. Werner, J. Comput. Chem., 1997, 18, 1473.
   
   with help from (in alphabetical order)
   C. Bannwarth, F. Bohle, G. Brandenburg, E. Caldeweyher, M. Checinski,
   S. Dohm, S. Ehlert, S. Ehrlich, F. März, H. Neugebauer, J. Pisarek,
   P. Pracht, P. Shushkov, and S. Spicher.
   
 * started run on 2019/02/13 at 00:18:46.723     
========================================================================
 # omp threads = 16
========================================================================
number of atoms            : 192
number of electrons        : 498
charge                     : 1
spin                       : .0
first test random number   : .6085

########################################################################
# WARNING! Please study the warnings concerning your input carefully
#  - Process number higher than OMP_NUM_THREADS, I hope you know what you are doing.
########################################################################

           ------------------------------------------------- 
          |                 G F N 2 - x T B                 |
          | Geometry, Frequencies, Noncovalent interactions |
          |            JCTC 2018 parametrisation            |
           ------------------------------------------------- 
 
      method parameters     
 k(s)        :  1.8500
 k(p)        :  2.2300
 k(d)        :  2.2300
 k(f)        :  2.0000
 kEN (H0ij)  : -2.0000
 D4 a1       :  0.5200
 D4 a2       :  5.0000
 D4 s6       :  1.0000
 D4 s8       :  2.7000
 D4 s9       :  5.0000
 alphaj      :  2.0000

 Solvent             : h2o
 Using internal parameter file: .param_gbsa2_h2o
 Gsolv ref. state (COSMO-RS): gsolv [1 M gas/solution]
 temperature (mdtemp)       :    298.150000000000     
 dielectric constant        :    80.2000000000000     
 rho                        :    1.00000000000000     
 mass                       :    18.0000000000000     
 surface tension            :    15.5689454083859     
 probe radius               :   0.975313790000000     
 vdW radii scaling          :    1.00000000000000     
 Gshift (Eh)                :   1.857443126794793E-003
 c1                         :    1.55243817000000     
 soset                      :   0.130326360000000     
 HB correction              :  T

            Z     q(EN)     CN     RAES       Cart. coordinates
     1  N   5.0   -0.19    3.26    1.97   355.76423   131.51414   175.31604
     2  C   4.0    0.03    4.36    4.30   358.21665   132.46809   174.57498
     3  C   4.0    0.16    3.44    3.09   360.06478   132.10601   176.76149
     4  O   6.0   -0.31    1.33    1.80   359.50445   132.72225   178.91929
     5  C   4.0    0.06    4.22    4.05   358.00698   135.33171   173.91637
     6  O   6.0   -0.24    2.12    1.84   356.96668   136.74095   175.90348
     7  C   4.0   -0.07    4.07    3.75   356.49910   135.65708   171.47138
     8  H   1.0    0.12    1.05    1.44   355.01149   132.25942   176.91682
     9  H   1.0    0.04    1.05    1.44   358.81476   131.41569   172.90328
    10  H   1.0    0.06    1.04    1.43   359.92605   136.07235   173.66671
    11  H   1.0    0.14    1.05    1.44   355.39142   135.96737   176.47148
    12  H   1.0    0.06    1.00    1.43   356.38206   137.65064   171.00060
    13  H   1.0    0.05    1.00    1.43   357.42498   134.66614   169.93093
    14  H   1.0    0.05    1.00    1.43   354.60538   134.88919   171.69538
    15  N   5.0   -0.14    3.45    2.05   362.28181   131.04757   176.18566
    16  C   4.0    0.04    4.35    4.28   364.22538   130.70024   178.10269
    17  C   4.0    0.16    3.45    3.10   364.73015   133.26023   179.38543
    18  O   6.0   -0.28    1.23    1.80   365.16177   135.15587   178.13913
    19  C   4.0   -0.06    4.11    3.82   366.64061   129.71589   176.89023
    20  H   1.0    0.08    1.07    1.44   362.76277   130.70569   174.37343
    21  H   1.0    0.05    1.05    1.44   363.52942   129.36586   179.52544
    22  H   1.0    0.05    1.00    1.43   368.03286   129.32068   178.34627
    23  H   1.0    0.05    1.00    1.43   366.26164   127.98359   175.85389
    24  H   1.0    0.06    1.00    1.43   367.40780   131.13064   175.61154
    25  N   5.0   -0.14    3.46    2.05   364.70465   133.19268   181.91105
    26  C   4.0    0.04    4.34    4.27   365.03744   135.44082   183.44672
    27  C   4.0    0.15    3.41    3.08   367.28274   134.98052   185.21642
    28  O   6.0   -0.32    1.27    1.80   367.06617   133.85073   187.22768
    29  C   4.0   -0.06    4.11    3.81   362.64643   136.00287   184.95453
    30  H   1.0    0.11    1.10    1.44   364.25689   131.56965   182.84636
    31  H   1.0    0.06    1.06    1.44   365.46363   136.98696   182.14011
    32  H   1.0    0.04    1.00    1.43   362.85206   137.77815   185.96253
    33  H   1.0    0.05    1.00    1.43   361.04362   136.10660   183.67758
    34  H   1.0    0.05    1.00    1.43   362.33500   134.50064   186.32112
    35  N   5.0   -0.14    3.49    2.07   369.48761   135.85530   184.35659
    36  C   4.0    0.04    4.46    4.48   371.90068   135.50301   185.59781
    37  C   4.0    0.17    3.43    3.09   372.26046   137.40124   187.78600
    38  O   6.0   -0.29    1.26    1.80   373.94187   138.98009   187.82851
    39  C   4.0    0.06    4.25    4.10   374.00922   135.75930   183.60967
    40  O   6.0   -0.24    2.16    1.85   373.34743   137.80655   182.02147
    41  C   4.0   -0.06    4.06    3.73   374.31503   133.31908   182.09574
    42  H   1.0    0.10    1.09    1.44   369.60319   136.87686   182.74287
    43  H   1.0    0.05    1.05    1.44   371.94728   133.61167   186.44607
    44  H   1.0    0.06    1.04    1.43   375.76567   136.19174   184.63139
    45  H   1.0    0.13    1.02    1.43   374.71789   138.14516   180.87883
    46  H   1.0    0.05    1.00    1.43   375.78550   133.54619   180.67943
    47  H   1.0    0.05    1.00    1.43   374.84032   131.77541   183.34049
    48  H   1.0    0.06    1.00    1.43   372.55007   132.85793   181.15052
    49  N   5.0   -0.13    3.52    2.09   370.53910   137.13059   189.61219
    50  C   4.0    0.04    4.50    4.53   370.71563   138.53712   191.95961
    51  C   4.0    0.16    3.49    3.11   373.42181   138.22392   192.95926
    52  O   6.0   -0.27    1.24    1.80   374.47352   136.16515   192.96968
    53  C   4.0   -0.02    4.26    4.12   368.80700   137.52814   193.90351
    54  C   4.0   -0.06    4.12    3.84   368.99315   139.02246   196.36752
    55  C   4.0   -0.07    4.12    3.83   366.11100   137.67442   192.87996
    56  H   1.0    0.10    1.10    1.44   369.29409   135.67526   189.49560
    57  H   1.0    0.05    1.05    1.44   370.35389   140.54209   191.57434
    58  H   1.0    0.06    1.05    1.44   369.30622   135.55257   194.27582
    59  H   1.0    0.06    1.00    1.43   367.82066   138.14611   197.80820
    60  H   1.0    0.07    1.00    1.43   370.91814   139.07854   197.08329
    61  H   1.0    0.06    1.00    1.43   368.33776   140.95163   196.09630
    62  H   1.0    0.04    1.00    1.43   364.80304   137.05120   194.33475
    63  H   1.0    0.05    1.00    1.43   365.65029   139.61597   192.39314
    64  H   1.0    0.05    1.00    1.43   365.85097   136.49099   191.22107
    65  N   5.0   -0.12    3.51    2.08   374.50583   140.34741   193.79569
    66  C   4.0    0.04    4.47    4.49   377.03915   140.48072   194.78151
    67  C   4.0    0.17    3.39    3.08   376.96224   141.12716   197.61112
    68  O   6.0   -0.28    1.23    1.80   375.01804   141.65613   198.72349
    69  C   4.0    0.05    4.24    4.08   378.51966   142.53294   193.31022
    70  O   6.0   -0.23    2.14    1.85   377.08890   144.77807   193.51109
    71  C   4.0   -0.06    4.07    3.74   378.95511   141.72968   190.57463
    72  H   1.0    0.10    1.07    1.44   373.56885   142.00843   193.79891
    73  H   1.0    0.06    1.06    1.44   377.90819   138.62182   194.51680
    74  H   1.0    0.05    1.03    1.43   380.36532   142.81340   194.23545
    75  H   1.0    0.13    1.03    1.43   377.68533   145.96122   192.25363
    76  H   1.0    0.06    1.00    1.43   379.87779   143.24132   189.53310
    77  H   1.0    0.06    1.00    1.43   380.15922   140.06627   190.51905
    78  H   1.0    0.08    1.01    1.43   377.17571   141.26424   189.65656
    79  N   5.0   -0.12    3.39    2.02   379.25644   141.15454   198.70460
    80  C   4.0    0.03    4.14    3.88   379.66524   141.73687   201.33525
    81  C   4.0    0.10    3.11    3.03   380.24006   139.35153   202.86026
    82  O   6.0   -0.25    1.13    1.80   380.37224   137.27174   201.85063
    83  H   1.0    0.09    1.07    1.44   380.75070   140.40910   197.78366
    84  H   1.0    0.05    1.02    1.43   381.26581   143.03446   201.51119
    85  H   1.0    0.07    1.03    1.43   377.97134   142.65126   202.08105
    86  N   5.0   -0.19    3.24    1.97   363.88296   124.95657   188.33257
    87  C   4.0    0.03    4.42    4.41   362.34425   127.16927   188.81844
    88  C   4.0    0.14    3.45    3.09   361.62688   128.40338   186.31658
    89  O   6.0   -0.31    1.28    1.80   363.20153   128.72545   184.63742
    90  C   4.0   -0.02    4.27    4.15   363.73458   129.17476   190.41576
    91  C   4.0   -0.07    4.12    3.85   361.85023   131.16301   191.31624
    92  C   4.0   -0.07    4.13    3.87   365.03903   127.93892   192.66252
    93  H   1.0    0.10    1.03    1.43   365.46628   125.25023   187.31209
    94  H   1.0    0.04    1.06    1.44   360.65430   126.51876   189.81333
    95  H   1.0    0.07    1.06    1.44   365.15978   130.09171   189.22662
    96  H   1.0    0.04    1.00    1.43   362.82497   132.58693   192.42646
    97  H   1.0    0.05    1.00    1.43   360.93587   132.08904   189.72770
    98  H   1.0    0.04    1.00    1.43   360.39731   130.29359   192.48101
    99  H   1.0    0.05    1.00    1.43   365.90767   129.38064   193.83751
   100  H   1.0    0.05    1.00    1.43   363.68087   126.88396   193.78805
   101  H   1.0    0.05    1.00    1.43   366.49583   126.63946   192.02710
   102  N   5.0   -0.15    3.49    2.07   359.23877   129.18366   186.18381
   103  C   4.0    0.04    4.51    4.56   358.19426   130.33320   183.94970
   104  C   4.0    0.14    3.42    3.08   356.35672   132.44704   184.63752
   105  O   6.0   -0.32    1.24    1.80   355.20430   132.50686   186.64121
   106  C   4.0   -0.01    4.27    4.14   356.79805   128.37212   182.28976
   107  C   4.0   -0.06    4.11    3.83   358.61040   126.33633   181.35254
   108  C   4.0   -0.06    4.12    3.85   354.57587   127.18508   183.69147
   109  H   1.0    0.08    1.07    1.44   358.00524   128.74328   187.58393
   110  H   1.0    0.07    1.07    1.44   359.75642   131.11409   182.84598
   111  H   1.0    0.06    1.06    1.44   356.10451   129.42258   180.64735
   112  H   1.0    0.05    1.00    1.43   357.70315   125.24715   179.86773
   113  H   1.0    0.06    1.00    1.43   360.30203   127.19460   180.57004
   114  H   1.0    0.06    1.00    1.43   359.16251   125.07762   182.88041
   115  H   1.0    0.05    1.00    1.43   353.65946   125.77796   182.50878
   116  H   1.0    0.05    1.00    1.43   355.21893   126.27149   185.41670
   117  H   1.0    0.06    1.00    1.43   353.17025   128.60188   184.18177
   118  N   5.0   -0.14    3.52    2.09   356.11042   134.18818   182.82380
   119  C   4.0    0.03    4.29    4.17   354.21686   136.17143   182.76230
   120  C   4.0    0.08    3.22    3.04   352.22540   135.24552   180.88047
   121  O   6.0   -0.31    1.19    1.80   352.79493   134.59710   178.71430
   122  C   4.0   -0.04    4.24    4.08   355.52802   138.65431   182.04069
   123  C   4.0   -0.05    4.16    3.92   353.86438   141.00181   182.28468
   124  C   4.0   -0.04    4.17    3.95   351.90901   141.33783   180.18972
   125  C   4.0   -0.03    4.12    3.84   353.08531   141.86728   177.61707
   126  N   5.0   -0.11    4.00    2.86   351.08335   142.05347   175.66882
   127  H   1.0    0.11    1.11    1.45   357.11669   133.96421   181.21000
   128  H   1.0    0.05    1.05    1.44   353.36832   136.30825   184.64202
   129  H   1.0    0.04    1.03    1.43   357.11914   138.85647   183.33796
   130  H   1.0    0.06    1.03    1.43   356.29255   138.47698   180.13651
   131  H   1.0    0.04    1.03    1.43   352.85979   140.93564   184.08397
   132  H   1.0    0.05    1.03    1.43   355.09041   142.65740   182.30990
   133  H   1.0    0.05    1.03    1.43   350.72349   139.66150   180.06386
   134  H   1.0    0.05    1.03    1.43   350.68952   142.91160   180.72161
   135  H   1.0    0.05    1.02    1.43   354.11688   143.64981   177.65895
   136  H   1.0    0.05    1.02    1.43   354.38259   140.35169   177.09541
   137  H   1.0    0.06    1.02    1.43   351.86714   142.06199   173.90288
   138  H   1.0    0.07    1.02    1.43   349.82470   140.57389   175.79902
   139  H   1.0    0.06    0.98    1.43   350.01777   143.78972   175.82006
   140  N   5.0   -0.18    3.23    1.96   351.00912   137.09480   191.58914
   141  C   4.0    0.03    4.23    4.06   352.73099   134.98543   191.45559
   142  C   4.0    0.09    3.22    3.04   351.36993   132.50714   192.03000
   143  O   6.0   -0.26    1.12    1.80   349.56806   132.35033   193.48295
   144  C   4.0   -0.04    4.36    4.31   354.87350   135.27788   193.37973
   145  C   4.0   -0.02    4.18    3.96   356.40825   137.71782   193.07478
   146  C   4.0   -0.07    4.11    3.81   358.36139   137.86256   195.19583
   147  C   4.0   -0.07    4.10    3.81   357.71615   137.85020   190.50816
   148  H   1.0    0.10    1.03    1.43   350.63995   137.76114   193.33695
   149  H   1.0    0.06    1.06    1.44   353.47166   134.88542   189.53171
   150  H   1.0    0.05    1.03    1.43   354.04791   135.22570   195.27475
   151  H   1.0    0.04    1.03    1.43   356.14144   133.66065   193.18941
   152  H   1.0    0.04    1.05    1.44   355.12918   139.33251   193.25452
   153  H   1.0    0.05    1.00    1.43   359.38726   139.64190   195.13330
   154  H   1.0    0.04    1.00    1.43   357.45750   137.69236   197.03544
   155  H   1.0    0.04    1.00    1.43   359.71872   136.32955   195.01278
   156  H   1.0    0.04    1.00    1.43   358.89734   139.52688   190.41465
   157  H   1.0    0.04    1.00    1.43   358.90927   136.20032   190.23555
   158  H   1.0    0.04    1.00    1.43   356.34417   137.92728   188.98461
   159  N   5.0   -0.18    3.23    1.96   356.78978   138.75150   203.69304
   160  C   4.0    0.03    4.23    4.05   359.28260   139.56602   204.48045
   161  C   4.0    0.09    3.22    3.04   359.10763   140.64847   207.15227
   162  O   6.0   -0.25    1.14    1.80   357.19155   141.71284   207.89349
   163  C   4.0   -0.04    4.28    4.16   360.23829   141.60812   202.66229
   164  C   4.0   -0.04    4.23    4.07   363.05473   142.10624   203.05133
   165  C   4.0    0.16    3.22    3.04   363.96968   144.19951   201.30601
   166  O   6.0   -0.29    1.20    1.80   363.93326   144.03230   199.00843
   167  N   5.0   -0.18    3.19    1.95   364.78963   146.28039   202.50740
   168  H   1.0    0.10    1.03    1.43   355.62463   140.12624   203.06485
   169  H   1.0    0.04    1.05    1.44   360.54765   137.93336   204.48326
   170  H   1.0    0.05    1.03    1.43   359.93283   140.97849   200.72306
   171  H   1.0    0.06    1.03    1.43   359.16545   143.34417   202.97541
   172  H   1.0    0.04    1.03    1.43   363.42211   142.61033   205.01291
   173  H   1.0    0.05    1.03    1.43   364.08583   140.36956   202.61825
   174  H   1.0    0.09    1.03    1.43   364.87372   146.35849   204.40498
   175  H   1.0    0.11    1.03    1.43   365.46702   147.73915   201.48989
   176  N   5.0   -0.20    3.10    1.94   369.61334   142.81730   207.16037
   177  C   4.0    0.02    4.06    3.73   369.40752   141.35644   204.88403
   178  C   4.0    0.08    3.10    3.02   369.02531   138.51099   205.27880
   179  O   6.0   -0.27    1.11    1.80   368.82286   137.12228   203.43213
   180  H   1.0    0.09    1.02    1.43   367.98408   143.21157   208.09531
   181  H   1.0    0.05    1.04    1.43   367.80524   142.02692   203.77753
   182  H   1.0    0.07    1.03    1.43   371.11376   141.62817   203.75846
   183  H   1.0    0.10    1.08    1.44   354.63729   131.82464   174.08066
   184  H   1.0    0.07    1.04    1.44   380.51818   139.46693   204.72584
   185  H   1.0    0.10    1.08    1.44   364.39050   124.28260   189.80930
   186  H   1.0    0.06    1.04    1.43   350.40935   135.15441   181.39499
   187  H   1.0    0.09    1.07    1.44   351.64556   138.40377   190.70931
   188  H   1.0    0.06    1.05    1.44   351.93782   130.90424   191.20583
   189  H   1.0    0.09    1.07    1.44   356.93373   137.63385   202.41919
   190  H   1.0    0.06    1.04    1.44   360.57563   140.49427   208.33221
   191  H   1.0    0.11    1.08    1.44   370.59184   141.99047   208.27905
   192  H   1.0    0.06    1.04    1.43   368.94302   137.80251   207.02876

  Z AO/shell   Hii/eV     exponent
  1     Wed Apr 25 08:07:45 CEST 2018   EN: 2.200 GM2: 0.406  GM3: 0.0800  RAES: 1.40
     1s    -10.707211    1.230000
  6     Wed Apr 25 08:07:45 CEST 2018   EN: 2.550 GM2: 0.538  GM3: 0.1500  RAES: 3.00
     2s    -13.970922    2.096432
     2p    -10.063292    1.800000
  7     Wed Apr 25 08:07:45 CEST 2018   EN: 3.040 GM2: 0.461  GM3:-0.0640  RAES: 1.90
     2s    -16.686243    2.339881
     2p    -12.523956    2.014332
  8     Wed Apr 25 08:07:45 CEST 2018   EN: 3.440 GM2: 0.452  GM3:-0.0517  RAES: 1.80
     2s    -20.229985    2.439742
     2p    -15.503117    2.137023
 no old-style atom pair restraining (fixing) potential

molecular fragmentation (1/2 indicates fragments):
111111111111111111111111111111111111111111111111111111111111111111111111
111111111111122222222222222222222222222222222222222222222222222222222222
222222222222222222222222222222222222221122222222
# atoms in fragment 1/2:    87   105
 fragment masses (1/2) :      603.67      633.85
CMA distance (Bohr)    :  11.783
constraining FC (au)   :  0.0500
           ------------------------------------------------- 
          |        Self-Consistent Charge Iterations        |
           ------------------------------------------------- 

 Ncao       : 450
 Nao        : 450
 Nshell     : 278
 Nel        : 498
 T(el)      :   500.0
 intcut     :    35.0
 scfconv/Eh :  0.100E-06
   qconv/e  :  0.100E-04
 intneglect :  0.100E-08
 broydamp   :      0.400
 iter      E             dE          RMSdq      gap      omega  full diag
   1   -285.0061619 -0.285006E+03  0.461E+00    3.57       0.0  T
   2   -285.6989766 -0.692815E+00  0.212E+00    1.81       1.0  T
   3   -285.7430088 -0.440323E-01  0.122E+00    1.81       1.0  T
   4   -285.7861827 -0.431738E-01  0.250E-01    1.23       1.0  T
   5   -285.7886047 -0.242203E-02  0.111E-01    1.46       1.0  T
   6   -285.7890352 -0.430498E-03  0.426E-02    1.44       1.0  T
   7   -285.7890986 -0.634091E-04  0.185E-02    1.44       1.0  T
   8   -285.7891067 -0.816230E-05  0.747E-03    1.44       1.0  T
   9   -285.7891089 -0.217092E-05  0.304E-03    1.44       2.4  T
  10   -285.7891092 -0.251521E-06  0.123E-03    1.44       5.9  T
  11   -285.7891092 -0.637901E-07  0.560E-04    1.45      12.9  T
  12   -285.7891092 -0.850736E-08  0.168E-04    1.45      43.0  T
  13   -285.7891092 -0.111635E-08  0.865E-05    1.45      83.4  T
  14   -285.7891092 -0.195143E-09  0.339E-05    1.45     212.8  T
speedup 15.92
cpu  time for SCC    8.27 s
wall time for SCC    0.52 s

   *** convergence criteria satisfied after 14 iterations ***

          eigenvalues
 #    :         237        238        239        240        241        242        243        244
 occ. :        2.000      2.000      2.000      2.000      2.000      2.000      2.000      2.000
 eps  :       -11.026    -11.004    -10.945    -10.932    -10.859    -10.837    -10.787    -10.774
 #    :         245        246        247        248        249        250        251        252
 occ. :        2.000      2.000      2.000      2.000      2.000      0.000      0.000      0.000
 eps  :       -10.206    -10.087    -10.002     -9.981     -9.814     -8.369     -7.903     -7.792
 #    :         253        254        255        256        257        258        259        260
 occ. :        0.000      0.000      0.000      0.000      0.000      0.000      0.000      0.000
 eps  :        -7.772     -7.440     -6.440     -6.193     -6.147     -6.139     -6.056     -6.000


   #   Z            q   n(s)   n(p)   n(d)      C6AA      α(0)
   1   7 N     -0.398  1.326  4.071  0.000    30.307     8.176
   2   6 C      0.015  1.066  2.919  0.000    20.344     6.425
   3   6 C      0.274  1.045  2.681  0.000    22.366     7.745
   4   8 O     -0.479  1.731  4.749  0.000    23.335     6.477
   5   6 C      0.111  1.047  2.842  0.000    18.857     6.200
   6   8 O     -0.474  1.713  4.761  0.000    22.337     6.380
   7   6 C     -0.136  1.046  3.090  0.000    23.171     6.864
   8   1 H      0.177  0.823  0.000  0.000     1.229     1.736
   9   1 H      0.037  0.963  0.000  0.000     2.487     2.466
  10   1 H      0.022  0.978  0.000  0.000     2.704     2.572
  11   1 H      0.331  0.669  0.000  0.000     0.634     1.251
  12   1 H      0.068  0.932  0.000  0.000     2.102     2.267
  13   1 H      0.040  0.960  0.000  0.000     2.448     2.447
  14   1 H      0.058  0.942  0.000  0.000     2.222     2.331
  15   7 N     -0.179  1.251  3.928  0.000    24.877     7.408
  16   6 C      0.027  1.060  2.913  0.000    20.133     6.389
  17   6 C      0.282  1.040  2.678  0.000    22.225     7.720
  18   8 O     -0.490  1.744  4.746  0.000    23.557     6.507
  19   6 C     -0.129  1.041  3.087  0.000    23.020     6.841
  20   1 H      0.211  0.789  0.000  0.000     1.052     1.607
  21   1 H      0.059  0.941  0.000  0.000     2.207     2.323
  22   1 H      0.059  0.941  0.000  0.000     2.211     2.325
  23   1 H      0.073  0.927  0.000  0.000     2.048     2.238
  24   1 H      0.067  0.933  0.000  0.000     2.114     2.274
  25   7 N     -0.187  1.254  3.932  0.000    25.044     7.433
  26   6 C      0.023  1.060  2.918  0.000    20.201     6.400
  27   6 C      0.266  1.045  2.688  0.000    22.505     7.768
  28   8 O     -0.478  1.742  4.735  0.000    23.294     6.471
  29   6 C     -0.121  1.038  3.083  0.000    22.872     6.819
  30   1 H      0.221  0.779  0.000  0.000     1.005     1.571
  31   1 H      0.075  0.925  0.000  0.000     2.033     2.229
  32   1 H      0.069  0.931  0.000  0.000     2.093     2.262
  33   1 H      0.069  0.931  0.000  0.000     2.093     2.262
  34   1 H      0.055  0.945  0.000  0.000     2.258     2.350
  35   7 N     -0.172  1.244  3.927  0.000    24.712     7.383
  36   6 C      0.015  1.065  2.920  0.000    20.338     6.422
  37   6 C      0.274  1.042  2.684  0.000    22.375     7.746
  38   8 O     -0.481  1.743  4.738  0.000    23.367     6.481
  39   6 C      0.116  1.043  2.841  0.000    18.775     6.186
  40   8 O     -0.481  1.719  4.763  0.000    22.489     6.402
  41   6 C     -0.138  1.046  3.091  0.000    23.212     6.870
  42   1 H      0.229  0.771  0.000  0.000     0.968     1.541
  43   1 H      0.065  0.935  0.000  0.000     2.146     2.291
  44   1 H      0.036  0.964  0.000  0.000     2.502     2.474
  45   1 H      0.348  0.652  0.000  0.000     0.593     1.210
  46   1 H      0.065  0.935  0.000  0.000     2.137     2.286
  47   1 H      0.051  0.949  0.000  0.000     2.303     2.373
  48   1 H      0.058  0.942  0.000  0.000     2.218     2.329
  49   7 N     -0.181  1.252  3.929  0.000    24.919     7.414
  50   6 C      0.021  1.067  2.911  0.000    20.217     6.402
  51   6 C      0.287  1.041  2.673  0.000    22.141     7.705
  52   8 O     -0.504  1.749  4.755  0.000    23.882     6.552
  53   6 C     -0.012  1.060  2.952  0.000    20.759     6.480
  54   6 C     -0.117  1.039  3.078  0.000    22.794     6.807
  55   6 C     -0.121  1.041  3.079  0.000    22.867     6.818
  56   1 H      0.224  0.776  0.000  0.000     0.990     1.559
  57   1 H      0.058  0.942  0.000  0.000     2.227     2.334
  58   1 H      0.038  0.962  0.000  0.000     2.476     2.461
  59   1 H      0.054  0.946  0.000  0.000     2.271     2.357
  60   1 H      0.035  0.965  0.000  0.000     2.523     2.484
  61   1 H      0.055  0.945  0.000  0.000     2.264     2.353
  62   1 H      0.057  0.943  0.000  0.000     2.238     2.340
  63   1 H      0.055  0.945  0.000  0.000     2.255     2.348
  64   1 H      0.052  0.948  0.000  0.000     2.298     2.370
  65   7 N     -0.157  1.231  3.926  0.000    24.393     7.335
  66   6 C      0.013  1.063  2.924  0.000    20.369     6.427
  67   6 C      0.275  1.042  2.683  0.000    22.357     7.743
  68   8 O     -0.466  1.742  4.724  0.000    23.049     6.437
  69   6 C      0.112  1.051  2.837  0.000    18.834     6.196
  70   8 O     -0.487  1.728  4.759  0.000    22.606     6.418
  71   6 C     -0.139  1.045  3.095  0.000    23.242     6.875
  72   1 H      0.218  0.782  0.000  0.000     1.021     1.582
  73   1 H      0.074  0.926  0.000  0.000     2.045     2.236
  74   1 H      0.032  0.968  0.000  0.000     2.556     2.500
  75   1 H      0.349  0.651  0.000  0.000     0.591     1.207
  76   1 H      0.064  0.936  0.000  0.000     2.154     2.295
  77   1 H      0.050  0.950  0.000  0.000     2.325     2.385
  78   1 H      0.071  0.929  0.000  0.000     2.074     2.252
  79   7 N     -0.161  1.228  3.933  0.000    24.480     7.348
  80   6 C     -0.035  1.052  2.983  0.000    21.286     6.583
  81   6 C      0.198  1.083  2.719  0.000    23.778     7.986
  82   8 O     -0.375  1.762  4.613  0.000    21.193     6.172
  83   1 H      0.207  0.793  0.000  0.000     1.071     1.621
  84   1 H      0.125  0.875  0.000  0.000     1.572     1.961
  85   1 H      0.129  0.871  0.000  0.000     1.546     1.945
  86   7 N     -0.391  1.319  4.071  0.000    30.117     8.151
  87   6 C      0.029  1.062  2.909  0.000    20.101     6.385
  88   6 C      0.275  1.045  2.680  0.000    22.344     7.741
  89   8 O     -0.494  1.740  4.754  0.000    23.649     6.520
  90   6 C     -0.021  1.062  2.958  0.000    20.906     6.503
  91   6 C     -0.111  1.039  3.071  0.000    22.673     6.789
  92   6 C     -0.109  1.038  3.072  0.000    22.647     6.785
  93   1 H      0.157  0.843  0.000  0.000     1.356     1.824
  94   1 H      0.033  0.967  0.000  0.000     2.538     2.491
  95   1 H      0.042  0.958  0.000  0.000     2.425     2.435
  96   1 H      0.048  0.952  0.000  0.000     2.341     2.393
  97   1 H      0.032  0.968  0.000  0.000     2.560     2.502
  98   1 H      0.038  0.962  0.000  0.000     2.478     2.461
  99   1 H      0.043  0.957  0.000  0.000     2.410     2.428
 100   1 H      0.039  0.961  0.000  0.000     2.457     2.451
 101   1 H      0.035  0.965  0.000  0.000     2.517     2.481
 102   7 N     -0.161  1.239  3.922  0.000    24.474     7.347
 103   6 C      0.009  1.063  2.928  0.000    20.428     6.435
 104   6 C      0.267  1.043  2.690  0.000    22.490     7.766
 105   8 O     -0.483  1.743  4.740  0.000    23.406     6.486
 106   6 C     -0.015  1.063  2.952  0.000    20.813     6.489
 107   6 C     -0.111  1.038  3.072  0.000    22.670     6.789
 108   6 C     -0.116  1.038  3.078  0.000    22.770     6.804
 109   1 H      0.201  0.799  0.000  0.000     1.101     1.644
 110   1 H      0.087  0.913  0.000  0.000     1.905     2.158
 111   1 H      0.050  0.950  0.000  0.000     2.319     2.381
 112   1 H      0.052  0.948  0.000  0.000     2.290     2.367
 113   1 H      0.039  0.961  0.000  0.000     2.468     2.457
 114   1 H      0.039  0.961  0.000  0.000     2.457     2.451
 115   1 H      0.054  0.946  0.000  0.000     2.276     2.359
 116   1 H      0.041  0.959  0.000  0.000     2.437     2.441
 117   1 H      0.040  0.960  0.000  0.000     2.453     2.449
 118   7 N     -0.183  1.250  3.933  0.000    24.960     7.420
 119   6 C      0.025  1.060  2.915  0.000    20.167     6.396
 120   6 C      0.197  1.093  2.711  0.000    23.809     7.991
 121   8 O     -0.364  1.744  4.620  0.000    20.977     6.141
 122   6 C     -0.085  1.058  3.027  0.000    22.117     6.695
 123   6 C     -0.080  1.050  3.030  0.000    22.033     6.683
 124   6 C     -0.094  1.053  3.041  0.000    22.292     6.722
 125   6 C     -0.053  1.057  2.995  0.000    21.615     6.636
 126   7 N     -0.143  1.234  3.909  0.000    24.094     7.290
 127   1 H      0.232  0.768  0.000  0.000     0.958     1.533
 128   1 H      0.081  0.919  0.000  0.000     1.966     2.193
 129   1 H      0.068  0.932  0.000  0.000     2.112     2.273
 130   1 H      0.088  0.912  0.000  0.000     1.894     2.152
 131   1 H      0.063  0.937  0.000  0.000     2.160     2.299
 132   1 H      0.077  0.923  0.000  0.000     2.011     2.218
 133   1 H      0.065  0.935  0.000  0.000     2.136     2.286
 134   1 H      0.087  0.913  0.000  0.000     1.908     2.160
 135   1 H      0.121  0.879  0.000  0.000     1.603     1.980
 136   1 H      0.119  0.881  0.000  0.000     1.619     1.990
 137   1 H      0.296  0.704  0.000  0.000     0.727     1.335
 138   1 H      0.292  0.708  0.000  0.000     0.736     1.344
 139   1 H      0.303  0.697  0.000  0.000     0.706     1.317
 140   7 N     -0.381  1.313  4.068  0.000    29.854     8.115
 141   6 C      0.034  1.055  2.911  0.000    20.017     6.373
 142   6 C      0.201  1.089  2.710  0.000    23.723     7.977
 143   8 O     -0.390  1.762  4.628  0.000    21.481     6.214
 144   6 C     -0.064  1.059  3.005  0.000    21.715     6.633
 145   6 C     -0.008  1.057  2.952  0.000    20.691     6.470
 146   6 C     -0.110  1.040  3.069  0.000    22.654     6.786
 147   6 C     -0.117  1.040  3.077  0.000    22.800     6.808
 148   1 H      0.155  0.845  0.000  0.000     1.367     1.832
 149   1 H      0.084  0.916  0.000  0.000     1.937     2.176
 150   1 H      0.032  0.968  0.000  0.000     2.564     2.504
 151   1 H      0.036  0.964  0.000  0.000     2.508     2.476
 152   1 H      0.037  0.963  0.000  0.000     2.487     2.466
 153   1 H      0.044  0.956  0.000  0.000     2.391     2.418
 154   1 H      0.027  0.973  0.000  0.000     2.635     2.539
 155   1 H      0.037  0.963  0.000  0.000     2.496     2.470
 156   1 H      0.048  0.952  0.000  0.000     2.343     2.394
 157   1 H      0.038  0.962  0.000  0.000     2.470     2.458
 158   1 H      0.046  0.954  0.000  0.000     2.374     2.410
 159   7 N     -0.381  1.317  4.064  0.000    29.851     8.114
 160   6 C      0.036  1.056  2.907  0.000    19.978     6.367
 161   6 C      0.199  1.085  2.715  0.000    23.752     7.982
 162   8 O     -0.363  1.759  4.604  0.000    20.950     6.137
 163   6 C     -0.058  1.056  3.003  0.000    21.616     6.618
 164   6 C     -0.099  1.059  3.040  0.000    22.388     6.736
 165   6 C      0.288  1.036  2.676  0.000    22.111     7.699
 166   8 O     -0.492  1.751  4.741  0.000    23.600     6.513
 167   7 N     -0.289  1.268  4.021  0.000    27.459     7.783
 168   1 H      0.168  0.832  0.000  0.000     1.287     1.777
 169   1 H      0.059  0.941  0.000  0.000     2.208     2.324
 170   1 H      0.067  0.933  0.000  0.000     2.124     2.279
 171   1 H      0.050  0.950  0.000  0.000     2.322     2.383
 172   1 H      0.049  0.951  0.000  0.000     2.334     2.389
 173   1 H      0.066  0.934  0.000  0.000     2.135     2.285
 174   1 H      0.224  0.776  0.000  0.000     0.993     1.561
 175   1 H      0.233  0.767  0.000  0.000     0.952     1.528
 176   7 N     -0.379  1.315  4.064  0.000    29.796     8.107
 177   6 C     -0.017  1.045  2.972  0.000    20.974     6.537
 178   6 C      0.189  1.092  2.720  0.000    23.962     8.016
 179   8 O     -0.396  1.768  4.629  0.000    21.607     6.232
 180   1 H      0.164  0.836  0.000  0.000     1.312     1.794
 181   1 H      0.085  0.915  0.000  0.000     1.923     2.169
 182   1 H      0.097  0.903  0.000  0.000     1.812     2.105
 183   1 H      0.190  0.810  0.000  0.000     1.160     1.687
 184   1 H      0.090  0.910  0.000  0.000     1.878     2.143
 185   1 H      0.183  0.817  0.000  0.000     1.194     1.712
 186   1 H      0.089  0.911  0.000  0.000     1.891     2.150
 187   1 H      0.186  0.814  0.000  0.000     1.178     1.700
 188   1 H      0.059  0.941  0.000  0.000     2.206     2.323
 189   1 H      0.180  0.820  0.000  0.000     1.211     1.724
 190   1 H      0.067  0.933  0.000  0.000     2.114     2.273
 191   1 H      0.183  0.817  0.000  0.000     1.194     1.712
 192   1 H      0.070  0.930  0.000  0.000     2.088     2.259

 Mol. C6AA /au·bohr⁶  :     306855.447519
 Mol. C8AA /au·bohr⁸  :    6656878.150628
 Mol. α(0) /au        :        823.671932

 
molecular dipole:
                 x           y           z       tot (Debye)
 q only:      354.184     145.685     175.652
   full:      355.184     145.093     175.572    1072.485
molecular quadrupole (traceless):
                xx          xy          yy          xz          yz          zz
 q only:    99472.355   77472.308  -57025.560   93463.782   38548.864  -42446.794
  q+dip:   100288.441   77351.895  -57544.265   93710.860   38358.923  -42744.176
   full:   100290.103   77350.858  -57544.616   93712.276   38359.003  -42745.487
speedup 15.93
cpu  time for grad    9.02 s
wall time for grad    0.57 s

SCC energy    :    -285.7998284
rep           :       3.4539882
ES            :       0.8274994
AES           :      -0.0107639
AXC           :       0.1004056
disp          :      -0.2055880
XB            :       0.0000000
fix           :       0.0000000
Gborn         :       0.0000000
Gsasa         :       0.0000000
Ghb           :       0.0000000
Gshift        :       0.0000000
Gsolv         :      -0.2189220     -137.38
Etot ala COSMO:    -285.7998284
grad norm     :       0.5056120
total E       :    -282.3350544
atomizationE  :      51.0117663    32010.37
(atE without considering molecular charge,
 total energy contains solvation terms)
H-L gap (eV)  :          1.4453

------------------------------------------------------------------------
 * finished run on 2019/02/13 at 00:18:47.470     
------------------------------------------------------------------------
 total:
 * wall-time:     0 d,  0 h,  0 min,  0.746 sec
 *  cpu-time:     0 d,  0 h,  0 min, 11.465 sec
 * ratio c/w:    15.366 speedup
 SCF:
 * wall-time:     0 d,  0 h,  0 min,  0.634 sec
 *  cpu-time:     0 d,  0 h,  0 min, 10.098 sec
 * ratio c/w:    15.935 speedup

