      -----------------------------------------------------------      
     |                   =====================                   |     
     |                           x T B                           |     
     |                   =====================                   |     
     |                         S. Grimme                         |     
     |          Mulliken Center for Theoretical Chemistry        |     
     |                    University of Bonn                     |     
     |                Version 6.1 RC1 (SAW190329)                |     
      -----------------------------------------------------------      

   This program is distributed in the hope that it will be useful,
   but WITHOUT ANY WARRANTY; without even the implied warranty of
   MERCHANTABILITY or FITNESS FOR A PARTICULAR PURPOSE.
   
   FOR NON-COMMERCIAL, ACADEMIA USE ONLY.
   
   Cite this work as:
   S. Grimme, C. Bannwarth, P. Shushkov, J. Comput. Theory Chem., 2017,
   13, 1989-2009. DOI: 10.1021/acs.jctc.7b00118
   C. Bannwarth, S. Ehlert and S. Grimme., J. Comput. Theory Chem., 2019,
   just accepted. DOI: 10.1021/acs.jctc.8b01176
   
   for sTDA-xTB:
   S. Grimme and C. Bannwarth, J. Chem. Phys., 2016, 145, 054103.
   DOI: 10.1063/1.4959605
   
   in the mass-spec context:
   V. Asgeirsson, C. Bauer and S. Grimme, Chem. Sci., 2017, 8, 4879.
   DOI: 10.1039/c7sc00601b
   
   for metadynamics refer to:
   S. Grimme, ChemRxiv, Preprint. DOI: 10.26434/chemrxiv.7660532.v1
   
   with help from (in alphabetical order)
   C. Bannwarth, F. Bohle, G. Brandenburg, E. Caldeweyher, M. Checinski,
   S. Dohm, S. Ehlert, S. Ehrlich, F. März, H. Neugebauer, J. Pisarek,
   P. Pracht, P. Shushkov, and S. Spicher.
   
 * started run on 2019/05/31 at 05:34:51.771     

           -------------------------------------------------
          |                Calculation Setup                |
           -------------------------------------------------

          program call               : /home/lum/install/xtb/xtb-190329/bin/xtb xtb_tmp.xyz --chrg 1 --grad --gfn 2 --etemp 500 --acc 0.1 --gbsa h2o --parallel 2
          hostname                   : cpu02
          coordinate file            : xtb_tmp.xyz
          omp threads                :                     2
          number of atoms            :                   555
          number of electrons        :                  1486
          charge                     :                     1
          spin                       :                   0.0
          first test random number   :      0.36515620818281


molecular fragmentation (1/2 indicates fragments):
111111111111111111112222222222222222222222222222222222222222222222222222
222222222222222222222222222222222222222222222222222222222222222222222222
222222222222222222222222222222222222222222222222222222222222222222222222
222222222222222222222222222222222222222222222222222222222222222222222222
222222222222222222222222222222222222222222222222222222222222222222222222
222222222222222222222222222222222222222222222222222222222222222222222222
222222222222222222222222222222222222222222222222222222222222222222222222
222222222222222222222222222222222221122222222222222
# atoms in fragment 1/2:    22   533
 fragment masses (1/2) :      149.19     3594.26
CMA distance (Bohr)    :  17.020
constraining FC (au)   :  0.0500

########################################################################
# WARNING! Please study the warnings concerning your input carefully
#  - XTBPATH is not set, using XTBHOME instead
#  - Process number higher than OMP_NUM_THREADS, I hope you know what you are doing.
########################################################################

           ------------------------------------------------- 
          |                 G F N 2 - x T B                 |
          | Geometry, Frequencies, Noncovalent interactions |
          |            JCTC 2018 parametrisation            |
           ------------------------------------------------- 
 
             k(s)              :                1.8500
             k(p)              :                2.2300
             k(d)              :                2.2300
             k(f)              :                2.0000
             kEN (H0ij)        :               -2.0000
             D4 a1             :                0.5200
             D4 a2             :                5.0000
             D4 s6             :                1.0000
             D4 s8             :                2.7000
             D4 s9             :                5.0000
             alphaj            :                2.0000

  Z AO/shell   Hii/eV     exponent
  1     Wed Apr 25 08:07:45 CEST 2018   EN: 2.200 GM2: 0.406  GM3: 0.0800  RAES: 1.40
     1s    -10.707211    1.230000
  6     Wed Apr 25 08:07:45 CEST 2018   EN: 2.550 GM2: 0.538  GM3: 0.1500  RAES: 3.00
     2s    -13.970922    2.096432
     2p    -10.063292    1.800000
  7     Wed Apr 25 08:07:45 CEST 2018   EN: 3.040 GM2: 0.461  GM3:-0.0640  RAES: 1.90
     2s    -16.686243    2.339881
     2p    -12.523956    2.014332
  8     Wed Apr 25 08:07:45 CEST 2018   EN: 3.440 GM2: 0.452  GM3:-0.0517  RAES: 1.80
     2s    -20.229985    2.439742
     2p    -15.503117    2.137023

 Solvent             : h2o
 Using internal parameter file: .param_gbsa2_h2o
 Gsolv ref. state (COSMO-RS): gsolv [1 M gas/solution]
 temperature (mdtemp)       :    298.150000000000     
 dielectric constant        :    80.2000000000000     
 rho                        :    1.00000000000000     
 mass                       :    18.0000000000000     
 surface tension            :    15.5689454083859     
 probe radius               :   0.975313790000000     
 vdW radii scaling          :    1.00000000000000     
 Gshift (Eh)                :   1.857443126794793E-003
 c1                         :    1.55243817000000     
 soset                      :   0.130326360000000     
 HB correction              :  T
 Number of grid points      :          230

            Z     q(EN)     CN     RAES       Cart. coordinates
     1  N   5.0   -0.71    3.00    1.93   417.32482   122.81836   230.89998
     2  C   4.0    0.07    3.98    3.59   418.77388   124.53835   229.34606
     3  C   4.0    0.09    3.00    3.02   421.58189   124.08599   229.79032
     4  O   6.0   -0.40    1.00    1.80   423.04750   123.63863   228.04154
     5  C   4.0   -0.14    3.99    3.60   418.08009   127.29013   229.91428
     6  C   4.0   -0.03    3.03    3.02   419.80121   129.03228   228.46956
     7  C   4.0   -0.10    3.03    3.02   419.53687   129.28257   225.86877
     8  C   4.0   -0.09    3.03    3.02   421.71068   130.35692   229.68872
     9  C   4.0   -0.12    3.03    3.02   421.14593   130.83583   224.51597
    10  C   4.0   -0.10    3.03    3.02   423.31768   131.91628   228.33691
    11  C   4.0   -0.11    3.03    3.02   423.04405   132.14952   225.74716
    12  H   1.0    0.26    1.00    1.43   415.94950   123.55310   232.01523
    13  H   1.0    0.12    0.99    1.43   418.39626   124.10979   227.35005
    14  H   1.0    0.09    0.99    1.43   416.11489   127.57849   229.35666
    15  H   1.0    0.11    0.99    1.43   418.21927   127.63073   231.94131
    16  H   1.0    0.10    0.99    1.43   418.06498   128.25064   224.89832
    17  H   1.0    0.13    0.99    1.43   421.95360   130.15642   231.70577
    18  H   1.0    0.09    1.00    1.43   420.90337   131.02355   222.50194
    19  H   1.0    0.11    1.00    1.43   424.78886   132.94351   229.30527
    20  H   1.0    0.10    1.00    1.43   424.31581   133.34182   224.69451
    21  N   5.0   -0.71    3.00    1.93   437.75628   127.84437   223.13664
    22  C   4.0    0.06    3.98    3.59   438.78757   130.37258   223.14132
    23  C   4.0    0.07    3.00    3.02   441.05617   130.76774   224.89851
    24  O   6.0   -0.44    1.00    1.80   442.27096   132.73184   224.78509
    25  C   4.0   -0.14    3.99    3.60   436.72397   132.28891   223.80865
    26  C   4.0   -0.11    3.98    3.58   434.57004   132.33157   221.87355
    27  C   4.0   -0.23    3.98    3.59   432.43704   134.06560   222.74838
    28  C   4.0   -0.21    3.99    3.60   435.52240   133.19425   219.30240
    29  H   1.0    0.25    1.00    1.43   436.25000   127.52281   224.28019
    30  H   1.0    0.12    0.99    1.43   439.52587   130.74155   221.24094
    31  H   1.0    0.10    0.99    1.43   435.97943   131.81664   225.67330
    32  H   1.0    0.11    0.99    1.43   437.59506   134.15366   223.93173
    33  H   1.0    0.11    0.99    1.43   433.80751   130.41567   221.70388
    34  H   1.0    0.11    0.99    1.43   430.88805   134.00384   221.39964
    35  H   1.0    0.09    0.99    1.43   431.73299   133.49728   224.59427
    36  H   1.0    0.11    0.99    1.43   433.07179   136.01721   222.87913
    37  H   1.0    0.15    0.99    1.43   433.96415   133.28640   217.97582
    38  H   1.0    0.11    0.99    1.43   436.34919   135.06728   219.46315
    39  H   1.0    0.10    0.99    1.43   436.93359   131.89390   218.57031
    40  N   5.0   -0.70    3.00    1.93   430.64209   132.62187   236.60965
    41  C   4.0    0.07    3.98    3.58   429.32728   133.24679   234.28985
    42  C   4.0    0.27    3.02    3.02   426.49063   133.23834   234.90512
    43  O   6.0   -0.43    1.00    1.80   425.41498   131.27036   235.45573
    44  C   4.0   -0.15    3.98    3.58   429.80321   131.29214   232.14394
    45  C   4.0   -0.11    3.98    3.59   431.65574   129.15822   232.79908
    46  C   4.0    0.26    3.00    3.02   434.38070   130.08581   232.78274
    47  O   6.0   -0.42    1.00    1.80   435.47206   130.81235   234.69666
    48  N   5.0   -0.66    3.00    1.93   435.46074   130.05398   230.50691
    49  H   1.0    0.29    1.00    1.43   429.96292   131.12397   237.59037
    50  H   1.0    0.12    0.99    1.43   429.93512   135.13544   233.71402
    51  H   1.0    0.12    0.99    1.43   427.99315   130.41760   231.67929
    52  H   1.0    0.09    0.99    1.43   430.47642   132.28368   230.46691
    53  H   1.0    0.13    0.99    1.43   431.21491   128.38284   234.65115
    54  H   1.0    0.11    0.99    1.43   431.46357   127.67465   231.38292
    55  H   1.0    0.24    1.00    1.43   434.59606   129.27218   228.98981
    56  H   1.0    0.27    1.00    1.43   437.24678   130.72076   230.30861
    57  N   5.0   -0.49    3.00    1.93   425.29536   135.46027   234.78826
    58  C   4.0    0.07    4.00    3.62   422.61181   135.59731   235.34021
    59  C   4.0    0.27    3.00    3.02   421.33908   137.64610   233.74255
    60  O   6.0   -0.44    1.00    1.80   422.54034   139.22708   232.56112
    61  C   4.0   -0.13    3.98    3.59   422.14850   135.85709   238.20061
    62  C   4.0   -0.13    3.98    3.58   423.62181   138.00343   239.45047
    63  C   4.0   -0.15    3.98    3.59   423.40355   137.75382   242.32456
    64  C   4.0   -0.06    3.98    3.58   425.10130   139.55369   243.79173
    65  N   5.0   -0.71    3.98    2.80   427.81325   138.87854   243.46194
    66  H   1.0    0.28    1.00    1.43   426.21040   137.08644   234.36315
    67  H   1.0    0.12    0.99    1.43   421.81155   133.78030   234.73488
    68  H   1.0    0.11    0.99    1.43   420.13279   136.10743   238.54492
    69  H   1.0    0.12    0.99    1.43   422.74858   134.07682   239.05446
    70  H   1.0    0.14    0.99    1.43   425.59434   137.87146   238.86168
    71  H   1.0    0.14    0.99    1.43   422.89258   139.82605   238.80821
    72  H   1.0    0.11    0.99    1.43   421.45088   138.11258   242.86932
    73  H   1.0    0.11    0.99    1.43   423.88214   135.82170   242.86450
    74  H   1.0    0.12    0.99    1.43   424.79250   141.49362   243.16785
    75  H   1.0    0.11    0.99    1.43   424.65816   139.39857   245.79656
    76  H   1.0    0.24    1.00    1.43   428.90208   139.76010   244.80068
    77  H   1.0    0.23    0.99    1.43   428.03786   136.85067   243.57472
    78  H   1.0    0.25    1.00    1.43   428.44395   139.43409   241.71779
    79  N   5.0   -0.49    3.01    1.93   418.81825   137.37465   233.61025
    80  C   4.0    0.08    4.00    3.61   417.14473   139.00743   232.20184
    81  C   4.0    0.28    3.01    3.02   415.97291   140.93277   234.00944
    82  O   6.0   -0.40    1.00    1.80   415.22102   140.33195   236.11770
    83  C   4.0   -0.09    3.98    3.59   415.09234   137.43644   230.86429
    84  C   4.0   -0.15    3.98    3.59   416.35898   135.65839   228.95630
    85  C   4.0   -0.23    3.98    3.59   413.16666   139.20396   229.64712
    86  C   4.0   -0.24    3.98    3.58   414.54234   133.83591   227.66610
    87  H   1.0    0.23    1.00    1.43   417.94845   136.16437   234.79972
    88  H   1.0    0.15    0.99    1.43   418.28191   140.01764   230.80383
    89  H   1.0    0.12    0.99    1.43   414.12013   136.29797   232.29593
    90  H   1.0    0.10    0.99    1.43   417.32754   136.79177   227.52936
    91  H   1.0    0.12    0.99    1.43   417.80523   134.56145   229.94002
    92  H   1.0    0.09    0.99    1.43   411.88817   138.15538   228.43611
    93  H   1.0    0.12    0.99    1.43   412.02332   140.15000   231.06999
    94  H   1.0    0.11    0.99    1.43   414.12535   140.64562   228.53995
    95  H   1.0    0.10    0.99    1.43   415.62106   132.43620   226.61916
    96  H   1.0    0.10    0.99    1.43   413.36748   132.87083   229.04661
    97  H   1.0    0.09    0.99    1.43   413.30631   134.81953   226.35687
    98  N   5.0   -0.49    3.01    1.93   415.81446   143.28004   233.08227
    99  C   4.0    0.07    3.99    3.60   415.34750   145.44377   234.69492
   100  C   4.0    0.06    3.00    3.02   412.79288   146.68791   234.06787
   101  O   6.0   -0.43    1.00    1.80   412.64327   148.80080   233.15265
   102  C   4.0   -0.08    3.98    3.59   417.46036   147.37262   234.39276
   103  C   4.0    0.32    2.99    3.02   420.18308   146.23078   234.40302
   104  O   6.0   -0.37    1.00    1.80   420.68540   144.51839   235.91856
   105  O   6.0   -0.45    1.00    1.80   421.67955   147.25138   232.87441
   106  H   1.0    0.28    1.00    1.43   416.63734   143.62974   231.38878
   107  H   1.0    0.15    0.99    1.43   415.27002   144.70935   236.63256
   108  H   1.0    0.13    0.99    1.43   417.19541   148.35751   232.60440
   109  H   1.0    0.12    0.99    1.43   417.34082   148.73775   235.93368
   110  N   5.0   -0.69    3.00    1.93   403.33541   140.90655   226.57839
   111  C   4.0    0.07    3.98    3.59   404.36441   140.45639   224.08187
   112  C   4.0    0.28    3.01    3.02   403.06566   142.21521   222.18554
   113  O   6.0   -0.38    1.00    1.80   400.80969   142.73734   222.32259
   114  C   4.0   -0.13    3.99    3.60   404.07809   137.69289   223.29822
   115  C   4.0   -0.11    3.98    3.58   406.14920   135.97550   224.37633
   116  C   4.0   -0.23    3.98    3.59   406.21242   136.03572   227.26016
   117  C   4.0   -0.23    3.98    3.59   405.72096   133.28278   223.43240
   118  H   1.0    0.27    1.00    1.43   401.74325   139.99276   227.10066
   119  H   1.0    0.11    0.99    1.43   406.36788   140.96478   224.17269
   120  H   1.0    0.12    0.99    1.43   402.22708   137.01968   223.90873
   121  H   1.0    0.12    0.99    1.43   404.14866   137.60028   221.23938
   122  H   1.0    0.11    0.99    1.43   407.97262   136.64490   223.66583
   123  H   1.0    0.09    0.99    1.43   407.53951   134.63747   227.97316
   124  H   1.0    0.09    0.99    1.43   406.77940   137.87986   227.96317
   125  H   1.0    0.11    0.99    1.43   404.35059   135.61750   228.02865
   126  H   1.0    0.10    0.99    1.43   407.18075   132.03570   224.15316
   127  H   1.0    0.11    0.99    1.43   403.90032   132.58548   224.07945
   128  H   1.0    0.11    0.99    1.43   405.74855   133.21042   221.38059
   129  N   5.0   -0.50    3.01    1.93   404.58862   143.12164   220.39008
   130  C   4.0    0.07    3.99    3.60   403.71929   144.90099   218.49381
   131  C   4.0    0.08    3.00    3.02   402.99379   143.35682   216.14818
   132  O   6.0   -0.45    1.00    1.80   404.53174   142.81143   214.49806
   133  C   4.0   -0.14    3.98    3.59   405.75527   146.87493   217.94518
   134  C   4.0   -0.17    3.98    3.59   406.14313   148.76753   220.10237
   135  C   4.0   -0.15    3.98    3.58   407.73917   147.79317   222.31215
   136  C   4.0   -0.06    3.98    3.58   407.69453   149.70114   224.47788
   137  N   5.0   -0.72    3.98    2.81   408.69727   148.56219   226.84611
   138  H   1.0    0.28    1.00    1.43   406.39241   142.47165   220.17665
   139  H   1.0    0.13    0.99    1.43   402.00948   145.82390   219.21357
   140  H   1.0    0.13    0.99    1.43   407.51528   145.89961   217.49525
   141  H   1.0    0.11    0.99    1.43   405.12385   147.92781   216.28805
   142  H   1.0    0.09    0.99    1.43   407.01837   150.45341   219.30230
   143  H   1.0    0.11    0.99    1.43   404.28668   149.33179   220.80873
   144  H   1.0    0.13    0.99    1.43   406.91370   146.04206   223.00351
   145  H   1.0    0.11    0.99    1.43   409.66154   147.43918   221.65503
   146  H   1.0    0.10    0.99    1.43   408.78420   151.38293   224.00781
   147  H   1.0    0.12    0.99    1.43   405.73028   150.24691   224.79728
   148  H   1.0    0.25    1.00    1.43   408.60989   149.82618   228.31513
   149  H   1.0    0.24    0.99    1.43   407.56067   147.00031   227.31673
   150  H   1.0    0.24    1.00    1.43   410.52418   147.94942   226.61824
   151  N   5.0   -0.70    3.00    1.93   408.90186   139.31064   214.57947
   152  C   4.0    0.08    3.99    3.60   411.25685   140.56853   215.13744
   153  C   4.0    0.27    3.01    3.02   411.39912   141.09448   217.96746
   154  O   6.0   -0.47    1.00    1.80   409.53267   141.36590   219.29673
   155  C   4.0   -0.13    3.99    3.60   411.48366   143.06951   213.65148
   156  C   4.0   -0.05    3.03    3.02   411.65936   142.45808   210.88976
   157  C   4.0   -0.10    3.03    3.02   409.49239   142.30102   209.41861
   158  C   4.0   -0.11    3.03    3.02   413.96964   141.83367   209.81321
   159  C   4.0   -0.08    3.03    3.02   409.61535   141.50314   206.93741
   160  C   4.0   -0.10    3.03    3.02   414.10751   141.00487   207.34658
   161  C   4.0    0.10    3.03    3.02   411.92534   140.79144   205.89781
   162  O   6.0   -0.44    1.99    1.83   411.99934   139.92999   203.48300
   163  H   1.0    0.33    1.00    1.43   407.31300   140.34642   214.87536
   164  H   1.0    0.13    0.99    1.43   412.77533   139.28203   214.56659
   165  H   1.0    0.12    0.99    1.43   409.80363   144.20555   214.01215
   166  H   1.0    0.10    0.99    1.43   413.16295   144.08504   214.27664
   167  H   1.0    0.14    0.99    1.43   407.67816   142.78530   210.22301
   168  H   1.0    0.13    1.00    1.43   415.67982   141.99772   210.91529
   169  H   1.0    0.14    0.99    1.43   407.93181   141.39556   205.78739
   170  H   1.0    0.12    1.00    1.43   415.89212   140.48750   206.50685
   171  H   1.0    0.31    0.99    1.43   413.47289   138.82450   203.28102
   172  N   5.0   -0.50    3.01    1.93   413.75295   141.32357   218.85185
   173  C   4.0    0.07    3.99    3.61   414.24277   141.68632   221.51347
   174  C   4.0    0.26    3.02    3.02   416.45971   143.49846   221.85254
   175  O   6.0   -0.46    1.00    1.80   418.33557   143.36246   220.51525
   176  C   4.0   -0.21    3.99    3.60   414.94073   139.16986   222.76440
   177  H   1.0    0.28    1.00    1.43   415.24276   140.88964   217.73237
   178  H   1.0    0.12    0.99    1.43   412.49837   142.43480   222.33208
   179  H   1.0    0.10    0.99    1.43   415.41937   139.44863   224.73864
   180  H   1.0    0.10    0.99    1.43   413.35702   137.87356   222.60851
   181  H   1.0    0.11    0.99    1.43   416.56254   138.34639   221.80763
   182  N   5.0   -0.50    3.01    1.93   416.15040   145.22945   223.70373
   183  C   4.0    0.07    4.00    3.62   418.35337   146.53465   224.71386
   184  C   4.0    0.28    3.01    3.02   419.60275   144.68465   226.55461
   185  O   6.0   -0.47    1.00    1.80   418.32106   143.57256   228.14477
   186  C   4.0   -0.14    3.98    3.59   417.71813   149.01449   226.04815
   187  C   4.0   -0.15    3.98    3.59   420.18303   150.46106   226.49220
   188  C   4.0   -0.15    3.98    3.58   419.81768   153.11426   227.57077
   189  C   4.0   -0.05    3.98    3.58   418.87111   153.03198   230.29493
   190  N   5.0   -0.73    3.98    2.82   419.31381   155.51165   231.55548
   191  H   1.0    0.23    1.00    1.43   414.79654   144.85850   225.00402
   192  H   1.0    0.16    0.99    1.43   419.62872   146.89928   223.13715
   193  H   1.0    0.12    0.99    1.43   416.48977   150.12097   224.82482
   194  H   1.0    0.12    0.99    1.43   416.78996   148.60506   227.84232
   195  H   1.0    0.14    0.99    1.43   421.39887   149.37288   227.75806
   196  H   1.0    0.13    0.99    1.43   421.17092   150.60959   224.68898
   197  H   1.0    0.12    0.99    1.43   421.66475   154.02801   227.52419
   198  H   1.0    0.13    0.99    1.43   418.53562   154.18007   226.36122
   199  H   1.0    0.12    0.99    1.43   416.85370   152.62472   230.36460
   200  H   1.0    0.13    0.99    1.43   419.89877   151.56104   231.31888
   201  H   1.0    0.25    1.00    1.43   418.62105   155.49194   233.37306
   202  H   1.0    0.25    1.00    1.43   421.22533   155.87339   231.63095
   203  H   1.0    0.25    1.00    1.43   418.44694   156.93533   230.54304
   204  N   5.0   -0.49    3.01    1.93   422.03907   144.29688   226.13332
   205  C   4.0    0.09    4.00    3.62   423.58353   142.60698   227.59604
   206  C   4.0    0.28    3.01    3.02   425.78655   144.09876   228.69195
   207  O   6.0   -0.43    1.00    1.80   426.98120   145.62061   227.41005
   208  C   4.0   -0.08    3.98    3.59   424.65050   140.46811   225.93065
   209  C   4.0   -0.22    3.98    3.59   426.25525   138.67128   227.51070
   210  C   4.0   -0.22    3.98    3.59   422.49155   139.05759   224.63958
   211  H   1.0    0.29    1.00    1.43   422.96547   145.37698   224.84922
   212  H   1.0    0.16    0.99    1.43   422.43553   141.82153   229.12135
   213  H   1.0    0.13    0.99    1.43   425.86540   141.35547   224.50572
   214  H   1.0    0.09    0.99    1.43   426.91483   137.10994   226.35177
   215  H   1.0    0.13    0.99    1.43   427.90472   139.64118   228.26116
   216  H   1.0    0.13    0.99    1.43   425.15922   137.93718   229.08580
   217  H   1.0    0.09    0.99    1.43   423.23942   137.57983   223.42688
   218  H   1.0    0.11    0.99    1.43   421.28664   138.18826   226.05927
   219  H   1.0    0.14    0.99    1.43   421.36732   140.34172   223.49326
   220  N   5.0   -0.48    3.01    1.93   426.26526   143.54856   231.10052
   221  C   4.0    0.09    4.00    3.61   428.48794   144.38714   232.42881
   222  C   4.0    0.25    3.01    3.02   430.05104   142.04593   233.04914
   223  O   6.0   -0.45    1.00    1.80   429.10356   140.21959   234.13432
   224  C   4.0    0.06    3.98    3.58   427.78201   145.83387   234.86805
   225  O   6.0   -0.45    1.99    1.82   426.50626   148.08893   234.31322
   226  C   4.0   -0.18    3.98    3.59   430.19167   146.47807   236.31874
   227  H   1.0    0.29    1.00    1.43   425.16984   142.25880   231.99274
   228  H   1.0    0.16    0.99    1.43   429.54708   145.65099   231.18248
   229  H   1.0    0.14    0.99    1.43   426.55432   144.59128   236.00942
   230  H   1.0    0.33    0.99    1.43   424.79119   147.69171   233.67583
   231  H   1.0    0.13    0.99    1.43   429.73433   147.70883   237.89437
   232  H   1.0    0.12    0.99    1.43   431.08762   144.75829   236.98796
   233  H   1.0    0.14    0.99    1.43   431.48992   147.45298   235.05712
   234  N   5.0   -0.49    3.01    1.93   432.44559   142.14352   232.28828
   235  C   4.0    0.08    4.00    3.62   434.24145   140.16393   232.85300
   236  C   4.0    0.06    3.01    3.02   436.26687   141.28535   234.55694
   237  O   6.0   -0.41    1.00    1.80   437.94807   142.69044   233.79562
   238  C   4.0   -0.07    3.98    3.59   435.47848   139.00952   230.50282
   239  C   4.0   -0.22    3.99    3.60   437.24727   136.89677   231.35821
   240  C   4.0   -0.21    3.98    3.59   433.48535   137.99698   228.69354
   241  H   1.0    0.31    1.00    1.43   433.11676   143.73692   231.44090
   242  H   1.0    0.13    0.99    1.43   433.21207   138.69461   233.87737
   243  H   1.0    0.14    0.99    1.43   436.55296   140.51401   229.56504
   244  H   1.0    0.10    0.99    1.43   438.13578   135.98040   229.75057
   245  H   1.0    0.12    0.99    1.43   438.72059   137.62211   232.59625
   246  H   1.0    0.13    0.99    1.43   436.19523   135.47784   232.40813
   247  H   1.0    0.09    0.99    1.43   434.37768   136.84815   227.24858
   248  H   1.0    0.10    0.99    1.43   432.12475   136.84450   229.71632
   249  H   1.0    0.14    0.99    1.43   432.49561   139.53851   227.76551
   250  N   5.0   -0.69    3.00    1.92   442.90863   141.15266   232.12862
   251  C   4.0    0.02    3.98    3.59   442.89217   140.48483   229.47481
   252  C   4.0    0.29    3.01    3.02   443.54362   142.77183   227.83374
   253  O   6.0   -0.41    1.00    1.80   441.95448   144.31223   227.14359
   254  H   1.0    0.33    1.00    1.43   441.28851   141.89138   232.83901
   255  H   1.0    0.11    0.99    1.43   444.27125   138.97801   229.17712
   256  H   1.0    0.10    0.99    1.43   441.00673   139.82614   228.97654
   257  N   5.0   -0.46    3.01    1.93   445.98693   142.98135   227.26375
   258  C   4.0    0.10    3.99    3.61   446.97951   144.99722   225.69664
   259  C   4.0    0.29    3.01    3.02   445.52217   145.06677   223.17967
   260  O   6.0   -0.40    1.00    1.80   445.70968   143.41470   221.59271
   261  C   4.0    0.04    3.98    3.58   449.82290   144.52107   225.22265
   262  O   6.0   -0.46    1.99    1.83   450.12328   141.90073   224.83376
   263  C   4.0   -0.21    3.98    3.58   451.40218   145.46338   227.44961
   264  H   1.0    0.26    1.00    1.43   447.23583   141.61827   227.75529
   265  H   1.0    0.12    0.99    1.43   446.73552   146.81111   226.66787
   266  H   1.0    0.12    0.99    1.43   450.36444   145.56383   223.50385
   267  H   1.0    0.26    0.99    1.43   451.87038   141.54456   224.48792
   268  H   1.0    0.11    0.99    1.43   453.39361   145.07962   227.10983
   269  H   1.0    0.11    0.99    1.43   451.16689   147.48790   227.69101
   270  H   1.0    0.13    0.99    1.43   450.83611   144.50404   229.17761
   271  N   5.0   -0.50    3.00    1.93   444.08150   147.13986   222.85666
   272  C   4.0    0.03    3.99    3.61   442.59219   147.43576   220.58972
   273  C   4.0    0.27    3.00    3.02   440.42478   145.54604   220.25773
   274  O   6.0   -0.45    1.00    1.80   439.70144   144.98057   218.13664
   275  H   1.0    0.26    1.00    1.43   443.63299   148.19906   224.37629
   276  H   1.0    0.11    0.99    1.43   441.80807   149.34192   220.54359
   277  H   1.0    0.14    0.99    1.43   443.83464   147.19417   218.95386
   278  N   5.0   -0.48    3.00    1.93   439.39063   144.62733   222.37541
   279  C   4.0    0.08    3.99    3.61   437.40310   142.75480   222.33430
   280  C   4.0    0.28    3.01    3.02   434.96282   143.70813   223.57063
   281  O   6.0   -0.45    1.00    1.80   433.29339   142.26142   224.24504
   282  C   4.0   -0.14    3.98    3.59   438.21216   140.26347   223.58119
   283  C   4.0   -0.15    3.98    3.59   440.78301   139.27635   222.71625
   284  C   4.0   -0.13    3.98    3.59   440.98614   138.89608   219.86458
   285  C   4.0   -0.04    3.98    3.59   443.62865   137.99277   219.16680
   286  N   5.0   -0.73    3.98    2.82   443.95193   138.08152   216.37675
   287  H   1.0    0.30    1.00    1.43   440.16098   144.98900   224.09593
   288  H   1.0    0.15    0.99    1.43   436.90935   142.41856   220.34796
   289  H   1.0    0.12    0.99    1.43   438.26920   140.57212   225.62003
   290  H   1.0    0.11    0.99    1.43   436.72165   138.89769   223.18898
   291  H   1.0    0.16    0.99    1.43   442.24250   140.60428   223.31082
   292  H   1.0    0.12    0.99    1.43   441.15058   137.48900   223.67939
   293  H   1.0    0.12    0.99    1.43   439.57928   137.53087   219.23571
   294  H   1.0    0.16    0.99    1.43   440.61521   140.68417   218.91681
   295  H   1.0    0.15    0.99    1.43   445.02176   139.22985   220.05141
   296  H   1.0    0.12    0.99    1.43   443.90994   136.06451   219.83232
   297  H   1.0    0.26    1.00    1.43   445.57251   137.16758   215.83092
   298  H   1.0    0.31    0.99    1.43   442.37260   137.28282   215.49806
   299  H   1.0    0.27    1.00    1.43   444.03581   139.93256   215.79695
   300  N   5.0   -0.45    3.01    1.93   434.77159   146.22278   223.76369
   301  C   4.0    0.08    3.99    3.61   432.54457   147.49472   224.69255
   302  C   4.0    0.27    3.01    3.02   431.22010   148.77614   222.47298
   303  O   6.0   -0.42    1.00    1.80   432.38742   149.51332   220.61625
   304  C   4.0   -0.09    3.98    3.59   433.22477   149.51325   226.64388
   305  C   4.0    0.34    2.99    3.02   434.88156   148.33117   228.79187
   306  O   6.0   -0.43    1.00    1.80   433.77731   146.81101   230.22008
   307  O   6.0   -0.35    1.00    1.80   437.11622   149.01969   228.90537
   308  H   1.0    0.27    1.00    1.43   436.17810   147.32708   223.10774
   309  H   1.0    0.16    0.99    1.43   431.32369   146.06744   225.55955
   310  H   1.0    0.13    0.99    1.43   434.28209   151.04603   225.75526
   311  H   1.0    0.12    0.99    1.43   431.49707   150.24130   227.49628
   312  N   5.0   -0.49    3.01    1.93   428.73353   149.13079   222.78234
   313  C   4.0    0.02    3.99    3.61   427.17591   150.18441   220.79497
   314  C   4.0    0.27    3.01    3.02   424.91674   148.46442   220.34084
   315  O   6.0   -0.46    1.00    1.80   423.74568   147.56722   222.11827
   316  H   1.0    0.28    1.00    1.43   427.83811   148.29071   224.25322
   317  H   1.0    0.11    0.99    1.43   426.45766   152.04016   221.37529
   318  H   1.0    0.13    0.99    1.43   428.36216   150.39959   219.12083
   319  N   5.0   -0.49    3.01    1.93   424.23991   148.09612   217.93403
   320  C   4.0    0.08    4.00    3.63   422.15396   146.46085   217.28910
   321  C   4.0    0.27    3.01    3.02   423.04238   144.29508   215.59900
   322  O   6.0   -0.44    1.00    1.80   424.78047   144.50818   214.08563
   323  C   4.0   -0.11    3.99    3.60   420.01012   147.88837   215.92717
   324  C   4.0   -0.03    3.03    3.02   418.86807   149.87795   217.59402
   325  C   4.0   -0.09    3.03    3.02   420.10197   152.16182   218.00527
   326  C   4.0   -0.10    3.03    3.02   416.56500   149.46797   218.77804
   327  C   4.0   -0.08    3.03    3.02   419.09676   153.96147   219.60204
   328  C   4.0   -0.11    3.03    3.02   415.50639   151.28484   220.33243
   329  C   4.0    0.09    3.03    3.02   416.78764   153.53470   220.78626
   330  O   6.0   -0.48    1.99    1.83   415.89977   155.32066   222.39237
   331  H   1.0    0.24    1.00    1.43   425.33790   148.69394   216.49365
   332  H   1.0    0.17    0.99    1.43   421.43280   145.68862   219.06442
   333  H   1.0    0.13    0.99    1.43   420.75896   148.71359   214.19445
   334  H   1.0    0.12    0.99    1.43   418.58026   146.50096   215.39751
   335  H   1.0    0.12    1.00    1.43   421.86532   152.53665   217.05067
   336  H   1.0    0.12    1.00    1.43   415.59476   147.70093   218.46679
   337  H   1.0    0.13    1.00    1.43   420.06230   155.72504   219.92871
   338  H   1.0    0.10    1.00    1.43   413.67299   150.95220   221.16290
   339  H   1.0    0.24    0.99    1.43   414.16462   154.96860   222.85696
   340  N   5.0   -0.49    3.02    1.93   421.64749   142.22007   215.93704
   341  C   4.0    0.07    3.99    3.60   422.00096   139.84796   214.64946
   342  C   4.0    0.26    3.01    3.02   419.40686   138.76146   213.99776
   343  O   6.0   -0.46    1.00    1.80   417.51388   139.38386   215.16222
   344  C   4.0   -0.13    3.99    3.60   423.37447   137.97046   216.41428
   345  C   4.0   -0.03    3.03    3.02   426.09398   138.69424   216.80865
   346  C   4.0   -0.09    3.04    3.02   426.95172   139.75125   219.05094
   347  C   4.0   -0.09    3.04    3.02   427.83495   138.25357   214.89978
   348  C   4.0   -0.07    3.03    3.02   429.49281   140.22358   219.44173
   349  C   4.0   -0.07    3.03    3.02   430.37710   138.67907   215.27256
   350  C   4.0    0.11    3.03    3.02   431.23323   139.61855   217.56908
   351  O   6.0   -0.48    1.99    1.83   433.74393   139.98530   218.01438
   352  H   1.0    0.28    1.00    1.43   420.29206   142.22058   217.29866
   353  H   1.0    0.12    0.99    1.43   423.11653   140.18694   212.94231
   354  H   1.0    0.11    0.99    1.43   422.37692   137.94452   218.21820
   355  H   1.0    0.10    0.99    1.43   423.28086   136.08084   215.59150
   356  H   1.0    0.12    1.00    1.43   425.61985   140.18990   220.52866
   357  H   1.0    0.11    1.00    1.43   427.20192   137.55132   213.09450
   358  H   1.0    0.15    1.00    1.43   430.17190   141.00113   221.20246
   359  H   1.0    0.16    1.00    1.43   431.70149   138.23245   213.79051
   360  H   1.0    0.27    0.99    1.43   434.70219   139.14938   216.70205
   361  N   5.0   -0.50    3.01    1.93   419.37196   137.09146   212.08962
   362  C   4.0    0.07    4.00    3.61   417.11661   135.66344   211.48466
   363  C   4.0    0.27    3.01    3.02   416.98244   133.31614   213.16982
   364  O   6.0   -0.44    1.00    1.80   418.89361   132.09407   213.67820
   365  C   4.0   -0.14    3.98    3.59   417.15388   134.90188   208.69998
   366  C   4.0   -0.11    3.98    3.58   414.61787   133.87191   207.82190
   367  C   4.0    0.32    2.99    3.02   414.39774   133.88708   204.92452
   368  O   6.0   -0.34    1.00    1.80   413.43746   131.93011   203.96458
   369  O   6.0   -0.42    1.00    1.80   415.09539   135.76855   203.72131
   370  H   1.0    0.23    1.00    1.43   421.01844   136.42029   211.40287
   371  H   1.0    0.12    0.99    1.43   415.48703   136.87948   211.85434
   372  H   1.0    0.12    0.99    1.43   417.59388   136.56991   207.56720
   373  H   1.0    0.13    0.99    1.43   418.64429   133.50449   208.38710
   374  H   1.0    0.14    0.99    1.43   414.27613   131.95439   208.49723
   375  H   1.0    0.12    0.99    1.43   413.10090   135.08357   208.53277
   376  N   5.0   -0.48    3.01    1.93   414.68959   132.74410   214.03193
   377  C   4.0    0.07    3.99    3.61   414.20729   130.50316   215.51888
   378  C   4.0    0.06    3.00    3.02   412.00586   129.06081   214.33414
   379  O   6.0   -0.39    1.00    1.80   410.31314   130.10642   213.15643
   380  C   4.0   -0.09    3.98    3.58   413.74734   131.10561   218.34407
   381  C   4.0   -0.22    3.98    3.59   415.96853   132.63104   219.37639
   382  C   4.0   -0.21    3.98    3.59   411.28101   132.52040   218.80101
   383  H   1.0    0.25    1.00    1.43   413.15198   133.72258   213.42798
   384  H   1.0    0.13    0.99    1.43   415.89402   129.31112   215.41962
   385  H   1.0    0.10    0.99    1.43   413.66939   129.27736   219.30769
   386  H   1.0    0.09    0.99    1.43   415.79076   132.85405   221.40874
   387  H   1.0    0.10    0.99    1.43   417.74530   131.68715   218.96419
   388  H   1.0    0.13    0.99    1.43   416.01616   134.49134   218.50128
   389  H   1.0    0.09    0.99    1.43   411.11196   132.97984   220.79439
   390  H   1.0    0.13    0.99    1.43   411.23681   134.26749   217.71837
   391  H   1.0    0.12    0.99    1.43   409.66594   131.37054   218.26493
   392  N   5.0   -0.68    3.00    1.93   419.68961   124.71965   220.11231
   393  C   4.0    0.06    3.98    3.58   421.11890   126.36449   218.43111
   394  C   4.0    0.08    3.00    3.02   421.09796   125.20489   215.78148
   395  O   6.0   -0.37    1.00    1.80   421.91013   123.07218   215.37816
   396  C   4.0   -0.13    3.99    3.60   423.81585   126.57589   219.44081
   397  C   4.0   -0.10    3.98    3.58   425.58878   128.16700   217.79371
   398  C   4.0   -0.23    3.98    3.59   424.75683   130.92070   217.59535
   399  C   4.0   -0.22    3.99    3.59   428.25642   128.04893   218.90065
   400  H   1.0    0.27    1.00    1.43   420.74329   123.58851   221.26139
   401  H   1.0    0.09    0.99    1.43   420.17945   128.20444   218.36161
   402  H   1.0    0.11    0.99    1.43   423.73712   127.36067   221.34444
   403  H   1.0    0.13    0.99    1.43   424.57399   124.66027   219.57138
   404  H   1.0    0.12    0.99    1.43   425.59360   127.35163   215.89013
   405  H   1.0    0.11    0.99    1.43   426.23531   132.00923   216.67364
   406  H   1.0    0.12    0.99    1.43   423.03594   131.10689   216.48912
   407  H   1.0    0.09    0.99    1.43   424.45338   131.71119   219.46554
   408  H   1.0    0.13    0.99    1.43   429.61048   128.94176   217.63882
   409  H   1.0    0.10    0.99    1.43   428.30822   129.03574   220.69925
   410  H   1.0    0.11    0.99    1.43   428.84510   126.09983   219.20915
   411  N   5.0   -0.71    3.00    1.93   429.74115   129.21182   212.72461
   412  C   4.0    0.06    3.98    3.59   430.56947   131.25653   211.06290
   413  C   4.0    0.28    3.01    3.02   432.77383   132.56681   212.37624
   414  O   6.0   -0.44    1.00    1.80   432.52841   133.58159   214.42937
   415  C   4.0   -0.21    3.98    3.59   428.35570   133.01193   210.56733
   416  H   1.0    0.25    1.00    1.43   427.84840   128.92946   212.67710
   417  H   1.0    0.10    0.99    1.43   431.23710   130.42804   209.28286
   418  H   1.0    0.11    0.99    1.43   428.94345   134.58192   209.38166
   419  H   1.0    0.10    0.99    1.43   426.86108   131.96539   209.62170
   420  H   1.0    0.12    0.99    1.43   427.65717   133.72539   212.35889
   421  N   5.0   -0.49    3.01    1.93   434.97686   132.52559   211.11086
   422  C   4.0    0.10    3.99    3.61   437.36664   133.03498   212.33243
   423  C   4.0    0.29    3.01    3.02   437.93948   135.84090   212.65019
   424  O   6.0   -0.49    1.00    1.80   439.40121   136.55351   214.29779
   425  C   4.0    0.03    3.98    3.59   439.50644   131.78045   210.79543
   426  O   6.0   -0.46    1.99    1.82   439.07887   132.45849   208.24792
   427  C   4.0   -0.22    3.98    3.59   439.53580   128.92349   211.20219
   428  H   1.0    0.25    1.00    1.43   435.11739   131.64165   209.42466
   429  H   1.0    0.11    0.99    1.43   437.33794   132.22515   214.23914
   430  H   1.0    0.12    0.99    1.43   441.31755   132.57358   211.43661
   431  H   1.0    0.26    0.99    1.43   440.31778   131.63464   207.19738
   432  H   1.0    0.11    0.99    1.43   440.89664   128.03267   209.94589
   433  H   1.0    0.10    0.99    1.43   440.06520   128.49244   213.13835
   434  H   1.0    0.12    0.99    1.43   437.68072   128.10914   210.86074
   435  N   5.0   -0.45    3.01    1.93   436.82340   137.41722   211.04272
   436  C   4.0    0.09    3.99    3.60   437.03132   140.13659   211.23561
   437  C   4.0    0.24    3.02    3.02   434.37259   141.25277   210.99273
   438  O   6.0   -0.41    1.00    1.80   432.78053   140.14442   209.70742
   439  C   4.0    0.00    3.98    3.58   438.73629   141.21870   209.15121
   440  O   6.0   -0.45    1.99    1.83   441.23975   140.55322   209.72402
   441  H   1.0    0.28    1.00    1.43   435.57862   136.76728   209.74521
   442  H   1.0    0.14    0.99    1.43   437.89735   140.56239   213.06263
   443  H   1.0    0.13    0.99    1.43   438.13621   140.44616   207.32170
   444  H   1.0    0.12    0.99    1.43   438.48779   143.27820   209.10352
   445  H   1.0    0.26    0.99    1.43   442.35198   141.18310   208.42338
   446  N   5.0   -0.34    3.03    1.93   433.86618   143.36368   212.26464
   447  C   4.0    0.08    4.04    3.68   431.36054   144.46869   212.04218
   448  C   4.0    0.29    3.01    3.02   430.86720   145.26159   209.30826
   449  O   6.0   -0.36    1.00    1.80   432.54413   145.50378   207.74086
   450  C   4.0   -0.13    4.01    3.63   431.34926   146.72815   213.85913
   451  C   4.0   -0.11    4.01    3.64   433.60480   146.21806   215.58490
   452  C   4.0   -0.03    4.02    3.65   435.48763   144.93826   213.81877
   453  H   1.0    0.13    0.99    1.43   429.94575   143.05477   212.58207
   454  H   1.0    0.13    0.99    1.43   431.61624   148.48280   212.81141
   455  H   1.0    0.12    0.99    1.43   429.57679   146.81712   214.89207
   456  H   1.0    0.14    0.99    1.43   434.34588   147.92191   216.45657
   457  H   1.0    0.15    0.99    1.43   433.06446   144.91656   217.08779
   458  H   1.0    0.13    0.99    1.43   436.44042   146.34217   212.63556
   459  H   1.0    0.13    0.99    1.43   436.89829   143.86869   214.86108
   460  N   5.0   -0.49    3.01    1.93   428.42179   145.68690   208.81794
   461  C   4.0    0.08    3.99    3.61   427.54096   146.26904   206.29377
   462  C   4.0    0.29    3.01    3.02   428.17365   149.00607   205.61203
   463  O   6.0   -0.43    1.00    1.80   427.94587   150.71595   207.16575
   464  C   4.0   -0.13    3.99    3.60   424.66662   145.93826   206.15474
   465  C   4.0   -0.09    3.98    3.58   423.74249   143.31063   206.96135
   466  C   4.0   -0.22    3.98    3.59   420.85711   143.29288   206.95405
   467  C   4.0   -0.22    3.98    3.59   424.77990   141.23565   205.24714
   468  H   1.0    0.25    1.00    1.43   427.13407   145.54958   210.22076
   469  H   1.0    0.13    0.99    1.43   428.51221   145.00423   204.97432
   470  H   1.0    0.14    0.99    1.43   423.78112   147.34178   207.38378
   471  H   1.0    0.12    0.99    1.43   424.05218   146.31583   204.22227
   472  H   1.0    0.13    0.99    1.43   424.37435   142.94567   208.89777
   473  H   1.0    0.10    0.99    1.43   420.15433   141.51885   207.71849
   474  H   1.0    0.13    0.99    1.43   420.12248   144.83676   208.09361
   475  H   1.0    0.11    0.99    1.43   420.14015   143.50009   205.03880
   476  H   1.0    0.11    0.99    1.43   423.88385   139.43854   205.68499
   477  H   1.0    0.11    0.99    1.43   424.39066   141.67173   203.27668
   478  H   1.0    0.12    0.99    1.43   426.80765   141.01499   205.49594
   479  N   5.0   -0.47    3.01    1.93   428.86490   149.45521   203.22540
   480  C   4.0    0.10    4.00    3.61   429.27094   152.02081   202.33580
   481  C   4.0    0.27    3.01    3.02   426.73443   153.42246   202.52460
   482  O   6.0   -0.40    1.00    1.80   424.95592   152.86405   201.16569
   483  C   4.0    0.04    3.98    3.58   430.17357   151.97033   199.57923
   484  O   6.0   -0.46    1.99    1.82   432.16983   150.20437   199.44910
   485  C   4.0   -0.21    3.98    3.59   430.97902   154.61106   198.74932
   486  H   1.0    0.26    1.00    1.43   429.19986   148.04334   201.99099
   487  H   1.0    0.13    0.99    1.43   430.70283   152.92255   203.53140
   488  H   1.0    0.14    0.99    1.43   428.57853   151.32405   198.40447
   489  H   1.0    0.26    0.99    1.43   433.01842   150.38290   197.84441
   490  H   1.0    0.11    0.99    1.43   431.54769   154.59804   196.77543
   491  H   1.0    0.12    0.99    1.43   429.40761   155.91400   198.96429
   492  H   1.0    0.12    0.99    1.43   432.55674   155.25884   199.89600
   493  N   5.0   -0.50    3.00    1.93   426.63786   155.27402   204.25903
   494  C   4.0    0.03    3.99    3.61   424.34598   156.65284   204.78165
   495  C   4.0    0.28    3.01    3.02   422.94272   155.87279   207.18295
   496  O   6.0   -0.40    1.00    1.80   421.18416   157.14737   207.99179
   497  H   1.0    0.25    1.00    1.43   428.10164   155.51169   205.45902
   498  H   1.0    0.12    0.99    1.43   424.74135   158.67468   204.91398
   499  H   1.0    0.15    0.99    1.43   423.05733   156.34224   203.19266
   500  N   5.0   -0.47    3.00    1.93   423.75224   153.76940   208.31479
   501  C   4.0    0.02    3.99    3.61   422.62855   152.88555   210.64300
   502  C   4.0    0.27    3.00    3.02   420.02800   151.65626   210.23605
   503  O   6.0   -0.45    1.00    1.80   419.80445   149.39557   209.81420
   504  H   1.0    0.30    1.00    1.43   425.23381   152.75245   207.62734
   505  H   1.0    0.12    0.99    1.43   423.90058   151.47295   211.43941
   506  H   1.0    0.12    0.99    1.43   422.40973   154.48279   211.93869
   507  N   5.0   -0.48    3.01    1.93   418.07658   153.23672   210.53635
   508  C   4.0    0.07    3.99    3.60   415.46752   152.38897   210.61202
   509  C   4.0    0.26    3.02    3.02   414.02038   153.37858   208.31432
   510  O   6.0   -0.38    1.00    1.80   413.81550   155.65987   207.93609
   511  C   4.0   -0.13    3.99    3.60   414.22551   153.44257   213.01557
   512  C   4.0   -0.10    3.98    3.58   411.48667   152.57802   213.41069
   513  C   4.0   -0.23    3.98    3.59   411.34496   149.79298   214.14321
   514  C   4.0   -0.22    3.99    3.59   410.25799   154.16481   215.48746
   515  H   1.0    0.28    1.00    1.43   418.38995   155.12400   210.44649
   516  H   1.0    0.13    0.99    1.43   415.53676   150.33039   210.62093
   517  H   1.0    0.12    0.99    1.43   415.37298   152.88916   214.63821
   518  H   1.0    0.13    0.99    1.43   414.25897   155.49996   212.85462
   519  H   1.0    0.15    0.99    1.43   410.43230   152.87172   211.65124
   520  H   1.0    0.10    0.99    1.43   409.38651   149.26746   214.46142
   521  H   1.0    0.10    0.99    1.43   412.08891   148.58951   212.65630
   522  H   1.0    0.10    0.99    1.43   412.42491   149.47577   215.85827
   523  H   1.0    0.10    0.99    1.43   408.30033   153.58877   215.73245
   524  H   1.0    0.10    0.99    1.43   411.28092   153.91186   217.24887
   525  H   1.0    0.12    0.99    1.43   410.28037   156.15704   214.98773
   526  N   5.0   -0.32    3.03    1.93   412.99651   151.69967   206.71706
   527  C   4.0    0.07    4.03    3.67   411.50559   152.66444   204.61312
   528  C   4.0    0.08    3.00    3.02   409.09382   153.88359   205.65005
   529  O   6.0   -0.40    1.00    1.80   407.88803   152.96771   207.39829
   530  C   4.0   -0.13    4.01    3.63   410.93239   150.33150   202.99929
   531  C   4.0   -0.13    4.01    3.63   410.93579   148.19140   204.93289
   532  C   4.0   -0.04    4.01    3.64   412.99926   148.95497   206.80262
   533  H   1.0    0.13    0.99    1.43   412.60489   154.09489   203.60194
   534  H   1.0    0.11    0.99    1.43   409.13136   150.47329   202.01458
   535  H   1.0    0.11    0.99    1.43   412.43514   150.06272   201.61848
   536  H   1.0    0.13    0.99    1.43   409.10976   148.12137   205.88268
   537  H   1.0    0.11    0.99    1.43   411.28855   146.35223   204.08836
   538  H   1.0    0.10    0.99    1.43   412.57018   148.24380   208.68556
   539  H   1.0    0.12    0.99    1.43   414.85043   148.24256   206.21170
   540  H   1.0    0.30    1.00    1.43   416.53082   121.68830   229.90746
   541  H   1.0    0.14    1.00    1.43   422.28311   124.14824   231.54402
   542  H   1.0    0.29    1.00    1.43   437.23512   127.44672   221.56730
   543  H   1.0    0.15    1.00    1.43   441.54020   129.42205   226.13378
   544  H   1.0    0.34    1.00    1.43   432.26592   132.25565   236.26090
   545  H   1.0    0.14    1.00    1.43   411.18162   145.76143   234.40926
   546  H   1.0    0.28    1.00    1.43   404.48388   140.46747   227.75346
   547  H   1.0    0.14    1.00    1.43   401.21553   142.75797   215.92406
   548  H   1.0    0.31    1.00    1.43   408.87515   138.85654   212.94068
   549  H   1.0    0.13    1.00    1.43   436.27382   140.88776   236.40436
   550  H   1.0    0.30    1.00    1.43   443.23237   139.76736   233.06065
   551  H   1.0    0.13    1.00    1.43   411.90635   127.18148   214.50518
   552  H   1.0    0.28    1.00    1.43   418.71313   125.66410   221.13556
   553  H   1.0    0.13    1.00    1.43   420.40951   126.19108   214.32391
   554  H   1.0    0.30    1.00    1.43   430.49145   127.75950   212.25517
   555  H   1.0    0.14    1.00    1.43   408.44782   155.49103   204.89514

           ------------------------------------------------- 
          |        Self-Consistent Charge Iterations        |
           ------------------------------------------------- 

          ...................................................
          :                      SETUP                      :
          :.................................................:
          :  # basis functions                1347          :
          :  # atomic orbitals                1347          :
          :  # shells                          819          :
          :  # electrons                      1486          :
          :  max. iterations                   250          :
          :  Hamiltonian                  GFN2-xTB          :
          :  restarted?                      false          :
          :  GBSA solvation                   true          :
          :  PC potential                    false          :
          :  electronic temp.          500.0000000     K    :
          :  accuracy                    0.1000000          :
          :  -> integral cutoff          0.3500000E+02      :
          :  -> integral neglect         0.1000000E-08      :
          :  -> SCF convergence          0.1000000E-06 Eh   :
          :  -> wf. convergence          0.1000000E-04 e    :
          :  Broyden damping             0.4000000          :
          ...................................................

 iter      E             dE          RMSdq      gap      omega  full diag
   1   -849.4802419 -0.849480E+03  0.421E+00    2.11       0.0  T
   2   -851.7761982 -0.229596E+01  0.218E+00    1.54       1.0  T
   3   -851.8552693 -0.790712E-01  0.118E+00    2.00       1.0  T
   4   -851.8833338 -0.280644E-01  0.296E-01    1.41       1.0  T
   5   -851.9092090 -0.258753E-01  0.115E-01    1.63       1.0  T
   6   -851.9102504 -0.104141E-02  0.579E-02    1.58       1.0  T
   7   -851.9104370 -0.186608E-03  0.275E-02    1.57       1.0  T
   8   -851.9105768 -0.139739E-03  0.117E-02    1.56       1.0  T
   9   -851.9105923 -0.155268E-04  0.662E-03    1.55       1.0  T
  10   -851.9105988 -0.651618E-05  0.276E-03    1.54       1.5  T
  11   -851.9106000 -0.114667E-05  0.133E-03    1.54       3.2  T
  12   -851.9106002 -0.273143E-06  0.710E-04    1.54       6.0  T
  13   -851.9106003 -0.855269E-07  0.340E-04    1.54      12.5  T
  14   -851.9106003 -0.168473E-07  0.149E-04    1.54      28.5  T
  15   -851.9106003 -0.354396E-08  0.710E-05    1.54      59.8  T
  16   -851.9106003 -0.677346E-09  0.366E-05    1.54     116.0  T

   *** convergence criteria satisfied after 16 iterations ***

         #    Occupation            Energy/Eh            Energy/eV
      -------------------------------------------------------------
         1        2.0000           -0.7417815             -20.1849
       ...           ...                  ...                  ...
       737        2.0000           -0.3669382              -9.9849
       738        2.0000           -0.3663964              -9.9702
       739        2.0000           -0.3651701              -9.9368
       740        2.0000           -0.3624361              -9.8624
       741        2.0000           -0.3603405              -9.8054
       742        2.0000           -0.3602323              -9.8024
       743        2.0000           -0.3559523              -9.6860 (HOMO)
       744                         -0.2993301              -8.1452 (LUMO)
       745                         -0.2978563              -8.1051
       746                         -0.2935263              -7.9873
       747                         -0.2896830              -7.8827
       748                         -0.2889195              -7.8619
       ...                                ...                  ...
      1347                          0.6652487              18.1023
      -------------------------------------------------------------
                  HL-Gap            0.0566222 Eh            1.5408 eV
             Fermi-level           -0.3278088 Eh           -8.9201 eV

 SCC (total)                   0 d,  0 h,  0 min, 13.947 sec
 SCC setup                      ...        0 min,  0.186 sec (  1.335%)
 Dispersion                     ...        0 min,  0.142 sec (  1.021%)
 integral evaluation            ...        0 min,  0.387 sec (  2.778%)
 zeroth order Hamiltonian       ...        0 min,  0.012 sec (  0.083%)
 iterations                     ...        0 min, 11.139 sec ( 79.862%)
 molecular gradient             ...        0 min,  1.966 sec ( 14.094%)
 printout                       ...        0 min,  0.115 sec (  0.825%)

         :::::::::::::::::::::::::::::::::::::::::::::::::::::
         ::                     SUMMARY                     ::
         :::::::::::::::::::::::::::::::::::::::::::::::::::::
         :: total energy             -841.520365601378 Eh   ::
         :: total w/o Gsasa/hb       -841.423311086180 Eh   ::
         :: gradient norm               0.635366686857 Eh/α ::
         :: HOMO-LUMO gap               1.540769561817 eV   ::
         ::.................................................::
         :: SCC energy               -851.927961980773 Eh   ::
         :: -> isotropic ES             2.597376222109 Eh   ::
         :: -> anisotropic ES          -0.136224012319 Eh   ::
         :: -> anisotropic XC           0.269616010022 Eh   ::
         :: -> dispersion              -0.740561144215 Eh   ::
         :: -> Gsolv                   -0.669464184258 Eh   ::
         ::    -> Gborn                -0.572409669060 Eh   ::
         ::    -> Gsasa                -0.019219076951 Eh   ::
         ::    -> Ghb                  -0.079692881374 Eh   ::
         ::    -> Gshift                0.001857443127 Eh   ::
         :: repulsion energy           10.323782452353 Eh   ::
         :: add. restraining            0.000000000000 Eh   ::
         :::::::::::::::::::::::::::::::::::::::::::::::::::::

           -------------------------------------------------
          |                Property Printout                |
           -------------------------------------------------

    * Orbital Energies and Occupations

         #    Occupation            Energy/Eh            Energy/eV
      -------------------------------------------------------------
         1        2.0000           -0.7417815             -20.1849
       ...           ...                  ...                  ...
       731        2.0000           -0.3785715             -10.3015
       732        2.0000           -0.3776499             -10.2764
       733        2.0000           -0.3720758             -10.1247
       734        2.0000           -0.3709217             -10.0933
       735        2.0000           -0.3690810             -10.0432
       736        2.0000           -0.3685646             -10.0292
       737        2.0000           -0.3669382              -9.9849
       738        2.0000           -0.3663964              -9.9702
       739        2.0000           -0.3651701              -9.9368
       740        2.0000           -0.3624361              -9.8624
       741        2.0000           -0.3603405              -9.8054
       742        2.0000           -0.3602323              -9.8024
       743        2.0000           -0.3559523              -9.6860 (HOMO)
       744                         -0.2993301              -8.1452 (LUMO)
       745                         -0.2978563              -8.1051
       746                         -0.2935263              -7.9873
       747                         -0.2896830              -7.8827
       748                         -0.2889195              -7.8619
       749                         -0.2858040              -7.7771
       750                         -0.2857169              -7.7748
       751                         -0.2788744              -7.5886
       752                         -0.2453009              -6.6750
       753                         -0.2446302              -6.6567
       754                         -0.2393937              -6.5142
       ...                                ...                  ...
      1347                          0.6652487              18.1023
      -------------------------------------------------------------
                  HL-Gap            0.0566222 Eh            1.5408 eV
             Fermi-level           -0.3278088 Eh           -8.9201 eV

   #   Z        covCN         q      C6AA      α(0)
   1   7 N      2.637    -0.393    30.185     8.160
   2   6 C      3.786     0.047    19.802     6.338
   3   6 C      2.768     0.204    23.674     7.969
   4   8 O      0.856    -0.387    21.422     6.205
   5   6 C      3.812    -0.078    21.975     6.672
   6   6 C      2.972     0.009    27.802     8.649
   7   6 C      2.925    -0.040    29.000     8.831
   8   6 C      2.924    -0.042    29.041     8.837
   9   6 C      2.919    -0.034    28.850     8.808
  10   6 C      2.919    -0.030    28.756     8.794
  11   6 C      2.921    -0.033    28.835     8.806
  12   1 H      0.860     0.177     1.229     1.737
  13   1 H      0.923     0.043     2.403     2.424
  14   1 H      0.924     0.071     2.078     2.254
  15   1 H      0.925     0.062     2.173     2.305
  16   1 H      0.926     0.039     2.467     2.456
  17   1 H      0.926     0.033     2.545     2.495
  18   1 H      0.926     0.042     2.426     2.436
  19   1 H      0.926     0.022     2.705     2.572
  20   1 H      0.926     0.033     2.539     2.492
  21   7 N      2.634    -0.388    30.038     8.140
  22   6 C      3.783     0.031    20.064     6.381
  23   6 C      2.764     0.191    23.916     8.009
  24   8 O      0.856    -0.374    21.166     6.168
  25   6 C      3.811    -0.072    21.867     6.656
  26   6 C      3.850    -0.010    20.725     6.475
  27   6 C      3.757    -0.109    22.646     6.785
  28   6 C      3.758    -0.123    22.909     6.824
  29   1 H      0.860     0.156     1.360     1.827
  30   1 H      0.924     0.079     1.986     2.204
  31   1 H      0.924     0.036     2.504     2.474
  32   1 H      0.924     0.050     2.320     2.382
  33   1 H      0.924     0.035     2.512     2.479
  34   1 H      0.925     0.037     2.483     2.464
  35   1 H      0.925     0.031     2.571     2.507
  36   1 H      0.925     0.036     2.506     2.476
  37   1 H      0.925     0.064     2.156     2.296
  38   1 H      0.925     0.041     2.436     2.441
  39   1 H      0.925     0.033     2.547     2.496
  40   7 N      2.637    -0.389    30.074     8.145
  41   6 C      3.781     0.029    20.101     6.387
  42   6 C      2.764     0.273    22.393     7.750
  43   8 O      0.859    -0.486    23.479     6.497
  44   6 C      3.802    -0.064    21.733     6.637
  45   6 C      3.806    -0.094    22.285     6.720
  46   6 C      2.743     0.289    22.102     7.698
  47   8 O      0.858    -0.502    23.837     6.546
  48   7 N      2.639    -0.267    26.917     7.705
  49   1 H      0.860     0.161     1.330     1.807
  50   1 H      0.924     0.033     2.550     2.497
  51   1 H      0.924     0.050     2.324     2.384
  52   1 H      0.924     0.033     2.545     2.495
  53   1 H      0.925     0.071     2.075     2.253
  54   1 H      0.925     0.059     2.208     2.324
  55   1 H      0.860     0.215     1.034     1.593
  56   1 H      0.860     0.216     1.030     1.590
  57   7 N      2.688    -0.168    24.629     7.371
  58   6 C      3.801     0.018    20.280     6.412
  59   6 C      2.750     0.276    22.337     7.739
  60   8 O      0.858    -0.488    23.521     6.502
  61   6 C      3.805    -0.077    21.967     6.672
  62   6 C      3.800    -0.074    21.907     6.664
  63   6 C      3.805    -0.093    22.275     6.719
  64   6 C      3.730    -0.050    21.573     6.630
  65   7 N      3.477    -0.146    24.148     7.298
  66   1 H      0.860     0.206     1.074     1.623
  67   1 H      0.923     0.073     2.049     2.239
  68   1 H      0.925     0.054     2.271     2.357
  69   1 H      0.924     0.073     2.056     2.242
  70   1 H      0.924     0.052     2.292     2.368
  71   1 H      0.924     0.045     2.388     2.416
  72   1 H      0.925     0.085     1.923     2.169
  73   1 H      0.924     0.081     1.969     2.194
  74   1 H      0.924     0.114     1.665     2.018
  75   1 H      0.925     0.127     1.557     1.951
  76   1 H      0.859     0.305     0.699     1.309
  77   1 H      0.852     0.305     0.699     1.310
  78   1 H      0.859     0.279     0.778     1.382
  79   7 N      2.694    -0.174    24.772     7.392
  80   6 C      3.799     0.017    20.291     6.414
  81   6 C      2.757     0.280    22.254     7.725
  82   8 O      0.858    -0.493    23.637     6.518
  83   6 C      3.853    -0.026    21.006     6.519
  84   6 C      3.803    -0.062    21.682     6.629
  85   6 C      3.755    -0.133    23.120     6.856
  86   6 C      3.751    -0.116    22.781     6.807
  87   1 H      0.860     0.206     1.076     1.625
  88   1 H      0.924     0.074     2.045     2.236
  89   1 H      0.924     0.050     2.325     2.385
  90   1 H      0.924     0.035     2.512     2.479
  91   1 H      0.924     0.026     2.643     2.543
  92   1 H      0.925     0.076     2.018     2.221
  93   1 H      0.925     0.049     2.331     2.387
  94   1 H      0.925     0.055     2.260     2.351
  95   1 H      0.925     0.040     2.450     2.448
  96   1 H      0.925     0.045     2.379     2.412
  97   1 H      0.925     0.053     2.283     2.363
  98   7 N      2.690    -0.181    24.913     7.413
  99   6 C      3.791     0.032    20.046     6.376
 100   6 C      2.765     0.185    24.023     8.027
 101   8 O      0.856    -0.325    20.235     6.031
 102   6 C      3.804    -0.113    22.659     6.777
 103   6 C      2.682     0.371    20.706     7.447
 104   8 O      0.856    -0.628    26.814     6.943
 105   8 O      0.857    -0.629    26.846     6.947
 106   1 H      0.860     0.223     0.996     1.563
 107   1 H      0.924     0.079     1.986     2.204
 108   1 H      0.925     0.070     2.090     2.261
 109   1 H      0.924     0.053     2.287     2.365
 110   7 N      2.636    -0.378    29.767     8.103
 111   6 C      3.788     0.023    20.205     6.402
 112   6 C      2.756     0.269    22.462     7.761
 113   8 O      0.858    -0.500    23.791     6.540
 114   6 C      3.810    -0.068    21.786     6.644
 115   6 C      3.850    -0.012    20.762     6.481
 116   6 C      3.755    -0.117    22.787     6.807
 117   6 C      3.758    -0.114    22.738     6.798
 118   1 H      0.860     0.145     1.433     1.875
 119   1 H      0.924     0.060     2.204     2.322
 120   1 H      0.924     0.035     2.522     2.484
 121   1 H      0.924     0.022     2.706     2.573
 122   1 H      0.924     0.039     2.468     2.457
 123   1 H      0.925     0.044     2.399     2.422
 124   1 H      0.925     0.051     2.311     2.377
 125   1 H      0.925     0.036     2.499     2.472
 126   1 H      0.925     0.043     2.415     2.430
 127   1 H      0.925     0.033     2.548     2.496
 128   1 H      0.925     0.029     2.595     2.519
 129   7 N      2.693    -0.178    24.855     7.404
 130   6 C      3.791     0.023    20.190     6.399
 131   6 C      2.767     0.197    23.806     7.991
 132   8 O      0.856    -0.374    21.161     6.167
 133   6 C      3.803    -0.074    21.918     6.665
 134   6 C      3.803    -0.081    22.043     6.684
 135   6 C      3.801    -0.101    22.433     6.743
 136   6 C      3.732    -0.060    21.744     6.656
 137   7 N      3.481    -0.135    23.911     7.263
 138   1 H      0.860     0.242     0.916     1.499
 139   1 H      0.924     0.085     1.925     2.170
 140   1 H      0.924     0.070     2.090     2.261
 141   1 H      0.924     0.051     2.313     2.378
 142   1 H      0.924     0.074     2.048     2.238
 143   1 H      0.924     0.061     2.186     2.312
 144   1 H      0.925     0.074     2.043     2.235
 145   1 H      0.924     0.081     1.972     2.196
 146   1 H      0.925     0.130     1.536     1.938
 147   1 H      0.924     0.122     1.595     1.975
 148   1 H      0.859     0.307     0.693     1.304
 149   1 H      0.857     0.293     0.734     1.342
 150   1 H      0.859     0.282     0.771     1.375
 151   7 N      2.637    -0.384    29.931     8.125
 152   6 C      3.793     0.036    19.978     6.365
 153   6 C      2.760     0.268    22.481     7.765
 154   8 O      0.859    -0.456    22.836     6.407
 155   6 C      3.812    -0.078    21.982     6.674
 156   6 C      2.974    -0.001    28.045     8.687
 157   6 C      2.925    -0.047    29.158     8.855
 158   6 C      2.925    -0.046    29.153     8.855
 159   6 C      2.918    -0.065    29.620     8.925
 160   6 C      2.919    -0.070    29.742     8.943
 161   6 C      2.847     0.145    24.834     8.167
 162   8 O      1.658    -0.455    21.937     6.323
 163   1 H      0.860     0.177     1.233     1.739
 164   1 H      0.924     0.030     2.592     2.518
 165   1 H      0.925     0.069     2.098     2.265
 166   1 H      0.925     0.048     2.340     2.392
 167   1 H      0.926     0.059     2.211     2.325
 168   1 H      0.926     0.035     2.514     2.479
 169   1 H      0.926     0.035     2.517     2.481
 170   1 H      0.926     0.022     2.707     2.573
 171   1 H      0.803     0.328     0.644     1.261
 172   7 N      2.694    -0.171    24.707     7.382
 173   6 C      3.798     0.008    20.440     6.437
 174   6 C      2.762     0.269    22.449     7.759
 175   8 O      0.858    -0.475    23.228     6.462
 176   6 C      3.758    -0.127    22.988     6.836
 177   1 H      0.860     0.211     1.054     1.608
 178   1 H      0.924     0.100     1.782     2.087
 179   1 H      0.925     0.072     2.062     2.246
 180   1 H      0.925     0.072     2.062     2.245
 181   1 H      0.925     0.051     2.313     2.378
 182   7 N      2.692    -0.173    24.740     7.387
 183   6 C      3.805     0.001    20.555     6.454
 184   6 C      2.761     0.273    22.388     7.749
 185   8 O      0.858    -0.501    23.812     6.542
 186   6 C      3.804    -0.095    22.310     6.724
 187   6 C      3.806    -0.072    21.863     6.656
 188   6 C      3.802    -0.096    22.336     6.729
 189   6 C      3.731    -0.052    21.607     6.635
 190   7 N      3.483    -0.151    24.249     7.314
 191   1 H      0.860     0.222     1.003     1.569
 192   1 H      0.924     0.084     1.941     2.179
 193   1 H      0.925     0.100     1.786     2.090
 194   1 H      0.924     0.074     2.041     2.234
 195   1 H      0.924     0.033     2.541     2.493
 196   1 H      0.924     0.049     2.331     2.388
 197   1 H      0.924     0.068     2.108     2.270
 198   1 H      0.925     0.102     1.769     2.080
 199   1 H      0.925     0.131     1.524     1.930
 200   1 H      0.924     0.104     1.753     2.070
 201   1 H      0.859     0.300     0.712     1.322
 202   1 H      0.859     0.286     0.757     1.363
 203   1 H      0.859     0.311     0.683     1.294
 204   7 N      2.694    -0.171    24.703     7.382
 205   6 C      3.805     0.025    20.147     6.390
 206   6 C      2.760     0.282    22.230     7.721
 207   8 O      0.858    -0.512    24.047     6.575
 208   6 C      3.855    -0.008    20.676     6.467
 209   6 C      3.756    -0.110    22.664     6.788
 210   6 C      3.756    -0.111    22.681     6.790
 211   1 H      0.860     0.225     0.986     1.556
 212   1 H      0.924     0.077     2.012     2.218
 213   1 H      0.924     0.027     2.624     2.533
 214   1 H      0.925     0.054     2.276     2.359
 215   1 H      0.925     0.017     2.785     2.610
 216   1 H      0.925     0.052     2.294     2.368
 217   1 H      0.925     0.049     2.326     2.385
 218   1 H      0.925     0.050     2.321     2.383
 219   1 H      0.925     0.044     2.399     2.422
 220   7 N      2.697    -0.171    24.710     7.383
 221   6 C      3.799     0.019    20.261     6.409
 222   6 C      2.761     0.265    22.527     7.773
 223   8 O      0.858    -0.488    23.515     6.502
 224   6 C      3.726     0.133    18.524     6.145
 225   8 O      1.653    -0.495    22.776     6.442
 226   6 C      3.754    -0.124    22.945     6.830
 227   1 H      0.860     0.219     1.014     1.577
 228   1 H      0.924     0.064     2.152     2.294
 229   1 H      0.923     0.022     2.707     2.573
 230   1 H      0.801     0.330     0.638     1.255
 231   1 H      0.925     0.079     1.992     2.207
 232   1 H      0.925     0.042     2.425     2.435
 233   1 H      0.925     0.041     2.438     2.442
 234   7 N      2.693    -0.173    24.748     7.388
 235   6 C      3.801     0.028    20.102     6.383
 236   6 C      2.771     0.196    23.823     7.994
 237   8 O      0.856    -0.367    21.037     6.149
 238   6 C      3.854    -0.003    20.603     6.456
 239   6 C      3.758    -0.117    22.800     6.808
 240   6 C      3.757    -0.114    22.725     6.797
 241   1 H      0.860     0.220     1.011     1.575
 242   1 H      0.924     0.085     1.929     2.172
 243   1 H      0.924     0.030     2.584     2.514
 244   1 H      0.925     0.057     2.230     2.335
 245   1 H      0.925     0.036     2.500     2.472
 246   1 H      0.925     0.058     2.227     2.334
 247   1 H      0.925     0.064     2.152     2.294
 248   1 H      0.925     0.040     2.447     2.446
 249   1 H      0.925     0.041     2.439     2.442
 250   7 N      2.632    -0.393    30.166     8.157
 251   6 C      3.737    -0.009    20.826     6.512
 252   6 C      2.752     0.276    22.328     7.737
 253   8 O      0.859    -0.509    23.978     6.565
 254   1 H      0.860     0.165     1.306     1.790
 255   1 H      0.924     0.061     2.190     2.314
 256   1 H      0.925     0.038     2.477     2.461
 257   7 N      2.693    -0.161    24.489     7.350
 258   6 C      3.794     0.015    20.333     6.421
 259   6 C      2.758     0.273    22.394     7.749
 260   8 O      0.858    -0.437    22.442     6.352
 261   6 C      3.726     0.116    18.774     6.186
 262   8 O      1.656    -0.471    22.283     6.372
 263   6 C      3.752    -0.143    23.318     6.886
 264   1 H      0.860     0.235     0.943     1.521
 265   1 H      0.924     0.052     2.291     2.367
 266   1 H      0.923     0.033     2.540     2.492
 267   1 H      0.805     0.350     0.588     1.204
 268   1 H      0.925     0.067     2.117     2.276
 269   1 H      0.925     0.053     2.279     2.361
 270   1 H      0.925     0.063     2.160     2.299
 271   7 N      2.685    -0.179    24.871     7.407
 272   6 C      3.747    -0.038    21.312     6.585
 273   6 C      2.751     0.274    22.370     7.745
 274   8 O      0.859    -0.475    23.238     6.463
 275   1 H      0.860     0.201     1.103     1.645
 276   1 H      0.924     0.085     1.926     2.170
 277   1 H      0.924     0.113     1.672     2.022
 278   7 N      2.687    -0.184    24.977     7.423
 279   6 C      3.795     0.019    20.269     6.411
 280   6 C      2.754     0.274    22.371     7.745
 281   8 O      0.859    -0.485    23.457     6.493
 282   6 C      3.805    -0.059    21.630     6.621
 283   6 C      3.804    -0.067    21.789     6.645
 284   6 C      3.803    -0.089    22.189     6.706
 285   6 C      3.733    -0.047    21.514     6.620
 286   7 N      3.483    -0.158    24.405     7.337
 287   1 H      0.860     0.209     1.060     1.613
 288   1 H      0.924     0.099     1.797     2.096
 289   1 H      0.924     0.031     2.569     2.507
 290   1 H      0.925     0.065     2.136     2.285
 291   1 H      0.924     0.038     2.474     2.460
 292   1 H      0.924     0.065     2.145     2.290
 293   1 H      0.925     0.072     2.060     2.244
 294   1 H      0.925     0.066     2.130     2.282
 295   1 H      0.924     0.120     1.612     1.986
 296   1 H      0.925     0.115     1.657     2.013
 297   1 H      0.859     0.298     0.718     1.327
 298   1 H      0.857     0.303     0.703     1.314
 299   1 H      0.859     0.282     0.769     1.374
 300   7 N      2.693    -0.181    24.913     7.413
 301   6 C      3.797     0.042    19.870     6.347
 302   6 C      2.761     0.264    22.552     7.777
 303   8 O      0.858    -0.487    23.505     6.500
 304   6 C      3.803    -0.097    22.350     6.731
 305   6 C      2.683     0.377    20.612     7.430
 306   8 O      0.856    -0.626    26.759     6.935
 307   8 O      0.856    -0.619    26.590     6.913
 308   1 H      0.860     0.191     1.154     1.683
 309   1 H      0.924     0.066     2.130     2.283
 310   1 H      0.924     0.025     2.653     2.547
 311   1 H      0.925     0.038     2.476     2.461
 312   7 N      2.689    -0.170    24.680     7.378
 313   6 C      3.746    -0.035    21.264     6.578
 314   6 C      2.757     0.273    22.391     7.749
 315   8 O      0.859    -0.464    22.997     6.429
 316   1 H      0.860     0.217     1.024     1.586
 317   1 H      0.924     0.106     1.730     2.057
 318   1 H      0.924     0.086     1.920     2.167
 319   7 N      2.689    -0.155    24.362     7.331
 320   6 C      3.805     0.009    20.426     6.434
 321   6 C      2.754     0.270    22.446     7.758
 322   8 O      0.858    -0.500    23.774     6.537
 323   6 C      3.812    -0.068    21.795     6.645
 324   6 C      2.969    -0.005    28.154     8.703
 325   6 C      2.925    -0.045    29.108     8.848
 326   6 C      2.925    -0.042    29.039     8.837
 327   6 C      2.918    -0.063    29.557     8.915
 328   6 C      2.917    -0.086    30.144     9.003
 329   6 C      2.846     0.145    24.849     8.170
 330   8 O      1.660    -0.416    21.161     6.210
 331   1 H      0.860     0.193     1.141     1.673
 332   1 H      0.924     0.104     1.747     2.067
 333   1 H      0.925     0.044     2.393     2.419
 334   1 H      0.924     0.052     2.291     2.367
 335   1 H      0.926     0.019     2.743     2.590
 336   1 H      0.926     0.044     2.391     2.418
 337   1 H      0.926     0.056     2.249     2.345
 338   1 H      0.926     0.084     1.942     2.179
 339   1 H      0.805     0.365     0.555     1.170
 340   7 N      2.698    -0.172    24.714     7.383
 341   6 C      3.793     0.024    20.177     6.397
 342   6 C      2.760     0.269    22.451     7.759
 343   8 O      0.859    -0.456    22.842     6.408
 344   6 C      3.812    -0.073    21.894     6.660
 345   6 C      2.969     0.002    27.972     8.675
 346   6 C      2.927    -0.044    29.105     8.847
 347   6 C      2.929    -0.039    28.961     8.826
 348   6 C      2.918    -0.057    29.423     8.895
 349   6 C      2.919    -0.060    29.489     8.905
 350   6 C      2.848     0.145    24.834     8.167
 351   8 O      1.659    -0.413    21.096     6.200
 352   1 H      0.860     0.233     0.953     1.529
 353   1 H      0.924     0.066     2.136     2.285
 354   1 H      0.924     0.066     2.125     2.280
 355   1 H      0.924     0.059     2.211     2.325
 356   1 H      0.926     0.046     2.373     2.409
 357   1 H      0.926     0.033     2.542     2.493
 358   1 H      0.926     0.047     2.363     2.404
 359   1 H      0.926     0.035     2.512     2.478
 360   1 H      0.805     0.320     0.663     1.279
 361   7 N      2.691    -0.171    24.692     7.380
 362   6 C      3.799     0.027    20.130     6.388
 363   6 C      2.758     0.268    22.467     7.762
 364   8 O      0.858    -0.486    23.470     6.495
 365   6 C      3.808    -0.051    21.483     6.598
 366   6 C      3.802    -0.084    22.106     6.694
 367   6 C      2.687     0.373    20.679     7.442
 368   8 O      0.857    -0.663    27.723     7.059
 369   8 O      0.856    -0.622    26.676     6.925
 370   1 H      0.860     0.198     1.114     1.654
 371   1 H      0.924     0.066     2.128     2.281
 372   1 H      0.924     0.056     2.249     2.345
 373   1 H      0.924     0.034     2.532     2.489
 374   1 H      0.924     0.015     2.804     2.619
 375   1 H      0.924     0.024     2.675     2.558
 376   7 N      2.691    -0.149    24.220     7.309
 377   6 C      3.795     0.022    20.206     6.401
 378   6 C      2.766     0.197    23.796     7.989
 379   8 O      0.856    -0.367    21.029     6.148
 380   6 C      3.850    -0.016    20.828     6.491
 381   6 C      3.757    -0.116    22.772     6.804
 382   6 C      3.755    -0.120    22.846     6.815
 383   1 H      0.860     0.200     1.106     1.648
 384   1 H      0.924     0.085     1.924     2.169
 385   1 H      0.924     0.062     2.179     2.308
 386   1 H      0.925     0.075     2.036     2.231
 387   1 H      0.925     0.041     2.440     2.443
 388   1 H      0.925     0.047     2.363     2.404
 389   1 H      0.925     0.074     2.045     2.236
 390   1 H      0.925     0.051     2.302     2.373
 391   1 H      0.925     0.038     2.474     2.460
 392   7 N      2.638    -0.381    29.853     8.115
 393   6 C      3.782     0.044    19.863     6.349
 394   6 C      2.767     0.206    23.632     7.961
 395   8 O      0.856    -0.372    21.136     6.164
 396   6 C      3.812    -0.069    21.806     6.647
 397   6 C      3.849    -0.007    20.677     6.468
 398   6 C      3.756    -0.114    22.733     6.798
 399   6 C      3.758    -0.119    22.840     6.814
 400   1 H      0.860     0.164     1.312     1.795
 401   1 H      0.924     0.042     2.416     2.431
 402   1 H      0.924     0.055     2.258     2.350
 403   1 H      0.924     0.048     2.349     2.397
 404   1 H      0.924     0.011     2.872     2.650
 405   1 H      0.925     0.043     2.415     2.430
 406   1 H      0.925     0.033     2.549     2.497
 407   1 H      0.925     0.044     2.392     2.419
 408   1 H      0.925     0.056     2.243     2.342
 409   1 H      0.925     0.046     2.370     2.407
 410   1 H      0.925     0.035     2.512     2.479
 411   7 N      2.639    -0.379    29.798     8.107
 412   6 C      3.786     0.040    19.925     6.358
 413   6 C      2.758     0.269    22.459     7.761
 414   8 O      0.859    -0.454    22.800     6.402
 415   6 C      3.757    -0.111    22.676     6.789
 416   1 H      0.860     0.155     1.369     1.833
 417   1 H      0.924     0.007     2.948     2.685
 418   1 H      0.925     0.040     2.445     2.445
 419   1 H      0.925     0.043     2.409     2.427
 420   1 H      0.925     0.062     2.181     2.310
 421   7 N      2.689    -0.189    25.105     7.442
 422   6 C      3.797     0.014    20.347     6.423
 423   6 C      2.755     0.271    22.418     7.753
 424   8 O      0.859    -0.465    23.016     6.432
 425   6 C      3.728     0.111    18.855     6.199
 426   8 O      1.656    -0.490    22.687     6.430
 427   6 C      3.752    -0.143    23.310     6.885
 428   1 H      0.860     0.210     1.056     1.609
 429   1 H      0.924     0.089     1.891     2.150
 430   1 H      0.923     0.052     2.296     2.370
 431   1 H      0.805     0.348     0.593     1.210
 432   1 H      0.925     0.068     2.111     2.272
 433   1 H      0.925     0.066     2.127     2.281
 434   1 H      0.925     0.052     2.293     2.368
 435   7 N      2.692    -0.146    24.160     7.300
 436   6 C      3.794     0.012    20.381     6.429
 437   6 C      2.769     0.256    22.695     7.802
 438   8 O      0.859    -0.513    24.076     6.579
 439   6 C      3.677     0.079    19.482     6.323
 440   8 O      1.656    -0.464    22.136     6.351
 441   1 H      0.860     0.204     1.088     1.634
 442   1 H      0.924     0.097     1.817     2.108
 443   1 H      0.924     0.036     2.503     2.474
 444   1 H      0.923     0.035     2.518     2.481
 445   1 H      0.805     0.355     0.575     1.192
 446   7 N      2.760    -0.070    22.601     7.061
 447   6 C      3.838     0.021    20.188     6.392
[...]
   222  C   3.952        O  223 1.599    N  234 1.326    C  221 0.936
   223  O   1.932        C  222 1.599    N  234 0.196
   224  C   3.962        O  225 1.011    C  226 1.002    H  229 0.959    C  221 0.937
   225  O   1.932        C  224 1.011    H  230 0.805
   226  C   3.991        C  224 1.002    H  233 0.986    H  232 0.984    H  231 0.981
   227  H   0.952        N  220 0.907
   228  H   0.996        C  221 0.953
   229  H   0.999        C  224 0.959
   230  H   0.891        O  225 0.805
   231  H   0.993        C  226 0.981
   232  H   0.998        C  226 0.984
   233  H   0.998        C  226 0.986
   234  N   3.497        C  222 1.326    C  235 0.967    H  241 0.880    O  223 0.196
   235  C   3.958        C  236 0.967    N  234 0.967    C  238 0.958    H  242 0.953
   236  C   3.897        O  237 1.877    C  235 0.967    H  549 0.952
   237  O   2.050        C  236 1.877
   238  C   3.989        C  240 1.008    C  239 1.006    H  243 0.961    C  235 0.958
   239  C   3.992        C  238 1.006    H  244 0.983    H  246 0.982    H  245 0.981
   240  C   3.993        C  238 1.008    H  248 0.983    H  249 0.981    H  247 0.977
   241  H   0.952        N  234 0.880
   242  H   0.992        C  235 0.953
   243  H   0.999        C  238 0.961
   244  H   0.996        C  239 0.983
   245  H   0.999        C  239 0.981
   246  H   0.997        C  239 0.982
   247  H   0.996        C  240 0.977
   248  H   0.998        C  240 0.983
   249  H   0.998        C  240 0.981
   250  N   2.989        C  251 1.018    H  550 0.952    H  254 0.932
   251  C   3.987        N  250 1.018    H  255 0.971    H  256 0.960    C  252 0.949
   252  C   3.941        O  253 1.607    N  257 1.318    C  251 0.949
   253  O   1.950        C  252 1.607    N  257 0.196
   254  H   0.973        N  250 0.932
   255  H   0.996        C  251 0.971
   256  H   0.998        C  251 0.960
   257  N   3.482        C  252 1.318    C  258 0.982    H  264 0.905    O  253 0.196
   258  C   3.970        N  257 0.982    C  261 0.965    H  265 0.955    C  259 0.928
   259  C   3.952        O  260 1.675    N  271 1.269    C  258 0.928
   260  O   1.994        C  259 1.675    N  271 0.195
   261  C   3.960        O  262 1.000    C  263 0.999    C  258 0.965    H  266 0.960
   262  O   1.944        C  261 1.000    H  267 0.861
   263  C   3.990        C  261 0.999    H  269 0.984    H  270 0.983    H  268 0.981
   264  H   0.944        N  257 0.905
   265  H   0.997        C  258 0.955
   266  H   0.998        C  261 0.960
   267  H   0.877        O  262 0.861
   268  H   0.995        C  263 0.981
   269  H   0.997        C  263 0.984
   270  H   0.996        C  263 0.983
   271  N   3.451        C  259 1.269    C  272 0.998    H  275 0.928    O  260 0.195
   272  C   3.961        N  271 0.998    H  276 0.953    H  277 0.953    C  273 0.946
   273  C   3.952        O  274 1.628    N  278 1.302    C  272 0.946
   274  O   1.959        C  273 1.628    N  278 0.197
   275  H   0.960        N  271 0.928
   276  H   0.992        C  272 0.953
   277  H   0.987        C  272 0.953
   278  N   3.482        C  273 1.302    C  279 0.986    H  287 0.896    O  274 0.197
   279  C   3.961        N  278 0.986    C  282 0.975    C  280 0.939    H  288 0.928
   280  C   3.943        O  281 1.631    N  300 1.290    C  279 0.939
   281  O   1.953        C  280 1.631    N  300 0.191
   282  C   3.987        C  283 1.006    C  279 0.975    H  289 0.969    H  290 0.967
   283  C   3.992        C  282 1.006    C  284 1.005    H  291 0.972    H  292 0.970
   284  C   3.989        C  285 1.011    C  283 1.005    H  294 0.966    H  293 0.965
   285  C   3.918        C  284 1.011    H  296 0.966    H  295 0.961    N  286 0.959
   286  N   3.654        C  285 0.959    H  299 0.906    H  297 0.899    H  298 0.842
   287  H   0.956        N  278 0.896
   288  H   0.989        C  279 0.928
   289  H   0.999        C  282 0.969
   290  H   0.995        C  282 0.967
   291  H   0.998        C  283 0.972
   292  H   0.995        C  283 0.970
   293  H   0.995        C  284 0.965
   294  H   0.996        C  284 0.966
   295  H   0.985        C  285 0.961
   296  H   0.987        C  285 0.966
   297  H   0.911        N  286 0.899
   298  H   0.908        N  286 0.842
   299  H   0.920        N  286 0.906
   300  N   3.468        C  280 1.290    C  301 0.985    H  308 0.925    O  281 0.191
   301  C   3.967        N  300 0.985    C  304 0.967    H  309 0.951    C  302 0.936
   302  C   3.953        O  303 1.630    N  312 1.300    C  301 0.936
   303  O   1.947        C  302 1.630    N  312 0.197
   304  C   3.983        H  310 0.980    H  311 0.971    C  301 0.967    C  305 0.900
   305  C   3.935        O  307 1.534    O  306 1.470    C  304 0.900
   306  O   1.825        C  305 1.470    O  307 0.216
   307  O   1.830        C  305 1.534    O  306 0.216
   308  H   0.964        N  300 0.925
   309  H   0.995        C  301 0.951
   310  H   0.999        C  304 0.980
   311  H   0.998        C  304 0.971
   312  N   3.463        C  302 1.300    C  313 0.990    H  316 0.912    O  303 0.197
   313  C   3.959        N  312 0.990    H  318 0.962    C  314 0.957    H  317 0.939
   314  C   3.953        O  315 1.618    N  319 1.306    C  313 0.957
   315  O   1.984        C  314 1.618    N  319 0.196
   316  H   0.953        N  312 0.912
   317  H   0.988        C  313 0.939
   318  H   0.992        C  313 0.962
   319  N   3.487        C  314 1.306    C  320 0.984    H  331 0.928    O  315 0.196
   320  C   3.953        N  319 0.984    C  323 0.948    C  321 0.936    H  332 0.936
   321  C   3.946        O  322 1.624    N  340 1.307    C  320 0.936
   322  O   1.946        C  321 1.624    N  340 0.197
   323  C   3.985        C  324 1.007    H  334 0.969    H  333 0.965    C  320 0.948
   324  C   3.985        C  326 1.412    C  325 1.398    C  323 1.007
   325  C   3.992        C  327 1.465    C  324 1.398    H  335 0.969    C  328 0.104
   326  C   3.989        C  328 1.442    C  324 1.412    H  336 0.965    C  327 0.107
   327  C   3.988        C  325 1.465    C  329 1.359    H  337 0.968    C  326 0.107
   328  C   3.980        C  326 1.442    C  329 1.368    H  338 0.958    C  325 0.104
   329  C   3.950        C  328 1.368    C  327 1.359    O  330 1.091
   330  O   2.103        C  329 1.091    H  339 0.846
   331  H   0.962        N  319 0.928
   332  H   0.989        C  320 0.936
   333  H   0.997        C  323 0.965
   334  H   0.996        C  323 0.969
   335  H   1.000        C  325 0.969
   336  H   0.998        C  326 0.965
   337  H   0.997        C  327 0.968
   338  H   0.993        C  328 0.958
   339  H   0.867        O  330 0.846
   340  N   3.476        C  321 1.307    C  341 0.996    H  352 0.894    O  322 0.197
   341  C   3.971        N  340 0.996    H  353 0.952    C  344 0.945    C  342 0.944
   342  C   3.947        O  343 1.635    N  361 1.287    C  341 0.944
   343  O   1.980        C  342 1.635    N  361 0.191
   344  C   3.987        C  345 1.008    H  354 0.971    H  355 0.963    C  341 0.945
   345  C   3.987        C  346 1.409    C  347 1.404    C  344 1.008
   346  C   3.988        C  348 1.451    C  345 1.409    H  356 0.962    C  349 0.104
   347  C   3.991        C  349 1.456    C  345 1.404    H  357 0.962    C  348 0.107
   348  C   3.988        C  346 1.451    C  350 1.372    H  358 0.965    C  347 0.107
   349  C   3.990        C  347 1.456    C  350 1.369    H  359 0.961    C  346 0.104
   350  C   3.939        C  348 1.372    C  349 1.369    O  351 1.065
   351  O   2.100        C  350 1.065    H  360 0.874
   352  H   0.946        N  340 0.894
   353  H   0.996        C  341 0.952
   354  H   0.995        C  344 0.971
   355  H   0.995        C  344 0.963
   356  H   0.998        C  346 0.962
   357  H   0.999        C  347 0.962
   358  H   0.997        C  348 0.965
   359  H   0.998        C  349 0.961
   360  H   0.897        O  351 0.874
   361  N   3.462        C  342 1.287    C  362 0.982    H  370 0.928    O  343 0.191
   362  C   3.967        N  361 0.982    C  365 0.976    H  371 0.950    C  363 0.933
   363  C   3.954        O  364 1.628    N  376 1.312    C  362 0.933
   364  O   1.945        C  363 1.628    N  376 0.200
   365  C   3.992        C  366 1.006    H  373 0.977    C  362 0.976    H  372 0.964
   366  C   3.991        C  365 1.006    H  374 0.981    H  375 0.963    C  367 0.925
   367  C   3.933        O  368 1.491    O  369 1.489    C  366 0.925
   368  O   1.776        C  367 1.491    O  369 0.211
   369  O   1.821        C  367 1.489    O  368 0.211
   370  H   0.960        N  361 0.928
   371  H   0.996        C  362 0.950
   372  H   0.996        C  365 0.964
   373  H   0.999        C  365 0.977
   374  H   1.000        C  366 0.981
   375  H   0.999        C  366 0.963
   376  N   3.489        C  363 1.312    C  377 0.982    H  383 0.923    O  364 0.200
   377  C   3.959        C  378 0.986    N  376 0.982    H  384 0.942    C  380 0.925
   378  C   3.901        O  379 1.896    C  377 0.986    H  551 0.953
   379  O   2.045        C  378 1.896
   380  C   3.979        C  382 1.011    C  381 1.006    H  385 0.964    C  377 0.925
   381  C   3.991        C  380 1.006    H  388 0.984    H  387 0.980    H  386 0.979
   382  C   3.991        C  380 1.011    H  391 0.985    H  390 0.984    H  389 0.979
   383  H   0.960        N  376 0.923
   384  H   0.993        C  377 0.942
   385  H   0.996        C  380 0.964
   386  H   0.993        C  381 0.979
   387  H   0.998        C  381 0.980
   388  H   0.998        C  381 0.984
   389  H   0.994        C  382 0.979
   390  H   0.997        C  382 0.984
   391  H   0.998        C  382 0.985
   392  N   2.998        C  393 1.003    H  400 0.955    H  552 0.954
   393  C   3.985        N  392 1.003    C  394 0.971    C  396 0.968    H  401 0.962
   394  C   3.893        O  395 1.901    C  393 0.971    H  553 0.957
   395  O   2.034        C  394 1.901
   396  C   3.991        C  397 0.994    H  403 0.971    H  402 0.969    C  393 0.968
   397  C   3.995        C  398 1.009    C  399 1.008    C  396 0.994    H  404 0.964
   398  C   3.996        C  397 1.009    H  406 0.984    H  407 0.984    H  405 0.983
   399  C   3.994        C  397 1.008    H  410 0.986    H  409 0.986    H  408 0.982
   400  H   0.973        N  392 0.955
   401  H   0.998        C  393 0.962
   402  H   0.997        C  396 0.969
   403  H   0.998        C  396 0.971
   404  H   1.000        C  397 0.964
   405  H   0.998        C  398 0.983
   406  H   0.999        C  398 0.984
   407  H   0.998        C  398 0.984
   408  H   0.996        C  399 0.982
   409  H   0.998        C  399 0.986
   410  H   0.999        C  399 0.986
   411  N   2.994        C  412 1.003    H  554 0.959    H  416 0.953
   412  C   3.988        N  411 1.003    C  415 1.003    H  417 0.963    C  413 0.939
   413  C   3.948        O  414 1.666    N  421 1.266    C  412 0.939
   414  O   1.990        C  413 1.666    N  421 0.193
   415  C   3.993        C  412 1.003    H  418 0.985    H  419 0.983    H  420 0.975
   416  H   0.975        N  411 0.953
   417  H   1.000        C  412 0.963
   418  H   0.998        C  415 0.985
   419  H   0.998        C  415 0.983
   420  H   0.996        C  415 0.975
   421  N   3.444        C  413 1.266    C  422 0.986    H  428 0.916    O  414 0.193
   422  C   3.965        N  421 0.986    C  425 0.955    C  423 0.943    H  429 0.941
   423  C   3.951        O  424 1.591    N  435 1.327    C  422 0.943
   424  O   1.968        C  423 1.591    N  435 0.192
   425  C   3.953        C  427 1.000    O  426 0.991    H  430 0.958    C  422 0.955
   426  O   1.934        C  425 0.991    H  431 0.862
   427  C   3.989        C  425 1.000    H  434 0.984    H  433 0.982    H  432 0.980
   428  H   0.956        N  421 0.916
   429  H   0.992        C  422 0.941
   430  H   0.997        C  425 0.958
   431  H   0.879        O  426 0.862
   432  H   0.995        C  427 0.980
   433  H   0.996        C  427 0.982
   434  H   0.997        C  427 0.984
   435  N   3.504        C  423 1.327    C  436 0.989    H  441 0.918    O  424 0.192
   436  C   3.968        N  435 0.989    C  439 0.965    H  442 0.942    C  437 0.938
   437  C   3.953        O  438 1.591    N  446 1.322    C  436 0.938
   438  O   1.931        C  437 1.591    N  446 0.199
   439  C   3.966        O  440 1.012    H  443 0.968    H  444 0.966    C  436 0.965
   440  O   1.930        C  439 1.012    H  445 0.860
   441  H   0.958        N  435 0.918
   442  H   0.991        C  436 0.942
   443  H   0.999        C  439 0.968
   444  H   0.998        C  439 0.966
   445  H   0.874        O  440 0.860
   446  N   3.546        C  437 1.322    C  447 0.973    C  452 0.973    O  438 0.199
   447  C   3.971        C  450 0.976    N  446 0.973    H  453 0.949    C  448 0.938
   448  C   3.949        O  449 1.644    N  460 1.292    C  447 0.938
   449  O   1.957        C  448 1.644    N  460 0.195
   450  C   3.991        C  451 1.003    H  454 0.977    H  455 0.976    C  447 0.976
   451  C   3.991        C  452 1.005    C  450 1.003    H  457 0.977    H  456 0.971
   452  C   3.954        C  451 1.005    N  446 0.973    H  458 0.961    H  459 0.955
   453  H   0.996        C  447 0.949
   454  H   0.997        C  450 0.977
   455  H   0.997        C  450 0.976
   456  H   0.994        C  451 0.971
   457  H   0.997        C  451 0.977
   458  H   0.995        C  452 0.961
   459  H   0.991        C  452 0.955
   460  N   3.466        C  448 1.292    C  461 0.984    H  468 0.917    O  449 0.195
   461  C   3.969        N  460 0.984    C  464 0.974    H  469 0.952    C  462 0.940
   462  C   3.948        O  463 1.593    N  479 1.321    C  461 0.940
   463  O   1.948        C  462 1.593    N  479 0.190
   464  C   3.986        C  465 0.991    C  461 0.974    H  471 0.973    H  470 0.970
   465  C   3.994        C  467 1.010    C  466 1.007    C  464 0.991    H  472 0.963
   466  C   3.993        C  465 1.007    H  475 0.987    H  473 0.984    H  474 0.983
   467  C   3.996        C  465 1.010    H  477 0.986    H  476 0.986    H  478 0.985
   468  H   0.955        N  460 0.917
   469  H   0.996        C  461 0.952
   470  H   0.996        C  464 0.970
   471  H   0.997        C  464 0.973
   472  H   0.999        C  465 0.963
   473  H   0.998        C  466 0.984
   474  H   0.997        C  466 0.983
   475  H   0.999        C  466 0.987
   476  H   0.998        C  467 0.986
   477  H   0.998        C  467 0.986
   478  H   0.999        C  467 0.985
   479  N   3.487        C  462 1.321    C  480 0.974    H  486 0.918    O  463 0.190
   480  C   3.963        N  479 0.974    C  483 0.970    H  487 0.952    C  481 0.929
   481  C   3.951        O  482 1.654    N  493 1.291    C  480 0.929
   482  O   1.974        C  481 1.654    N  493 0.201
   483  C   3.955        C  485 1.002    O  484 0.992    C  480 0.970    H  488 0.957
   484  O   1.929        C  483 0.992    H  489 0.860
   485  C   3.989        C  483 1.002    H  492 0.983    H  491 0.982    H  490 0.981
   486  H   0.951        N  479 0.918
   487  H   0.994        C  480 0.952
   488  H   0.999        C  483 0.957
   489  H   0.877        O  484 0.860
   490  H   0.995        C  485 0.981
   491  H   0.997        C  485 0.982
   492  H   0.995        C  485 0.983
   493  N   3.472        C  481 1.291    C  494 1.000    H  497 0.919    O  482 0.201
   494  C   3.959        N  493 1.000    C  495 0.951    H  498 0.949    H  499 0.943
   495  C   3.955        O  496 1.618    N  500 1.314    C  494 0.951
   496  O   1.948        C  495 1.618    N  500 0.197
   497  H   0.950        N  493 0.919
   498  H   0.988        C  494 0.949
   499  H   0.989        C  494 0.943
   500  N   3.477        C  495 1.314    C  501 0.990    H  504 0.880    O  496 0.197
   501  C   3.964        N  500 0.990    H  505 0.968    H  506 0.961    C  502 0.936
   502  C   3.952        O  503 1.635    N  507 1.314    C  501 0.936
   503  O   1.963        C  502 1.635    N  507 0.204
   504  H   0.950        N  500 0.880
   505  H   0.993        C  501 0.968
   506  H   0.993        C  501 0.961
   507  N   3.482        C  502 1.314    C  508 0.973    H  515 0.910    O  503 0.204
   508  C   3.958        N  507 0.973    C  511 0.969    H  516 0.954    C  509 0.937
   509  C   3.948        O  510 1.614    N  526 1.296    C  508 0.937
   510  O   1.942        C  509 1.614    N  526 0.197
   511  C   3.983        C  512 0.992    H  518 0.972    H  517 0.969    C  508 0.969
   512  C   3.992        C  513 1.009    C  514 1.006    C  511 0.992    H  519 0.966
   513  C   3.992        C  512 1.009    H  520 0.981    H  522 0.978    H  521 0.978
   514  C   3.991        C  512 1.006    H  525 0.987    H  523 0.983    H  524 0.983
   515  H   0.952        N  507 0.910
   516  H   0.995        C  508 0.954
   517  H   0.995        C  511 0.969
   518  H   0.997        C  511 0.972
   519  H   1.000        C  512 0.966
   520  H   0.996        C  513 0.981
   521  H   1.000        C  513 0.978
   522  H   0.996        C  513 0.978
   523  H   0.996        C  514 0.983
   524  H   0.995        C  514 0.983
   525  H   0.999        C  514 0.987
   526  N   3.526        C  509 1.296    C  532 0.976    C  527 0.966    O  510 0.197
   527  C   3.971        C  528 0.972    N  526 0.966    C  530 0.966    H  533 0.956
   528  C   3.905        O  529 1.906    C  527 0.972    H  555 0.954
   529  O   2.050        C  528 1.906
   530  C   3.988        C  531 1.005    H  534 0.974    H  535 0.973    C  527 0.966
   531  C   3.991        C  530 1.005    C  532 1.004    H  536 0.976    H  537 0.974
   532  C   3.966        C  531 1.004    N  526 0.976    H  539 0.966    H  538 0.960
   533  H   0.995        C  527 0.956
   534  H   0.995        C  530 0.974
   535  H   0.995        C  530 0.973
   536  H   0.995        C  531 0.976
   537  H   0.996        C  531 0.974
   538  H   0.995        C  532 0.960
   539  H   0.997        C  532 0.966
   540  H   0.966        N    1 0.955
   541  H   0.994        C    3 0.954
   542  H   0.966        N   21 0.954
   543  H   0.994        C   23 0.953
   544  H   0.962        N   40 0.933
   545  H   0.992        C  100 0.952
   546  H   0.963        N  110 0.940
   547  H   0.996        C  131 0.957
   548  H   0.975        N  151 0.958
   549  H   0.992        C  236 0.952
   550  H   0.964        N  250 0.952
   551  H   0.993        C  378 0.953
   552  H   0.967        N  392 0.954
   553  H   0.997        C  394 0.957
   554  H   0.968        N  411 0.959
   555  H   0.994        C  528 0.954
 
molecular dipole:
                 x           y           z       tot (Debye)
 q only:      428.063     153.914     251.017
   full:      429.291     152.541     248.256    1318.777
molecular quadrupole (traceless):
                xx          xy          yy          xz          yz          zz
 q only:   140690.266   98235.668  -99276.023  160347.235   57274.769  -41414.243
  q+dip:   142492.902   97687.041  -99586.876  158992.878   56252.043  -42906.026
   full:   142487.943   97681.737  -99580.630  158996.644   56254.101  -42907.313


           -------------------------------------------------
          | TOTAL ENERGY             -841.520365601378 Eh   |
          | GRADIENT NORM               0.635366686857 Eh/α |
          | HOMO-LUMO GAP               1.540769561817 eV   |
           -------------------------------------------------

------------------------------------------------------------------------
 * finished run on 2019/05/31 at 05:35:06.524     
------------------------------------------------------------------------
 total:
 * wall-time:     0 d,  0 h,  0 min, 14.752 sec
 *  cpu-time:     0 d,  0 h,  0 min, 28.791 sec
 * ratio c/w:     1.952 speedup
 SCF:
 * wall-time:     0 d,  0 h,  0 min, 13.948 sec
 *  cpu-time:     0 d,  0 h,  0 min, 27.513 sec
 * ratio c/w:     1.972 speedup

