      -----------------------------------------------------------      
     |                   =====================                   |     
     |                           x T B                           |     
     |                   =====================                   |     
     |                         S. Grimme                         |     
     |          Mulliken Center for Theoretical Chemistry        |     
     |                    University of Bonn                     |     
     |                 Version 6.0.1 (SAW181210)                 |     
      -----------------------------------------------------------      

   This program is distributed in the hope that it will be useful,
   but WITHOUT ANY WARRANTY; without even the implied warranty of
   MERCHANTABILITY or FITNESS FOR A PARTICULAR PURPOSE.
   
   FOR NON-COMMERCIAL, ACADEMIA USE ONLY.
   
   Cite this work as:
   S. Grimme, C. Bannwarth, P. Shushkov, J. Comput. Theory Chem., 2017,
   13, 1989-2009.
   C. Bannwarth, S. Ehlert and S. Grimme., ChemRxiv, 2018, preprint.
   http://doi.org/10.26434/chemrxiv.7246238.v1
   
   for sTDA-xTB:
   S. Grimme and C. Bannwarth, J. Chem. Phys., 2016, 145, 054103.
   
   in the mass-spec context:
   V. Asgeirsson, C. Bauer and S. Grimme, Chem. Sci., 2017, 8, 4879.
   
   if GBSA is used:
   P. Shushkov, F. März and S. Grimme, unpublished.
   
   for ANC optimizer:
   S. Grimme, unpublished.
   Rational Function algorithm used in ANCopt:
   F. Eckert, P. Pulay, H.-J. Werner, J. Comput. Chem., 1997, 18, 1473.
   
   with help from (in alphabetical order)
   C. Bannwarth, F. Bohle, G. Brandenburg, E. Caldeweyher, M. Checinski,
   S. Dohm, S. Ehlert, S. Ehrlich, F. März, H. Neugebauer, J. Pisarek,
   P. Pracht, P. Shushkov, and S. Spicher.
   
 * started run on 2019/03/14 at 15:08:20.106     
========================================================================
 # omp threads = 1
========================================================================
number of atoms            : 680
number of electrons        : 1736
charge                     : 0
spin                       : .0
first test random number   : .6426
           ------------------------------------------------- 
          |                 G F N 2 - x T B                 |
          | Geometry, Frequencies, Noncovalent interactions |
          |            JCTC 2018 parametrisation            |
           ------------------------------------------------- 
 
      method parameters     
 k(s)        :  1.8500
 k(p)        :  2.2300
 k(d)        :  2.2300
 k(f)        :  2.0000
 kEN (H0ij)  : -2.0000
 D4 a1       :  0.5200
 D4 a2       :  5.0000
 D4 s6       :  1.0000
 D4 s8       :  2.7000
 D4 s9       :  5.0000
 alphaj      :  2.0000

 Solvent             : h2o
 Using internal parameter file: .param_gbsa2_h2o
 Gsolv ref. state (COSMO-RS): gsolv [1 M gas/solution]
 temperature (mdtemp)       :    298.150000000000     
 dielectric constant        :    80.2000000000000     
 rho                        :    1.00000000000000     
 mass                       :    18.0000000000000     
 surface tension            :    15.5689454083859     
 probe radius               :   0.975313790000000     
 vdW radii scaling          :    1.00000000000000     
 Gshift (Eh)                :   1.857443126794793E-003
 c1                         :    1.55243817000000     
 soset                      :   0.130326360000000     
 HB correction              :  T

            Z     q(EN)     CN     RAES       Cart. coordinates
     1  N   5.0   -0.22    3.22    1.96    76.14508   113.80945    51.14547
     2  C   4.0    0.02    4.33    4.25    76.01309   111.36958    49.92324
     3  C   4.0    0.14    3.46    3.10    73.55020   111.02068    48.48257
     4  O   6.0   -0.34    1.35    1.80    73.51528   109.55579    46.68717
     5  C   4.0   -0.05    4.39    4.36    76.13705   109.13149    51.73991
     6  C   4.0   -0.03    4.18    3.95    78.62325   108.88012    53.18718
     7  C   4.0   -0.08    4.11    3.82    78.35129   106.84556    55.21361
     8  C   4.0   -0.08    4.11    3.83    80.78807   108.19846    51.41103
     9  H   1.0    0.08    1.02    1.43    76.62792   113.88333    53.00633
    10  H   1.0    0.04    1.05    1.44    77.53708   111.21502    48.52023
    11  H   1.0    0.04    1.03    1.43    74.55023   109.30418    53.04272
    12  H   1.0    0.04    1.04    1.43    75.85002   107.43615    50.59402
    13  H   1.0    0.04    1.05    1.44    79.06635   110.68409    54.08815
    14  H   1.0    0.04    1.00    1.43    80.09508   106.70157    56.28233
    15  H   1.0    0.03    1.00    1.43    76.82888   107.27190    56.52562
    16  H   1.0    0.04    1.00    1.43    77.96375   105.02705    54.33580
    17  H   1.0    0.04    1.00    1.43    82.52541   107.97443    52.47946
    18  H   1.0    0.04    1.00    1.43    80.38479   106.43579    50.43596
    19  H   1.0    0.04    1.00    1.43    81.08725   109.66462    50.00572
    20  N   5.0   -0.15    3.45    2.04    71.51410   112.23791    49.33339
    21  C   4.0    0.03    4.37    4.33    69.09751   112.15321    48.06394
    22  C   4.0    0.09    3.28    3.05    68.87627   114.31923    46.18910
    23  O   6.0   -0.32    1.34    1.80    68.22516   113.91772    44.01547
    24  C   4.0    0.05    4.25    4.10    66.75038   112.27159    49.79609
    25  O   6.0   -0.26    2.12    1.84    66.73131   114.49705    51.25009
    26  C   4.0   -0.08    4.08    3.76    66.53182   109.95814    51.46945
    27  H   1.0    0.08    1.07    1.44    71.63930   113.19265    50.99027
    28  H   1.0    0.05    1.07    1.44    68.98280   110.42729    46.94111
    29  H   1.0    0.05    1.08    1.44    65.13799   112.37946    48.51171
    30  H   1.0    0.11    1.04    1.43    67.90186   114.21409    52.63027
    31  H   1.0    0.04    1.00    1.43    64.88020   110.12888    52.68239
    32  H   1.0    0.03    1.00    1.43    66.35839   108.26064    50.33537
    33  H   1.0    0.04    1.01    1.43    68.21141   109.87460    52.63820
    34  N   5.0   -0.20    3.23    1.96    73.29306   116.54336    43.49995
    35  C   4.0    0.03    4.33    4.25    74.64215   115.27061    41.50563
    36  C   4.0    0.15    3.56    3.14    73.30653   112.87977    40.65744
    37  O   6.0   -0.34    1.62    1.81    73.36674   112.34460    38.39942
    38  C   4.0   -0.05    4.34    4.28    77.35497   114.56487    42.17551
    39  C   4.0   -0.03    4.16    3.92    79.31453   116.72721    42.19871
    40  C   4.0   -0.08    4.12    3.85    81.40197   116.13015    40.30423
    41  C   4.0   -0.08    4.12    3.85    78.30186   119.36487    41.64637
    42  H   1.0    0.08    1.03    1.43    74.09392   116.42759    45.24130
    43  H   1.0    0.04    1.06    1.44    74.71415   116.46655    39.81086
    44  H   1.0    0.04    1.03    1.43    77.32642   113.63839    44.00607
    45  H   1.0    0.04    1.06    1.44    77.93589   113.18912    40.76098
    46  H   1.0    0.03    1.06    1.44    80.14296   116.80005    44.08498
    47  H   1.0    0.04    1.00    1.43    82.86336   117.56697    40.37918
    48  H   1.0    0.03    1.00    1.43    82.24118   114.30541    40.71996
    49  H   1.0    0.04    1.00    1.43    80.65074   116.08067    38.38936
    50  H   1.0    0.04    1.00    1.43    79.85934   120.69234    41.81697
    51  H   1.0    0.04    1.00    1.43    77.58194   119.49647    39.72794
    52  H   1.0    0.04    1.00    1.43    76.83552   119.90893    42.97440
    53  N   5.0   -0.13    3.57    2.13    72.06037   111.31501    42.21618
    54  C   4.0    0.04    4.60    4.66    71.03493   109.07993    40.97164
    55  C   4.0    0.16    3.50    3.12    69.27604   109.90471    38.81070
    56  O   6.0   -0.33    1.29    1.80    68.97396   108.58392    36.93389
    57  C   4.0   -0.02    4.26    4.12    69.79900   107.26681    42.87070
    58  C   4.0   -0.07    4.17    3.93    66.99498   107.81606    43.17545
    59  C   4.0   -0.07    4.12    3.85    70.25274   104.54272    42.06654
    60  H   1.0    0.11    1.14    1.45    72.42611   111.17802    44.07211
    61  H   1.0    0.05    1.07    1.44    72.59599   108.07284    40.04828
    62  H   1.0    0.06    1.08    1.44    70.76388   107.54211    44.66824
    63  H   1.0    0.03    1.00    1.43    66.16956   106.58897    44.59850
    64  H   1.0    0.06    1.01    1.43    66.69088   109.76880    43.70851
    65  H   1.0    0.04    1.01    1.43    66.02355   107.51387    41.39339
    66  H   1.0    0.04    1.00    1.43    69.30733   103.24140    43.33963
    67  H   1.0    0.05    1.01    1.43    69.55212   104.22278    40.17166
    68  H   1.0    0.05    1.00    1.43    72.26129   104.13402    42.08157
    69  N   5.0   -0.14    3.60    2.16    68.17368   112.13096    39.21387
    70  C   4.0    0.03    4.32    4.23    66.50664   113.63989    37.65331
    71  C   4.0    0.07    3.27    3.05    67.83844   115.18841    35.62267
    72  O   6.0   -0.31    1.19    1.80    66.88141   115.49997    33.53452
    73  C   4.0   -0.03    4.41    4.39    65.23786   115.55455    39.41961
    74  C   4.0   -0.00    3.64    3.19    63.78531   114.33332    41.50145
    75  C   4.0   -0.02    3.54    3.13    63.52315   115.65639    43.74647
    76  C   4.0   -0.04    3.52    3.12    62.89087   111.88986    41.33436
    77  C   4.0   -0.04    3.40    3.08    62.48869   114.52713    45.85771
    78  C   4.0   -0.05    3.44    3.09    61.91091   110.74099    43.46058
    79  C   4.0   -0.05    3.40    3.08    61.70526   112.03499    45.71733
    80  H   1.0    0.12    1.19    1.46    68.44742   112.86039    40.96706
    81  H   1.0    0.05    1.05    1.44    65.13441   112.43966    36.66925
    82  H   1.0    0.05    1.04    1.43    66.71502   116.69508    40.29441
    83  H   1.0    0.05    1.03    1.43    64.01650   116.83512    38.38768
    84  H   1.0    0.05    1.03    1.43    64.19028   117.58277    43.81311
    85  H   1.0    0.05    1.03    1.43    63.02453   110.85702    39.58343
    86  H   1.0    0.05    1.03    1.43    62.37175   115.57252    47.60605
    87  H   1.0    0.04    1.07    1.44    61.40128   108.79655    43.33275
    88  H   1.0    0.04    1.03    1.43    60.93274   111.12432    47.36551
    89  N   5.0   -0.21    3.24    1.97    73.90528   113.91318    33.92824
    90  C   4.0    0.03    4.31    4.22    75.12639   111.68339    32.86383
    91  C   4.0    0.14    3.47    3.10    73.87838   110.76851    30.42201
    92  O   6.0   -0.30    1.25    1.80    75.18881   110.24122    28.56642
    93  C   4.0   -0.04    4.31    4.21    75.64084   109.51738    34.76894
    94  C   4.0   -0.02    4.19    3.98    77.94209   110.14988    36.46066
    95  C   4.0   -0.08    4.12    3.84    77.92641   108.70816    38.96282
    96  C   4.0   -0.09    4.13    3.86    80.45766   109.53029    35.19911
    97  H   1.0    0.13    1.16    1.45    73.42566   113.72849    35.80734
    98  H   1.0    0.04    1.08    1.44    77.02682   112.18876    32.26979
    99  H   1.0    0.07    1.04    1.43    74.00751   109.15726    35.95646
   100  H   1.0    0.04    1.03    1.43    76.03248   107.81514    33.66741
   101  H   1.0    0.04    1.06    1.44    77.88371   112.18339    36.82276
   102  H   1.0    0.03    1.00    1.43    79.59776   109.21006    40.05340
   103  H   1.0    0.05    1.01    1.43    76.28067   109.11931    40.10162
   104  H   1.0    0.04    1.00    1.43    77.96246   106.68832    38.60131
   105  H   1.0    0.03    1.00    1.43    81.98573   110.46544    36.19875
   106  H   1.0    0.03    1.01    1.43    80.79449   107.51000    35.29263
   107  H   1.0    0.04    1.01    1.43    80.46621   110.11875    33.24839
   108  N   5.0   -0.10    3.66    2.22    71.37588   110.48654    30.30496
   109  C   4.0    0.04    4.51    4.55    70.20551   109.45938    28.06013
   110  C   4.0    0.09    3.21    3.04    70.09932   111.34527    25.87983
   111  O   6.0   -0.28    1.12    1.80    70.61182   110.71819    23.72191
   112  C   4.0   -0.05    4.31    4.21    67.53375   108.69473    28.88184
   113  C   4.0   -0.03    4.24    4.07    66.99186   110.25932    31.25684
   114  C   4.0    0.01    4.47    4.49    69.52260   111.40367    32.05725
   115  H   1.0    0.06    1.06    1.44    71.34763   107.87175    27.39625
   116  H   1.0    0.05    1.03    1.43    66.20648   109.07706    27.36102
   117  H   1.0    0.04    1.02    1.43    67.46150   106.68310    29.29738
   118  H   1.0    0.06    1.03    1.43    65.67802   111.78793    30.86406
   119  H   1.0    0.05    1.03    1.43    66.21807   109.09672    32.76097
   120  H   1.0    0.07    1.08    1.44    69.43423   113.45307    31.89636
   121  H   1.0    0.07    1.05    1.44    70.05107   110.93270    33.98692
   122  N   5.0   -0.21    3.25    1.97    75.41814   101.76611    21.04841
   123  C   4.0    0.03    4.31    4.21    76.61400    99.33137    20.65266
   124  C   4.0    0.14    3.41    3.08    77.09980    97.96860    23.14610
   125  O   6.0   -0.30    1.23    1.80    77.07592    95.66178    23.29801
   126  C   4.0   -0.04    4.29    4.17    79.07599    99.77288    19.19369
   127  C   4.0   -0.02    4.17    3.94    80.35301    97.35712    18.32334
   128  C   4.0    0.25    3.08    3.02    82.67392    97.85562    16.55292
   129  O   6.0   -0.28    1.18    1.80    83.20991   100.08878    16.03589
   130  O   6.0   -0.27    1.16    1.80    83.79196    95.92642    15.78717
   131  H   1.0    0.09    1.03    1.43    76.07638   103.19774    19.97556
   132  H   1.0    0.05    1.05    1.44    75.35542    98.09645    19.55228
   133  H   1.0    0.06    1.03    1.43    78.64238   100.88465    17.50778
   134  H   1.0    0.05    1.03    1.43    80.38835   100.88522    20.33462
   135  H   1.0    0.06    1.02    1.43    81.01789    96.22415    19.91173
   136  H   1.0    0.06    1.03    1.43    79.02480    96.20513    17.24358
   137  N   5.0   -0.15    3.49    2.07    77.59888    99.44642    25.13325
   138  C   4.0    0.03    4.41    4.40    78.18554    98.40711    27.57799
   139  C   4.0    0.14    3.45    3.10    75.91965    97.76175    29.24159
   140  O   6.0   -0.34    1.42    1.80    76.17039    97.87697    31.54449
   141  C   4.0   -0.05    4.33    4.25    79.97112   100.18555    28.97979
   142  C   4.0   -0.04    4.22    4.04    78.71420   102.59297    29.96033
   143  C   4.0   -0.06    4.19    3.98    80.70164   104.51327    30.82246
   144  C   4.0   -0.04    4.14    3.89    80.57784   106.83755    29.14471
   145  N   5.0   -0.12    3.98    2.81    82.75857   108.56262    29.61334
   146  H   1.0    0.08    1.07    1.44    77.55101   101.35032    24.99253
   147  H   1.0    0.05    1.06    1.44    79.13827    96.58463    27.24435
   148  H   1.0    0.04    1.06    1.44    80.69963    99.19332    30.61129
   149  H   1.0    0.04    1.03    1.43    81.53662   100.60242    27.70663
   150  H   1.0    0.04    1.04    1.43    77.55455   103.47770    28.51729
   151  H   1.0    0.05    1.03    1.43    77.49595   102.09669    31.54197
   152  H   1.0    0.03    1.03    1.43    80.35830   105.00725    32.78604
   153  H   1.0    0.03    1.04    1.43    82.57206   103.67630    30.64710
   154  H   1.0    0.04    1.03    1.43    80.59837   106.22990    27.18537
   155  H   1.0    0.06    1.02    1.43    78.80342   107.84434    29.43738
   156  H   1.0    0.05    0.97    1.43    82.12185   110.53294    29.80671
   157  H   1.0    0.05    1.03    1.43    83.64516   107.98434    31.23738
   158  H   1.0    0.05    1.02    1.43    84.04055   108.50061    28.16064
   159  N   5.0   -0.14    3.46    2.05    73.79400    96.86197    28.22971
   160  C   4.0    0.03    4.44    4.45    71.71547    96.28605    29.92635
   161  C   4.0    0.15    3.44    3.09    72.27604    94.01775    31.63849
   162  O   6.0   -0.32    1.28    1.80    71.26990    93.87883    33.71314
   163  C   4.0   -0.05    4.33    4.25    69.25731    95.81584    28.47371
   164  C   4.0   -0.04    4.04    3.70    68.21238    98.24760    27.33279
   165  S   6.0   -0.01    2.49    3.10    66.16673    97.52560    24.59290
   166  C   4.0   -0.06    3.88    3.43    66.78994   100.25439    22.63396
   167  H   1.0    0.08    1.06    1.44    73.41669    97.00538    26.36381
   168  H   1.0    0.05    1.06    1.44    71.47751    97.87931    31.24176
   169  H   1.0    0.04    1.05    1.44    69.59439    94.47434    26.94729
   170  H   1.0    0.05    1.03    1.43    67.86971    94.98067    29.74580
   171  H   1.0    0.04    1.06    1.44    67.07251    99.29228    28.69243
   172  H   1.0    0.04    1.07    1.44    69.74103    99.41380    26.61681
   173  H   1.0    0.05    1.05    1.44    65.51211   100.10561    21.03377
   174  H   1.0    0.05    1.03    1.43    66.39083   101.98806    23.66163
   175  H   1.0    0.04    1.04    1.43    68.74266   100.21423    22.00859
   176  N   5.0   -0.15    3.48    2.07    73.88182    92.25161    30.77600
   177  C   4.0    0.04    4.46    4.48    74.48449    90.05864    32.31367
   178  C   4.0    0.16    3.46    3.10    76.45571    90.78867    34.31763
   179  O   6.0   -0.31    1.30    1.80    76.27365    90.19582    36.53175
   180  C   4.0    0.05    4.19    3.98    75.27128    87.72080    30.73955
   181  O   6.0   -0.25    2.14    1.85    75.96834    85.87609    32.53146
   182  C   4.0   -0.07    4.07    3.74    77.40613    88.20984    28.85960
   183  H   1.0    0.08    1.07    1.44    74.46953    92.29489    28.96085
   184  H   1.0    0.06    1.06    1.44    72.80103    89.54540    33.41644
   185  H   1.0    0.04    1.03    1.43    73.58352    87.07826    29.69170
   186  H   1.0    0.12    1.03    1.43    76.95183    84.57709    31.71268
   187  H   1.0    0.05    1.00    1.43    77.78193    86.50596    27.76707
   188  H   1.0    0.05    1.00    1.43    76.91528    89.65853    27.49094
   189  H   1.0    0.05    1.00    1.43    79.12866    88.71611    29.85662
   190  N   5.0   -0.14    3.54    2.11    78.31618    92.28456    33.48663
   191  C   4.0    0.03    4.40    4.37    79.97796    93.60985    35.23375
   192  C   4.0    0.16    3.55    3.14    78.35055    94.98195    37.18814
   193  O   6.0   -0.33    1.38    1.80    78.81904    94.88764    39.46484
   194  C   4.0   -0.05    4.35    4.30    81.66865    95.29205    33.58356
   195  C   4.0   -0.02    4.17    3.95    82.91826    97.61227    34.76962
   196  C   4.0   -0.09    4.14    3.87    84.57982    98.96408    32.80541
   197  C   4.0   -0.08    4.16    3.92    81.01305    99.48439    35.85893
   198  H   1.0    0.08    1.08    1.44    78.39206    92.81159    31.65708
   199  H   1.0    0.06    1.05    1.44    81.09685    92.23084    36.30472
   200  H   1.0    0.04    1.03    1.43    83.16081    94.07544    32.84561
   201  H   1.0    0.05    1.05    1.44    80.49238    95.93384    32.01912
   202  H   1.0    0.04    1.07    1.44    84.15455    96.95886    36.27128
   203  H   1.0    0.03    1.01    1.43    83.96375   100.89192    32.51952
   204  H   1.0    0.04    1.01    1.43    86.47864    99.04867    33.55434
   205  H   1.0    0.03    1.00    1.43    84.61356    98.01153    30.98804
   206  H   1.0    0.03    1.01    1.43    81.87312   101.34221    35.94956
   207  H   1.0    0.05    1.01    1.43    79.33654    99.58865    34.68701
   208  H   1.0    0.05    1.01    1.43    80.46496    98.94884    37.75848
   209  N   5.0   -0.14    3.57    2.13    76.35050    96.22236    36.31864
   210  C   4.0    0.04    4.42    4.42    74.71542    97.56940    38.04106
   211  C   4.0    0.17    3.52    3.13    73.57323    95.69803    39.91407
   212  O   6.0   -0.32    1.37    1.80    73.46121    96.19416    42.17429
   213  C   4.0    0.03    4.14    3.88    72.69515    99.03861    36.56546
   214  O   6.0   -0.26    2.07    1.83    71.39268   100.61197    38.25975
   215  H   1.0    0.12    1.14    1.45    76.08208    96.52637    34.44303
   216  H   1.0    0.05    1.05    1.44    75.81289    98.91480    39.18387
   217  H   1.0    0.05    1.01    1.43    73.66618   100.18475    35.12507
   218  H   1.0    0.06    1.02    1.43    71.40504    97.71219    35.64341
   219  H   1.0    0.12    1.02    1.43    69.70780   100.92992    37.65145
   220  N   5.0   -0.13    3.52    2.09    72.82812    93.48150    38.98014
   221  C   4.0    0.04    4.53    4.58    71.79877    91.62129    40.71598
   222  C   4.0    0.16    3.59    3.16    73.67442    91.24262    42.86672
   223  O   6.0   -0.33    1.34    1.80    72.98094    91.18096    45.07554
   224  C   4.0   -0.02    4.31    4.21    71.02509    89.12104    39.42545
   225  C   4.0   -0.06    4.19    3.98    68.32679    88.41892    40.22671
   226  C   4.0   -0.06    4.18    3.95    72.91230    86.99379    39.92391
   227  C   4.0   -0.08    4.04    3.69    68.14525    87.53161    42.95199
   228  H   1.0    0.11    1.09    1.44    72.57424    93.24745    37.09708
   229  H   1.0    0.05    1.07    1.44    70.12099    92.44234    41.60886
   230  H   1.0    0.05    1.06    1.44    70.98603    89.47764    37.38829
   231  H   1.0    0.04    1.03    1.43    67.10617    90.04572    39.87885
   232  H   1.0    0.03    1.05    1.44    67.64556    86.88814    39.05668
   233  H   1.0    0.05    1.00    1.43    72.28346    85.23642    39.07678
   234  H   1.0    0.07    1.02    1.43    74.72681    87.44993    39.09497
   235  H   1.0    0.05    1.01    1.43    73.16649    86.65084    41.92969
   236  H   1.0    0.03    1.00    1.43    66.18534    87.22016    43.47313
   237  H   1.0    0.04    1.00    1.43    69.16666    85.76312    43.14381
   238  H   1.0    0.05    1.00    1.43    68.96117    88.88928    44.25175
   239  N   5.0   -0.13    3.55    2.11    76.10215    91.00515    42.21455
   240  C   4.0    0.03    4.39    4.36    77.96888    90.46779    44.14698
   241  C   4.0    0.17    3.48    3.11    77.92102    92.59377    46.11895
   242  O   6.0   -0.32    1.27    1.80    78.02519    92.13116    48.39223
   243  C   4.0    0.03    4.12    3.85    80.58511    89.96825    42.97356
   244  O   6.0   -0.26    2.07    1.83    81.92325    92.11389    42.24416
   245  H   1.0    0.11    1.09    1.44    76.57703    90.96490    40.36270
   246  H   1.0    0.05    1.05    1.44    77.41446    88.75101    45.17882
   247  H   1.0    0.04    1.02    1.43    81.77083    89.01107    44.36948
   248  H   1.0    0.05    1.01    1.43    80.30502    88.69364    41.35018
   249  H   1.0    0.15    1.10    1.44    80.84535    93.17479    41.17090
   250  N   5.0   -0.13    3.52    2.09    77.69386    94.92300    45.19204
   251  C   4.0    0.04    4.52    4.56    77.29246    97.05798    46.86326
   252  C   4.0    0.16    3.54    3.13    75.01154    96.54489    48.54145
   253  O   6.0   -0.33    1.44    1.80    75.23045    96.67465    50.86498
   254  C   4.0   -0.02    4.27    4.13    77.00013    99.57013    45.43443
   255  C   4.0   -0.08    4.12    3.85    76.61728   101.74192    47.29898
   256  C   4.0   -0.08    4.13    3.87    79.36305   100.04644    43.86062
   257  H   1.0    0.11    1.09    1.44    77.51585    95.17762    43.30558
   258  H   1.0    0.05    1.06    1.44    78.91510    97.18787    48.15244
   259  H   1.0    0.06    1.06    1.44    75.34593    99.42310    44.20895
   260  H   1.0    0.04    1.00    1.43    76.60873   103.53216    46.29105
   261  H   1.0    0.04    1.00    1.43    74.83565   101.54774    48.30015
   262  H   1.0    0.04    1.00    1.43    78.14106   101.77322    48.68076
   263  H   1.0    0.03    1.00    1.43    79.20306   101.81171    42.82533
   264  H   1.0    0.03    1.00    1.43    80.97969   100.17948    45.12027
   265  H   1.0    0.05    1.00    1.43    79.67703    98.50822    42.53780
   266  N   5.0   -0.14    3.52    2.09    72.82525    96.01271    47.45407
   267  C   4.0    0.03    4.46    4.47    70.58771    95.56756    48.96828
   268  C   4.0    0.17    3.55    3.14    71.18800    93.79960    51.15402
   269  O   6.0   -0.32    1.34    1.80    70.53534    94.31610    53.32778
   270  C   4.0   -0.05    4.39    4.36    68.45933    94.37262    47.41800
   271  C   4.0   -0.02    4.19    3.98    67.66191    95.95293    45.12977
   272  C   4.0   -0.08    4.12    3.84    65.82139    94.41835    43.52414
   273  C   4.0   -0.08    4.12    3.84    66.52298    98.45127    45.98918
   274  H   1.0    0.11    1.11    1.44    72.67006    95.84023    45.55040
   275  H   1.0    0.04    1.05    1.44    69.97306    97.36283    49.80857
   276  H   1.0    0.05    1.04    1.43    69.09266    92.52047    46.77956
   277  H   1.0    0.04    1.03    1.43    66.83629    94.10153    48.66490
   278  H   1.0    0.06    1.06    1.44    69.32838    96.36587    43.98130
   279  H   1.0    0.04    1.00    1.43    65.33255    95.42054    41.80246
   280  H   1.0    0.04    1.01    1.43    66.64837    92.61740    43.01352
   281  H   1.0    0.03    1.00    1.43    64.10773    94.00815    44.57138
   282  H   1.0    0.04    1.00    1.43    65.86363    99.51939    44.37211
   283  H   1.0    0.04    1.00    1.43    64.94561    98.11446    47.26319
   284  H   1.0    0.04    1.00    1.43    67.93384    99.56467    46.97593
   285  N   5.0   -0.14    3.54    2.11    72.28142    91.63364    50.49903
   286  C   4.0    0.03    4.44    4.45    72.84560    89.70801    52.35594
   287  C   4.0    0.16    3.51    3.12    74.36036    90.93174    54.47984
   288  O   6.0   -0.32    1.31    1.80    73.62450    90.86383    56.67235
   289  C   4.0   -0.05    4.36    4.30    74.32832    87.48991    51.24598
   290  C   4.0   -0.02    4.20    4.00    73.22407    86.43631    48.78486
   291  C   4.0   -0.07    4.11    3.82    74.74493    84.12500    47.97906
   292  C   4.0   -0.08    4.11    3.83    70.42165    85.81665    49.01765
   293  H   1.0    0.11    1.10    1.44    72.87460    91.36513    48.69875
   294  H   1.0    0.05    1.05    1.44    71.07112    89.03503    53.20349
   295  H   1.0    0.05    1.03    1.43    76.26534    88.09554    50.87779
   296  H   1.0    0.04    1.03    1.43    74.39065    86.00024    52.67434
   297  H   1.0    0.06    1.07    1.44    73.44915    87.86298    47.31193
   298  H   1.0    0.06    1.01    1.43    73.98644    83.36204    46.23332
   299  H   1.0    0.04    1.00    1.43    76.71977    84.62926    47.69735
   300  H   1.0    0.05    1.00    1.43    74.65984    82.64153    49.39689
   301  H   1.0    0.04    1.00    1.43    69.82514    84.74420    47.37422
   302  H   1.0    0.04    1.01    1.43    70.06008    84.69369    50.68909
   303  H   1.0    0.04    1.00    1.43    69.31174    87.53826    49.13482
   304  N   5.0   -0.14    3.51    2.08    76.51342    92.04613    53.76442
   305  C   4.0    0.03    4.40    4.38    78.25341    93.09364    55.60420
   306  C   4.0    0.17    3.47    3.10    76.92232    94.98694    57.34813
   307  O   6.0   -0.31    1.28    1.80    77.19783    94.93247    59.64543
   308  C   4.0    0.03    4.17    3.93    80.45790    94.44090    54.28402
   309  O   6.0   -0.26    2.10    1.84    79.80189    96.72996    53.15759
   310  H   1.0    0.11    1.09    1.44    77.00296    92.12339    51.90624
   311  H   1.0    0.04    1.05    1.44    79.03844    91.58023    56.78896
   312  H   1.0    0.05    1.02    1.43    81.88570    94.88953    55.71191
   313  H   1.0    0.04    1.01    1.43    81.27444    93.14176    52.87519
   314  H   1.0    0.15    1.08    1.44    78.28759    96.50638    52.10297
   315  N   5.0   -0.13    3.61    2.17    75.57334    96.68859    56.08838
   316  C   4.0    0.03    4.45    4.46    74.30402    98.85654    57.16516
   317  C   4.0    0.16    3.48    3.11    72.52289    97.91582    59.21162
   318  O   6.0   -0.33    1.29    1.80    72.53355    98.76716    61.36278
   319  C   4.0   -0.04    4.40    4.38    72.92389   100.17383    54.99161
   320  C   4.0   -0.03    4.16    3.93    71.51687   102.63071    55.63810
   321  C   4.0   -0.08    4.13    3.87    72.77126   103.99429    57.84076
   322  C   4.0   -0.08    4.11    3.82    71.43458   104.20898    53.21428
   323  H   1.0    0.12    1.15    1.45    75.38230    96.53615    54.19689
   324  H   1.0    0.05    1.05    1.44    75.69391   100.11998    58.03338
   325  H   1.0    0.05    1.04    1.43    74.35838   100.60911    53.57205
   326  H   1.0    0.06    1.03    1.43    71.60723    98.82287    54.16416
   327  H   1.0    0.04    1.05    1.44    69.57922   102.19127    56.21513
   328  H   1.0    0.03    1.00    1.43    71.88456   105.80541    58.17634
   329  H   1.0    0.05    1.01    1.43    72.54669   102.87703    59.54087
   330  H   1.0    0.03    1.01    1.43    74.76520   104.27696    57.48932
   331  H   1.0    0.03    1.00    1.43    70.82053   106.12914    53.53460
   332  H   1.0    0.04    1.00    1.43    73.30585   104.31582    52.37665
   333  H   1.0    0.04    1.00    1.43    70.13019   103.35167    51.87863
   334  N   5.0   -0.14    3.56    2.12    70.99530    96.08786    58.40344
   335  C   4.0    0.04    4.46    4.48    69.22142    94.80070    60.01532
   336  C   4.0    0.16    3.50    3.11    70.58012    93.62624    62.26766
   337  O   6.0   -0.32    1.36    1.80    69.77466    94.01348    64.40858
   338  C   4.0    0.06    4.23    4.07    67.68458    92.88957    58.42763
   339  O   6.0   -0.26    2.13    1.84    66.32034    94.17963    56.54502
   340  C   4.0   -0.07    4.10    3.79    65.78334    91.49232    60.07097
   341  H   1.0    0.11    1.12    1.45    71.16980    95.42612    56.61488
   342  H   1.0    0.05    1.05    1.44    67.89952    96.19746    60.81012
   343  H   1.0    0.06    1.04    1.43    69.01635    91.54656    57.56577
   344  H   1.0    0.14    1.05    1.44    67.45574    94.62967    55.18004
   345  H   1.0    0.05    1.00    1.43    64.47319    90.48325    58.85648
   346  H   1.0    0.04    1.00    1.43    66.72622    90.16728    61.31718
   347  H   1.0    0.04    1.00    1.43    64.72817    92.85175    61.18727
   348  N   5.0   -0.14    3.50    2.08    72.65903    92.26856    61.82961
   349  C   4.0    0.04    4.54    4.59    73.96484    91.18404    63.98783
   350  C   4.0    0.16    3.54    3.13    74.60446    93.29817    65.84847
   351  O   6.0   -0.29    1.24    1.80    74.20803    93.09255    68.12407
   352  C   4.0   -0.02    4.27    4.14    76.44089    89.76927    63.39031
   353  C   4.0   -0.07    4.13    3.86    77.03720    88.04312    65.62519
   354  C   4.0   -0.07    4.13    3.87    76.25018    88.23172    60.96789
   355  H   1.0    0.11    1.10    1.44    73.16594    91.75741    60.05589
   356  H   1.0    0.05    1.05    1.44    72.66018    89.88525    64.95959
   357  H   1.0    0.05    1.06    1.44    77.95742    91.15804    63.18111
   358  H   1.0    0.04    1.00    1.43    78.76492    86.98671    65.28826
   359  H   1.0    0.06    1.00    1.43    77.26380    89.13505    67.34931
   360  H   1.0    0.04    1.00    1.43    75.49487    86.71153    65.89584
   361  H   1.0    0.04    1.00    1.43    77.72031    86.79806    60.91685
   362  H   1.0    0.04    1.02    1.43    74.41760    87.33309    60.86465
   363  H   1.0    0.06    1.02    1.43    76.45012    89.43871    59.33078
   364  N   5.0   -0.13    3.56    2.12    75.74200    95.29306    64.81673
   365  C   4.0    0.04    4.47    4.49    76.63462    97.38928    66.33128
   366  C   4.0    0.16    3.49    3.11    74.48565    98.40161    67.96762
   367  O   6.0   -0.27    1.23    1.80    74.77973    98.74361    70.23914
   368  C   4.0   -0.03    4.33    4.26    77.71540    99.45880    64.63366
   369  C   4.0   -0.00    3.56    3.14    79.95615    98.60311    63.09632
   370  C   4.0   -0.04    3.47    3.10    80.86089   100.14754    61.17042
   371  C   4.0   -0.03    3.52    3.12    81.12877    96.29380    63.49837
   372  C   4.0   -0.03    3.37    3.07    82.86343    99.39414    59.66932
   373  C   4.0   -0.03    3.38    3.07    83.09433    95.51770    61.96514
   374  C   4.0   -0.03    3.37    3.07    83.98567    97.06273    60.05650
   375  H   1.0    0.12    1.11    1.45    76.09241    95.34363    62.93141
   376  H   1.0    0.06    1.05    1.44    78.08600    96.73328    67.67008
   377  H   1.0    0.06    1.04    1.43    76.22915   100.08867    63.34545
   378  H   1.0    0.04    1.03    1.43    78.25041   101.06400    65.81871
   379  H   1.0    0.05    1.03    1.43    79.98449   101.96544    60.86553
   380  H   1.0    0.05    1.04    1.43    80.52313    95.07188    65.01189
   381  H   1.0    0.05    1.03    1.43    83.53106   100.61401    58.17792
   382  H   1.0    0.05    1.03    1.43    83.90319    93.67022    62.26264
   383  H   1.0    0.06    1.03    1.43    85.55980    96.45294    58.90979
   384  N   5.0   -0.14    3.52    2.09    72.37341    98.98555    66.73310
   385  C   4.0    0.04    4.44    4.44    70.23062   100.04351    68.05553
   386  C   4.0    0.16    3.47    3.10    69.28105    98.18085    70.04366
   387  O   6.0   -0.27    1.24    1.80    68.73394    98.92813    72.17393
   388  C   4.0   -0.05    4.35    4.29    68.10643   100.77301    66.24125
   389  C   4.0   -0.02    4.19    3.98    68.88776   102.73755    64.25732
   390  C   4.0   -0.08    4.11    3.82    66.66355   103.26277    62.50253
   391  C   4.0   -0.08    4.11    3.82    69.80206   105.19444    65.45311
   392  H   1.0    0.11    1.11    1.44    72.21651    98.64550    64.85409
   393  H   1.0    0.06    1.06    1.44    70.85524   101.71487    69.11687
   394  H   1.0    0.05    1.03    1.43    67.46090    99.06390    65.28283
   395  H   1.0    0.04    1.03    1.43    66.54162   101.52522    67.35644
   396  H   1.0    0.06    1.07    1.44    70.41956   101.93855    63.13120
   397  H   1.0    0.03    1.00    1.43    67.20301   104.61960    61.06225
   398  H   1.0    0.04    1.00    1.43    66.05228   101.53785    61.57191
   399  H   1.0    0.04    1.00    1.43    65.08231   104.04614    63.55206
   400  H   1.0    0.04    1.00    1.43    70.09692   106.60640    63.99154
   401  H   1.0    0.04    1.00    1.43    68.40632   105.91403    66.77677
   402  H   1.0    0.04    1.00    1.43    71.57579   104.91296    66.44746
   403  N   5.0   -0.14    3.48    2.07    69.03955    95.78615    69.32391
   404  C   4.0    0.04    4.33    4.26    68.13096    93.87833    71.06031
   405  C   4.0    0.11    3.23    3.04    69.83295    93.71191    73.40438
   406  O   6.0   -0.27    1.11    1.80    68.90250    93.42231    75.50811
   407  C   4.0   -0.04    4.33    4.26    67.91931    91.30273    69.75968
   408  C   4.0   -0.02    4.18    3.95    65.89241    91.17388    67.68139
   409  C   4.0   -0.08    4.10    3.81    65.96583    88.59057    66.39057
   410  C   4.0   -0.08    4.11    3.82    63.24563    91.64878    68.71460
   411  H   1.0    0.12    1.12    1.45    69.57501    95.18754    67.58208
   412  H   1.0    0.06    1.06    1.44    66.27276    94.46512    71.77597
   413  H   1.0    0.06    1.03    1.43    69.76102    90.85668    68.94398
   414  H   1.0    0.05    1.03    1.43    67.50139    89.89655    71.21103
   415  H   1.0    0.06    1.07    1.44    66.32762    92.61263    66.26813
   416  H   1.0    0.04    1.00    1.43    64.52788    88.49445    64.92597
   417  H   1.0    0.04    1.00    1.43    67.79890    88.25109    65.52507
   418  H   1.0    0.04    1.00    1.43    65.60115    87.09615    67.75166
   419  H   1.0    0.04    1.00    1.43    61.86357    91.42127    67.21329
   420  H   1.0    0.04    1.00    1.43    62.81024    90.30887    70.20959
   421  H   1.0    0.04    1.00    1.43    63.07209    93.55071    69.46443
   422  N   5.0   -0.22    3.23    1.96    56.78676   105.34076    57.78323
   423  C   4.0    0.03    4.31    4.21    56.63154   102.65804    57.30731
   424  C   4.0    0.07    3.25    3.04    54.43604   102.04485    55.52830
   425  O   6.0   -0.31    1.20    1.80    54.78121   100.56495    53.75282
   426  C   4.0   -0.03    4.37    4.32    56.32930   101.37398    59.89617
   427  C   4.0   -0.05    4.17    3.95    58.80557   101.01502    61.35798
   428  C   4.0   -0.07    4.18    3.95    54.95924    98.87646    59.65259
   429  C   4.0   -0.08    4.01    3.65    60.68903    99.17998    60.19113
   430  H   1.0    0.08    1.04    1.43    56.32621   105.81694    59.57918
   431  H   1.0    0.05    1.05    1.44    58.33488   101.97687    56.33835
   432  H   1.0    0.04    1.07    1.44    55.15987   102.65284    61.01076
   433  H   1.0    0.03    1.03    1.43    59.72935   102.83685    61.62070
   434  H   1.0    0.04    1.03    1.43    58.25492   100.30468    63.21811
   435  H   1.0    0.04    1.00    1.43    54.85930    97.98050    61.49579
   436  H   1.0    0.05    1.01    1.43    53.05573    99.13980    58.93269
   437  H   1.0    0.05    1.01    1.43    55.99802    97.67317    58.36194
   438  H   1.0    0.04    1.00    1.43    62.27683    98.95678    61.47363
   439  H   1.0    0.04    1.00    1.43    59.86689    97.32714    59.87770
   440  H   1.0    0.04    1.00    1.43    61.40468    99.88005    58.39935
   441  N   5.0   -0.20    3.19    1.95    56.64185   104.41836    50.03138
   442  C   4.0    0.03    4.25    4.10    58.18318   102.55828    48.70542
   443  C   4.0    0.08    3.20    3.04    56.38319   100.71505    47.38502
   444  O   6.0   -0.34    1.25    1.80    56.64338   100.25257    45.12513
   445  C   4.0    0.05    4.17    3.94    60.31872   101.27180    50.22098
   446  O   6.0   -0.26    2.10    1.84    59.50777    99.62687    52.13806
   447  C   4.0   -0.08    4.06    3.72    62.20374   103.23789    51.23289
   448  H   1.0    0.08    1.01    1.43    57.19971   105.11120    51.74414
   449  H   1.0    0.03    1.09    1.44    59.12934   103.50590    47.12966
   450  H   1.0    0.04    1.04    1.43    61.33340   100.05988    48.86352
   451  H   1.0    0.15    1.09    1.44    57.84535   100.11846    52.77429
   452  H   1.0    0.04    1.00    1.43    63.58557   102.33216    52.45661
   453  H   1.0    0.03    1.00    1.43    63.18509   104.12751    49.66684
   454  H   1.0    0.04    1.00    1.43    61.22554   104.66498    52.32609
   455  N   5.0   -0.21    3.24    1.96    53.59785   104.11033    41.57112
   456  C   4.0    0.03    4.46    4.47    55.60401   104.99368    39.94699
   457  C   4.0    0.15    3.51    3.12    57.20219   102.85491    38.88457
   458  O   6.0   -0.32    1.42    1.80    58.47105   103.30548    36.98674
   459  C   4.0   -0.02    4.31    4.21    57.51255   106.82398    41.15288
   460  C   4.0   -0.08    4.11    3.82    56.10338   109.16819    42.01976
   461  C   4.0   -0.08    4.21    4.01    58.97984   105.37493    43.16918
   462  H   1.0    0.09    1.02    1.43    53.86120   104.22561    43.46861
   463  H   1.0    0.04    1.06    1.44    54.77264   106.02568    38.36302
   464  H   1.0    0.05    1.06    1.44    58.80152   107.34638    39.61930
   465  H   1.0    0.04    1.01    1.43    57.32781   110.53523    42.92932
   466  H   1.0    0.04    1.00    1.43    55.29948   110.08080    40.36611
   467  H   1.0    0.04    1.01    1.43    54.61209   108.61333    43.30947
   468  H   1.0    0.03    1.01    1.43    59.43505   106.53043    44.80086
   469  H   1.0    0.06    1.05    1.44    57.80441   103.83364    43.80030
   470  H   1.0    0.04    1.00    1.43    60.69450   104.57254    42.36426
   471  N   5.0   -0.15    3.54    2.11    57.18520   100.65955    40.09542
   472  C   4.0    0.04    4.45    4.46    58.39582    98.44966    39.04496
   473  C   4.0    0.08    3.28    3.05    56.42157    97.17134    37.42181
   474  O   6.0   -0.29    1.13    1.80    57.02819    96.33501    35.34092
   475  C   4.0   -0.02    4.31    4.21    59.62968    96.62513    40.95504
   476  C   4.0   -0.04    4.19    3.98    57.63061    95.05898    42.34659
   477  C   4.0   -0.07    4.17    3.94    61.30429    98.23046    42.64784
   478  C   4.0   -0.08    4.01    3.63    58.71140    93.14659    44.21432
   479  H   1.0    0.11    1.12    1.45    56.35324   100.46942    41.80650
   480  H   1.0    0.06    1.08    1.44    59.91832    99.14768    37.82175
   481  H   1.0    0.04    1.05    1.44    60.83376    95.32194    39.87788
   482  H   1.0    0.06    1.04    1.43    56.33503    96.34594    43.28122
   483  H   1.0    0.04    1.04    1.43    56.54328    94.02861    40.92725
   484  H   1.0    0.04    1.02    1.43    62.02656    97.12559    44.19911
   485  H   1.0    0.04    1.00    1.43    62.85760    98.99930    41.54535
   486  H   1.0    0.06    1.03    1.43    60.21994    99.78152    43.40861
   487  H   1.0    0.04    1.00    1.43    57.23755    92.15920    45.23367
   488  H   1.0    0.04    1.00    1.43    59.79444    91.73922    43.18266
   489  H   1.0    0.04    1.00    1.43    59.87310    94.03267    45.65348
   490  N   5.0   -0.19    3.23    1.96    57.82660   101.09773    32.66951
   491  C   4.0    0.04    4.23    4.05    60.14457   100.47378    31.34582
   492  C   4.0    0.09    3.25    3.04    59.73705    98.26339    29.54631
   493  O   6.0   -0.29    1.15    1.80    61.07188    97.89005    27.70788
   494  C   4.0   -0.03    4.33    4.25    62.19515    99.49342    33.16166
   495  C   4.0    0.06    3.77    3.31    63.61825   101.53581    34.45950
   496  N   5.0   -0.18    2.53    1.90    63.71820   101.83594    37.01351
   497  C   4.0   -0.02    3.62    3.18    65.08211   103.33855    33.31296
   498  C   4.0    0.07    3.66    3.21    65.18252   103.79313    37.38519
   499  N   5.0   -0.12    3.48    2.06    66.06768   104.76705    35.20655
   500  H   1.0    0.13    1.16    1.45    58.09468   101.78079    34.47161
   501  H   1.0    0.05    1.04    1.44    60.85380   102.09689    30.26336
   502  H   1.0    0.06    1.04    1.43    61.31308    98.23728    34.52737
   503  H   1.0    0.05    1.04    1.43    63.52394    98.38278    32.03177
   504  H   1.0    0.04    1.02    1.43    65.47463   103.63827    31.35335
   505  H   1.0    0.04    1.02    1.43    65.63947   104.56915    39.19213
   506  H   1.0    0.10    1.09    1.44    67.28983   106.23488    35.07770
   507  N   5.0   -0.20    3.21    1.96    91.90760    96.85582    29.73729
   508  C   4.0    0.03    4.20    4.01    89.96454    95.82951    31.37077
   509  C   4.0    0.08    3.19    3.04    91.05351    94.36303    33.61783
   510  O   6.0   -0.31    1.15    1.80    90.24922    94.66401    35.76863
   511  C   4.0    0.03    4.14    3.88    88.13806    94.21008    29.82173
   512  O   6.0   -0.25    2.06    1.83    89.50899    92.23646    28.66864
   513  H   1.0    0.10    1.03    1.43    92.26929    95.94434    28.09999
   514  H   1.0    0.04    1.07    1.44    88.95828    97.42262    32.21178
   515  H   1.0    0.04    1.01    1.43    86.67017    93.43880    31.06962
   516  H   1.0    0.04    1.01    1.43    87.26158    95.44226    28.40302
   517  H   1.0    0.12    1.02    1.43    88.43731    91.32534    27.51038
   518  N   5.0   -0.20    3.23    1.96    92.43427    98.23842    38.94014
   519  C   4.0    0.03    4.31    4.21    90.38347    98.59293    40.71758
   520  C   4.0    0.08    3.29    3.05    90.57169    96.54596    42.72124
   521  O   6.0   -0.33    1.19    1.80    90.32222    97.03147    44.96649
   522  C   4.0   -0.02    4.32    4.23    87.77230    98.64170    39.43296
   523  C   4.0   -0.06    4.18    3.96    86.68346   101.32713    39.48325
   524  C   4.0   -0.07    4.18    3.95    85.94984    96.70364    40.58344
   525  C   4.0   -0.08    4.04    3.70    85.61340   102.03737    42.05613
   526  H   1.0    0.10    1.04    1.43    92.03973    97.92212    37.09793
   527  H   1.0    0.04    1.06    1.44    90.73379   100.37813    41.70524
   528  H   1.0    0.05    1.07    1.44    88.08134    98.11282    37.46157
   529  H   1.0    0.04    1.03    1.43    88.16623   102.64716    38.92005
   530  H   1.0    0.03    1.03    1.43    85.17257   101.43151    38.09694
   531  H   1.0    0.04    1.00    1.43    84.01953    97.11689    40.03731
   532  H   1.0    0.06    1.00    1.43    86.40193    94.80823    39.93685
   533  H   1.0    0.05    1.01    1.43    86.00277    96.69383    42.63286
   534  H   1.0    0.03    1.00    1.43    85.06841   104.01227    42.11368
   535  H   1.0    0.03    1.01    1.43    83.95273   100.91072    42.43665
   536  H   1.0    0.04    1.00    1.43    86.97871   101.67929    43.54637
   537  N   5.0   -0.20    3.24    1.97    90.55777    97.52286    50.24774
   538  C   4.0    0.03    4.25    4.10    88.94095    96.25484    52.04316
   539  C   4.0    0.08    3.23    3.04    90.53095    95.10628    54.14223
   540  O   6.0   -0.29    1.12    1.80    90.02838    95.57228    56.35970
   541  C   4.0   -0.05    4.37    4.32    87.40192    94.17225    50.78101
   542  C   4.0   -0.02    4.21    4.02    85.89915    95.07593    48.48644
   543  C   4.0   -0.07    4.12    3.85    84.37993    92.86156    47.46386
   544  C   4.0   -0.07    4.12    3.83    84.19818    97.31859    49.06982
   545  H   1.0    0.12    1.07    1.44    90.51559    96.90677    48.43563
   546  H   1.0    0.05    1.05    1.44    87.68690    97.63426    52.95961
   547  H   1.0    0.04    1.03    1.43    88.70083    92.69063    50.17067
   548  H   1.0    0.04    1.03    1.43    86.11463    93.37448    52.18443
   549  H   1.0    0.06    1.08    1.44    87.23302    95.65339    47.02361
   550  H   1.0    0.06    1.02    1.43    83.29181    93.45454    45.83405
   551  H   1.0    0.04    1.00    1.43    85.63927    91.33689    46.89644
   552  H   1.0    0.05    1.00    1.43    83.08487    92.14018    48.88851
   553  H   1.0    0.04    1.00    1.43    83.15616    97.82792    47.37859
   554  H   1.0    0.05    1.02    1.43    82.85012    96.88017    50.54957
   555  H   1.0    0.04    1.00    1.43    85.30536    98.93520    49.67972
   556  N   5.0   -0.22    3.19    1.95    69.45526    80.36113    20.78259
   557  C   4.0    0.03    4.22    4.04    71.28163    80.20063    22.81462
   558  C   4.0    0.07    3.24    3.04    70.03890    80.16594    25.40595
   559  O   6.0   -0.31    1.15    1.80    71.33190    80.16971    27.33977
   560  C   4.0   -0.03    4.29    4.19    73.21648    82.34809    22.69986
   561  C   4.0   -0.03    4.24    4.09    72.10899    84.89683    23.49403
   562  C   4.0    0.15    3.21    3.04    73.97620    87.04496    23.02672
   563  O   6.0   -0.29    1.21    1.80    76.08429    86.72787    22.15455
   564  N   5.0   -0.19    3.18    1.95    73.08348    89.33721    23.66988
   565  H   1.0    0.08    1.03    1.43    69.51909    81.91832    19.68241
   566  H   1.0    0.05    1.05    1.44    72.25945    78.37286    22.65995
   567  H   1.0    0.06    1.03    1.43    74.77233    81.88796    23.96861
   568  H   1.0    0.05    1.03    1.43    73.98223    82.47437    20.79270
   569  H   1.0    0.04    1.03    1.43    70.37795    85.29083    22.44978
   570  H   1.0    0.05    1.03    1.43    71.66772    84.85556    25.50903
   571  H   1.0    0.08    1.03    1.43    71.34977    89.55958    24.40563
   572  H   1.0    0.11    1.03    1.43    74.19417    90.86713    23.39263
   573  N   5.0   -0.21    3.23    1.96    71.60651    78.55175    32.85391
   574  C   4.0    0.03    4.22    4.04    70.84904    80.26676    34.84822
   575  C   4.0    0.07    3.25    3.04    69.39660    78.86403    36.89711
   576  O   6.0   -0.33    1.23    1.80    69.84157    79.19650    39.16000
   577  C   4.0   -0.04    4.40    4.37    69.15927    82.23238    33.57897
   578  C   4.0   -0.03    4.20    4.00    68.02351    84.22137    35.32483
   579  C   4.0   -0.08    4.11    3.81    67.40539    86.58829    33.79518
   580  C   4.0   -0.08    4.12    3.83    65.71222    83.20434    36.73387
   581  H   1.0    0.11    1.05    1.44    71.66268    79.22953    31.05996
   582  H   1.0    0.05    1.04    1.44    72.50484    81.13121    35.75837
   583  H   1.0    0.05    1.04    1.43    70.33616    83.16049    32.16195
   584  H   1.0    0.05    1.04    1.43    67.61828    81.19940    32.68815
   585  H   1.0    0.04    1.07    1.44    69.47103    84.70955    36.70237
   586  H   1.0    0.04    1.00    1.43    66.36422    87.92865    34.94429
   587  H   1.0    0.04    1.00    1.43    69.15264    87.46843    33.16879
   588  H   1.0    0.04    1.00    1.43    66.27261    86.10990    32.16055
   589  H   1.0    0.03    1.00    1.43    64.54799    84.73687    37.44283
   590  H   1.0    0.04    1.00    1.43    64.55784    82.00578    35.53060
   591  H   1.0    0.05    1.01    1.43    66.30942    82.10593    38.35894
   592  N   5.0   -0.20    3.25    1.97    72.53146    75.61335    41.97658
   593  C   4.0    0.03    4.27    4.14    73.67912    77.35631    43.74745
   594  C   4.0    0.16    3.46    3.10    71.76191    77.97002    45.83057
   595  O   6.0   -0.32    1.28    1.80    72.36003    77.96350    48.06743
   596  C   4.0    0.03    4.14    3.88    74.62696    79.79261    42.44790
   597  O   6.0   -0.27    2.09    1.84    72.83326    81.72741    42.40308
   598  H   1.0    0.10    1.04    1.43    72.38713    76.13491    40.14343
   599  H   1.0    0.04    1.05    1.44    75.27923    76.42775    44.68587
   600  H   1.0    0.04    1.02    1.43    76.24317    80.51592    43.50915
   601  H   1.0    0.04    1.01    1.43    75.25532    79.33854    40.52118
   602  H   1.0    0.15    1.08    1.44    71.50729    81.21445    41.22492
   603  N   5.0   -0.14    3.50    2.08    69.43378    78.49706    45.01760
   604  C   4.0    0.03    4.43    4.43    67.40238    78.92331    46.79846
   605  C   4.0    0.09    3.29    3.05    67.10950    76.61495    48.49411
   606  O   6.0   -0.29    1.12    1.80    66.83068    76.86904    50.78908
   607  C   4.0   -0.03    4.26    4.13    64.87804    79.51177    45.49032
   608  C   4.0   -0.07    4.13    3.86    62.81384    79.94067    47.46213
   609  C   4.0   -0.08    4.13    3.86    65.15777    81.86250    43.85328
   610  H   1.0    0.10    1.08    1.44    69.00952    78.36882    43.15868
   611  H   1.0    0.05    1.05    1.44    67.94325    80.50610    48.03190
   612  H   1.0    0.04    1.05    1.44    64.38091    77.87352    44.33893
   613  H   1.0    0.04    1.00    1.43    61.01058    80.26119    46.53148
   614  H   1.0    0.05    1.00    1.43    62.62129    78.32327    48.70971
   615  H   1.0    0.04    1.00    1.43    63.28142    81.57374    48.61989
   616  H   1.0    0.04    1.00    1.43    63.40104    82.29661    42.88306
   617  H   1.0    0.03    1.01    1.43    65.64597    83.44944    45.05656
   618  H   1.0    0.05    1.00    1.43    66.64825    81.63238    42.46273
   619  N   5.0   -0.19    3.22    1.96    72.03658    76.83666    53.39832
   620  C   4.0    0.04    4.15    3.90    71.61867    78.88288    55.16682
   621  C   4.0    0.09    3.22    3.04    69.40827    78.28181    56.91627
   622  O   6.0   -0.31    1.20    1.80    69.56574    78.43855    59.22232
   623  C   4.0   -0.07    4.13    3.87    71.02987    81.27945    53.70587
   624  H   1.0    0.12    1.06    1.44    71.91604    77.26488    51.52750
   625  H   1.0    0.05    1.05    1.44    73.30292    79.10868    56.35658
   626  H   1.0    0.04    1.01    1.43    70.61239    82.81141    55.00790
   627  H   1.0    0.04    1.00    1.43    72.64498    81.77753    52.54390
   628  H   1.0    0.06    1.00    1.43    69.40404    80.94589    52.49482
   629  N   5.0   -0.20    3.25    1.97    69.67898    77.35713    64.44477
   630  C   4.0    0.03    4.25    4.10    68.03022    78.84233    66.05577
   631  C   4.0    0.08    3.21    3.04    66.56200    77.08157    67.80724
   632  O   6.0   -0.28    1.11    1.80    66.44347    77.45890    70.09448
   633  C   4.0   -0.03    4.31    4.21    66.22084    80.44528    64.45851
   634  C   4.0   -0.01    3.55    3.14    67.52694    82.29240    62.71955
   635  C   4.0   -0.04    3.47    3.10    66.12813    83.62716    60.93357
   636  C   4.0   -0.03    3.54    3.13    70.12821    82.59626    62.72621
   637  C   4.0   -0.04    3.38    3.07    67.31051    85.13859    59.15781
   638  C   4.0   -0.04    3.40    3.08    71.31934    83.97373    60.85615
   639  C   4.0   -0.04    3.38    3.07    69.92144    85.28200    59.08254
   640  H   1.0    0.12    1.08    1.44    69.51222    77.60151    62.55350
   641  H   1.0    0.05    1.05    1.44    69.19565    80.04257    67.28852
   642  H   1.0    0.05    1.03    1.43    65.08984    79.16690    63.28885
   643  H   1.0    0.04    1.03    1.43    64.92235    81.44613    65.71253
   644  H   1.0    0.05    1.03    1.43    64.09028    83.50679    60.94122
   645  H   1.0    0.05    1.04    1.44    71.27406    81.72915    64.16292
   646  H   1.0    0.05    1.03    1.43    66.20021    86.15903    57.78504
   647  H   1.0    0.05    1.03    1.43    73.35193    83.94193    60.75252
   648  H   1.0    0.05    1.03    1.43    70.87029    86.44039    57.69575
   649  H   1.0    0.09    1.07    1.44    77.30361   114.77582    50.36029
   650  H   1.0    0.06    1.05    1.44    69.26571   116.08569    46.73592
   651  H   1.0    0.09    1.07    1.44    73.17229   118.20034    43.13608
   652  H   1.0    0.06    1.05    1.44    69.52085   115.97028    35.98219
   653  H   1.0    0.09    1.07    1.44    74.95288   115.24733    33.80521
   654  H   1.0    0.06    1.05    1.44    69.60121   113.13887    26.20536
   655  H   1.0    0.09    1.07    1.44    73.75603   101.64407    20.70920
   656  H   1.0    0.08    1.04    1.43    71.70938    93.83965    73.22059
   657  H   1.0    0.09    1.07    1.44    58.37647   105.87610    57.50254
   658  H   1.0    0.05    1.04    1.43    52.74377   102.83814    55.80757
   659  H   1.0    0.08    1.07    1.44    56.47818   105.81046    49.06813
   660  H   1.0    0.07    1.04    1.43    54.99440    99.88676    48.36290
   661  H   1.0    0.09    1.07    1.44    52.18427   105.00527    41.26544
   662  H   1.0    0.05    1.05    1.44    54.64433    97.01341    38.04435
   663  H   1.0    0.10    1.07    1.44    56.98305   102.29433    31.80398
   664  H   1.0    0.07    1.05    1.44    58.32556    97.04449    29.85136
   665  H   1.0    0.09    1.07    1.44    91.48688    98.43896    29.27989
   666  H   1.0    0.06    1.05    1.44    92.45510    93.12456    33.34800
   667  H   1.0    0.09    1.07    1.44    93.41800    99.62572    38.92429
   668  H   1.0    0.06    1.05    1.44    90.90626    94.75628    42.21511
   669  H   1.0    0.10    1.07    1.44    90.14123    99.17013    50.17322
   670  H   1.0    0.06    1.04    1.44    91.98262    93.97393    53.71620
   671  H   1.0    0.09    1.07    1.44    69.66550    79.04581    19.72509
   672  H   1.0    0.05    1.05    1.44    68.15485    80.13976    25.55004
   673  H   1.0    0.10    1.07    1.44    73.17941    77.98262    33.16154
   674  H   1.0    0.05    1.05    1.44    68.04148    77.63560    36.42205
   675  H   1.0    0.09    1.07    1.44    73.42403    74.16598    41.94524
   676  H   1.0    0.06    1.04    1.44    67.14321    74.88094    47.74370
   677  H   1.0    0.10    1.07    1.44    73.59846    76.20215    53.62304
   678  H   1.0    0.07    1.05    1.44    67.75085    77.73564    56.19121
   679  H   1.0    0.10    1.07    1.44    71.30126    77.71847    64.80559
   680  H   1.0    0.06    1.05    1.44    65.66564    75.57627    67.09895

  Z AO/shell   Hii/eV     exponent
  1     Wed Apr 25 08:07:45 CEST 2018   EN: 2.200 GM2: 0.406  GM3: 0.0800  RAES: 1.40
     1s    -10.707211    1.230000
  6     Wed Apr 25 08:07:45 CEST 2018   EN: 2.550 GM2: 0.538  GM3: 0.1500  RAES: 3.00
     2s    -13.970922    2.096432
     2p    -10.063292    1.800000
  7     Wed Apr 25 08:07:45 CEST 2018   EN: 3.040 GM2: 0.461  GM3:-0.0640  RAES: 1.90
     2s    -16.686243    2.339881
     2p    -12.523956    2.014332
  8     Wed Apr 25 08:07:45 CEST 2018   EN: 3.440 GM2: 0.452  GM3:-0.0517  RAES: 1.80
     2s    -20.229985    2.439742
     2p    -15.503117    2.137023
 16     Tue Apr 24 11:44:34 CEST 2018   EN: 2.580 GM2: 0.340  GM3:-0.0502  RAES: 3.10
     3s    -20.029654    1.981333
     3p    -11.377694    2.025643
     3d     -0.420282    1.702555
 no old-style atom pair restraining (fixing) potential

molecular fragmentation (1/2 indicates fragments):
111111111111111111111111111111111222222222222222222222222222222222222222
222222222222222222222222222222222222222222222222222222222222222222222222
222222222222222222222222222222222222222222222222222222222222222222222222
222222222222222222222222222222222222222222222222222222222222222222222222
222222222222222222222222222222222222222222222222222222222222222222222222
222222222222222222222222222222222222222222222222222222222222222222222222
222222222222222222222222222222222222222222222222222222222222222222222222
222222222222222222222222222222222222222222222222222222222222222222222222
222222222222222222222222222222222222222222222222222222222222222222222222
11222222222222222222222222222222
# atoms in fragment 1/2:    35   645
 fragment masses (1/2) :      216.28     4112.30
CMA distance (Bohr)    :  15.926
constraining FC (au)   :  0.0500
           ------------------------------------------------- 
          |        Self-Consistent Charge Iterations        |
           ------------------------------------------------- 

 Ncao       : 1595
 Nao        : 1594
 Nshell     : 984
 Nel        : 1736
 T(el)      :   500.0
 intcut     :    35.0
 scfconv/Eh :  0.100E-06
   qconv/e  :  0.100E-04
 intneglect :  0.100E-08
 broydamp   :      0.400
 iter      E             dE          RMSdq      gap      omega  full diag
   1   -984.1331198 -0.984133E+03  0.431E+00    2.87       0.0  T
   2   -986.1946305 -0.206151E+01  0.205E+00    1.72       1.0  T
   3   -986.3152941 -0.120664E+00  0.117E+00    1.77       1.0  T
   4   -986.4743244 -0.159030E+00  0.224E-01    1.12       1.0  T
   5   -986.4818278 -0.750345E-02  0.106E-01    1.32       1.0  T
   6   -986.4832983 -0.147050E-02  0.448E-02    1.30       1.0  T
   7   -986.4836481 -0.349743E-03  0.214E-02    1.28       1.0  T
   8   -986.4837172 -0.690955E-04  0.103E-02    1.27       1.0  T
   9   -986.4837378 -0.206434E-04  0.568E-03    1.27       1.0  T
  10   -986.4837436 -0.577322E-05  0.291E-03    1.27       1.3  T
  11   -986.4837451 -0.153702E-05  0.148E-03    1.27       2.6  T
  12   -986.4837455 -0.417202E-06  0.695E-04    1.27       5.5  T
  13   -986.4837457 -0.114348E-06  0.338E-04    1.27      11.3  T
  14   -986.4837457 -0.164058E-07  0.141E-04    1.26      27.2  T
  15   -986.4837457 -0.376940E-08  0.557E-05    1.26      68.8  T
  16   -986.4837457 -0.490331E-09  0.255E-05    1.26     150.5  T
speedup  1.00
cpu  time for SCC   23.42 s
wall time for SCC   23.43 s

   *** convergence criteria satisfied after 16 iterations ***

          eigenvalues
 #    :         856        857        858        859        860        861        862        863
 occ. :        2.000      2.000      2.000      2.000      2.000      2.000      2.000      2.000
 eps  :       -10.042    -10.021     -9.960     -9.929     -9.750     -9.701     -9.695     -9.650
 #    :         864        865        866        867        868        869        870        871
 occ. :        2.000      2.000      2.000      2.000      2.000      0.000      0.000      0.000
 eps  :        -9.627     -9.586     -9.519     -9.381     -9.332     -8.067     -7.929     -7.913
 #    :         872        873        874        875        876        877        878        879
 occ. :        0.000      0.000      0.000      0.000      0.000      0.000      0.000      0.000
 eps  :        -7.852     -7.808     -7.803     -7.769     -7.708     -7.568     -7.560     -7.558


   #   Z            q   n(s)   n(p)   n(d)      C6AA      α(0)
   1   7 N     -0.392  1.306  4.086  0.000    30.148     8.155
   2   6 C      0.032  1.054  2.914  0.000    20.047     6.377
   3   6 C      0.259  1.051  2.691  0.000    22.647     7.794
   4   8 O     -0.476  1.739  4.737  0.000    23.261     6.466
   5   6 C     -0.076  1.060  3.016  0.000    21.927     6.664
   6   6 C     -0.009  1.055  2.954  0.000    20.701     6.472
   7   6 C     -0.116  1.042  3.075  0.000    22.777     6.804
   8   6 C     -0.116  1.040  3.076  0.000    22.773     6.804
   9   1 H      0.164  0.836  0.000  0.000     1.312     1.794
  10   1 H      0.042  0.958  0.000  0.000     2.428     2.437
  11   1 H      0.050  0.950  0.000  0.000     2.326     2.385
  12   1 H      0.057  0.943  0.000  0.000     2.234     2.337
  13   1 H      0.031  0.969  0.000  0.000     2.577     2.510
  14   1 H      0.033  0.967  0.000  0.000     2.547     2.496
  15   1 H      0.045  0.955  0.000  0.000     2.387     2.416
  16   1 H      0.041  0.959  0.000  0.000     2.429     2.437
  17   1 H      0.035  0.965  0.000  0.000     2.510     2.478
  18   1 H      0.046  0.954  0.000  0.000     2.375     2.410
  19   1 H      0.039  0.961  0.000  0.000     2.463     2.454
  20   7 N     -0.158  1.230  3.928  0.000    24.419     7.339
  21   6 C     -0.006  1.064  2.942  0.000    20.687     6.477
  22   6 C      0.193  1.086  2.720  0.000    23.873     8.002
  23   8 O     -0.344  1.737  4.607  0.000    20.600     6.085
  24   6 C      0.103  1.045  2.852  0.000    18.972     6.218
  25   8 O     -0.477  1.732  4.744  0.000    22.394     6.388
  26   6 C     -0.143  1.045  3.098  0.000    23.326     6.887
  27   1 H      0.218  0.782  0.000  0.000     1.020     1.582
  28   1 H      0.105  0.895  0.000  0.000     1.737     2.061
  29   1 H      0.067  0.933  0.000  0.000     2.117     2.275
  30   1 H      0.335  0.665  0.000  0.000     0.624     1.241
  31   1 H      0.074  0.926  0.000  0.000     2.038     2.232
  32   1 H      0.069  0.931  0.000  0.000     2.100     2.266
  33   1 H      0.058  0.942  0.000  0.000     2.225     2.333
  34   7 N     -0.387  1.317  4.070  0.000    30.017     8.137
  35   6 C      0.035  1.052  2.913  0.000    19.994     6.369
  36   6 C      0.260  1.055  2.686  0.000    22.623     7.791
  37   8 O     -0.476  1.738  4.737  0.000    23.244     6.464
  38   6 C     -0.078  1.058  3.020  0.000    21.979     6.673
  39   6 C     -0.011  1.056  2.955  0.000    20.743     6.478
  40   6 C     -0.115  1.044  3.072  0.000    22.759     6.801
  41   6 C     -0.110  1.038  3.073  0.000    22.666     6.788
  42   1 H      0.151  0.849  0.000  0.000     1.397     1.852
  43   1 H      0.048  0.952  0.000  0.000     2.342     2.393
  44   1 H      0.031  0.969  0.000  0.000     2.579     2.511
  45   1 H      0.065  0.935  0.000  0.000     2.146     2.291
  46   1 H      0.029  0.971  0.000  0.000     2.607     2.525
  47   1 H      0.038  0.962  0.000  0.000     2.482     2.464
  48   1 H      0.042  0.958  0.000  0.000     2.419     2.432
  49   1 H      0.043  0.957  0.000  0.000     2.415     2.430
  50   1 H      0.038  0.962  0.000  0.000     2.482     2.463
  51   1 H      0.036  0.964  0.000  0.000     2.499     2.472
  52   1 H      0.036  0.964  0.000  0.000     2.506     2.476
  53   7 N     -0.198  1.273  3.925  0.000    25.298     7.470
  54   6 C      0.019  1.070  2.911  0.000    20.240     6.402
  55   6 C      0.287  1.041  2.672  0.000    22.128     7.702
  56   8 O     -0.493  1.729  4.763  0.000    23.624     6.517
  57   6 C     -0.032  1.061  2.971  0.000    21.108     6.535
  58   6 C     -0.129  1.041  3.087  0.000    23.023     6.841
  59   6 C     -0.130  1.043  3.087  0.000    23.045     6.844
  60   1 H      0.227  0.773  0.000  0.000     0.977     1.548
  61   1 H      0.078  0.922  0.000  0.000     2.002     2.213
  62   1 H      0.075  0.925  0.000  0.000     2.026     2.226
  63   1 H      0.051  0.949  0.000  0.000     2.305     2.374
  64   1 H      0.051  0.949  0.000  0.000     2.308     2.376
  65   1 H      0.036  0.964  0.000  0.000     2.504     2.475
  66   1 H      0.055  0.945  0.000  0.000     2.259     2.350
  67   1 H      0.054  0.946  0.000  0.000     2.266     2.354
  68   1 H      0.052  0.948  0.000  0.000     2.289     2.366
  69   7 N     -0.192  1.242  3.950  0.000    25.166     7.451
  70   6 C      0.031  1.056  2.913  0.000    20.075     6.382
  71   6 C      0.197  1.086  2.717  0.000    23.795     7.989
  72   8 O     -0.370  1.758  4.612  0.000    21.084     6.156
  73   6 C     -0.079  1.053  3.026  0.000    21.983     6.671
  74   6 C      0.019  1.076  2.905  0.000    27.571     8.613
  75   6 C     -0.040  1.081  2.959  0.000    28.986     8.830
  76   6 C     -0.039  1.076  2.963  0.000    28.977     8.828
  77   6 C     -0.038  1.080  2.957  0.000    28.941     8.822
  78   6 C     -0.048  1.083  2.965  0.000    29.187     8.860
  79   6 C     -0.043  1.077  2.965  0.000    29.056     8.840
  80   1 H      0.245  0.755  0.000  0.000     0.902     1.488
  81   1 H      0.082  0.918  0.000  0.000     1.963     2.191
  82   1 H      0.074  0.926  0.000  0.000     2.039     2.233
  83   1 H      0.069  0.931  0.000  0.000     2.093     2.263
  84   1 H      0.035  0.965  0.000  0.000     2.512     2.478
  85   1 H      0.036  0.964  0.000  0.000     2.505     2.475
  86   1 H      0.042  0.958  0.000  0.000     2.419     2.432
  87   1 H      0.073  0.927  0.000  0.000     2.055     2.242
  88   1 H      0.043  0.957  0.000  0.000     2.412     2.429
  89   7 N     -0.444  1.340  4.104  0.000    31.632     8.353
  90   6 C      0.035  1.059  2.906  0.000    20.009     6.372
  91   6 C      0.246  1.059  2.694  0.000    22.867     7.831
  92   8 O     -0.527  1.749  4.778  0.000    24.386     6.621
  93   6 C     -0.078  1.063  3.015  0.000    21.988     6.677
  94   6 C     -0.009  1.058  2.952  0.000    20.709     6.473
  95   6 C     -0.114  1.040  3.074  0.000    22.726     6.796
  96   6 C     -0.142  1.048  3.094  0.000    23.284     6.878
  97   1 H      0.207  0.793  0.000  0.000     1.072     1.622
  98   1 H      0.035  0.965  0.000  0.000     2.520     2.482
  99   1 H      0.062  0.938  0.000  0.000     2.176     2.307
 100   1 H      0.040  0.960  0.000  0.000     2.442     2.444
 101   1 H      0.030  0.970  0.000  0.000     2.591     2.517
 102   1 H      0.039  0.961  0.000  0.000     2.466     2.456
 103   1 H      0.028  0.972  0.000  0.000     2.621     2.532
 104   1 H      0.047  0.953  0.000  0.000     2.362     2.404
 105   1 H      0.050  0.950  0.000  0.000     2.321     2.382
 106   1 H      0.060  0.940  0.000  0.000     2.204     2.322
 107   1 H      0.048  0.952  0.000  0.000     2.340     2.392
 108   7 N     -0.072  1.229  3.843  0.000    22.630     7.065
 109   6 C      0.023  1.062  2.916  0.000    20.174     6.391
 110   6 C      0.209  1.083  2.709  0.000    23.577     7.952
 111   8 O     -0.377  1.758  4.619  0.000    21.235     6.178
 112   6 C     -0.064  1.054  3.010  0.000    21.711     6.631
 113   6 C     -0.072  1.050  3.022  0.000    21.859     6.654
 114   6 C     -0.023  1.055  2.967  0.000    21.016     6.534
 115   1 H      0.088  0.912  0.000  0.000     1.899     2.155
 116   1 H      0.050  0.950  0.000  0.000     2.322     2.383
 117   1 H      0.067  0.933  0.000  0.000     2.121     2.278
 118   1 H      0.059  0.941  0.000  0.000     2.215     2.328
 119   1 H      0.065  0.935  0.000  0.000     2.136     2.285
 120   1 H      0.071  0.929  0.000  0.000     2.074     2.252
 121   1 H      0.094  0.906  0.000  0.000     1.840     2.121
 122   7 N     -0.388  1.305  4.084  0.000    30.046     8.141
 123   6 C      0.032  1.058  2.910  0.000    20.043     6.377
 124   6 C      0.265  1.048  2.687  0.000    22.529     7.773
 125   8 O     -0.508  1.748  4.760  0.000    23.963     6.563
 126   6 C     -0.047  1.053  2.994  0.000    21.413     6.587
 127   6 C     -0.089  1.064  3.025  0.000    22.194     6.708
 128   6 C      0.369  1.027  2.604  0.000    20.738     7.452
 129   8 O     -0.643  1.770  4.872  0.000    27.190     6.991
 130   8 O     -0.665  1.780  4.885  0.000    27.764     7.064
 131   1 H      0.166  0.834  0.000  0.000     1.296     1.783
 132   1 H      0.019  0.981  0.000  0.000     2.756     2.596
 133   1 H      0.033  0.967  0.000  0.000     2.544     2.494
 134   1 H      0.045  0.955  0.000  0.000     2.381     2.413
 135   1 H      0.019  0.981  0.000  0.000     2.755     2.595
 136   1 H      0.009  0.991  0.000  0.000     2.901     2.664
 137   7 N     -0.171  1.237  3.934  0.000    24.701     7.381
 138   6 C      0.013  1.057  2.930  0.000    20.360     6.425
 139   6 C      0.260  1.050  2.691  0.000    22.627     7.790
 140   8 O     -0.464  1.723  4.741  0.000    23.005     6.431
 141   6 C     -0.103  1.059  3.044  0.000    22.459     6.746
 142   6 C     -0.081  1.049  3.032  0.000    22.042     6.684
 143   6 C     -0.104  1.058  3.046  0.000    22.473     6.749
 144   6 C     -0.052  1.058  2.994  0.000    21.601     6.633
 145   7 N     -0.147  1.243  3.904  0.000    24.165     7.301
 146   1 H      0.227  0.773  0.000  0.000     0.978     1.549
 147   1 H      0.084  0.916  0.000  0.000     1.937     2.176
 148   1 H      0.104  0.896  0.000  0.000     1.751     2.069
 149   1 H      0.074  0.926  0.000  0.000     2.045     2.236
 150   1 H      0.051  0.949  0.000  0.000     2.302     2.372
 151   1 H      0.074  0.926  0.000  0.000     2.046     2.237
 152   1 H      0.087  0.913  0.000  0.000     1.904     2.158
 153   1 H      0.084  0.916  0.000  0.000     1.935     2.175
 154   1 H      0.108  0.892  0.000  0.000     1.716     2.048
 155   1 H      0.116  0.884  0.000  0.000     1.647     2.007
 156   1 H      0.290  0.710  0.000  0.000     0.746     1.354
 157   1 H      0.297  0.703  0.000  0.000     0.722     1.331
 158   1 H      0.298  0.702  0.000  0.000     0.719     1.328
 159   7 N     -0.168  1.243  3.924  0.000    24.626     7.370
 160   6 C      0.010  1.065  2.925  0.000    20.408     6.431
 161   6 C      0.270  1.042  2.687  0.000    22.437     7.757
 162   8 O     -0.458  1.737  4.721  0.000    22.879     6.413
 163   6 C     -0.076  1.054  3.023  0.000    21.929     6.662
 164   6 C     -0.020  1.068  2.952  0.000    20.942     6.517
 165  16 S     -0.220  1.929  4.237  0.055   150.461    20.645
 166   6 C     -0.059  1.053  3.006  0.000    21.706     6.646
 167   1 H      0.205  0.795  0.000  0.000     1.079     1.627
 168   1 H      0.100  0.900  0.000  0.000     1.785     2.089
 169   1 H      0.072  0.928  0.000  0.000     2.066     2.248
 170   1 H      0.078  0.922  0.000  0.000     1.997     2.210
 171   1 H      0.058  0.942  0.000  0.000     2.227     2.334
 172   1 H      0.066  0.934  0.000  0.000     2.127     2.281
 173   1 H      0.059  0.941  0.000  0.000     2.207     2.323
 174   1 H      0.059  0.941  0.000  0.000     2.210     2.325
 175   1 H      0.054  0.946  0.000  0.000     2.265     2.353
 176   7 N     -0.183  1.242  3.941  0.000    24.962     7.420
 177   6 C      0.008  1.069  2.923  0.000    20.453     6.440
 178   6 C      0.278  1.039  2.683  0.000    22.298     7.733
 179   8 O     -0.456  1.736  4.720  0.000    22.830     6.406
 180   6 C      0.115  1.047  2.838  0.000    18.798     6.192
 181   8 O     -0.475  1.722  4.753  0.000    22.355     6.383
 182   6 C     -0.143  1.043  3.099  0.000    23.313     6.886
 183   1 H      0.204  0.796  0.000  0.000     1.084     1.631
 184   1 H      0.095  0.905  0.000  0.000     1.831     2.116
 185   1 H      0.035  0.965  0.000  0.000     2.523     2.484
 186   1 H      0.341  0.659  0.000  0.000     0.610     1.227
 187   1 H      0.061  0.939  0.000  0.000     2.182     2.310
 188   1 H      0.054  0.946  0.000  0.000     2.272     2.357
 189   1 H      0.067  0.933  0.000  0.000     2.118     2.276
 190   7 N     -0.184  1.249  3.935  0.000    24.995     7.425
 191   6 C      0.015  1.066  2.919  0.000    20.330     6.421
 192   6 C      0.283  1.040  2.677  0.000    22.206     7.717
 193   8 O     -0.496  1.738  4.758  0.000    23.698     6.527
 194   6 C     -0.086  1.065  3.022  0.000    22.135     6.697
 195   6 C     -0.032  1.057  2.976  0.000    21.118     6.536
 196   6 C     -0.145  1.051  3.095  0.000    23.360     6.891
 197   6 C     -0.138  1.046  3.092  0.000    23.213     6.870
 198   1 H      0.202  0.798  0.000  0.000     1.095     1.639
 199   1 H      0.081  0.919  0.000  0.000     1.974     2.197
 200   1 H      0.057  0.943  0.000  0.000     2.239     2.340
 201   1 H      0.063  0.937  0.000  0.000     2.159     2.298
 202   1 H      0.060  0.940  0.000  0.000     2.198     2.318
 203   1 H      0.081  0.919  0.000  0.000     1.970     2.195
 204   1 H      0.050  0.950  0.000  0.000     2.315     2.379
 205   1 H      0.042  0.958  0.000  0.000     2.417     2.431
 206   1 H      0.068  0.932  0.000  0.000     2.103     2.268
 207   1 H      0.064  0.936  0.000  0.000     2.156     2.296
 208   1 H      0.034  0.966  0.000  0.000     2.529     2.487
 209   7 N     -0.187  1.253  3.934  0.000    25.062     7.435
 210   6 C      0.015  1.063  2.922  0.000    20.323     6.419
 211   6 C      0.278  1.039  2.683  0.000    22.295     7.733
 212   8 O     -0.480  1.731  4.749  0.000    23.350     6.479
 213   6 C      0.064  1.041  2.895  0.000    19.717     6.362
 214   8 O     -0.445  1.704  4.741  0.000    21.752     6.296
 215   1 H      0.243  0.757  0.000  0.000     0.912     1.496
 216   1 H      0.099  0.901  0.000  0.000     1.797     2.096
 217   1 H      0.060  0.940  0.000  0.000     2.194     2.316
 218   1 H      0.048  0.952  0.000  0.000     2.346     2.395
 219   1 H      0.320  0.680  0.000  0.000     0.664     1.280
 220   7 N     -0.181  1.255  3.926  0.000    24.920     7.414
 221   6 C      0.016  1.065  2.919  0.000    20.308     6.415
 222   6 C      0.291  1.040  2.669  0.000    22.071     7.694
 223   8 O     -0.491  1.733  4.758  0.000    23.587     6.512
 224   6 C     -0.021  1.067  2.955  0.000    20.922     6.506
 225   6 C     -0.080  1.053  3.027  0.000    22.023     6.681
 226   6 C     -0.127  1.039  3.088  0.000    22.988     6.837
 227   6 C     -0.122  1.038  3.085  0.000    22.904     6.825
 228   1 H      0.220  0.780  0.000  0.000     1.009     1.574
 229   1 H      0.085  0.915  0.000  0.000     1.928     2.172
 230   1 H      0.051  0.949  0.000  0.000     2.313     2.378
 231   1 H      0.040  0.960  0.000  0.000     2.450     2.448
 232   1 H      0.067  0.933  0.000  0.000     2.119     2.276
 233   1 H      0.053  0.947  0.000  0.000     2.280     2.361
 234   1 H      0.058  0.942  0.000  0.000     2.227     2.334
 235   1 H      0.043  0.957  0.000  0.000     2.408     2.426
 236   1 H      0.048  0.952  0.000  0.000     2.342     2.393
 237   1 H      0.049  0.951  0.000  0.000     2.328     2.386
 238   1 H      0.038  0.962  0.000  0.000     2.472     2.459
 239   7 N     -0.185  1.246  3.939  0.000    25.016     7.428
 240   6 C      0.014  1.064  2.922  0.000    20.347     6.423
 241   6 C      0.284  1.039  2.677  0.000    22.184     7.713
 242   8 O     -0.509  1.739  4.769  0.000    23.973     6.565
 243   6 C      0.075  1.036  2.889  0.000    19.552     6.336
 244   8 O     -0.480  1.715  4.765  0.000    22.462     6.398
 245   1 H      0.221  0.779  0.000  0.000     1.003     1.569
 246   1 H      0.062  0.938  0.000  0.000     2.172     2.305
 247   1 H      0.053  0.947  0.000  0.000     2.282     2.362
 248   1 H      0.037  0.963  0.000  0.000     2.495     2.470
 249   1 H      0.339  0.661  0.000  0.000     0.616     1.233
 250   7 N     -0.167  1.243  3.924  0.000    24.616     7.369
 251   6 C      0.018  1.064  2.918  0.000    20.269     6.409
 252   6 C      0.276  1.044  2.680  0.000    22.334     7.739
 253   8 O     -0.515  1.738  4.777  0.000    24.114     6.584
 254   6 C     -0.029  1.062  2.967  0.000    21.059     6.527
 255   6 C     -0.121  1.040  3.081  0.000    22.865     6.818
 256   6 C     -0.124  1.041  3.083  0.000    22.936     6.828
 257   1 H      0.226  0.774  0.000  0.000     0.981     1.552
 258   1 H      0.078  0.922  0.000  0.000     1.996     2.209
 259   1 H      0.071  0.929  0.000  0.000     2.074     2.252
 260   1 H      0.070  0.930  0.000  0.000     2.081     2.256
 261   1 H      0.039  0.961  0.000  0.000     2.467     2.456
 262   1 H      0.044  0.956  0.000  0.000     2.400     2.423
 263   1 H      0.068  0.932  0.000  0.000     2.106     2.269
 264   1 H      0.050  0.950  0.000  0.000     2.322     2.383
 265   1 H      0.047  0.953  0.000  0.000     2.363     2.404
 266   7 N     -0.168  1.247  3.921  0.000    24.637     7.372
 267   6 C      0.023  1.059  2.917  0.000    20.178     6.395
 268   6 C      0.281  1.042  2.678  0.000    22.248     7.724
 269   8 O     -0.515  1.735  4.780  0.000    24.116     6.584
 270   6 C     -0.083  1.060  3.023  0.000    22.078     6.688
 271   6 C     -0.018  1.056  2.961  0.000    20.852     6.495
 272   6 C     -0.131  1.043  3.087  0.000    23.064     6.847
 273   6 C     -0.128  1.042  3.086  0.000    23.013     6.840
 274   1 H      0.248  0.752  0.000  0.000     0.889     1.477
 275   1 H      0.075  0.925  0.000  0.000     2.028     2.227
 276   1 H      0.061  0.939  0.000  0.000     2.182     2.310
 277   1 H      0.059  0.941  0.000  0.000     2.215     2.327
 278   1 H      0.046  0.954  0.000  0.000     2.370     2.408
 279   1 H      0.059  0.941  0.000  0.000     2.215     2.327
 280   1 H      0.044  0.956  0.000  0.000     2.395     2.420
 281   1 H      0.052  0.948  0.000  0.000     2.296     2.370
 282   1 H      0.063  0.937  0.000  0.000     2.162     2.300
 283   1 H      0.043  0.957  0.000  0.000     2.412     2.429
 284   1 H      0.040  0.960  0.000  0.000     2.445     2.445
 285   7 N     -0.179  1.247  3.933  0.000    24.886     7.409
 286   6 C      0.028  1.058  2.914  0.000    20.097     6.383
 287   6 C      0.280  1.042  2.678  0.000    22.259     7.726
 288   8 O     -0.490  1.737  4.752  0.000    23.554     6.507
 289   6 C     -0.078  1.058  3.019  0.000    21.977     6.673
 290   6 C     -0.015  1.056  2.959  0.000    20.807     6.488
 291   6 C     -0.113  1.040  3.074  0.000    22.717     6.795
 292   6 C     -0.127  1.039  3.088  0.000    22.985     6.836
 293   1 H      0.237  0.763  0.000  0.000     0.934     1.514
 294   1 H      0.070  0.930  0.000  0.000     2.087     2.259
 295   1 H      0.047  0.953  0.000  0.000     2.361     2.403
 296   1 H      0.050  0.950  0.000  0.000     2.323     2.383
 297   1 H      0.051  0.949  0.000  0.000     2.307     2.375
 298   1 H      0.061  0.939  0.000  0.000     2.182     2.310
 299   1 H      0.022  0.978  0.000  0.000     2.706     2.573
 300   1 H      0.034  0.966  0.000  0.000     2.536     2.491
 301   1 H      0.056  0.944  0.000  0.000     2.249     2.345
 302   1 H      0.045  0.955  0.000  0.000     2.388     2.417
 303   1 H      0.043  0.957  0.000  0.000     2.412     2.429
 304   7 N     -0.194  1.251  3.944  0.000    25.212     7.457
 305   6 C      0.014  1.063  2.923  0.000    20.343     6.422
 306   6 C      0.283  1.035  2.682  0.000    22.209     7.717
 307   8 O     -0.501  1.743  4.758  0.000    23.814     6.543
 308   6 C      0.080  1.035  2.886  0.000    19.462     6.319
 309   8 O     -0.473  1.711  4.762  0.000    22.329     6.379
 310   1 H      0.233  0.767  0.000  0.000     0.954     1.530
 311   1 H      0.055  0.945  0.000  0.000     2.261     2.351
 312   1 H      0.051  0.949  0.000  0.000     2.308     2.376
 313   1 H      0.039  0.961  0.000  0.000     2.467     2.456
 314   1 H      0.336  0.664  0.000  0.000     0.621     1.238
 315   7 N     -0.194  1.251  3.943  0.000    25.208     7.457
 316   6 C      0.023  1.060  2.917  0.000    20.185     6.397
 317   6 C      0.282  1.038  2.680  0.000    22.217     7.719
 318   8 O     -0.495  1.736  4.759  0.000    23.680     6.524
 319   6 C     -0.084  1.063  3.021  0.000    22.095     6.690
 320   6 C     -0.013  1.056  2.957  0.000    20.782     6.484
 321   6 C     -0.125  1.038  3.087  0.000    22.953     6.831
 322   6 C     -0.124  1.044  3.080  0.000    22.933     6.827
 323   1 H      0.249  0.751  0.000  0.000     0.887     1.475
[...]
 394   1 H      0.046  0.954  0.000  0.000     2.377     2.411
 395   1 H      0.055  0.945  0.000  0.000     2.264     2.353
 396   1 H      0.048  0.952  0.000  0.000     2.339     2.392
 397   1 H      0.059  0.941  0.000  0.000     2.211     2.325
 398   1 H      0.039  0.961  0.000  0.000     2.462     2.454
 399   1 H      0.046  0.954  0.000  0.000     2.369     2.407
 400   1 H      0.058  0.942  0.000  0.000     2.217     2.329
 401   1 H      0.041  0.959  0.000  0.000     2.429     2.437
 402   1 H      0.025  0.975  0.000  0.000     2.652     2.547
 403   7 N     -0.184  1.249  3.935  0.000    24.983     7.423
 404   6 C      0.037  1.058  2.905  0.000    19.960     6.362
 405   6 C      0.214  1.085  2.700  0.000    23.469     7.934
 406   8 O     -0.375  1.750  4.624  0.000    21.180     6.170
 407   6 C     -0.066  1.058  3.008  0.000    21.757     6.640
 408   6 C     -0.014  1.057  2.957  0.000    20.793     6.486
 409   6 C     -0.109  1.041  3.068  0.000    22.645     6.785
 410   6 C     -0.122  1.042  3.080  0.000    22.885     6.821
 411   1 H      0.236  0.764  0.000  0.000     0.939     1.518
 412   1 H      0.081  0.919  0.000  0.000     1.965     2.192
 413   1 H      0.052  0.948  0.000  0.000     2.299     2.371
 414   1 H      0.053  0.947  0.000  0.000     2.279     2.361
 415   1 H      0.054  0.946  0.000  0.000     2.266     2.354
 416   1 H      0.055  0.945  0.000  0.000     2.255     2.348
 417   1 H      0.022  0.978  0.000  0.000     2.697     2.568
 418   1 H      0.043  0.957  0.000  0.000     2.410     2.428
 419   1 H      0.058  0.942  0.000  0.000     2.224     2.332
 420   1 H      0.045  0.955  0.000  0.000     2.387     2.416
 421   1 H      0.037  0.963  0.000  0.000     2.488     2.466
 422   7 N     -0.390  1.319  4.071  0.000    30.091     8.147
 423   6 C      0.030  1.058  2.912  0.000    20.092     6.385
 424   6 C      0.198  1.096  2.707  0.000    23.787     7.987
 425   8 O     -0.363  1.757  4.607  0.000    20.964     6.139
 426   6 C     -0.022  1.069  2.952  0.000    20.920     6.505
 427   6 C     -0.061  1.050  3.011  0.000    21.667     6.627
 428   6 C     -0.118  1.037  3.080  0.000    22.802     6.808
 429   6 C     -0.110  1.034  3.076  0.000    22.670     6.790
 430   1 H      0.163  0.837  0.000  0.000     1.316     1.797
 431   1 H      0.068  0.932  0.000  0.000     2.106     2.269
 432   1 H      0.043  0.957  0.000  0.000     2.413     2.429
 433   1 H      0.040  0.960  0.000  0.000     2.450     2.448
 434   1 H      0.039  0.961  0.000  0.000     2.459     2.452
 435   1 H      0.047  0.953  0.000  0.000     2.352     2.398
 436   1 H      0.035  0.965  0.000  0.000     2.520     2.482
 437   1 H      0.051  0.949  0.000  0.000     2.309     2.376
 438   1 H      0.031  0.969  0.000  0.000     2.566     2.505
 439   1 H      0.043  0.957  0.000  0.000     2.405     2.425
 440   1 H      0.046  0.954  0.000  0.000     2.364     2.404
 441   7 N     -0.381  1.307  4.074  0.000    29.850     8.114
 442   6 C      0.012  1.064  2.924  0.000    20.389     6.432
 443   6 C      0.196  1.094  2.710  0.000    23.823     7.993
 444   8 O     -0.358  1.739  4.619  0.000    20.853     6.122
 445   6 C      0.120  1.046  2.834  0.000    18.728     6.180
 446   8 O     -0.503  1.724  4.779  0.000    22.966     6.469
 447   6 C     -0.133  1.045  3.088  0.000    23.109     6.856
 448   1 H      0.159  0.841  0.000  0.000     1.343     1.815
 449   1 H      0.067  0.933  0.000  0.000     2.121     2.277
 450   1 H      0.037  0.963  0.000  0.000     2.487     2.466
 451   1 H      0.332  0.668  0.000  0.000     0.634     1.250
 452   1 H      0.062  0.938  0.000  0.000     2.171     2.304
 453   1 H      0.057  0.943  0.000  0.000     2.230     2.335
 454   1 H      0.051  0.949  0.000  0.000     2.307     2.375
 455   7 N     -0.393  1.317  4.075  0.000    30.166     8.157
 456   6 C      0.028  1.057  2.915  0.000    20.103     6.384
 457   6 C      0.265  1.046  2.689  0.000    22.524     7.773
 458   8 O     -0.498  1.746  4.752  0.000    23.729     6.531
 459   6 C     -0.018  1.060  2.958  0.000    20.856     6.495
 460   6 C     -0.117  1.037  3.080  0.000    22.795     6.807
 461   6 C     -0.133  1.041  3.092  0.000    23.115     6.855
 462   1 H      0.157  0.843  0.000  0.000     1.356     1.824
 463   1 H      0.036  0.964  0.000  0.000     2.507     2.476
 464   1 H      0.035  0.965  0.000  0.000     2.516     2.481
 465   1 H      0.052  0.948  0.000  0.000     2.291     2.367
 466   1 H      0.033  0.967  0.000  0.000     2.551     2.498
 467   1 H      0.043  0.957  0.000  0.000     2.412     2.429
 468   1 H      0.055  0.945  0.000  0.000     2.260     2.351
 469   1 H      0.064  0.936  0.000  0.000     2.149     2.293
 470   1 H      0.048  0.952  0.000  0.000     2.342     2.393
 471   7 N     -0.168  1.241  3.927  0.000    24.637     7.372
 472   6 C      0.010  1.063  2.927  0.000    20.407     6.431
 473   6 C      0.198  1.085  2.718  0.000    23.787     7.988
 474   8 O     -0.375  1.759  4.616  0.000    21.191     6.172
 475   6 C     -0.018  1.066  2.952  0.000    20.864     6.497
 476   6 C     -0.068  1.049  3.019  0.000    21.809     6.649
 477   6 C     -0.144  1.043  3.101  0.000    23.316     6.883
 478   6 C     -0.111  1.035  3.077  0.000    22.692     6.793
 479   1 H      0.244  0.756  0.000  0.000     0.907     1.492
 480   1 H      0.111  0.889  0.000  0.000     1.684     2.029
 481   1 H      0.049  0.951  0.000  0.000     2.330     2.387
 482   1 H      0.054  0.946  0.000  0.000     2.274     2.358
 483   1 H      0.025  0.975  0.000  0.000     2.659     2.550
 484   1 H      0.072  0.928  0.000  0.000     2.063     2.246
 485   1 H      0.057  0.943  0.000  0.000     2.236     2.339
 486   1 H      0.066  0.934  0.000  0.000     2.125     2.280
 487   1 H      0.038  0.962  0.000  0.000     2.482     2.464
 488   1 H      0.045  0.955  0.000  0.000     2.389     2.417
 489   1 H      0.045  0.955  0.000  0.000     2.389     2.417
 490   7 N     -0.434  1.340  4.094  0.000    31.345     8.315
 491   6 C      0.055  1.054  2.892  0.000    19.679     6.319
 492   6 C      0.200  1.093  2.707  0.000    23.745     7.981
 493   8 O     -0.388  1.749  4.638  0.000    21.437     6.208
 494   6 C     -0.064  1.050  3.014  0.000    21.720     6.632
 495   6 C      0.059  1.062  2.879  0.000    26.045     8.305
 496   7 N     -0.293  1.484  3.808  0.000    28.429     7.905
 497   6 C     -0.035  1.058  2.976  0.000    28.807     8.802
 498   6 C      0.078  1.060  2.862  0.000    25.861     8.302
 499   7 N     -0.108  1.250  3.858  0.000    23.350     7.177
 500   1 H      0.209  0.791  0.000  0.000     1.060     1.612
 501   1 H      0.024  0.976  0.000  0.000     2.671     2.556
 502   1 H      0.073  0.927  0.000  0.000     2.049     2.238
 503   1 H      0.036  0.964  0.000  0.000     2.501     2.473
 504   1 H      0.024  0.976  0.000  0.000     2.667     2.554
 505   1 H      0.051  0.949  0.000  0.000     2.312     2.378
 506   1 H      0.226  0.774  0.000  0.000     0.983     1.553
 507   7 N     -0.391  1.311  4.080  0.000    30.136     8.153
 508   6 C      0.027  1.056  2.916  0.000    20.135     6.392
 509   6 C      0.197  1.090  2.713  0.000    23.799     7.989
 510   8 O     -0.352  1.752  4.600  0.000    20.742     6.106
 511   6 C      0.080  1.039  2.881  0.000    19.452     6.318
 512   8 O     -0.490  1.726  4.764  0.000    22.684     6.429
 513   1 H      0.166  0.834  0.000  0.000     1.299     1.785
 514   1 H      0.080  0.920  0.000  0.000     1.976     2.198
 515   1 H      0.031  0.969  0.000  0.000     2.576     2.510
 516   1 H      0.042  0.958  0.000  0.000     2.422     2.434
 517   1 H      0.339  0.661  0.000  0.000     0.616     1.232
 518   7 N     -0.396  1.315  4.081  0.000    30.268     8.171
 519   6 C      0.038  1.058  2.903  0.000    19.942     6.361
 520   6 C      0.209  1.091  2.699  0.000    23.564     7.950
 521   8 O     -0.388  1.746  4.641  0.000    21.436     6.207
 522   6 C     -0.025  1.071  2.954  0.000    20.985     6.516
 523   6 C     -0.074  1.055  3.019  0.000    21.906     6.663
 524   6 C     -0.117  1.038  3.079  0.000    22.798     6.809
 525   6 C     -0.121  1.035  3.086  0.000    22.881     6.821
 526   1 H      0.162  0.838  0.000  0.000     1.321     1.800
 527   1 H      0.053  0.947  0.000  0.000     2.279     2.361
 528   1 H      0.060  0.940  0.000  0.000     2.200     2.320
 529   1 H      0.039  0.961  0.000  0.000     2.461     2.453
 530   1 H      0.066  0.934  0.000  0.000     2.135     2.285
 531   1 H      0.061  0.939  0.000  0.000     2.189     2.313
 532   1 H      0.038  0.962  0.000  0.000     2.478     2.462
 533   1 H      0.035  0.965  0.000  0.000     2.521     2.483
 534   1 H      0.047  0.953  0.000  0.000     2.362     2.404
 535   1 H      0.052  0.948  0.000  0.000     2.299     2.371
 536   1 H      0.027  0.973  0.000  0.000     2.628     2.535
 537   7 N     -0.408  1.316  4.092  0.000    30.595     8.215
 538   6 C      0.045  1.052  2.903  0.000    19.831     6.343
 539   6 C      0.198  1.094  2.708  0.000    23.776     7.986
 540   8 O     -0.394  1.761  4.633  0.000    21.558     6.225
 541   6 C     -0.066  1.058  3.008  0.000    21.753     6.638
 542   6 C     -0.010  1.055  2.955  0.000    20.714     6.473
 543   6 C     -0.115  1.040  3.074  0.000    22.741     6.798
 544   6 C     -0.120  1.039  3.082  0.000    22.858     6.817
 545   1 H      0.197  0.803  0.000  0.000     1.120     1.657
 546   1 H      0.042  0.958  0.000  0.000     2.422     2.434
 547   1 H      0.038  0.962  0.000  0.000     2.476     2.461
 548   1 H      0.027  0.973  0.000  0.000     2.633     2.537
 549   1 H      0.052  0.948  0.000  0.000     2.295     2.369
 550   1 H      0.064  0.936  0.000  0.000     2.155     2.296
 551   1 H      0.027  0.973  0.000  0.000     2.635     2.539
 552   1 H      0.021  0.979  0.000  0.000     2.713     2.576
 553   1 H      0.044  0.956  0.000  0.000     2.400     2.422
 554   1 H      0.050  0.950  0.000  0.000     2.314     2.379
 555   1 H      0.035  0.965  0.000  0.000     2.522     2.484
 556   7 N     -0.392  1.311  4.081  0.000    30.139     8.154
 557   6 C      0.037  1.053  2.909  0.000    19.969     6.365
 558   6 C      0.196  1.096  2.708  0.000    23.813     7.992
 559   8 O     -0.377  1.749  4.628  0.000    21.234     6.178
 560   6 C     -0.058  1.049  3.009  0.000    21.610     6.617
 561   6 C     -0.101  1.058  3.043  0.000    22.429     6.742
 562   6 C      0.289  1.037  2.673  0.000    22.093     7.696
 563   8 O     -0.496  1.758  4.738  0.000    23.695     6.526
 564   7 N     -0.286  1.258  4.028  0.000    27.375     7.771
 565   1 H      0.166  0.834  0.000  0.000     1.299     1.785
 566   1 H      0.070  0.930  0.000  0.000     2.090     2.261
 567   1 H      0.058  0.942  0.000  0.000     2.217     2.328
 568   1 H      0.054  0.946  0.000  0.000     2.265     2.354
 569   1 H      0.075  0.925  0.000  0.000     2.027     2.226
 570   1 H      0.069  0.931  0.000  0.000     2.101     2.267
 571   1 H      0.224  0.776  0.000  0.000     0.993     1.561
 572   1 H      0.213  0.787  0.000  0.000     1.044     1.601
 573   7 N     -0.397  1.312  4.085  0.000    30.295     8.175
 574   6 C      0.045  1.052  2.903  0.000    19.835     6.344
 575   6 C      0.199  1.099  2.702  0.000    23.758     7.983
 576   8 O     -0.382  1.745  4.637  0.000    21.320     6.191
 577   6 C     -0.072  1.064  3.008  0.000    21.868     6.655
 578   6 C     -0.024  1.057  2.967  0.000    20.964     6.512
 579   6 C     -0.120  1.042  3.078  0.000    22.850     6.815
 580   6 C     -0.124  1.042  3.082  0.000    22.935     6.829
 581   1 H      0.183  0.817  0.000  0.000     1.197     1.714
 582   1 H      0.035  0.965  0.000  0.000     2.516     2.480
 583   1 H      0.061  0.939  0.000  0.000     2.191     2.315
 584   1 H      0.063  0.937  0.000  0.000     2.167     2.302
 585   1 H      0.046  0.954  0.000  0.000     2.370     2.407
 586   1 H      0.052  0.948  0.000  0.000     2.293     2.368
 587   1 H      0.031  0.969  0.000  0.000     2.574     2.509
 588   1 H      0.047  0.953  0.000  0.000     2.357     2.401
 589   1 H      0.055  0.945  0.000  0.000     2.261     2.351
 590   1 H      0.041  0.959  0.000  0.000     2.431     2.438
 591   1 H      0.038  0.962  0.000  0.000     2.480     2.463
 592   7 N     -0.394  1.311  4.083  0.000    30.210     8.163
 593   6 C      0.019  1.063  2.918  0.000    20.271     6.413
 594   6 C      0.277  1.045  2.679  0.000    22.322     7.737
 595   8 O     -0.499  1.747  4.752  0.000    23.762     6.536
 596   6 C      0.077  1.039  2.883  0.000    19.505     6.328
 597   8 O     -0.477  1.716  4.761  0.000    22.397     6.389
 598   1 H      0.163  0.837  0.000  0.000     1.314     1.796
 599   1 H      0.032  0.968  0.000  0.000     2.565     2.505
 600   1 H      0.039  0.961  0.000  0.000     2.458     2.452
 601   1 H      0.026  0.974  0.000  0.000     2.647     2.544
 602   1 H      0.336  0.664  0.000  0.000     0.623     1.240
 603   7 N     -0.161  1.240  3.921  0.000    24.483     7.349
 604   6 C      0.023  1.062  2.915  0.000    20.188     6.397
 605   6 C      0.204  1.084  2.713  0.000    23.671     7.968
 606   8 O     -0.363  1.760  4.604  0.000    20.962     6.138
 607   6 C     -0.018  1.062  2.956  0.000    20.859     6.496
 608   6 C     -0.122  1.040  3.082  0.000    22.888     6.821
 609   6 C     -0.129  1.043  3.086  0.000    23.034     6.842
 610   1 H      0.231  0.769  0.000  0.000     0.963     1.537
 611   1 H      0.085  0.915  0.000  0.000     1.926     2.170
 612   1 H      0.052  0.948  0.000  0.000     2.299     2.371
 613   1 H      0.062  0.938  0.000  0.000     2.174     2.306
 614   1 H      0.034  0.966  0.000  0.000     2.535     2.490
 615   1 H      0.055  0.945  0.000  0.000     2.254     2.348
 616   1 H      0.066  0.934  0.000  0.000     2.126     2.280
 617   1 H      0.062  0.938  0.000  0.000     2.173     2.305
 618   1 H      0.053  0.947  0.000  0.000     2.278     2.360
 619   7 N     -0.403  1.317  4.086  0.000    30.450     8.195
 620   6 C      0.052  1.049  2.900  0.000    19.731     6.328
 621   6 C      0.199  1.097  2.704  0.000    23.755     7.982
 622   8 O     -0.379  1.748  4.630  0.000    21.257     6.181
 623   6 C     -0.114  1.042  3.072  0.000    22.728     6.796
 624   1 H      0.187  0.813  0.000  0.000     1.176     1.699
 625   1 H      0.032  0.968  0.000  0.000     2.563     2.504
 626   1 H      0.042  0.958  0.000  0.000     2.422     2.434
 627   1 H      0.062  0.938  0.000  0.000     2.172     2.305
 628   1 H      0.065  0.935  0.000  0.000     2.142     2.288
 629   7 N     -0.403  1.313  4.090  0.000    30.465     8.197
 630   6 C      0.046  1.053  2.901  0.000    19.821     6.342
 631   6 C      0.200  1.094  2.706  0.000    23.737     7.979
 632   8 O     -0.389  1.762  4.628  0.000    21.470     6.212
 633   6 C     -0.072  1.055  3.016  0.000    21.860     6.655
 634   6 C      0.023  1.083  2.895  0.000    27.497     8.601
 635   6 C     -0.044  1.082  2.962  0.000    29.083     8.844
 636   6 C     -0.035  1.077  2.958  0.000    28.859     8.810
 637   6 C     -0.037  1.081  2.957  0.000    28.922     8.819
 638   6 C     -0.039  1.080  2.959  0.000    28.976     8.828
 639   6 C     -0.041  1.077  2.964  0.000    29.013     8.833
 640   1 H      0.197  0.803  0.000  0.000     1.119     1.657
 641   1 H      0.038  0.962  0.000  0.000     2.470     2.458
 642   1 H      0.068  0.932  0.000  0.000     2.108     2.271
 643   1 H      0.053  0.947  0.000  0.000     2.286     2.365
 644   1 H      0.043  0.957  0.000  0.000     2.409     2.427
 645   1 H      0.033  0.967  0.000  0.000     2.545     2.495
 646   1 H      0.044  0.956  0.000  0.000     2.394     2.420
 647   1 H      0.036  0.964  0.000  0.000     2.498     2.471
 648   1 H      0.028  0.972  0.000  0.000     2.616     2.529
 649   1 H      0.174  0.826  0.000  0.000     1.247     1.749
 650   1 H      0.089  0.911  0.000  0.000     1.889     2.149
 651   1 H      0.181  0.819  0.000  0.000     1.205     1.720
 652   1 H      0.077  0.923  0.000  0.000     2.010     2.217
 653   1 H      0.158  0.842  0.000  0.000     1.350     1.820
 654   1 H      0.068  0.932  0.000  0.000     2.110     2.272
 655   1 H      0.177  0.823  0.000  0.000     1.233     1.739
 656   1 H      0.057  0.943  0.000  0.000     2.232     2.336
 657   1 H      0.187  0.813  0.000  0.000     1.175     1.698
 658   1 H      0.082  0.918  0.000  0.000     1.959     2.189
 659   1 H      0.182  0.818  0.000  0.000     1.204     1.719
 660   1 H      0.078  0.922  0.000  0.000     2.002     2.212
 661   1 H      0.180  0.820  0.000  0.000     1.215     1.726
 662   1 H      0.067  0.933  0.000  0.000     2.121     2.277
 663   1 H      0.159  0.841  0.000  0.000     1.341     1.814
 664   1 H      0.063  0.937  0.000  0.000     2.169     2.303
 665   1 H      0.196  0.804  0.000  0.000     1.129     1.664
 666   1 H      0.071  0.929  0.000  0.000     2.076     2.253
 667   1 H      0.181  0.819  0.000  0.000     1.206     1.720
 668   1 H      0.063  0.937  0.000  0.000     2.169     2.303
 669   1 H      0.178  0.822  0.000  0.000     1.225     1.733
 670   1 H      0.067  0.933  0.000  0.000     2.120     2.277
 671   1 H      0.183  0.817  0.000  0.000     1.197     1.714
 672   1 H      0.086  0.914  0.000  0.000     1.916     2.164
 673   1 H      0.172  0.828  0.000  0.000     1.259     1.757
 674   1 H      0.086  0.914  0.000  0.000     1.918     2.166
 675   1 H      0.181  0.819  0.000  0.000     1.210     1.723
 676   1 H      0.067  0.933  0.000  0.000     2.122     2.278
 677   1 H      0.173  0.827  0.000  0.000     1.252     1.753
 678   1 H      0.076  0.924  0.000  0.000     2.018     2.221
 679   1 H      0.172  0.828  0.000  0.000     1.263     1.760
 680   1 H      0.075  0.925  0.000  0.000     2.026     2.226

 Mol. C6AA /au·bohr⁶  :    3973797.459852
 Mol. C8AA /au·bohr⁸  :   87592933.224547
 Mol. α(0) /au        :       2983.774717

 
molecular dipole:
                 x           y           z       tot (Debye)
 q only:       -5.836      18.045     -13.978
   full:       -3.515      19.111     -18.812      68.745
molecular quadrupole (traceless):
                xx          xy          yy          xz          yz          zz
 q only:    -1463.400    1273.738    5413.545   -1871.720    -563.989   -3950.146
  q+dip:    -1074.225    1695.202    5705.809   -2232.924   -1157.453   -4631.584
   full:    -1071.872    1690.628    5713.969   -2228.867   -1157.423   -4642.097
speedup  1.00
cpu  time for grad   29.26 s
wall time for grad   29.27 s

SCC energy    :    -986.5147208
rep           :      12.5490495
ES            :       2.3092239
AES           :      -0.0432336
AXC           :       0.3747453
disp          :      -0.9243648
XB            :       0.0000000
fix           :       0.0000000
Gborn         :       0.0000000
Gsasa         :       0.0000000
Ghb           :       0.0000000
Gshift        :       0.0000000
Gsolv         :      -0.4359071     -273.54
Etot ala COSMO:    -986.5147208
grad norm     :       0.8875969
total E       :    -973.8672152
atomizationE  :     183.9461228   115427.93
(atE without considering molecular charge,
 total energy contains solvation terms)
H-L gap (eV)  :          1.2648

------------------------------------------------------------------------
 * finished run on 2019/03/14 at 15:08:50.991     
------------------------------------------------------------------------
 total:
 * wall-time:     0 d,  0 h,  0 min, 30.884 sec
 *  cpu-time:     0 d,  0 h,  0 min, 30.690 sec
 * ratio c/w:     0.994 speedup
 SCF:
 * wall-time:     0 d,  0 h,  0 min, 30.191 sec
 *  cpu-time:     0 d,  0 h,  0 min, 30.186 sec
 * ratio c/w:     1.000 speedup

