      -----------------------------------------------------------      
     |                   =====================                   |     
     |                           x T B                           |     
     |                   =====================                   |     
     |                         S. Grimme                         |     
     |          Mulliken Center for Theoretical Chemistry        |     
     |                    University of Bonn                     |     
     |                 Version 6.0.1 (SAW181210)                 |     
      -----------------------------------------------------------      

   This program is distributed in the hope that it will be useful,
   but WITHOUT ANY WARRANTY; without even the implied warranty of
   MERCHANTABILITY or FITNESS FOR A PARTICULAR PURPOSE.
   
   FOR NON-COMMERCIAL, ACADEMIA USE ONLY.
   
   Cite this work as:
   S. Grimme, C. Bannwarth, P. Shushkov, J. Comput. Theory Chem., 2017,
   13, 1989-2009.
   C. Bannwarth, S. Ehlert and S. Grimme., ChemRxiv, 2018, preprint.
   http://doi.org/10.26434/chemrxiv.7246238.v1
   
   for sTDA-xTB:
   S. Grimme and C. Bannwarth, J. Chem. Phys., 2016, 145, 054103.
   
   in the mass-spec context:
   V. Asgeirsson, C. Bauer and S. Grimme, Chem. Sci., 2017, 8, 4879.
   
   if GBSA is used:
   P. Shushkov, F. März and S. Grimme, unpublished.
   
   for ANC optimizer:
   S. Grimme, unpublished.
   Rational Function algorithm used in ANCopt:
   F. Eckert, P. Pulay, H.-J. Werner, J. Comput. Chem., 1997, 18, 1473.
   
   with help from (in alphabetical order)
   C. Bannwarth, F. Bohle, G. Brandenburg, E. Caldeweyher, M. Checinski,
   S. Dohm, S. Ehlert, S. Ehrlich, F. März, H. Neugebauer, J. Pisarek,
   P. Pracht, P. Shushkov, and S. Spicher.
   
 * started run on 2019/03/14 at 15:08:19.464     
========================================================================
 # omp threads = 1
========================================================================
number of atoms            : 473
number of electrons        : 1186
charge                     : 0
spin                       : .0
first test random number   : .3297
           ------------------------------------------------- 
          |                 G F N 2 - x T B                 |
          | Geometry, Frequencies, Noncovalent interactions |
          |            JCTC 2018 parametrisation            |
           ------------------------------------------------- 
 
      method parameters     
 k(s)        :  1.8500
 k(p)        :  2.2300
 k(d)        :  2.2300
 k(f)        :  2.0000
 kEN (H0ij)  : -2.0000
 D4 a1       :  0.5200
 D4 a2       :  5.0000
 D4 s6       :  1.0000
 D4 s8       :  2.7000
 D4 s9       :  5.0000
 alphaj      :  2.0000

 Solvent             : h2o
 Using internal parameter file: .param_gbsa2_h2o
 Gsolv ref. state (COSMO-RS): gsolv [1 M gas/solution]
 temperature (mdtemp)       :    298.150000000000     
 dielectric constant        :    80.2000000000000     
 rho                        :    1.00000000000000     
 mass                       :    18.0000000000000     
 surface tension            :    15.5689454083859     
 probe radius               :   0.975313790000000     
 vdW radii scaling          :    1.00000000000000     
 Gshift (Eh)                :   1.857443126794793E-003
 c1                         :    1.55243817000000     
 soset                      :   0.130326360000000     
 HB correction              :  T

            Z     q(EN)     CN     RAES       Cart. coordinates
     1  N   5.0   -0.22    3.21    1.96    54.01446   106.27028    66.18435
     2  C   4.0    0.03    4.33    4.26    52.20005   104.85461    64.71611
     3  C   4.0    0.07    3.26    3.04    51.61590   106.21033    62.25824
     4  O   6.0   -0.34    1.29    1.80    51.32717   104.93550    60.34051
     5  C   4.0   -0.03    4.34    4.28    49.78439   104.29971    66.22260
     6  C   4.0   -0.05    4.20    4.00    50.36129   102.40227    68.33093
     7  C   4.0   -0.07    4.15    3.91    47.72801   103.25474    64.49465
     8  C   4.0   -0.08    4.02    3.65    48.27168   102.32734    70.30697
     9  H   1.0    0.08    1.03    1.43    53.44023   106.90328    67.89950
    10  H   1.0    0.04    1.06    1.44    53.03457   103.03957    64.13916
    11  H   1.0    0.04    1.06    1.44    49.16417   106.08676    67.05130
    12  H   1.0    0.04    1.03    1.43    50.60581   100.53331    67.49459
    13  H   1.0    0.04    1.03    1.43    52.12253   102.93711    69.24847
    14  H   1.0    0.03    1.00    1.43    46.04038   102.82948    65.57797
    15  H   1.0    0.05    1.01    1.43    47.22829   104.59343    63.02178
    16  H   1.0    0.04    1.00    1.43    48.38572   101.52396    63.60218
    17  H   1.0    0.04    1.00    1.43    48.85009   101.18841    71.91328
    18  H   1.0    0.04    1.00    1.43    47.88832   104.23853    70.95404
    19  H   1.0    0.04    1.00    1.43    46.53847   101.53897    69.54152
    20  N   5.0   -0.20    3.25    1.97    56.78676   105.34076    57.78323
    21  C   4.0    0.03    4.39    4.36    56.63154   102.65804    57.30731
    22  C   4.0    0.15    3.49    3.11    54.43604   102.04485    55.52830
    23  O   6.0   -0.33    1.33    1.80    54.78121   100.56495    53.75282
    24  C   4.0   -0.02    4.37    4.33    56.32930   101.37398    59.89617
    25  C   4.0   -0.05    4.17    3.95    58.80557   101.01502    61.35798
    26  C   4.0   -0.08    4.20    4.00    54.95924    98.87646    59.65259
    27  C   4.0   -0.08    4.01    3.65    60.68903    99.17998    60.19113
    28  H   1.0    0.09    1.04    1.43    56.32621   105.81694    59.57918
    29  H   1.0    0.04    1.05    1.44    58.33488   101.97687    56.33835
    30  H   1.0    0.05    1.08    1.44    55.15987   102.65284    61.01076
    31  H   1.0    0.04    1.03    1.43    59.72935   102.83685    61.62070
    32  H   1.0    0.03    1.03    1.43    58.25492   100.30468    63.21811
    33  H   1.0    0.03    1.01    1.43    54.85930    97.98050    61.49579
    34  H   1.0    0.05    1.01    1.43    53.05573    99.13980    58.93269
    35  H   1.0    0.04    1.01    1.43    55.99802    97.67317    58.36194
    36  H   1.0    0.04    1.00    1.43    62.27683    98.95678    61.47363
    37  H   1.0    0.04    1.00    1.43    59.86689    97.32714    59.87770
    38  H   1.0    0.04    1.00    1.43    61.40468    99.88005    58.39935
    39  N   5.0   -0.15    3.49    2.07    52.21864   103.15691    55.87442
    40  C   4.0    0.04    4.44    4.45    50.21636   102.68250    54.07430
    41  C   4.0    0.08    3.28    3.05    50.80484   104.03121    51.60779
    42  O   6.0   -0.30    1.12    1.80    50.02005   103.21459    49.58714
    43  C   4.0   -0.02    4.34    4.27    47.56026   103.54280    54.88951
    44  C   4.0   -0.04    4.21    4.01    47.54189   106.30334    55.77465
    45  C   4.0   -0.08    4.11    3.81    46.50622   101.80871    56.92656
    46  C   4.0   -0.08    4.01    3.63    45.43041   107.88077    54.62454
    47  H   1.0    0.12    1.17    1.46    51.82890   104.16198    57.47162
    48  H   1.0    0.05    1.06    1.44    50.17628   100.65261    53.64573
    49  H   1.0    0.05    1.07    1.44    46.40591   103.36719    53.17930
    50  H   1.0    0.05    1.03    1.43    47.37125   106.33831    57.82841
    51  H   1.0    0.05    1.04    1.43    49.31836   107.18698    55.25382
    52  H   1.0    0.04    1.00    1.43    44.66257   102.48977    57.51815
    53  H   1.0    0.04    1.00    1.43    46.29768    99.88938    56.22831
    54  H   1.0    0.05    1.00    1.43    47.78909   101.82316    58.52884
    55  H   1.0    0.04    1.00    1.43    45.66412   109.85162    55.16284
    56  H   1.0    0.05    1.00    1.43    45.51332   107.74942    52.57704
    57  H   1.0    0.04    1.00    1.43    43.58454   107.24270    55.25364
    58  N   5.0   -0.19    3.24    1.97    54.54425    99.60141    48.67462
    59  C   4.0    0.03    4.32    4.23    53.09638    97.67577    47.36868
    60  C   4.0    0.08    3.25    3.04    51.98656    98.66381    44.91359
    61  O   6.0   -0.30    1.12    1.80    51.89723    97.32390    43.01261
    62  C   4.0   -0.02    4.28    4.17    50.99040    96.71571    49.10777
    63  C   4.0   -0.07    4.13    3.87    48.97642    95.20864    47.70258
    64  C   4.0   -0.08    4.14    3.89    52.17542    95.11031    51.17470
    65  H   1.0    0.12    1.08    1.44    54.28455    99.81514    50.56067
    66  H   1.0    0.04    1.05    1.44    54.40319    96.15768    46.80911
    67  H   1.0    0.06    1.06    1.44    50.07814    98.38074    49.93144
    68  H   1.0    0.05    1.00    1.43    47.48332    94.70110    49.01760
    69  H   1.0    0.06    1.01    1.43    48.16351    96.27785    46.14888
    70  H   1.0    0.04    1.00    1.43    49.77804    93.48892    46.92261
    71  H   1.0    0.04    1.01    1.43    50.72272    94.35397    52.40076
    72  H   1.0    0.03    1.00    1.43    53.19051    93.53898    50.32760
    73  H   1.0    0.05    1.00    1.43    53.50020    96.20973    52.28995
    74  N   5.0   -0.22    3.24    1.97    48.81051    90.97949    89.17522
    75  C   4.0    0.03    4.33    4.25    50.07602    89.38830    87.35386
    76  C   4.0    0.14    3.44    3.09    48.24506    88.45033    85.33501
    77  O   6.0   -0.32    1.41    1.80    48.98176    88.30860    83.15482
    78  C   4.0   -0.04    4.32    4.24    51.41353    87.15624    88.64322
    79  C   4.0   -0.02    3.58    3.15    53.31782    88.11076    90.52421
    80  C   4.0   -0.05    3.48    3.11    52.64455    88.43033    93.04614
    81  C   4.0   -0.05    3.46    3.10    55.74786    88.75399    89.76722
    82  C   4.0   -0.04    3.43    3.09    54.36259    89.33541    94.78973
    83  C   4.0   -0.05    3.43    3.09    57.49246    89.64073    91.49743
    84  C   4.0    0.07    3.45    3.09    56.81246    89.91754    94.02373
    85  O   6.0   -0.24    2.12    1.84    58.47373    90.72548    95.80449
    86  H   1.0    0.08    1.05    1.44    49.42787    90.82767    90.98139
    87  H   1.0    0.04    1.06    1.44    51.50656    90.49112    86.32573
    88  H   1.0    0.04    1.03    1.43    50.02453    85.95151    89.56903
    89  H   1.0    0.04    1.03    1.43    52.34886    86.06418    87.16651
    90  H   1.0    0.05    1.03    1.43    50.78611    87.86146    93.67470
    91  H   1.0    0.05    1.03    1.43    56.30327    88.51157    87.81751
    92  H   1.0    0.06    1.03    1.43    53.87102    89.56096    96.75469
    93  H   1.0    0.05    1.03    1.43    59.39371    90.08918    90.89398
    94  H   1.0    0.12    1.04    1.43    60.13805    90.89802    95.07671
    95  N   5.0   -0.15    3.44    2.04    45.90357    87.72134    85.98769
    96  C   4.0    0.03    4.49    4.53    44.15891    86.89817    84.01616
    97  C   4.0    0.16    3.57    3.15    44.01067    88.81673    81.88262
    98  O   6.0   -0.33    1.35    1.80    43.84967    88.09239    79.68425
    99  C   4.0   -0.03    4.33    4.26    41.47113    86.36137    85.00664
   100  C   4.0   -0.05    4.19    3.98    39.87653    84.94451    83.04053
   101  C   4.0   -0.08    4.16    3.92    40.11662    88.77336    85.80924
   102  C   4.0   -0.08    4.03    3.67    37.39397    84.01319    84.17029
   103  H   1.0    0.07    1.06    1.44    45.23879    88.01747    87.75247
   104  H   1.0    0.05    1.05    1.44    44.90449    85.16344    83.14075
   105  H   1.0    0.04    1.06    1.44    41.67726    85.10198    86.62742
   106  H   1.0    0.05    1.02    1.43    39.47682    86.16920    81.42802
   107  H   1.0    0.04    1.03    1.43    40.93279    83.31810    82.33818
   108  H   1.0    0.03    1.00    1.43    38.56696    88.31744    87.06930
   109  H   1.0    0.04    1.00    1.43    41.34887    90.06921    86.80798
   110  H   1.0    0.04    1.00    1.43    39.34998    89.74910    84.17308
   111  H   1.0    0.04    1.00    1.43    36.33034    82.96627    82.76240
   112  H   1.0    0.04    1.00    1.43    37.76643    82.74800    85.74296
   113  H   1.0    0.04    1.00    1.43    36.23403    85.57520    84.82295
   114  N   5.0   -0.15    3.56    2.13    43.90505    91.26496    82.48075
   115  C   4.0    0.03    4.54    4.59    43.85483    93.14081    80.47941
   116  C   4.0    0.16    3.47    3.10    46.24044    92.78942    78.87176
   117  O   6.0   -0.33    1.27    1.80    46.21741    92.82148    76.55892
   118  C   4.0   -0.03    4.32    4.23    43.53952    95.80621    81.59843
   119  C   4.0   -0.05    4.20    4.00    41.03303    95.93888    83.05566
   120  C   4.0   -0.07    4.13    3.86    43.59317    97.74850    79.47146
   121  C   4.0   -0.08    4.01    3.64    40.77114    98.32883    84.64001
   122  H   1.0    0.07    1.07    1.44    44.36666    91.91558    84.21983
   123  H   1.0    0.05    1.06    1.44    42.25117    92.73502    79.22758
   124  H   1.0    0.04    1.05    1.44    45.11072    96.16996    82.89461
   125  H   1.0    0.04    1.03    1.43    39.48547    95.83672    81.69665
   126  H   1.0    0.04    1.03    1.43    40.88132    94.31399    84.31306
   127  H   1.0    0.04    1.00    1.43    43.41140    99.65874    80.19855
   128  H   1.0    0.05    1.00    1.43    45.35788    97.63084    78.42738
   129  H   1.0    0.04    1.00    1.43    42.04470    97.39026    78.16876
   130  H   1.0    0.04    1.00    1.43    39.05415    98.24393    85.76510
   131  H   1.0    0.04    1.00    1.43    42.38005    98.51091    85.90298
   132  H   1.0    0.04    1.00    1.43    40.68103   100.00213    83.45610
   133  N   5.0   -0.12    3.57    2.13    48.31795    92.29608    80.22282
   134  C   4.0    0.05    4.42    4.42    50.76612    91.88627    79.09766
   135  C   4.0    0.15    3.39    3.08    51.36248    89.13271    78.28768
   136  O   6.0   -0.32    1.25    1.80    53.51711    88.64717    77.61030
   137  C   4.0   -0.03    4.35    4.29    52.86242    92.66873    80.92609
   138  C   4.0    0.15    3.24    3.04    52.49630    95.36941    81.82892
   139  O   6.0   -0.30    1.21    1.80    51.62784    97.02613    80.48680
   140  N   5.0   -0.19    3.18    1.95    53.16682    95.76682    84.24615
   141  H   1.0    0.09    1.09    1.44    48.22582    92.44034    82.12682
   142  H   1.0    0.06    1.05    1.44    50.84776    93.10942    77.41590
   143  H   1.0    0.05    1.03    1.43    52.88528    91.32975    82.48946
   144  H   1.0    0.06    1.03    1.43    54.66006    92.51985    79.92078
   145  H   1.0    0.09    1.03    1.43    53.07743    97.53882    84.94215
   146  H   1.0    0.08    1.03    1.43    54.02190    94.41005    85.26319
   147  N   5.0   -0.13    3.52    2.09    49.46227    87.45840    78.33174
   148  C   4.0    0.03    4.49    4.52    49.66526    84.84223    77.49942
   149  C   4.0    0.14    3.49    3.11    47.80522    84.35899    75.32396
   150  O   6.0   -0.32    1.23    1.80    48.25357    82.84760    73.62198
   151  C   4.0   -0.02    4.32    4.23    49.24405    82.84760    79.58443
   152  C   4.0   -0.04    4.19    3.98    51.27452    83.08502    81.63234
   153  C   4.0   -0.07    4.16    3.91    49.30034    80.21260    78.40217
   154  C   4.0   -0.08    4.01    3.64    50.66199    81.56047    83.99678
   155  H   1.0    0.12    1.12    1.45    48.03397    87.89543    79.52350
   156  H   1.0    0.05    1.07    1.44    51.56552    84.58483    76.73157
   157  H   1.0    0.04    1.05    1.44    47.37744    83.20032    80.40787
   158  H   1.0    0.04    1.03    1.43    53.07631    82.45190    80.85393
   159  H   1.0    0.06    1.04    1.43    51.46192    85.07248    82.13798
   160  H   1.0    0.04    1.00    1.43    48.99367    78.76081    79.81582
   161  H   1.0    0.06    1.01    1.43    47.86145    80.00566    76.95414
   162  H   1.0    0.04    1.00    1.43    51.13090    79.88520    77.52645
   163  H   1.0    0.04    1.00    1.43    52.13826    81.80986    85.40348
   164  H   1.0    0.04    1.00    1.43    48.87478    82.17311    84.80500
   165  H   1.0    0.04    1.00    1.43    50.53324    79.55849    83.56571
   166  N   5.0   -0.14    3.54    2.11    45.73294    85.79642    75.41593
   167  C   4.0    0.03    4.45    4.46    44.00130    86.10613    73.32137
   168  C   4.0    0.15    3.44    3.09    45.32913    87.71205    71.30741
   169  O   6.0   -0.33    1.37    1.80    45.43462    86.89806    69.13418
   170  C   4.0   -0.02    4.32    4.23    41.41279    87.07026    74.25276
   171  C   4.0   -0.05    4.17    3.94    39.20486    86.05796    72.66725
   172  C   4.0   -0.07    4.14    3.89    41.26906    89.94074    74.38640
   173  C   4.0   -0.08    4.02    3.66    36.76803    86.01904    74.20779
   174  H   1.0    0.11    1.14    1.45    45.31227    86.73958    77.02570
   175  H   1.0    0.05    1.06    1.44    43.73367    84.25281    72.42335
   176  H   1.0    0.05    1.07    1.44    41.20697    86.32598    76.17173
   177  H   1.0    0.04    1.03    1.43    38.95525    87.24480    70.99891
   178  H   1.0    0.04    1.03    1.43    39.60736    84.14141    72.02231
   179  H   1.0    0.04    1.00    1.43    39.46960    90.48448    75.20807
   180  H   1.0    0.07    1.01    1.43    42.76684    90.68822    75.56261
   181  H   1.0    0.04    1.00    1.43    41.39966    90.77170    72.51214
   182  H   1.0    0.04    1.00    1.43    35.17391    85.46012    73.04161
   183  H   1.0    0.04    1.00    1.43    36.93798    84.68115    75.75795
   184  H   1.0    0.04    1.00    1.43    36.36375    87.87369    74.98921
   185  N   5.0   -0.15    3.47    2.06    46.52581    89.82388    71.98483
   186  C   4.0    0.03    4.34    4.27    47.93442    91.36562    70.18315
   187  C   4.0    0.15    3.54    3.13    49.74836    89.81483    68.54217
   188  O   6.0   -0.33    1.32    1.80    49.60884    89.98541    66.22670
   189  C   4.0   -0.07    4.11    3.82    49.28073    93.52079    71.53526
   190  H   1.0    0.10    1.10    1.44    46.32720    90.59004    73.73208
   191  H   1.0    0.04    1.06    1.44    46.62117    92.21761    68.81926
   192  H   1.0    0.04    1.00    1.43    50.04305    94.82503    70.14712
   193  H   1.0    0.06    1.01    1.43    47.92585    94.51444    72.71569
   194  H   1.0    0.05    1.00    1.43    50.80958    92.83648    72.71787
   195  N   5.0   -0.10    3.67    2.23    51.54132    88.39464    69.62090
   196  C   4.0    0.03    4.61    4.67    53.18316    86.89083    68.01766
   197  C   4.0    0.16    3.50    3.11    51.65279    84.96693    66.55663
   198  O   6.0   -0.34    1.42    1.80    52.27754    84.42396    64.39756
   199  C   4.0   -0.05    4.30    4.21    55.06376    85.55686    69.76665
   200  C   4.0   -0.04    4.24    4.08    53.78719    85.60041    72.35885
   201  C   4.0   -0.00    4.38    4.35    51.73454    87.64002    72.24311
   202  H   1.0    0.05    1.05    1.44    54.15810    88.05116    66.60577
   203  H   1.0    0.04    1.03    1.43    55.40305    83.63268    69.11433
   204  H   1.0    0.04    1.02    1.43    56.87098    86.54008    69.78690
   205  H   1.0    0.05    1.02    1.43    52.91921    83.77557    72.75232
   206  H   1.0    0.05    1.02    1.43    55.12458    86.05874    73.84865
   207  H   1.0    0.06    1.07    1.44    49.93946    86.88802    72.90827
   208  H   1.0    0.05    1.03    1.43    52.20887    89.23932    73.44554
   209  N   5.0   -0.14    3.50    2.08    49.68850    83.84252    67.67328
   210  C   4.0    0.04    4.50    4.53    48.32185    81.90985    66.30014
   211  C   4.0    0.15    3.44    3.09    46.64464    82.99074    64.19010
   212  O   6.0   -0.34    1.35    1.80    46.19196    81.64628    62.33904
   213  C   4.0   -0.03    4.08    3.77    46.96076    80.14752    68.13300
   214  S   6.0   -0.07    2.30    3.10    45.73405    77.30304    66.59514
   215  H   1.0    0.10    1.07    1.44    49.18897    84.17220    69.48281
   216  H   1.0    0.05    1.08    1.44    49.73058    80.78009    65.27336
   217  H   1.0    0.05    1.07    1.44    48.32839    79.46994    69.52144
   218  H   1.0    0.05    1.06    1.44    45.42366    81.08029    69.13233
   219  H   1.0    0.06    0.99    1.43    44.64909    78.42511    64.62303
   220  N   5.0   -0.14    3.54    2.10    45.88255    85.37315    64.34981
   221  C   4.0    0.03    4.49    4.53    44.46726    86.56936    62.32319
   222  C   4.0    0.15    3.45    3.09    46.32049    87.52449    60.33061
   223  O   6.0   -0.33    1.31    1.80    45.79988    87.52458    58.05759
   224  C   4.0   -0.02    4.24    4.08    42.67432    88.71216    63.18757
   225  C   4.0   -0.07    4.11    3.82    40.60639    87.66252    64.90102
   226  C   4.0   -0.07    4.13    3.86    44.08560    90.82490    64.53768
   227  H   1.0    0.12    1.13    1.45    46.11000    86.30901    66.00664
   228  H   1.0    0.06    1.06    1.44    43.31600    85.10376    61.41290
   229  H   1.0    0.04    1.05    1.44    41.79549    89.45527    61.46666
   230  H   1.0    0.04    1.00    1.43    39.44551    89.19975    65.61485
   231  H   1.0    0.04    1.00    1.43    39.39717    86.36781    63.86411
   232  H   1.0    0.05    1.00    1.43    41.45274    86.68927    66.49971
   233  H   1.0    0.04    1.00    1.43    42.79845    92.32098    65.10794
   234  H   1.0    0.07    1.02    1.43    44.95103    90.06059    66.22619
   235  H   1.0    0.05    1.00    1.43    45.54083    91.63870    63.34360
   236  N   5.0   -0.14    3.55    2.11    48.55466    88.26912    61.20048
   237  C   4.0    0.04    4.47    4.50    50.47171    89.22267    59.49826
   238  C   4.0    0.15    3.44    3.09    51.85998    87.07675    58.18424
   239  O   6.0   -0.34    1.36    1.80    52.53542    87.33133    55.97229
   240  C   4.0   -0.05    4.34    4.27    52.28291    90.93148    60.94188
   241  C   4.0   -0.03    4.18    3.96    53.62162    92.94503    59.33169
   242  C   4.0   -0.08    4.10    3.80    56.26685    92.13145    58.52393
   243  C   4.0   -0.08    4.15    3.91    52.13128    93.79499    57.01669
   244  H   1.0    0.11    1.11    1.45    48.83431    88.49460    63.08838
   245  H   1.0    0.05    1.08    1.44    49.53667    90.29726    57.99823
   246  H   1.0    0.05    1.04    1.43    51.15362    91.87817    62.38017
   247  H   1.0    0.05    1.03    1.43    53.67301    89.74524    61.89647
   248  H   1.0    0.03    1.08    1.44    53.81879    94.58425    60.54987
   249  H   1.0    0.04    1.00    1.43    57.01721    93.50886    57.19576
   250  H   1.0    0.04    1.00    1.43    57.52672    92.03042    60.14392
   251  H   1.0    0.05    1.00    1.43    56.21820    90.30345    57.59395
   252  H   1.0    0.04    1.01    1.43    52.95603    95.51322    56.26316
   253  H   1.0    0.05    1.00    1.43    52.23049    92.38125    55.53395
   254  H   1.0    0.04    1.00    1.43    50.16789    94.20782    57.45899
   255  N   5.0   -0.15    3.56    2.12    52.23646    85.00449    59.54193
   256  C   4.0    0.03    4.49    4.52    53.18710    82.65483    58.49121
   257  C   4.0    0.15    3.57    3.15    51.16560    81.67573    56.70978
   258  O   6.0   -0.33    1.38    1.80    51.67091    80.77838    54.64073
   259  C   4.0   -0.02    4.31    4.22    53.92614    80.69250    60.53280
   260  C   4.0   -0.06    4.17    3.95    56.25853    79.16354    59.72729
   261  C   4.0   -0.07    4.15    3.91    51.75831    78.91731    61.25177
   262  C   4.0   -0.08    4.04    3.69    55.87028    77.71338    57.27515
   263  H   1.0    0.12    1.18    1.46    51.94579    85.03362    61.43729
   264  H   1.0    0.05    1.07    1.44    54.84304    83.09287    57.33481
   265  H   1.0    0.06    1.07    1.44    54.44636    81.76314    62.22046
   266  H   1.0    0.03    1.02    1.43    57.87431    80.42893    59.52574
   267  H   1.0    0.03    1.03    1.43    56.68161    77.82301    61.23480
   268  H   1.0    0.04    1.00    1.43    52.28598    77.80410    62.89775
   269  H   1.0    0.06    1.02    1.43    50.05237    79.96088    61.68212
   270  H   1.0    0.04    1.00    1.43    51.27431    77.61265    59.74237
   271  H   1.0    0.03    1.00    1.43    57.40829    76.40077    56.92337
   272  H   1.0    0.04    1.00    1.43    54.13579    76.62290    57.35345
   273  H   1.0    0.05    1.00    1.43    55.74132    79.00652    55.68718
   274  N   5.0   -0.14    3.56    2.12    48.77321    81.91477    57.49735
   275  C   4.0    0.04    4.44    4.45    46.82059    81.23996    55.72073
   276  C   4.0    0.16    3.59    3.16    47.20448    82.84487    53.37589
   277  O   6.0   -0.33    1.43    1.80    47.06635    81.92911    51.27295
   278  C   4.0    0.03    4.17    3.94    44.12365    81.63698    56.67572
   279  O   6.0   -0.27    2.06    1.83    43.33946    79.79567    58.39687
   280  H   1.0    0.10    1.08    1.44    48.29656    82.65286    59.18883
   281  H   1.0    0.05    1.06    1.44    47.06872    79.25397    55.16926
   282  H   1.0    0.06    1.02    1.43    43.96897    83.53163    57.48931
   283  H   1.0    0.04    1.02    1.43    42.88292    81.50838    55.02617
   284  H   1.0    0.15    1.07    1.44    44.31068    80.03694    59.93587
   285  N   5.0   -0.13    3.54    2.11    47.71100    85.29145    53.73146
   286  C   4.0    0.04    4.43    4.43    48.23750    86.77697    51.50019
   287  C   4.0    0.16    3.53    3.13    50.49602    85.62229    50.11497
   288  O   6.0   -0.33    1.43    1.80    50.38683    85.33859    47.82786
   289  C   4.0    0.03    4.15    3.91    48.72004    89.55188    52.12618
   290  O   6.0   -0.26    2.04    1.83    46.59117    90.78449    53.12252
   291  H   1.0    0.11    1.11    1.44    47.42358    86.16589    55.41700
   292  H   1.0    0.05    1.06    1.44    46.63846    86.66345    50.17901
   293  H   1.0    0.05    1.03    1.43    50.32081    89.66841    53.43048
   294  H   1.0    0.04    1.02    1.43    49.20165    90.53834    50.37895
   295  H   1.0    0.14    1.03    1.43    45.97856    89.85888    54.57867
   296  N   5.0   -0.13    3.50    2.07    52.53423    84.99588    51.45475
   297  C   4.0    0.04    4.45    4.46    54.76300    84.11518    50.11817
   298  C   4.0    0.16    3.51    3.12    54.25886    81.72652    48.59714
   299  O   6.0   -0.30    1.24    1.80    55.39518    81.44392    46.58720
   300  C   4.0   -0.05    4.38    4.35    57.05781    83.43650    51.74816
   301  C   4.0   -0.02    4.19    3.99    57.70049    85.33818    53.81635
   302  C   4.0   -0.08    4.11    3.82    59.80885    84.25431    55.45953
   303  C   4.0   -0.08    4.10    3.81    58.45218    87.90497    52.75191
   304  H   1.0    0.12    1.13    1.45    52.70335    85.61984    53.26840
   305  H   1.0    0.05    1.06    1.44    55.34446    85.57723    48.76628
   306  H   1.0    0.04    1.03    1.43    56.74692    81.58309    52.60004
   307  H   1.0    0.04    1.03    1.43    58.65116    83.26317    50.44547
   308  H   1.0    0.06    1.08    1.44    56.02457    85.61074    54.97599
   309  H   1.0    0.04    1.00    1.43    59.92337    85.24662    57.25438
   310  H   1.0    0.03    1.00    1.43    59.49814    82.25588    55.82362
   311  H   1.0    0.04    1.00    1.43    61.60341    84.44503    54.48305
   312  H   1.0    0.04    1.00    1.43    58.79128    89.21210    54.29739
   313  H   1.0    0.04    1.00    1.43    60.17749    87.76153    51.64785
   314  H   1.0    0.04    1.00    1.43    56.96604    88.66733    51.55830
   315  N   5.0   -0.14    3.51    2.08    52.78386    79.96709    49.61360
   316  C   4.0    0.04    4.51    4.55    52.15625    77.70286    48.20086
   317  C   4.0    0.15    3.52    3.12    50.14413    78.35688    46.25864
   318  O   6.0   -0.27    1.30    1.80    50.39159    77.71005    44.04038
   319  C   4.0   -0.02    4.24    4.09    51.42338    75.39134    49.81367
   320  C   4.0   -0.07    4.12    3.85    53.68902    74.60369    51.40604
   321  C   4.0   -0.07    4.11    3.82    49.11565    75.83987    51.47527
   322  H   1.0    0.12    1.12    1.45    52.06828    80.21693    51.37294
   323  H   1.0    0.07    1.07    1.44    53.81169    77.17749    47.07367
   324  H   1.0    0.05    1.06    1.44    51.01510    73.87465    48.47165
   325  H   1.0    0.04    1.00    1.43    53.20524    73.07936    52.69031
   326  H   1.0    0.05    1.00    1.43    55.18655    73.91001    50.19402
   327  H   1.0    0.04    1.01    1.43    54.36477    76.19544    52.50209
   328  H   1.0    0.04    1.00    1.43    48.76144    74.18693    52.64155
   329  H   1.0    0.06    1.01    1.43    49.46773    77.43176    52.71415
   330  H   1.0    0.05    1.00    1.43    47.43521    76.19957    50.35305
   331  N   5.0   -0.14    3.54    2.11    48.15563    79.67421    47.01784
   332  C   4.0    0.04    4.53    4.58    46.29179    80.44280    45.17109
   333  C   4.0    0.17    3.55    3.14    47.65303    81.63802    42.92970
   334  O   6.0   -0.27    1.22    1.80    46.91905    81.16799    40.77549
   335  C   4.0   -0.02    4.25    4.10    44.20025    82.14918    46.27214
   336  C   4.0   -0.07    4.15    3.90    44.53967    84.92934    45.58827
   337  C   4.0   -0.08    4.12    3.83    41.63920    81.20970    45.34216
   338  H   1.0    0.12    1.16    1.45    47.94390    80.24784    48.82973
   339  H   1.0    0.06    1.07    1.44    45.38981    78.72886    44.41403
   340  H   1.0    0.06    1.07    1.44    44.27444    81.97827    48.32604
   341  H   1.0    0.04    1.00    1.43    43.06189    86.02691    46.49764
   342  H   1.0    0.06    1.01    1.43    46.36654    85.62308    46.20885
   343  H   1.0    0.05    1.00    1.43    44.38662    85.18752    43.55574
   344  H   1.0    0.04    1.00    1.43    40.13484    82.46635    45.95111
   345  H   1.0    0.05    1.00    1.43    41.61923    81.14518    43.29178
   346  H   1.0    0.04    1.00    1.43    41.26489    79.32103    46.05257
   347  N   5.0   -0.13    3.55    2.11    49.58081    83.15617    43.44741
   348  C   4.0    0.04    4.30    4.21    51.32099    84.19988    41.60748
   349  C   4.0    0.11    3.24    3.04    52.71717    81.99967    40.36648
   350  O   6.0   -0.26    1.12    1.80    52.46174    81.61680    38.09228
   351  C   4.0   -0.04    4.36    4.30    53.19415    86.02057    42.83338
   352  C   4.0   -0.02    4.19    3.97    52.02530    88.57604    43.58154
   353  C   4.0   -0.07    4.12    3.85    53.36350    89.62931    45.91857
   354  C   4.0   -0.07    4.12    3.83    52.30188    90.46423    41.43082
   355  H   1.0    0.12    1.17    1.46    49.92794    83.62809    45.27143
   356  H   1.0    0.06    1.05    1.44    50.27052    85.19236    40.11199
   357  H   1.0    0.07    1.04    1.43    54.00316    85.09942    44.48237
   358  H   1.0    0.05    1.03    1.43    54.72741    86.34518    41.48645
   359  H   1.0    0.05    1.05    1.44    50.03221    88.27187    44.02593
   360  H   1.0    0.04    1.00    1.43    53.20347    91.67436    46.06987
   361  H   1.0    0.05    1.03    1.43    52.55264    88.82236    47.60989
   362  H   1.0    0.04    1.01    1.43    55.34816    89.12864    45.79881
   363  H   1.0    0.06    1.00    1.43    51.70478    92.31905    42.07289
   364  H   1.0    0.05    1.00    1.43    54.28564    90.56086    40.90695
   365  H   1.0    0.05    1.00    1.43    51.21316    89.93387    39.77284
   366  N   5.0   -0.21    3.22    1.96    67.27167    77.67421    55.74907
   367  C   4.0    0.03    4.22    4.04    65.04480    77.07230    57.20463
   368  C   4.0    0.08    3.21    3.04    65.71983    75.00501    59.11887
   369  O   6.0   -0.33    1.18    1.80    64.90757    75.09932    61.28542
   370  C   4.0   -0.06    4.23    4.07    62.82348    76.43589    55.44525
   371  C   4.0   -0.03    4.24    4.09    62.98553    73.75312    54.42888
   372  C   4.0    0.15    3.20    3.04    61.39842    72.96526    52.19320
   373  O   6.0   -0.28    1.21    1.80    61.41730    70.75001    51.53536
   374  N   5.0   -0.19    3.19    1.95    60.18493    74.73275    50.83846
   375  H   1.0    0.08    1.02    1.43    67.21138    77.44394    53.84284
   376  H   1.0    0.04    1.05    1.44    64.53687    78.73098    58.35083
   377  H   1.0    0.04    1.03    1.43    61.08728    76.71795    56.51061
   378  H   1.0    0.04    1.03    1.43    62.90433    77.78430    53.88589
   379  H   1.0    0.05    1.04    1.43    64.91278    73.43676    53.76960
   380  H   1.0    0.05    1.03    1.43    62.64395    72.36527    55.91594
   381  H   1.0    0.08    1.03    1.43    59.88396    76.47745    51.50666
   382  H   1.0    0.10    1.03    1.43    59.12607    74.12559    49.36844
   383  N   5.0   -0.21    3.22    1.96    65.38802    75.17117    66.66980
   384  C   4.0    0.03    4.22    4.05    63.82486    73.46608    68.12144
   385  C   4.0    0.08    3.20    3.04    65.42326    71.93860    69.97184
   386  O   6.0   -0.29    1.11    1.80    64.60292    71.36758    72.07109
   387  C   4.0   -0.04    4.34    4.26    62.23064    71.74046    66.44050
   388  C   4.0   -0.02    4.20    3.99    60.45984    73.13954    64.62396
   389  C   4.0   -0.08    4.13    3.87    59.03869    71.20349    63.03893
   390  C   4.0   -0.08    4.11    3.83    58.56105    74.83461    65.95977
   391  H   1.0    0.11    1.06    1.44    65.52960    74.91030    64.77767
   392  H   1.0    0.05    1.06    1.44    62.57051    74.60681    69.31090
   393  H   1.0    0.05    1.03    1.43    63.48633    70.54546    65.32054
   394  H   1.0    0.05    1.03    1.43    61.09590    70.52640    67.66354
   395  H   1.0    0.06    1.07    1.44    61.59319    74.29091    63.34546
   396  H   1.0    0.03    1.01    1.43    57.74617    72.17396    61.77989
   397  H   1.0    0.04    1.00    1.43    60.35431    70.10038    61.91010
   398  H   1.0    0.04    1.00    1.43    57.95797    69.92176    64.22943
   399  H   1.0    0.03    1.00    1.43    57.26822    75.61895    64.57099
   400  H   1.0    0.04    1.00    1.43    57.46589    73.74684    67.31112
   401  H   1.0    0.04    1.00    1.43    59.49227    76.38837    66.91777
   402  N   5.0   -0.21    3.21    1.96    45.10300    63.12846    69.04039
   403  C   4.0    0.03    4.31    4.22    44.90437    65.00142    67.04892
   404  C   4.0    0.08    3.26    3.05    47.54924    65.38162    65.98102
   405  O   6.0   -0.33    1.23    1.80    47.96929    65.21129    63.71249
   406  C   4.0   -0.03    4.25    4.10    43.72637    67.50565    67.90951
   407  C   4.0   -0.07    4.14    3.89    43.95835    69.45408    65.79404
   408  C   4.0   -0.08    4.11    3.82    40.94907    67.17327    68.60194
   409  H   1.0    0.08    1.02    1.43    44.67181    63.64465    70.83726
   410  H   1.0    0.05    1.05    1.44    43.76839    64.19448    65.50659
   411  H   1.0    0.04    1.05    1.44    44.76477    68.16197    69.57132
   412  H   1.0    0.04    1.00    1.43    43.12230    71.23893    66.36687
   413  H   1.0    0.04    1.01    1.43    45.92117    69.79143    65.30319
   414  H   1.0    0.04    1.00    1.43    42.97404    68.79370    64.11607
   415  H   1.0    0.04    1.00    1.43    40.12547    69.00907    69.01144
   416  H   1.0    0.04    1.00    1.43    39.90426    66.34049    67.04006
   417  H   1.0    0.04    1.00    1.43    40.75404    65.98208    70.25733
   418  N   5.0   -0.21    3.25    1.97    49.26042    64.41734    58.92288
   419  C   4.0    0.03    4.30    4.19    50.29950    66.35671    57.28980
   420  C   4.0    0.08    3.29    3.05    52.75952    65.22414    56.29227
   421  O   6.0   -0.28    1.12    1.80    53.18565    65.30718    54.00689
   422  C   4.0   -0.02    4.29    4.19    50.56346    69.04750    58.39216
   423  C   4.0   -0.05    4.18    3.96    52.93051    69.38190    60.01964
   424  C   4.0   -0.08    4.11    3.82    48.15281    69.81028    59.78099
   425  C   4.0   -0.08    4.05    3.71    55.27368    69.75446    58.37287
   426  H   1.0    0.12    1.09    1.44    49.27256    64.65014    60.82310
   427  H   1.0    0.05    1.06    1.44    49.06436    66.52205    55.62740
   428  H   1.0    0.04    1.06    1.44    50.77532    70.28941    56.74381
   429  H   1.0    0.03    1.03    1.43    52.68766    71.03843    61.22177
   430  H   1.0    0.04    1.03    1.43    53.17101    67.75426    61.24969
   431  H   1.0    0.04    1.00    1.43    48.32488    71.72419    60.50582
   432  H   1.0    0.04    1.00    1.43    46.54056    69.73811    58.51291
   433  H   1.0    0.06    1.02    1.43    47.80195    68.55025    61.35571
   434  H   1.0    0.04    1.00    1.43    56.95663    69.03246    59.28581
   435  H   1.0    0.06    1.03    1.43    55.08786    68.78161    56.58193
   436  H   1.0    0.04    1.00    1.43    55.54425    71.73991    57.93418
   437  N   5.0   -0.21    3.19    1.95    35.90921    68.74122    52.31527
   438  C   4.0    0.03    4.24    4.07    36.50801    70.58930    54.25856
   439  C   4.0    0.08    3.23    3.04    34.11039    71.71570    55.36837
   440  O   6.0   -0.29    1.11    1.80    33.86956    72.09563    57.64569
   441  C   4.0   -0.05    4.37    4.32    38.16840    72.69278    53.19421
   442  C   4.0   -0.02    4.20    3.99    39.21842    74.43173    55.24704
   443  C   4.0   -0.08    4.11    3.82    41.03319    73.03691    57.00724
   444  C   4.0   -0.08    4.12    3.84    40.57164    76.64399    53.99199
   445  H   1.0    0.08    1.03    1.43    36.71927    69.09218    50.60016
   446  H   1.0    0.05    1.06    1.44    37.51710    69.65386    55.80068
   447  H   1.0    0.04    1.03    1.43    39.74695    71.83979    52.18136
   448  H   1.0    0.04    1.03    1.43    37.06893    73.79787    51.84556
   449  H   1.0    0.05    1.06    1.44    37.64962    75.17589    56.37101
   450  H   1.0    0.05    1.01    1.43    42.12187    74.42101    58.05668
   451  H   1.0    0.04    1.00    1.43    40.02863    71.86736    58.36237
   452  H   1.0    0.04    1.00    1.43    42.32368    71.84578    55.93649
   453  H   1.0    0.05    1.02    1.43    41.35998    77.85336    55.43735
   454  H   1.0    0.04    1.00    1.43    42.10342    75.96822    52.80155
   455  H   1.0    0.04    1.00    1.43    39.27193    77.74604    52.84317
   456  H   1.0    0.09    1.07    1.44    55.37876   105.30131    66.48821
   457  H   1.0    0.05    1.04    1.43    51.47512   108.09457    62.22884
   458  H   1.0    0.09    1.07    1.44    58.37647   105.87610    57.50254
   459  H   1.0    0.06    1.05    1.44    51.84591   105.60827    51.61829
   460  H   1.0    0.10    1.07    1.44    56.20507    99.28037    48.49801
   461  H   1.0    0.07    1.05    1.44    51.31381   100.42740    44.82302
   462  H   1.0    0.09    1.07    1.44    49.01039    92.61125    88.73937
   463  H   1.0    0.08    1.04    1.43    53.83120    80.88122    41.40526
   464  H   1.0    0.09    1.07    1.44    67.67231    79.31156    55.97524
   465  H   1.0    0.05    1.04    1.44    66.83063    73.56588    58.60301
   466  H   1.0    0.10    1.07    1.44    64.80559    76.75992    66.84070
   467  H   1.0    0.06    1.05    1.44    67.16391    71.38700    69.48508
   468  H   1.0    0.09    1.07    1.44    44.05893    61.82882    68.70364
   469  H   1.0    0.05    1.05    1.44    48.98790    65.77965    67.13985
   470  H   1.0    0.10    1.07    1.44    47.61722    64.18321    58.55186
   471  H   1.0    0.05    1.04    1.43    53.98956    64.43367    57.48945
   472  H   1.0    0.09    1.07    1.44    36.44473    67.20436    52.80906
   473  H   1.0    0.06    1.05    1.44    32.66823    72.17145    54.23544

  Z AO/shell   Hii/eV     exponent
  1     Wed Apr 25 08:07:45 CEST 2018   EN: 2.200 GM2: 0.406  GM3: 0.0800  RAES: 1.40
     1s    -10.707211    1.230000
  6     Wed Apr 25 08:07:45 CEST 2018   EN: 2.550 GM2: 0.538  GM3: 0.1500  RAES: 3.00
     2s    -13.970922    2.096432
     2p    -10.063292    1.800000
  7     Wed Apr 25 08:07:45 CEST 2018   EN: 3.040 GM2: 0.461  GM3:-0.0640  RAES: 1.90
     2s    -16.686243    2.339881
     2p    -12.523956    2.014332
  8     Wed Apr 25 08:07:45 CEST 2018   EN: 3.440 GM2: 0.452  GM3:-0.0517  RAES: 1.80
     2s    -20.229985    2.439742
     2p    -15.503117    2.137023
 16     Tue Apr 24 11:44:34 CEST 2018   EN: 2.580 GM2: 0.340  GM3:-0.0502  RAES: 3.10
     3s    -20.029654    1.981333
     3p    -11.377694    2.025643
     3d     -0.420282    1.702555
 no old-style atom pair restraining (fixing) potential

molecular fragmentation (1/2 indicates fragments):
111111111111111111122222222222222222222222222222222222222222222222222222
222222222222222222222222222222222222222222222222222222222222222222222222
222222222222222222222222222222222222222222222222222222222222222222222222
222222222222222222222222222222222222222222222222222222222222222222222222
222222222222222222222222222222222222222222222222222222222222222222222222
222222222222222222222222222222222222222222222222222222222222222222222222
22222222222222222222222112222222222222222
# atoms in fragment 1/2:    21   452
 fragment masses (1/2) :      115.17     2833.75
CMA distance (Bohr)    :  19.656
constraining FC (au)   :  0.0500
           ------------------------------------------------- 
          |        Self-Consistent Charge Iterations        |
           ------------------------------------------------- 

 Ncao       : 1097
 Nao        : 1096
 Nshell     : 680
 Nel        : 1186
 T(el)      :   500.0
 intcut     :    35.0
 scfconv/Eh :  0.100E-06
   qconv/e  :  0.100E-04
 intneglect :  0.100E-08
 broydamp   :      0.400
 iter      E             dE          RMSdq      gap      omega  full diag
   1   -669.8063359 -0.669806E+03  0.415E+00    2.92       0.0  T
   2   -671.2192077 -0.141287E+01  0.195E+00    1.84       1.0  T
   3   -671.3051875 -0.859798E-01  0.113E+00    1.91       1.0  T
   4   -671.4028239 -0.976364E-01  0.202E-01    1.29       1.0  T
   5   -671.4073872 -0.456334E-02  0.924E-02    1.46       1.0  T
   6   -671.4080128 -0.625563E-03  0.370E-02    1.45       1.0  T
   7   -671.4081561 -0.143287E-03  0.154E-02    1.44       1.0  T
   8   -671.4081739 -0.178726E-04  0.703E-03    1.43       1.0  T
   9   -671.4081792 -0.524875E-05  0.309E-03    1.43       1.5  T
  10   -671.4081802 -0.105333E-05  0.123E-03    1.43       3.7  T
  11   -671.4081803 -0.947897E-07  0.561E-04    1.43       8.2  T
  12   -671.4081804 -0.175631E-07  0.182E-04    1.43      25.3  T
  13   -671.4081804 -0.364901E-08  0.910E-05    1.43      50.5  T
  14   -671.4081804 -0.577074E-09  0.447E-05    1.43     102.9  T
speedup  1.00
cpu  time for SCC    7.15 s
wall time for SCC    7.15 s

   *** convergence criteria satisfied after 14 iterations ***

          eigenvalues
 #    :         581        582        583        584        585        586        587        588
 occ. :        2.000      2.000      2.000      2.000      2.000      2.000      2.000      2.000
 eps  :       -10.582    -10.566    -10.462    -10.348    -10.240    -10.198    -10.068    -10.024
 #    :         589        590        591        592        593        594        595        596
 occ. :        2.000      2.000      2.000      2.000      2.000      0.000      0.000      0.000
 eps  :       -10.017     -9.857     -9.642     -9.545     -9.413     -7.981     -7.814     -7.720
 #    :         597        598        599        600        601        602        603        604
 occ. :        0.000      0.000      0.000      0.000      0.000      0.000      0.000      0.000
 eps  :        -7.623     -7.588     -7.557     -7.497     -7.394     -7.350     -7.027     -6.997


   #   Z            q   n(s)   n(p)   n(d)      C6AA      α(0)
   1   7 N     -0.391  1.316  4.075  0.000    30.121     8.151
   2   6 C      0.036  1.057  2.908  0.000    19.988     6.367
   3   6 C      0.195  1.094  2.710  0.000    23.830     7.995
   4   8 O     -0.357  1.737  4.620  0.000    20.836     6.120
   5   6 C     -0.022  1.068  2.953  0.000    20.922     6.505
   6   6 C     -0.062  1.050  3.012  0.000    21.685     6.629
   7   6 C     -0.116  1.039  3.078  0.000    22.783     6.805
   8   6 C     -0.114  1.038  3.076  0.000    22.739     6.800
   9   1 H      0.168  0.832  0.000  0.000     1.283     1.774
  10   1 H      0.054  0.946  0.000  0.000     2.265     2.354
  11   1 H      0.046  0.954  0.000  0.000     2.368     2.407
  12   1 H      0.042  0.958  0.000  0.000     2.421     2.433
  13   1 H      0.038  0.962  0.000  0.000     2.472     2.459
  14   1 H      0.055  0.945  0.000  0.000     2.258     2.350
  15   1 H      0.034  0.966  0.000  0.000     2.535     2.490
  16   1 H      0.048  0.952  0.000  0.000     2.344     2.394
  17   1 H      0.043  0.957  0.000  0.000     2.407     2.426
  18   1 H      0.040  0.960  0.000  0.000     2.453     2.449
  19   1 H      0.044  0.956  0.000  0.000     2.392     2.419
  20   7 N     -0.399  1.325  4.073  0.000    30.332     8.180
  21   6 C      0.032  1.058  2.910  0.000    20.051     6.378
  22   6 C      0.268  1.052  2.680  0.000    22.479     7.765
  23   8 O     -0.527  1.751  4.775  0.000    24.384     6.621
  24   6 C     -0.027  1.068  2.958  0.000    21.007     6.518
  25   6 C     -0.060  1.050  3.009  0.000    21.650     6.624
  26   6 C     -0.116  1.040  3.076  0.000    22.767     6.803
  27   6 C     -0.109  1.034  3.075  0.000    22.655     6.788
  28   1 H      0.157  0.843  0.000  0.000     1.356     1.824
  29   1 H      0.036  0.964  0.000  0.000     2.502     2.474
  30   1 H      0.041  0.959  0.000  0.000     2.434     2.440
  31   1 H      0.032  0.968  0.000  0.000     2.556     2.500
  32   1 H      0.042  0.958  0.000  0.000     2.428     2.437
  33   1 H      0.050  0.950  0.000  0.000     2.324     2.384
  34   1 H      0.040  0.960  0.000  0.000     2.455     2.450
  35   1 H      0.047  0.953  0.000  0.000     2.362     2.403
  36   1 H      0.041  0.959  0.000  0.000     2.438     2.442
  37   1 H      0.045  0.955  0.000  0.000     2.385     2.415
  38   1 H      0.028  0.972  0.000  0.000     2.614     2.528
  39   7 N     -0.189  1.253  3.935  0.000    25.094     7.440
  40   6 C      0.029  1.059  2.913  0.000    20.086     6.380
  41   6 C      0.207  1.084  2.709  0.000    23.614     7.959
  42   8 O     -0.374  1.759  4.615  0.000    21.172     6.169
  43   6 C     -0.020  1.066  2.954  0.000    20.891     6.500
  44   6 C     -0.072  1.051  3.021  0.000    21.868     6.657
  45   6 C     -0.122  1.042  3.080  0.000    22.891     6.822
  46   6 C     -0.111  1.038  3.073  0.000    22.690     6.793
  47   1 H      0.260  0.740  0.000  0.000     0.846     1.440
  48   1 H      0.080  0.920  0.000  0.000     1.976     2.198
  49   1 H      0.050  0.950  0.000  0.000     2.321     2.383
  50   1 H      0.057  0.943  0.000  0.000     2.231     2.336
  51   1 H      0.043  0.957  0.000  0.000     2.406     2.425
  52   1 H      0.060  0.940  0.000  0.000     2.199     2.319
  53   1 H      0.045  0.955  0.000  0.000     2.381     2.413
  54   1 H      0.059  0.941  0.000  0.000     2.208     2.324
  55   1 H      0.045  0.955  0.000  0.000     2.378     2.411
  56   1 H      0.031  0.969  0.000  0.000     2.575     2.509
  57   1 H      0.043  0.957  0.000  0.000     2.403     2.424
  58   7 N     -0.417  1.319  4.098  0.000    30.865     8.251
  59   6 C      0.047  1.055  2.897  0.000    19.791     6.336
  60   6 C      0.203  1.093  2.705  0.000    23.691     7.971
  61   8 O     -0.397  1.760  4.637  0.000    21.628     6.235
  62   6 C     -0.009  1.061  2.948  0.000    20.703     6.471
  63   6 C     -0.115  1.039  3.076  0.000    22.759     6.802
  64   6 C     -0.121  1.042  3.079  0.000    22.861     6.816
  65   1 H      0.194  0.806  0.000  0.000     1.138     1.671
  66   1 H      0.030  0.970  0.000  0.000     2.591     2.517
  67   1 H      0.050  0.950  0.000  0.000     2.320     2.382
  68   1 H      0.055  0.945  0.000  0.000     2.257     2.350
  69   1 H      0.027  0.973  0.000  0.000     2.632     2.537
  70   1 H      0.040  0.960  0.000  0.000     2.453     2.449
  71   1 H      0.059  0.941  0.000  0.000     2.210     2.325
  72   1 H      0.035  0.965  0.000  0.000     2.523     2.484
  73   1 H      0.058  0.942  0.000  0.000     2.218     2.329
  74   7 N     -0.394  1.309  4.085  0.000    30.216     8.164
  75   6 C      0.038  1.057  2.905  0.000    19.956     6.363
  76   6 C      0.259  1.050  2.691  0.000    22.643     7.792
  77   8 O     -0.492  1.745  4.747  0.000    23.602     6.514
  78   6 C     -0.072  1.054  3.018  0.000    21.870     6.657
  79   6 C     -0.001  1.076  2.924  0.000    28.043     8.686
  80   6 C     -0.045  1.083  2.962  0.000    29.113     8.848
  81   6 C     -0.043  1.082  2.962  0.000    29.078     8.843
  82   6 C     -0.060  1.076  2.984  0.000    29.482     8.904
  83   6 C     -0.075  1.079  2.996  0.000    29.871     8.962
  84   6 C      0.146  1.046  2.808  0.000    24.828     8.166
  85   8 O     -0.439  1.722  4.717  0.000    21.619     6.277
  86   1 H      0.171  0.829  0.000  0.000     1.268     1.764
  87   1 H      0.025  0.975  0.000  0.000     2.664     2.552
  88   1 H      0.060  0.940  0.000  0.000     2.198     2.319
  89   1 H      0.053  0.947  0.000  0.000     2.287     2.365
  90   1 H      0.049  0.951  0.000  0.000     2.330     2.387
  91   1 H      0.042  0.958  0.000  0.000     2.418     2.432
  92   1 H      0.048  0.952  0.000  0.000     2.345     2.395
  93   1 H      0.041  0.959  0.000  0.000     2.430     2.438
  94   1 H      0.348  0.652  0.000  0.000     0.593     1.210
  95   7 N     -0.178  1.249  3.930  0.000    24.863     7.406
  96   6 C      0.017  1.065  2.917  0.000    20.283     6.412
  97   6 C      0.278  1.043  2.678  0.000    22.290     7.732
  98   8 O     -0.487  1.736  4.750  0.000    23.490     6.498
  99   6 C     -0.029  1.068  2.962  0.000    21.058     6.527
 100   6 C     -0.058  1.049  3.009  0.000    21.611     6.618
 101   6 C     -0.127  1.039  3.089  0.000    22.992     6.837
 102   6 C     -0.116  1.038  3.078  0.000    22.773     6.805
 103   1 H      0.226  0.774  0.000  0.000     0.983     1.553
 104   1 H      0.071  0.929  0.000  0.000     2.074     2.252
 105   1 H      0.066  0.934  0.000  0.000     2.131     2.283
 106   1 H      0.040  0.960  0.000  0.000     2.448     2.447
 107   1 H      0.036  0.964  0.000  0.000     2.504     2.474
 108   1 H      0.064  0.936  0.000  0.000     2.147     2.291
 109   1 H      0.048  0.952  0.000  0.000     2.344     2.394
 110   1 H      0.050  0.950  0.000  0.000     2.314     2.379
 111   1 H      0.041  0.959  0.000  0.000     2.438     2.442
 112   1 H      0.043  0.957  0.000  0.000     2.413     2.429
 113   1 H      0.050  0.950  0.000  0.000     2.319     2.381
 114   7 N     -0.174  1.247  3.927  0.000    24.772     7.392
 115   6 C      0.009  1.070  2.921  0.000    20.423     6.433
 116   6 C      0.273  1.044  2.683  0.000    22.383     7.747
 117   8 O     -0.472  1.734  4.739  0.000    23.176     6.455
 118   6 C     -0.023  1.067  2.956  0.000    20.948     6.510
 119   6 C     -0.070  1.053  3.017  0.000    21.836     6.652
 120   6 C     -0.117  1.037  3.080  0.000    22.799     6.808
 121   6 C     -0.115  1.037  3.077  0.000    22.753     6.802
 122   1 H      0.205  0.795  0.000  0.000     1.081     1.629
 123   1 H      0.091  0.909  0.000  0.000     1.870     2.138
 124   1 H      0.042  0.958  0.000  0.000     2.424     2.435
 125   1 H      0.050  0.950  0.000  0.000     2.323     2.384
 126   1 H      0.049  0.951  0.000  0.000     2.338     2.391
 127   1 H      0.060  0.940  0.000  0.000     2.202     2.321
 128   1 H      0.039  0.961  0.000  0.000     2.464     2.455
 129   1 H      0.053  0.947  0.000  0.000     2.284     2.364
 130   1 H      0.047  0.953  0.000  0.000     2.357     2.401
 131   1 H      0.042  0.958  0.000  0.000     2.418     2.432
 132   1 H      0.043  0.957  0.000  0.000     2.412     2.429
 133   7 N     -0.167  1.238  3.930  0.000    24.619     7.369
 134   6 C      0.031  1.058  2.911  0.000    20.060     6.378
 135   6 C      0.272  1.046  2.682  0.000    22.396     7.749
 136   8 O     -0.477  1.743  4.734  0.000    23.289     6.470
 137   6 C     -0.104  1.060  3.044  0.000    22.478     6.748
 138   6 C      0.288  1.034  2.678  0.000    22.119     7.701
 139   8 O     -0.485  1.751  4.733  0.000    23.447     6.492
 140   7 N     -0.290  1.266  4.024  0.000    27.485     7.786
 141   1 H      0.194  0.806  0.000  0.000     1.136     1.670
 142   1 H      0.086  0.914  0.000  0.000     1.919     2.166
 143   1 H      0.071  0.929  0.000  0.000     2.071     2.250
 144   1 H      0.101  0.899  0.000  0.000     1.773     2.082
 145   1 H      0.238  0.762  0.000  0.000     0.932     1.512
 146   1 H      0.220  0.780  0.000  0.000     1.011     1.575
 147   7 N     -0.187  1.251  3.937  0.000    25.061     7.435
 148   6 C      0.008  1.069  2.924  0.000    20.456     6.440
 149   6 C      0.268  1.046  2.685  0.000    22.468     7.762
 150   8 O     -0.498  1.745  4.752  0.000    23.732     6.532
 151   6 C     -0.015  1.065  2.950  0.000    20.804     6.487
 152   6 C     -0.063  1.049  3.014  0.000    21.708     6.633
 153   6 C     -0.117  1.039  3.079  0.000    22.803     6.808
 154   6 C     -0.109  1.037  3.072  0.000    22.642     6.786
 155   1 H      0.219  0.781  0.000  0.000     1.012     1.576
 156   1 H      0.083  0.917  0.000  0.000     1.945     2.181
 157   1 H      0.035  0.965  0.000  0.000     2.515     2.480
 158   1 H      0.039  0.961  0.000  0.000     2.463     2.454
 159   1 H      0.047  0.953  0.000  0.000     2.354     2.399
 160   1 H      0.055  0.945  0.000  0.000     2.254     2.348
 161   1 H      0.043  0.957  0.000  0.000     2.414     2.430
 162   1 H      0.046  0.954  0.000  0.000     2.368     2.407
 163   1 H      0.041  0.959  0.000  0.000     2.430     2.438
 164   1 H      0.038  0.962  0.000  0.000     2.482     2.463
 165   1 H      0.044  0.956  0.000  0.000     2.401     2.423
 166   7 N     -0.204  1.255  3.949  0.000    25.430     7.490
 167   6 C      0.021  1.068  2.911  0.000    20.231     6.405
 168   6 C      0.271  1.049  2.681  0.000    22.427     7.755
 169   8 O     -0.500  1.733  4.766  0.000    23.779     6.538
 170   6 C     -0.029  1.068  2.961  0.000    21.055     6.526
 171   6 C     -0.062  1.052  3.011  0.000    21.693     6.631
 172   6 C     -0.126  1.040  3.086  0.000    22.965     6.833
 173   6 C     -0.113  1.039  3.075  0.000    22.729     6.799
 174   1 H      0.238  0.762  0.000  0.000     0.930     1.510
 175   1 H      0.067  0.933  0.000  0.000     2.117     2.276
 176   1 H      0.068  0.932  0.000  0.000     2.109     2.271
 177   1 H      0.042  0.958  0.000  0.000     2.417     2.431
 178   1 H      0.033  0.967  0.000  0.000     2.549     2.497
 179   1 H      0.057  0.943  0.000  0.000     2.238     2.339
 180   1 H      0.061  0.939  0.000  0.000     2.187     2.313
 181   1 H      0.039  0.961  0.000  0.000     2.467     2.456
 182   1 H      0.043  0.957  0.000  0.000     2.411     2.428
 183   1 H      0.042  0.958  0.000  0.000     2.422     2.434
 184   1 H      0.046  0.954  0.000  0.000     2.366     2.406
 185   7 N     -0.182  1.255  3.927  0.000    24.943     7.418
 186   6 C      0.023  1.060  2.917  0.000    20.205     6.401
 187   6 C      0.259  1.049  2.692  0.000    22.631     7.791
 188   8 O     -0.495  1.737  4.757  0.000    23.670     6.523
 189   6 C     -0.133  1.042  3.092  0.000    23.121     6.856
 190   1 H      0.236  0.764  0.000  0.000     0.938     1.517
 191   1 H      0.083  0.917  0.000  0.000     1.945     2.181
 192   1 H      0.075  0.925  0.000  0.000     2.036     2.232
 193   1 H      0.090  0.910  0.000  0.000     1.884     2.146
 194   1 H      0.053  0.947  0.000  0.000     2.286     2.365
 195   7 N     -0.090  1.237  3.853  0.000    23.000     7.123
 196   6 C      0.018  1.064  2.919  0.000    20.257     6.404
 197   6 C      0.273  1.043  2.684  0.000    22.393     7.750
 198   8 O     -0.479  1.726  4.754  0.000    23.332     6.476
 199   6 C     -0.076  1.056  3.021  0.000    21.947     6.667
 200   6 C     -0.075  1.051  3.024  0.000    21.923     6.663
 201   6 C     -0.004  1.046  2.958  0.000    20.693     6.485
 202   1 H      0.090  0.910  0.000  0.000     1.877     2.143
 203   1 H      0.070  0.930  0.000  0.000     2.090     2.261
 204   1 H      0.083  0.917  0.000  0.000     1.947     2.182
 205   1 H      0.061  0.939  0.000  0.000     2.184     2.311
 206   1 H      0.083  0.917  0.000  0.000     1.943     2.180
 207   1 H      0.040  0.960  0.000  0.000     2.454     2.450
 208   1 H      0.068  0.932  0.000  0.000     2.112     2.273
 209   7 N     -0.168  1.239  3.929  0.000    24.641     7.373
 210   6 C      0.021  1.059  2.920  0.000    20.210     6.397
 211   6 C      0.268  1.045  2.687  0.000    22.476     7.763
 212   8 O     -0.509  1.739  4.769  0.000    23.980     6.565
 213   6 C     -0.015  1.064  2.951  0.000    20.840     6.500
 214  16 S     -0.278  1.931  4.317  0.030   153.047    20.822
 215   1 H      0.211  0.789  0.000  0.000     1.052     1.606
 216   1 H      0.100  0.900  0.000  0.000     1.782     2.088
 217   1 H      0.088  0.912  0.000  0.000     1.900     2.155
 218   1 H      0.062  0.938  0.000  0.000     2.176     2.307
 219   1 H      0.183  0.817  0.000  0.000     1.191     1.707
 220   7 N     -0.182  1.252  3.930  0.000    24.951     7.419
 221   6 C      0.018  1.064  2.917  0.000    20.270     6.410
 222   6 C      0.267  1.045  2.688  0.000    22.494     7.767
 223   8 O     -0.511  1.743  4.768  0.000    24.035     6.573
 224   6 C     -0.017  1.062  2.956  0.000    20.848     6.494
 225   6 C     -0.122  1.040  3.081  0.000    22.883     6.820
 226   6 C     -0.130  1.039  3.091  0.000    23.045     6.845
 227   1 H      0.247  0.753  0.000  0.000     0.893     1.480
 228   1 H      0.076  0.924  0.000  0.000     2.021     2.223
 229   1 H      0.050  0.950  0.000  0.000     2.316     2.380
 230   1 H      0.058  0.942  0.000  0.000     2.218     2.329
 231   1 H      0.044  0.956  0.000  0.000     2.391     2.418
 232   1 H      0.054  0.946  0.000  0.000     2.269     2.356
 233   1 H      0.058  0.942  0.000  0.000     2.223     2.332
 234   1 H      0.062  0.938  0.000  0.000     2.170     2.304
 235   1 H      0.044  0.956  0.000  0.000     2.398     2.422
 236   7 N     -0.185  1.257  3.928  0.000    25.020     7.429
 237   6 C      0.017  1.059  2.925  0.000    20.296     6.414
 238   6 C      0.269  1.042  2.689  0.000    22.450     7.759
 239   8 O     -0.491  1.739  4.752  0.000    23.585     6.511
 240   6 C     -0.081  1.060  3.022  0.000    22.042     6.683
 241   6 C     -0.021  1.056  2.965  0.000    20.913     6.505
 242   6 C     -0.115  1.041  3.074  0.000    22.752     6.801
 243   6 C     -0.122  1.042  3.080  0.000    22.898     6.823
 244   1 H      0.236  0.764  0.000  0.000     0.939     1.518
 245   1 H      0.088  0.912  0.000  0.000     1.894     2.152
 246   1 H      0.074  0.926  0.000  0.000     2.037     2.232
 247   1 H      0.054  0.946  0.000  0.000     2.273     2.358
 248   1 H      0.057  0.943  0.000  0.000     2.233     2.337
 249   1 H      0.040  0.960  0.000  0.000     2.449     2.447
 250   1 H      0.041  0.959  0.000  0.000     2.439     2.442
 251   1 H      0.040  0.960  0.000  0.000     2.444     2.445
 252   1 H      0.050  0.950  0.000  0.000     2.314     2.379
 253   1 H      0.044  0.956  0.000  0.000     2.396     2.420
 254   1 H      0.037  0.963  0.000  0.000     2.492     2.468
 255   7 N     -0.204  1.257  3.947  0.000    25.446     7.492
 256   6 C      0.013  1.065  2.922  0.000    20.365     6.426
 257   6 C      0.281  1.041  2.677  0.000    22.240     7.724
 258   8 O     -0.480  1.734  4.745  0.000    23.341     6.477
 259   6 C     -0.033  1.068  2.965  0.000    21.133     6.539
 260   6 C     -0.068  1.052  3.016  0.000    21.798     6.647
 261   6 C     -0.120  1.038  3.082  0.000    22.864     6.818
 262   6 C     -0.109  1.034  3.075  0.000    22.646     6.786
 263   1 H      0.249  0.751  0.000  0.000     0.887     1.475
 264   1 H      0.087  0.913  0.000  0.000     1.905     2.158
 265   1 H      0.081  0.919  0.000  0.000     1.969     2.195
 266   1 H      0.048  0.952  0.000  0.000     2.345     2.395
 267   1 H      0.055  0.945  0.000  0.000     2.255     2.348
 268   1 H      0.054  0.946  0.000  0.000     2.268     2.355
 269   1 H      0.050  0.950  0.000  0.000     2.321     2.382
 270   1 H      0.041  0.959  0.000  0.000     2.435     2.440
 271   1 H      0.037  0.963  0.000  0.000     2.488     2.467
 272   1 H      0.041  0.959  0.000  0.000     2.442     2.444
 273   1 H      0.034  0.966  0.000  0.000     2.535     2.490
 274   7 N     -0.181  1.240  3.940  0.000    24.919     7.414
 275   6 C      0.012  1.060  2.927  0.000    20.361     6.423
 276   6 C      0.277  1.041  2.683  0.000    22.323     7.739
 277   8 O     -0.477  1.728  4.749  0.000    23.290     6.470
 278   6 C      0.073  1.032  2.894  0.000    19.555     6.333
 279   8 O     -0.461  1.711  4.750  0.000    22.060     6.340
 280   1 H      0.206  0.794  0.000  0.000     1.078     1.626
 281   1 H      0.087  0.913  0.000  0.000     1.909     2.161
 282   1 H      0.042  0.958  0.000  0.000     2.426     2.436
 283   1 H      0.058  0.942  0.000  0.000     2.223     2.332
 284   1 H      0.338  0.662  0.000  0.000     0.618     1.235
 285   7 N     -0.198  1.254  3.944  0.000    25.303     7.471
 286   6 C      0.016  1.062  2.922  0.000    20.300     6.414
 287   6 C      0.276  1.041  2.682  0.000    22.324     7.738
 288   8 O     -0.487  1.735  4.752  0.000    23.490     6.498
 289   6 C      0.064  1.036  2.900  0.000    19.724     6.362
 290   8 O     -0.462  1.713  4.749  0.000    22.092     6.345
 291   1 H      0.226  0.774  0.000  0.000     0.981     1.552
 292   1 H      0.075  0.925  0.000  0.000     2.034     2.230
 293   1 H      0.057  0.943  0.000  0.000     2.232     2.336
 294   1 H      0.067  0.933  0.000  0.000     2.120     2.277
 295   1 H      0.328  0.672  0.000  0.000     0.642     1.258
 296   7 N     -0.200  1.264  3.936  0.000    25.355     7.479
 297   6 C      0.031  1.056  2.913  0.000    20.046     6.374
 298   6 C      0.278  1.040  2.682  0.000    22.292     7.733
 299   8 O     -0.524  1.755  4.769  0.000    24.318     6.612
 300   6 C     -0.071  1.058  3.013  0.000    21.838     6.650
 301   6 C     -0.021  1.056  2.965  0.000    20.906     6.503
 302   6 C     -0.123  1.043  3.080  0.000    22.901     6.823
 303   6 C     -0.117  1.039  3.078  0.000    22.787     6.806
 304   1 H      0.245  0.755  0.000  0.000     0.904     1.490
 305   1 H      0.061  0.939  0.000  0.000     2.190     2.314
 306   1 H      0.042  0.958  0.000  0.000     2.420     2.433
 307   1 H      0.057  0.943  0.000  0.000     2.234     2.337
 308   1 H      0.051  0.949  0.000  0.000     2.304     2.374
 309   1 H      0.051  0.949  0.000  0.000     2.303     2.373
 310   1 H      0.043  0.957  0.000  0.000     2.408     2.427
 311   1 H      0.049  0.951  0.000  0.000     2.329     2.386
 312   1 H      0.054  0.946  0.000  0.000     2.275     2.359
 313   1 H      0.041  0.959  0.000  0.000     2.435     2.440
 314   1 H      0.031  0.969  0.000  0.000     2.574     2.509
 315   7 N     -0.192  1.247  3.945  0.000    25.174     7.452
 316   6 C      0.022  1.061  2.916  0.000    20.195     6.398
 317   6 C      0.278  1.040  2.683  0.000    22.303     7.734
 318   8 O     -0.539  1.764  4.775  0.000    24.668     6.659
 319   6 C     -0.016  1.059  2.957  0.000    20.825     6.491
 320   6 C     -0.120  1.039  3.081  0.000    22.852     6.815
 321   6 C     -0.125  1.038  3.086  0.000    22.945     6.830
 322   1 H      0.240  0.760  0.000  0.000     0.923     1.505
 323   1 H      0.066  0.934  0.000  0.000     2.132     2.284
 324   1 H      0.037  0.963  0.000  0.000     2.491     2.468
 325   1 H      0.056  0.944  0.000  0.000     2.243     2.342
 326   1 H      0.038  0.962  0.000  0.000     2.474     2.460
 327   1 H      0.059  0.941  0.000  0.000     2.207     2.323
 328   1 H      0.060  0.940  0.000  0.000     2.202     2.321
 329   1 H      0.061  0.939  0.000  0.000     2.190     2.314
 330   1 H      0.037  0.963  0.000  0.000     2.493     2.469
 331   7 N     -0.206  1.260  3.946  0.000    25.485     7.498
 332   6 C      0.028  1.065  2.907  0.000    20.105     6.383
 333   6 C      0.295  1.038  2.667  0.000    21.988     7.679
 334   8 O     -0.533  1.755  4.778  0.000    24.538     6.641
 335   6 C     -0.023  1.063  2.960  0.000    20.949     6.510
 336   6 C     -0.120  1.040  3.080  0.000    22.861     6.817
 337   6 C     -0.120  1.043  3.077  0.000    22.844     6.814
 338   1 H      0.251  0.749  0.000  0.000     0.879     1.468
 339   1 H      0.056  0.944  0.000  0.000     2.243     2.342
 340   1 H      0.066  0.934  0.000  0.000     2.130     2.282
 341   1 H      0.055  0.945  0.000  0.000     2.255     2.348
 342   1 H      0.051  0.949  0.000  0.000     2.305     2.374
 343   1 H      0.032  0.968  0.000  0.000     2.565     2.504
 344   1 H      0.060  0.940  0.000  0.000     2.200     2.319
 345   1 H      0.040  0.960  0.000  0.000     2.452     2.449
 346   1 H      0.046  0.954  0.000  0.000     2.372     2.408
 347   7 N     -0.199  1.251  3.948  0.000    25.317     7.473
 348   6 C      0.041  1.057  2.902  0.000    19.898     6.353
 349   6 C      0.213  1.086  2.701  0.000    23.484     7.937
 350   8 O     -0.374  1.754  4.620  0.000    21.169     6.169
 351   6 C     -0.074  1.061  3.013  0.000    21.904     6.662
 352   6 C     -0.006  1.055  2.950  0.000    20.644     6.463
 353   6 C     -0.109  1.040  3.070  0.000    22.638     6.783
 354   6 C     -0.118  1.043  3.075  0.000    22.809     6.809
 355   1 H      0.245  0.755  0.000  0.000     0.902     1.488
 356   1 H      0.065  0.935  0.000  0.000     2.140     2.288
 357   1 H      0.065  0.935  0.000  0.000     2.137     2.286
 358   1 H      0.050  0.950  0.000  0.000     2.323     2.383
 359   1 H      0.036  0.964  0.000  0.000     2.500     2.473
 360   1 H      0.046  0.954  0.000  0.000     2.375     2.410
 361   1 H      0.034  0.966  0.000  0.000     2.536     2.490
 362   1 H      0.038  0.962  0.000  0.000     2.470     2.458
 363   1 H      0.055  0.945  0.000  0.000     2.254     2.348
 364   1 H      0.043  0.957  0.000  0.000     2.412     2.429
 365   1 H      0.032  0.968  0.000  0.000     2.552     2.498
 366   7 N     -0.392  1.311  4.080  0.000    30.144     8.154
 367   6 C      0.036  1.057  2.907  0.000    19.982     6.368
 368   6 C      0.197  1.094  2.708  0.000    23.797     7.989
 369   8 O     -0.361  1.744  4.617  0.000    20.925     6.133
 370   6 C     -0.075  1.057  3.018  0.000    21.922     6.666
 371   6 C     -0.100  1.052  3.048  0.000    22.409     6.739
 372   6 C      0.292  1.037  2.671  0.000    22.053     7.689
 373   8 O     -0.516  1.760  4.756  0.000    24.138     6.587
 374   7 N     -0.276  1.261  4.015  0.000    27.135     7.737
 375   1 H      0.166  0.834  0.000  0.000     1.300     1.786
 376   1 H      0.066  0.934  0.000  0.000     2.135     2.285
 377   1 H      0.062  0.938  0.000  0.000     2.174     2.306
 378   1 H      0.064  0.936  0.000  0.000     2.149     2.292
 379   1 H      0.086  0.914  0.000  0.000     1.913     2.163
 380   1 H      0.070  0.930  0.000  0.000     2.087     2.259
 381   1 H      0.215  0.785  0.000  0.000     1.034     1.593
 382   1 H      0.208  0.792  0.000  0.000     1.068     1.619
 383   7 N     -0.406  1.313  4.092  0.000    30.533     8.207
 384   6 C      0.042  1.053  2.905  0.000    19.887     6.352
 385   6 C      0.199  1.094  2.707  0.000    23.765     7.984
 386   8 O     -0.396  1.762  4.635  0.000    21.607     6.232
 387   6 C     -0.064  1.058  3.006  0.000    21.729     6.635
 388   6 C     -0.015  1.056  2.959  0.000    20.811     6.489
 389   6 C     -0.116  1.043  3.072  0.000    22.766     6.802
 390   6 C     -0.114  1.039  3.075  0.000    22.738     6.798
 391   1 H      0.187  0.813  0.000  0.000     1.176     1.699
 392   1 H      0.055  0.945  0.000  0.000     2.264     2.353
 393   1 H      0.040  0.960  0.000  0.000     2.451     2.448
 394   1 H      0.038  0.962  0.000  0.000     2.476     2.461
 395   1 H      0.058  0.942  0.000  0.000     2.217     2.329
 396   1 H      0.054  0.946  0.000  0.000     2.271     2.357
 397   1 H      0.025  0.975  0.000  0.000     2.655     2.548
 398   1 H      0.038  0.962  0.000  0.000     2.471     2.458
 399   1 H      0.042  0.958  0.000  0.000     2.424     2.435
 400   1 H      0.041  0.959  0.000  0.000     2.431     2.438
 401   1 H      0.038  0.962  0.000  0.000     2.476     2.461
 402   7 N     -0.389  1.314  4.075  0.000    30.069     8.144
 403   6 C      0.037  1.059  2.904  0.000    19.973     6.365
 404   6 C      0.202  1.094  2.704  0.000    23.698     7.973
 405   8 O     -0.371  1.745  4.626  0.000    21.114     6.161
 406   6 C     -0.018  1.063  2.955  0.000    20.857     6.496
 407   6 C     -0.116  1.040  3.076  0.000    22.776     6.804
 408   6 C     -0.115  1.039  3.075  0.000    22.746     6.800
 409   1 H      0.167  0.833  0.000  0.000     1.289     1.779
 410   1 H      0.050  0.950  0.000  0.000     2.325     2.385
 411   1 H      0.046  0.954  0.000  0.000     2.369     2.407
 412   1 H      0.053  0.947  0.000  0.000     2.285     2.364
 413   1 H      0.036  0.964  0.000  0.000     2.504     2.474
 414   1 H      0.044  0.956  0.000  0.000     2.397     2.421
 415   1 H      0.052  0.948  0.000  0.000     2.298     2.370
 416   1 H      0.042  0.958  0.000  0.000     2.416     2.431
 417   1 H      0.044  0.956  0.000  0.000     2.402     2.424
 418   7 N     -0.412  1.319  4.093  0.000    30.712     8.231
 419   6 C      0.040  1.060  2.900  0.000    19.926     6.359
 420   6 C      0.208  1.092  2.701  0.000    23.598     7.956
 421   8 O     -0.415  1.765  4.649  0.000    21.982     6.286
 422   6 C     -0.020  1.068  2.952  0.000    20.888     6.501
 423   6 C     -0.067  1.051  3.017  0.000    21.786     6.645
 424   6 C     -0.113  1.038  3.075  0.000    22.718     6.796
 425   6 C     -0.114  1.037  3.076  0.000    22.734     6.799
 426   1 H      0.205  0.795  0.000  0.000     1.082     1.630
 427   1 H      0.038  0.962  0.000  0.000     2.479     2.462
 428   1 H      0.028  0.972  0.000  0.000     2.615     2.529
 429   1 H      0.052  0.948  0.000  0.000     2.297     2.370
 430   1 H      0.042  0.958  0.000  0.000     2.418     2.432
 431   1 H      0.048  0.952  0.000  0.000     2.351     2.398
 432   1 H      0.036  0.964  0.000  0.000     2.496     2.471
 433   1 H      0.058  0.942  0.000  0.000     2.225     2.332
 434   1 H      0.049  0.951  0.000  0.000     2.334     2.389
 435   1 H      0.025  0.975  0.000  0.000     2.657     2.549
 436   1 H      0.043  0.957  0.000  0.000     2.412     2.429
 437   7 N     -0.396  1.325  4.071  0.000    30.258     8.169
 438   6 C      0.039  1.053  2.908  0.000    19.933     6.359
 439   6 C      0.203  1.091  2.706  0.000    23.690     7.971
 440   8 O     -0.386  1.759  4.627  0.000    21.400     6.202
 441   6 C     -0.069  1.061  3.008  0.000    21.815     6.648
 442   6 C     -0.010  1.055  2.955  0.000    20.715     6.474
 443   6 C     -0.117  1.041  3.076  0.000    22.789     6.807
 444   6 C     -0.124  1.042  3.082  0.000    22.933     6.827
 445   1 H      0.165  0.835  0.000  0.000     1.301     1.787
 446   1 H      0.052  0.948  0.000  0.000     2.289     2.366
 447   1 H      0.052  0.948  0.000  0.000     2.296     2.370
 448   1 H      0.043  0.957  0.000  0.000     2.408     2.427
 449   1 H      0.027  0.973  0.000  0.000     2.636     2.539
 450   1 H      0.056  0.944  0.000  0.000     2.246     2.344
 451   1 H      0.037  0.963  0.000  0.000     2.490     2.468
 452   1 H      0.037  0.963  0.000  0.000     2.493     2.469
 453   1 H      0.067  0.933  0.000  0.000     2.118     2.276
 454   1 H      0.034  0.966  0.000  0.000     2.530     2.487
 455   1 H      0.029  0.971  0.000  0.000     2.602     2.523
 456   1 H      0.181  0.819  0.000  0.000     1.207     1.721
 457   1 H      0.081  0.919  0.000  0.000     1.969     2.194
 458   1 H      0.181  0.819  0.000  0.000     1.207     1.721
 459   1 H      0.067  0.933  0.000  0.000     2.118     2.276
 460   1 H      0.171  0.829  0.000  0.000     1.269     1.765
 461   1 H      0.066  0.934  0.000  0.000     2.128     2.281
 462   1 H      0.178  0.822  0.000  0.000     1.227     1.735
 463   1 H      0.066  0.934  0.000  0.000     2.130     2.282
 464   1 H      0.188  0.812  0.000  0.000     1.168     1.693
 465   1 H      0.075  0.925  0.000  0.000     2.031     2.228
 466   1 H      0.179  0.821  0.000  0.000     1.222     1.731
 467   1 H      0.069  0.931  0.000  0.000     2.095     2.263
 468   1 H      0.185  0.815  0.000  0.000     1.186     1.706
 469   1 H      0.074  0.926  0.000  0.000     2.043     2.235
 470   1 H      0.176  0.824  0.000  0.000     1.238     1.743
 471   1 H      0.071  0.929  0.000  0.000     2.072     2.251
 472   1 H      0.186  0.814  0.000  0.000     1.180     1.701
 473   1 H      0.072  0.928  0.000  0.000     2.066     2.248

 Mol. C6AA /au·bohr⁶  :    1883260.794533
 Mol. C8AA /au·bohr⁸  :   41419815.138131
 Mol. α(0) /au        :       2048.914566

 
molecular dipole:
                 x           y           z       tot (Debye)
 q only:       -3.020      13.784      38.393
   full:       -2.777      14.985      42.069     113.730
molecular quadrupole (traceless):
                xx          xy          yy          xz          yz          zz
 q only:    -3772.053     700.662     131.099    2498.341    6270.305    3640.954
  q+dip:    -4085.284     849.970      70.636    2797.284    6888.895    4014.648
   full:    -4084.122     854.859      75.954    2797.159    6887.056    4008.168
speedup  1.00
cpu  time for grad    9.64 s
wall time for grad    9.65 s

SCC energy    :    -671.4352571
rep           :       8.5294797
ES            :       1.4069870
AES           :       0.0087123
AXC           :       0.2573543
disp          :      -0.6073402
XB            :       0.0000000
fix           :       0.0000000
Gborn         :       0.0000000
Gsasa         :       0.0000000
Ghb           :       0.0000000
Gshift        :       0.0000000
Gsolv         :      -0.2252461     -141.34
Etot ala COSMO:    -671.4352571
grad norm     :       0.6677768
total E       :    -662.8526134
atomizationE  :     127.0584439    79730.38
(atE without considering molecular charge,
 total energy contains solvation terms)
H-L gap (eV)  :          1.4322

------------------------------------------------------------------------
 * finished run on 2019/03/14 at 15:08:29.992     
------------------------------------------------------------------------
 total:
 * wall-time:     0 d,  0 h,  0 min, 10.527 sec
 *  cpu-time:     0 d,  0 h,  0 min, 10.342 sec
 * ratio c/w:     0.982 speedup
 SCF:
 * wall-time:     0 d,  0 h,  0 min, 10.153 sec
 *  cpu-time:     0 d,  0 h,  0 min, 10.150 sec
 * ratio c/w:     1.000 speedup

