      -----------------------------------------------------------      
     |                   =====================                   |     
     |                           x T B                           |     
     |                   =====================                   |     
     |                         S. Grimme                         |     
     |          Mulliken Center for Theoretical Chemistry        |     
     |                    University of Bonn                     |     
     |                 Version 6.0.1 (SAW181210)                 |     
      -----------------------------------------------------------      

   This program is distributed in the hope that it will be useful,
   but WITHOUT ANY WARRANTY; without even the implied warranty of
   MERCHANTABILITY or FITNESS FOR A PARTICULAR PURPOSE.
   
   FOR NON-COMMERCIAL, ACADEMIA USE ONLY.
   
   Cite this work as:
   S. Grimme, C. Bannwarth, P. Shushkov, J. Comput. Theory Chem., 2017,
   13, 1989-2009.
   C. Bannwarth, S. Ehlert and S. Grimme., ChemRxiv, 2018, preprint.
   http://doi.org/10.26434/chemrxiv.7246238.v1
   
   for sTDA-xTB:
   S. Grimme and C. Bannwarth, J. Chem. Phys., 2016, 145, 054103.
   
   in the mass-spec context:
   V. Asgeirsson, C. Bauer and S. Grimme, Chem. Sci., 2017, 8, 4879.
   
   if GBSA is used:
   P. Shushkov, F. März and S. Grimme, unpublished.
   
   for ANC optimizer:
   S. Grimme, unpublished.
   Rational Function algorithm used in ANCopt:
   F. Eckert, P. Pulay, H.-J. Werner, J. Comput. Chem., 1997, 18, 1473.
   
   with help from (in alphabetical order)
   C. Bannwarth, F. Bohle, G. Brandenburg, E. Caldeweyher, M. Checinski,
   S. Dohm, S. Ehlert, S. Ehrlich, F. März, H. Neugebauer, J. Pisarek,
   P. Pracht, P. Shushkov, and S. Spicher.
   
 * started run on 2019/02/13 at 00:16:51.644     
========================================================================
 # omp threads = 16
========================================================================
number of atoms            : 429
number of electrons        : 1166
charge                     : 1
spin                       : .0
first test random number   : .9749

########################################################################
# WARNING! Please study the warnings concerning your input carefully
#  - Process number higher than OMP_NUM_THREADS, I hope you know what you are doing.
########################################################################

           ------------------------------------------------- 
          |                 G F N 2 - x T B                 |
          | Geometry, Frequencies, Noncovalent interactions |
          |            JCTC 2018 parametrisation            |
           ------------------------------------------------- 
 
      method parameters     
 k(s)        :  1.8500
 k(p)        :  2.2300
 k(d)        :  2.2300
 k(f)        :  2.0000
 kEN (H0ij)  : -2.0000
 D4 a1       :  0.5200
 D4 a2       :  5.0000
 D4 s6       :  1.0000
 D4 s8       :  2.7000
 D4 s9       :  5.0000
 alphaj      :  2.0000

 Solvent             : h2o
 Using internal parameter file: .param_gbsa2_h2o
 Gsolv ref. state (COSMO-RS): gsolv [1 M gas/solution]
 temperature (mdtemp)       :    298.150000000000     
 dielectric constant        :    80.2000000000000     
 rho                        :    1.00000000000000     
 mass                       :    18.0000000000000     
 surface tension            :    15.5689454083859     
 probe radius               :   0.975313790000000     
 vdW radii scaling          :    1.00000000000000     
 Gshift (Eh)                :   1.857443126794793E-003
 c1                         :    1.55243817000000     
 soset                      :   0.130326360000000     
 HB correction              :  T

            Z     q(EN)     CN     RAES       Cart. coordinates
     1  N   5.0   -0.21    3.22    1.96   417.10943   122.67530   230.87506
     2  C   4.0    0.03    4.34    4.27   418.52585   124.45838   229.36373
     3  C   4.0    0.15    3.49    3.11   421.34209   124.13310   229.84906
     4  O   6.0   -0.31    1.30    1.80   422.85946   123.89183   228.10213
     5  C   4.0   -0.04    4.34    4.28   417.73992   127.17736   229.98788
     6  C   4.0   -0.01    3.60    3.16   419.44767   129.01558   228.65075
     7  C   4.0   -0.04    3.48    3.10   419.14011   129.44716   226.07976
     8  C   4.0   -0.04    3.47    3.10   421.36212   130.27103   229.93497
     9  C   4.0   -0.05    3.38    3.07   420.69887   131.12707   224.82191
    10  C   4.0   -0.04    3.38    3.07   422.94559   131.92425   228.66881
    11  C   4.0   -0.05    3.38    3.07   422.61893   132.35052   226.10996
    12  H   1.0    0.09    1.03    1.43   415.60706   123.33571   231.85934
    13  H   1.0    0.05    1.05    1.44   418.18632   124.05483   227.35519
    14  H   1.0    0.04    1.03    1.43   415.78464   127.43390   229.38238
    15  H   1.0    0.04    1.03    1.43   417.81421   127.44174   232.02936
    16  H   1.0    0.05    1.03    1.43   417.66490   128.46430   225.06383
    17  H   1.0    0.06    1.03    1.43   421.61443   129.94811   231.93437
    18  H   1.0    0.04    1.03    1.43   420.38224   131.48813   222.84241
    19  H   1.0    0.05    1.03    1.43   424.42969   132.88825   229.68078
    20  H   1.0    0.04    1.03    1.43   423.85768   133.63298   225.12858
    21  N   5.0   -0.15    3.45    2.05   422.10387   124.31151   232.24035
    22  C   4.0    0.04    4.34    4.27   424.78765   124.41364   232.78058
    23  C   4.0    0.09    3.23    3.04   426.16002   121.97388   232.08194
    24  O   6.0   -0.30    1.14    1.80   428.34330   122.03390   231.32295
    25  C   4.0   -0.05    4.26    4.12   425.38039   125.22710   235.48850
    26  C   4.0   -0.05    4.17    3.94   424.40964   123.45653   237.55157
    27  C   4.0   -0.04    4.18    3.95   424.98818   124.56288   240.16463
    28  C   4.0   -0.03    4.13    3.85   427.74057   124.15580   240.92551
    29  N   5.0   -0.11    4.03    2.95   428.36876   125.72232   243.16874
    30  H   1.0    0.08    1.06    1.44   420.84315   124.32374   233.67566
    31  H   1.0    0.05    1.07    1.44   425.58914   125.84624   231.50827
    32  H   1.0    0.05    1.03    1.43   427.43412   125.36535   235.59145
    33  H   1.0    0.06    1.03    1.43   424.61181   127.11861   235.77512
    34  H   1.0    0.04    1.02    1.43   422.37233   123.19485   237.37311
    35  H   1.0    0.05    1.03    1.43   425.28469   121.59986   237.36372
    36  H   1.0    0.06    1.03    1.43   424.58378   126.58359   240.11870
    37  H   1.0    0.05    1.03    1.43   423.74959   123.67381   241.54907
    38  H   1.0    0.05    1.02    1.43   428.05897   122.16809   241.36919
    39  H   1.0    0.05    1.02    1.43   429.00114   124.70263   239.39373
    40  H   1.0    0.07    1.02    1.43   430.10851   125.23903   243.87452
    41  H   1.0    0.11    1.10    1.44   428.44644   127.66557   242.66493
    42  H   1.0    0.07    1.02    1.43   427.02340   125.48537   244.54628
    43  N   5.0   -0.20    3.25    1.97   427.67617   123.36793   225.72871
    44  C   4.0    0.03    4.24    4.09   429.23405   125.59872   225.50965
    45  C   4.0    0.15    3.47    3.10   431.84917   125.30285   226.68577
    46  O   6.0   -0.33    1.35    1.80   433.39381   127.03384   226.49969
    47  C   4.0   -0.07    4.11    3.83   427.86262   127.89899   226.55346
    48  H   1.0    0.12    1.07    1.44   426.12219   123.49284   226.84520
    49  H   1.0    0.04    1.06    1.44   429.63889   125.88906   223.49072
    50  H   1.0    0.04    1.00    1.43   429.03323   129.56216   226.28597
    51  H   1.0    0.04    1.00    1.43   426.07048   128.14743   225.58670
    52  H   1.0    0.05    1.00    1.43   427.50382   127.64215   228.55703
    53  N   5.0   -0.14    3.52    2.09   432.41192   123.10090   227.75957
    54  C   4.0    0.04    4.47    4.49   434.99061   122.48341   228.39999
    55  C   4.0    0.17    3.52    3.12   436.75487   123.07039   226.19154
    56  O   6.0   -0.29    1.28    1.80   438.93566   123.74387   226.59214
    57  C   4.0    0.06    4.23    4.06   435.29185   119.64619   229.08601
    58  O   6.0   -0.24    2.11    1.84   434.40534   118.10398   227.11393
    59  C   4.0   -0.06    4.07    3.74   434.05520   119.06583   231.62071
    60  H   1.0    0.10    1.08    1.44   431.04936   121.80641   228.09446
    61  H   1.0    0.06    1.05    1.44   435.64138   123.62561   230.00469
    62  H   1.0    0.06    1.04    1.43   437.33421   119.28854   229.20161
    63  H   1.0    0.12    1.02    1.43   432.63021   117.72289   227.38071
    64  H   1.0    0.06    1.00    1.43   434.15053   117.04374   231.96538
    65  H   1.0    0.05    1.00    1.43   435.04050   120.05289   233.12373
    66  H   1.0    0.06    1.00    1.43   432.08476   119.64705   231.60813
    67  N   5.0   -0.13    3.42    2.03   435.77898   122.81866   223.86998
    68  C   4.0    0.02    4.25    4.09   437.28230   123.33432   221.65307
    69  C   4.0    0.16    3.34    3.06   438.60423   125.91084   221.62934
    70  O   6.0   -0.28    1.23    1.80   440.35314   126.27715   220.15373
    71  H   1.0    0.09    1.07    1.44   434.05297   122.03046   223.61463
    72  H   1.0    0.07    1.02    1.43   438.78307   121.92318   221.42767
    73  H   1.0    0.05    1.03    1.43   436.05758   123.24716   219.99656
    74  N   5.0   -0.14    3.53    2.10   437.69079   127.70864   223.14777
    75  C   4.0    0.04    4.43    4.43   438.74485   130.22681   223.17587
    76  C   4.0    0.16    3.44    3.09   441.01382   130.57070   224.94221
    77  O   6.0   -0.29    1.24    1.80   442.22315   132.54091   224.90071
    78  C   4.0   -0.04    4.36    4.31   436.70199   132.15107   223.88462
    79  C   4.0   -0.02    4.19    3.98   434.52317   132.23815   221.97882
    80  C   4.0   -0.08    4.10    3.81   432.43100   133.99153   222.90966
    81  C   4.0   -0.06    4.12    3.85   435.44811   133.11912   219.40237
    82  H   1.0    0.11    1.11    1.45   436.23196   127.38052   224.35035
    83  H   1.0    0.06    1.07    1.44   439.47662   130.61413   221.27734
    84  H   1.0    0.05    1.03    1.43   435.97452   131.65996   225.75131
    85  H   1.0    0.05    1.03    1.43   437.59141   134.00622   224.02118
    86  H   1.0    0.05    1.06    1.44   433.73251   130.33428   221.80404
    87  H   1.0    0.04    1.00    1.43   430.87515   134.00377   221.56923
    88  H   1.0    0.04    1.00    1.43   431.72307   133.38342   224.74053
    89  H   1.0    0.05    1.00    1.43   433.11107   135.92251   223.09353
    90  H   1.0    0.07    1.02    1.43   433.86297   133.29211   218.11290
    91  H   1.0    0.05    1.00    1.43   436.33583   134.96074   219.58745
    92  H   1.0    0.05    1.00    1.43   436.80764   131.79394   218.61839
    93  N   5.0   -0.12    3.41    2.03   441.61234   128.60249   226.41947
    94  C   4.0    0.03    4.26    4.12   443.46782   128.90094   228.39499
    95  C   4.0    0.17    3.35    3.07   442.50655   130.80090   230.35585
    96  O   6.0   -0.30    1.32    1.80   440.38175   131.68988   230.23389
    97  H   1.0    0.12    1.10    1.44   440.50436   127.04070   226.45301
    98  H   1.0    0.06    1.02    1.43   443.80818   127.07514   229.28337
    99  H   1.0    0.06    1.03    1.43   445.22144   129.63814   227.58372
   100  N   5.0   -0.13    3.36    2.00   444.20425   131.49602   232.10940
   101  C   4.0    0.03    4.27    4.13   443.46329   133.04459   234.22927
   102  C   4.0    0.17    3.31    3.06   442.64193   131.42118   236.48713
   103  O   6.0   -0.26    1.23    1.80   443.02377   129.14457   236.56017
   104  H   1.0    0.09    1.06    1.44   445.80397   130.47938   232.31294
   105  H   1.0    0.06    1.02    1.43   445.04198   134.25035   234.79081
   106  H   1.0    0.06    1.04    1.43   441.87580   134.22038   233.63294
   107  N   5.0   -0.13    3.50    2.08   441.48998   132.74343   238.30514
   108  C   4.0    0.05    4.46    4.48   440.84658   131.67875   240.73212
   109  C   4.0    0.15    3.41    3.08   438.01507   131.15540   241.01934
   110  O   6.0   -0.28    1.23    1.80   437.24462   129.34200   242.22562
   111  C   4.0    0.05    4.24    4.07   441.75710   133.48018   242.84297
   112  O   6.0   -0.23    2.13    1.84   444.30083   134.08386   242.29384
   113  C   4.0   -0.06    4.07    3.75   441.48230   132.27987   245.44622
   114  H   1.0    0.11    1.11    1.45   441.37695   134.64677   238.14844
   115  H   1.0    0.08    1.06    1.44   441.83332   129.86517   240.89548
   116  H   1.0    0.05    1.03    1.43   440.60573   135.21451   242.71858
   117  H   1.0    0.12    1.03    1.43   445.08337   134.79110   243.78279
   118  H   1.0    0.05    1.00    1.43   441.90308   133.65473   246.91401
   119  H   1.0    0.06    1.00    1.43   439.57239   131.58153   245.71028
   120  H   1.0    0.06    1.00    1.43   442.78110   130.69543   245.60796
   121  N   5.0   -0.13    3.48    2.06   436.46217   132.90128   240.04141
   122  C   4.0    0.05    4.48    4.50   433.75983   132.47501   240.00983
   123  C   4.0    0.17    3.49    3.11   432.61810   133.68021   237.65776
   124  O   6.0   -0.31    1.30    1.80   433.49843   135.63420   236.77805
   125  C   4.0   -0.03    4.27    4.14   432.46318   133.62610   242.33258
   126  C   4.0    0.25    3.15    3.03   429.68538   132.73339   242.48784
   127  O   6.0   -0.32    1.35    1.80   428.07274   134.24769   243.30290
   128  O   6.0   -0.32    1.34    1.80   429.23111   130.52991   241.80776
   129  H   1.0    0.10    1.08    1.44   437.12144   134.18777   238.79144
   130  H   1.0    0.07    1.07    1.44   433.44412   130.43095   240.00710
   131  H   1.0    0.06    1.03    1.43   433.42997   132.94223   244.02315
   132  H   1.0    0.06    1.02    1.43   432.58506   135.68285   242.28063
   133  N   5.0   -0.13    3.53    2.10   430.49492   132.58508   236.84082
   134  C   4.0    0.04    4.36    4.31   429.17174   133.26036   234.54407
   135  C   4.0    0.14    3.44    3.09   426.33892   133.29723   235.17359
   136  O   6.0   -0.31    1.26    1.80   425.28320   131.38620   235.92435
   137  C   4.0   -0.04    4.24    4.08   429.60614   131.30854   232.38848
   138  C   4.0   -0.03    4.23    4.07   431.47032   129.16688   232.99381
   139  C   4.0    0.16    3.23    3.04   434.19712   130.08918   232.96034
   140  O   6.0   -0.27    1.27    1.80   435.29665   130.81730   234.86884
   141  N   5.0   -0.19    3.21    1.96   435.27114   130.06522   230.68073
   142  H   1.0    0.10    1.09    1.44   429.78237   131.10638   237.82591
   143  H   1.0    0.06    1.06    1.44   429.81249   135.14302   233.98624
   144  H   1.0    0.04    1.04    1.43   427.78486   130.44203   231.95660
   145  H   1.0    0.04    1.02    1.43   430.25251   132.30310   230.70356
   146  H   1.0    0.05    1.03    1.43   431.06122   128.35997   234.84011
   147  H   1.0    0.05    1.03    1.43   431.25723   127.70351   231.55936
   148  H   1.0    0.11    1.06    1.44   434.43143   129.24904   229.16845
   149  H   1.0    0.13    1.07    1.44   437.07195   130.69163   230.49202
   150  N   5.0   -0.14    3.47    2.06   425.12552   135.48323   234.81238
   151  C   4.0    0.04    4.42    4.42   422.45968   135.69531   235.42261
   152  C   4.0    0.15    3.37    3.07   421.17451   137.63295   233.70265
   153  O   6.0   -0.31    1.26    1.80   422.37319   139.14730   232.43344
   154  C   4.0   -0.04    4.26    4.11   422.07909   136.22484   238.26108
   155  C   4.0   -0.03    4.18    3.96   423.65584   138.42735   239.26677
   156  C   4.0   -0.04    4.18    3.96   423.63641   138.38372   242.16042
   157  C   4.0   -0.03    4.11    3.82   425.56773   140.14144   243.37205
   158  N   5.0   -0.11    4.03    2.93   428.17126   139.18365   242.93066
   159  H   1.0    0.11    1.07    1.44   426.04324   137.06863   234.25437
   160  H   1.0    0.05    1.07    1.44   421.62131   133.84416   235.00460
   161  H   1.0    0.05    1.03    1.43   420.08222   136.57506   238.62905
   162  H   1.0    0.06    1.03    1.43   422.64514   134.51008   239.26018
   163  H   1.0    0.06    1.03    1.43   425.58315   138.22827   238.55762
   164  H   1.0    0.06    1.02    1.43   422.90611   140.21281   238.54776
   165  H   1.0    0.05    1.03    1.43   421.75800   138.90605   242.81911
   166  H   1.0    0.06    1.03    1.43   424.03325   136.46277   242.79817
   167  H   1.0    0.05    1.02    1.43   425.38536   142.04793   242.61011
   168  H   1.0    0.05    1.02    1.43   425.24963   140.18466   245.40581
   169  H   1.0    0.07    1.02    1.43   429.46191   140.03963   244.08976
   170  H   1.0    0.10    1.14    1.45   428.21948   137.13068   243.23356
   171  H   1.0    0.07    1.02    1.43   428.71153   139.50133   241.09986
   172  N   5.0   -0.14    3.49    2.07   418.65380   137.34519   233.58518
   173  C   4.0    0.04    4.50    4.54   416.96054   138.94653   232.16029
   174  C   4.0    0.16    3.45    3.09   415.79376   140.89336   233.95041
   175  O   6.0   -0.28    1.23    1.80   415.10691   140.32508   236.08885
   176  C   4.0   -0.02    4.33    4.25   414.89121   137.35940   230.86603
   177  C   4.0   -0.05    4.19    3.98   416.12670   135.56095   228.95864
   178  C   4.0   -0.07    4.14    3.88   412.95068   139.10126   229.63338
   179  C   4.0   -0.07    4.01    3.64   414.27127   133.77708   227.66997
   180  H   1.0    0.08    1.07    1.44   417.80091   136.22535   234.87262
   181  H   1.0    0.07    1.07    1.44   418.08447   139.93581   230.73760
   182  H   1.0    0.05    1.05    1.44   413.93647   136.24105   232.32532
   183  H   1.0    0.04    1.03    1.43   417.10717   136.68110   227.52896
   184  H   1.0    0.05    1.03    1.43   417.55857   134.44151   229.93752
   185  H   1.0    0.05    1.00    1.43   411.63912   138.01656   228.49126
   186  H   1.0    0.05    1.00    1.43   411.84606   140.11456   231.04017
   187  H   1.0    0.05    1.00    1.43   413.89503   140.48723   228.44603
   188  H   1.0    0.04    1.01    1.43   415.31917   132.36216   226.61483
   189  H   1.0    0.04    1.00    1.43   413.08451   132.82715   229.05077
   190  H   1.0    0.04    1.00    1.43   413.05215   134.78947   226.36674
   191  N   5.0   -0.14    3.48    2.07   415.54645   143.20842   232.96211
   192  C   4.0    0.04    4.30    4.20   415.14834   145.42388   234.52422
   193  C   4.0    0.09    3.19    3.03   412.61532   146.70879   233.87957
   194  O   6.0   -0.28    1.14    1.80   412.51640   148.73548   232.78168
   195  C   4.0   -0.02    4.28    4.16   417.33598   147.25467   234.13166
   196  C   4.0    0.26    3.11    3.03   419.99887   145.98373   234.29838
   197  O   6.0   -0.28    1.17    1.80   420.36365   144.34143   235.92782
   198  O   6.0   -0.31    1.25    1.80   421.59469   146.82274   232.76134
   199  H   1.0    0.11    1.10    1.44   416.32548   143.52326   231.24036
   200  H   1.0    0.07    1.06    1.44   415.08809   144.75341   236.48519
   201  H   1.0    0.06    1.03    1.43   417.16820   148.10718   232.26481
   202  H   1.0    0.06    1.02    1.43   417.25575   148.73691   235.56245
   203  N   5.0   -0.19    3.23    1.96   415.95657   145.28924   223.69925
   204  C   4.0    0.03    4.35    4.30   418.13336   146.59650   224.76001
   205  C   4.0    0.15    3.43    3.09   419.38428   144.71046   226.56703
   206  O   6.0   -0.31    1.28    1.80   418.08085   143.50484   228.07081
   207  C   4.0   -0.04    4.25    4.10   417.42663   149.03053   226.13744
   208  C   4.0   -0.05    4.20    4.01   419.85222   150.47413   226.77171
   209  C   4.0   -0.04    4.16    3.92   419.39088   153.18391   227.66184
   210  C   4.0   -0.03    4.12    3.85   418.21700   153.26740   230.29455
   211  N   5.0   -0.11    4.01    2.89   418.21343   155.91656   231.26762
   212  H   1.0    0.10    1.03    1.43   414.58909   144.88627   224.97565
   213  H   1.0    0.04    1.06    1.44   419.41808   147.01610   223.20489
   214  H   1.0    0.05    1.03    1.43   416.26267   150.16964   224.88028
   215  H   1.0    0.06    1.03    1.43   416.39295   148.56034   227.85813
   216  H   1.0    0.06    1.03    1.43   420.92179   149.44079   228.20580
   217  H   1.0    0.05    1.03    1.43   421.02463   150.53086   225.07577
   218  H   1.0    0.05    1.03    1.43   421.22862   154.11674   227.71525
   219  H   1.0    0.05    1.02    1.43   418.20572   154.16207   226.28828
   220  H   1.0    0.05    1.02    1.43   416.27803   152.56915   230.26032
   221  H   1.0    0.05    1.02    1.43   419.32744   152.07200   231.55860
   222  H   1.0    0.07    1.02    1.43   417.38398   155.98311   233.02372
   223  H   1.0    0.06    1.02    1.43   420.04510   156.56308   231.40624
   224  H   1.0    0.06    1.02    1.43   417.22593   157.05393   230.03007
   225  N   5.0   -0.14    3.49    2.07   421.83970   144.39608   226.20532
   226  C   4.0    0.04    4.52    4.57   423.37674   142.63380   227.58985
   227  C   4.0    0.16    3.45    3.10   425.60066   144.04080   228.75521
   228  O   6.0   -0.30    1.22    1.80   426.77692   145.65465   227.57127
   229  C   4.0   -0.02    4.28    4.15   424.40490   140.56377   225.81293
   230  C   4.0   -0.07    4.13    3.85   426.14661   138.76304   227.23754
   231  C   4.0   -0.07    4.12    3.84   422.20281   139.13102   224.62070
   232  H   1.0    0.08    1.07    1.44   422.76947   145.52906   224.97031
   233  H   1.0    0.07    1.07    1.44   422.22766   141.78826   229.08093
   234  H   1.0    0.05    1.05    1.44   425.50451   141.52380   224.34171
   235  H   1.0    0.04    1.00    1.43   426.75939   137.24375   225.99878
   236  H   1.0    0.05    1.00    1.43   427.82798   139.74332   227.89980
   237  H   1.0    0.06    1.00    1.43   425.16868   137.96808   228.86052
   238  H   1.0    0.03    1.00    1.43   422.90343   137.66289   223.36786
   239  H   1.0    0.05    1.00    1.43   421.07993   138.24442   226.09615
   240  H   1.0    0.05    1.00    1.43   421.01049   140.40505   223.53461
   241  N   5.0   -0.13    3.49    2.07   426.14097   143.27980   231.09180
   242  C   4.0    0.04    4.47    4.49   428.34595   144.05349   232.48589
   243  C   4.0    0.14    3.46    3.10   429.92229   141.70349   233.02030
   244  O   6.0   -0.31    1.25    1.80   428.98892   139.85182   234.07716
   245  C   4.0    0.07    4.23    4.06   427.59527   145.33141   235.00634
   246  O   6.0   -0.23    2.11    1.84   426.29593   147.60375   234.58786
   247  C   4.0   -0.06    4.10    3.81   429.96902   145.89922   236.54791
   248  H   1.0    0.11    1.09    1.44   425.02012   141.96764   231.91842
   249  H   1.0    0.07    1.07    1.44   429.41240   145.39558   231.33163
   250  H   1.0    0.06    1.03    1.43   426.36225   143.99850   236.03630
   251  H   1.0    0.16    1.08    1.44   424.63458   147.22491   233.81417
   252  H   1.0    0.06    1.00    1.43   429.46385   147.04659   238.17116
   253  H   1.0    0.05    1.00    1.43   430.85134   144.14618   237.14877
   254  H   1.0    0.07    1.00    1.43   431.29696   146.94172   235.37429
   255  N   5.0   -0.14    3.48    2.06   432.31122   141.82717   232.24686
   256  C   4.0    0.04    4.54    4.59   434.14449   139.90052   232.87616
   257  C   4.0    0.15    3.50    3.11   436.09341   141.10485   234.61579
   258  O   6.0   -0.29    1.29    1.80   437.75145   142.55369   233.88738
   259  C   4.0   -0.01    4.27    4.13   435.47023   138.71150   230.59532
   260  C   4.0   -0.06    4.14    3.89   437.30862   136.71192   231.57432
   261  C   4.0   -0.07    4.12    3.83   433.55329   137.53565   228.80352
   262  H   1.0    0.12    1.11    1.45   432.97160   143.46978   231.48463
   263  H   1.0    0.07    1.09    1.44   433.12647   138.42573   233.90289
   264  H   1.0    0.06    1.05    1.44   436.49953   140.21795   229.61284
   265  H   1.0    0.06    1.00    1.43   438.24617   135.74875   230.02247
   266  H   1.0    0.06    1.00    1.43   438.74108   137.55642   232.78537
   267  H   1.0    0.07    1.00    1.43   436.29753   135.30810   232.68398
   268  H   1.0    0.04    1.00    1.43   434.52133   136.35957   227.43176
   269  H   1.0    0.04    1.00    1.43   432.22476   136.37499   229.85747
   270  H   1.0    0.06    1.00    1.43   432.51702   138.99356   227.79687
   271  N   5.0   -0.13    3.50    2.07   435.79509   140.50867   237.05749
   272  C   4.0    0.04    4.47    4.49   437.60255   141.36559   238.93568
   273  C   4.0    0.15    3.47    3.10   440.20032   140.33313   238.17687
   274  O   6.0   -0.32    1.29    1.80   440.66193   138.07472   238.34941
   275  C   4.0    0.06    4.25    4.09   436.79819   140.35137   241.54826
   276  O   6.0   -0.26    2.11    1.84   434.24881   140.92013   242.03928
   277  C   4.0   -0.07    4.07    3.75   438.55671   141.35935   243.59967
   278  H   1.0    0.11    1.10    1.44   434.72798   138.96964   237.47955
   279  H   1.0    0.05    1.05    1.44   437.61978   143.43723   238.91502
   280  H   1.0    0.06    1.04    1.43   436.89634   138.28340   241.47389
   281  H   1.0    0.12    1.03    1.43   434.10002   142.72854   242.27812
   282  H   1.0    0.05    1.00    1.43   437.95975   140.65047   245.43128
   283  H   1.0    0.05    1.00    1.43   440.47865   140.73793   243.23800
   284  H   1.0    0.05    1.00    1.43   438.52228   143.41497   243.62860
   285  N   5.0   -0.14    3.36    2.00   441.87847   142.03955   237.35014
   286  C   4.0    0.02    4.24    4.08   444.38695   141.33182   236.54954
   287  C   4.0    0.15    3.30    3.05   444.75989   140.67128   233.75654
   288  O   6.0   -0.29    1.23    1.80   446.82124   139.92439   233.03062
   289  H   1.0    0.09    1.06    1.44   441.27008   143.79595   236.91697
   290  H   1.0    0.06    1.03    1.43   445.70245   142.85375   237.01039
   291  H   1.0    0.07    1.03    1.43   444.93975   139.64877   237.61952
   292  N   5.0   -0.13    3.37    2.01   442.75598   140.89188   232.22882
   293  C   4.0    0.02    4.26    4.12   442.93815   140.21011   229.58256
   294  C   4.0    0.15    3.33    3.06   443.64026   142.51614   227.98909
   295  O   6.0   -0.29    1.27    1.80   442.11115   144.18455   227.48572
   296  H   1.0    0.12    1.09    1.44   441.11337   141.69329   232.80975
   297  H   1.0    0.06    1.03    1.43   444.37186   138.73797   229.39920
   298  H   1.0    0.05    1.03    1.43   441.10807   139.49878   228.96060
   299  N   5.0   -0.13    3.48    2.07   446.04891   142.60839   227.25522
   300  C   4.0    0.04    4.47    4.49   447.07274   144.66557   225.76398
   301  C   4.0    0.16    3.42    3.09   445.61954   144.90465   223.25089
   302  O   6.0   -0.29    1.23    1.80   445.98983   143.52980   221.44819
   303  C   4.0    0.06    4.24    4.08   449.90880   144.15509   225.30304
   304  O   6.0   -0.23    2.16    1.85   450.18066   141.54527   224.84901
   305  C   4.0   -0.06    4.06    3.73   451.47851   145.00628   227.57412
   306  H   1.0    0.10    1.09    1.44   447.23088   141.12836   227.52037
   307  H   1.0    0.05    1.06    1.44   446.84664   146.43811   226.81335
   308  H   1.0    0.05    1.04    1.43   450.47697   145.23179   223.61727
   309  H   1.0    0.13    1.03    1.43   451.92560   141.18892   224.48141
   310  H   1.0    0.05    1.00    1.43   453.46737   144.60064   227.25071
   311  H   1.0    0.05    1.00    1.43   451.26492   147.02523   227.86878
   312  H   1.0    0.06    1.00    1.43   450.86789   144.00919   229.26466
   313  N   5.0   -0.14    3.38    2.01   443.98391   146.85605   223.20485
   314  C   4.0    0.03    4.25    4.11   442.44882   147.34455   221.00485
   315  C   4.0    0.16    3.31    3.06   440.20890   145.55839   220.63518
   316  O   6.0   -0.28    1.23    1.80   439.38939   145.13952   218.51475
   317  H   1.0    0.10    1.07    1.44   443.43221   147.62035   224.86370
   318  H   1.0    0.06    1.03    1.43   441.73137   149.27632   221.09724
   319  H   1.0    0.07    1.03    1.43   443.64163   147.15338   219.32717
   320  N   5.0   -0.14    3.52    2.09   439.23808   144.52697   222.73075
   321  C   4.0    0.04    4.44    4.44   437.24987   142.65847   222.62719
   322  C   4.0    0.16    3.38    3.07   434.82326   143.55201   223.93037
   323  O   6.0   -0.31    1.24    1.80   433.23662   142.07480   224.72554
   324  C   4.0   -0.04    4.26    4.12   438.12733   140.11226   223.69506
   325  C   4.0   -0.04    4.19    3.98   440.66843   139.23665   222.63404
   326  C   4.0   -0.03    4.20    4.00   440.68485   139.04884   219.75631
   327  C   4.0   -0.02    4.13    3.86   443.28418   138.30658   218.76961
   328  N   5.0   -0.11    4.04    2.97   443.25254   138.43660   215.96315
   329  H   1.0    0.11    1.09    1.44   440.02572   144.83347   224.45341
   330  H   1.0    0.07    1.07    1.44   436.72631   142.43695   220.63133
   331  H   1.0    0.05    1.03    1.43   438.27533   140.30291   225.74290
   332  H   1.0    0.05    1.03    1.43   436.64331   138.74598   223.28441
   333  H   1.0    0.06    1.03    1.43   442.13623   140.55700   223.23013
   334  H   1.0    0.05    1.03    1.43   441.12772   137.39920   223.45059
   335  H   1.0    0.06    1.03    1.43   439.28981   137.66498   219.14277
   336  H   1.0    0.07    1.04    1.43   440.17824   140.87303   218.95157
   337  H   1.0    0.07    1.02    1.43   444.70987   139.60285   219.50866
   338  H   1.0    0.05    1.02    1.43   443.74028   136.38481   219.35189
   339  H   1.0    0.07    1.02    1.43   444.84096   137.63794   215.19774
   340  H   1.0    0.10    1.08    1.44   441.63096   137.51380   215.29280
   341  H   1.0    0.07    1.02    1.43   443.11858   140.28121   215.36583
   342  N   5.0   -0.11    3.54    2.11   434.53287   146.06264   223.97809
   343  C   4.0    0.04    4.32    4.24   432.31239   147.32751   224.92635
   344  C   4.0    0.09    3.23    3.04   431.04087   148.69480   222.72985
   345  O   6.0   -0.26    1.14    1.80   432.24948   149.47957   220.91818
   346  C   4.0   -0.02    4.26    4.11   432.99541   149.28188   226.94746
   347  C   4.0    0.26    3.13    3.03   434.71295   147.99326   228.98071
   348  O   6.0   -0.30    1.24    1.80   433.60012   146.66886   230.58726
   349  O   6.0   -0.26    1.16    1.80   437.01509   148.38788   228.81129
   350  H   1.0    0.10    1.08    1.44   435.90834   147.18468   223.28602
   351  H   1.0    0.07    1.06    1.44   431.06302   145.89163   225.73532
   352  H   1.0    0.07    1.02    1.43   434.04067   150.84549   226.09812
   353  H   1.0    0.06    1.02    1.43   431.27564   149.96782   227.84740
   354  N   5.0   -0.18    3.24    1.97   421.48086   142.46903   215.79906
   355  C   4.0    0.03    4.22    4.04   421.82850   140.10701   214.48685
   356  C   4.0    0.08    3.22    3.04   419.23342   138.99286   213.85192
   357  O   6.0   -0.27    1.14    1.80   417.32671   139.68290   214.95110
   358  C   4.0   -0.04    4.33    4.25   423.21471   138.20889   216.21431
   359  C   4.0   -0.02    3.54    3.13   425.94192   138.86974   216.68329
   360  C   4.0   -0.05    3.47    3.10   426.79553   139.51331   219.07984
   361  C   4.0   -0.04    3.48    3.10   427.70559   138.70821   214.74887
   362  C   4.0   -0.03    3.43    3.09   429.33753   139.84681   219.58347
   363  C   4.0   -0.02    3.46    3.10   430.25318   138.97020   215.23650
   364  C   4.0    0.08    3.45    3.10   431.09856   139.48553   217.66810
   365  O   6.0   -0.24    2.11    1.84   433.60680   139.68182   218.21273
   366  H   1.0    0.10    1.03    1.43   420.11558   142.46731   217.14990
   367  H   1.0    0.05    1.05    1.44   422.92169   140.46543   212.77003
   368  H   1.0    0.04    1.03    1.43   422.20727   138.13087   218.01200
   369  H   1.0    0.04    1.03    1.43   423.11004   136.34347   215.34126
   370  H   1.0    0.04    1.03    1.43   425.45028   139.72645   220.59233
   371  H   1.0    0.05    1.03    1.43   427.10222   138.35413   212.83300
   372  H   1.0    0.07    1.03    1.43   429.99855   140.32640   221.45397
   373  H   1.0    0.07    1.03    1.43   431.59708   138.71317   213.72811
   374  H   1.0    0.13    1.04    1.43   434.57054   138.86284   216.89410
   375  N   5.0   -0.19    3.22    1.96   419.49460   124.95932   220.07452
   376  C   4.0    0.03    4.22    4.04   420.87711   126.79205   218.55385
   377  C   4.0    0.08    3.22    3.04   421.23806   125.65405   215.91816
   378  O   6.0   -0.27    1.12    1.80   422.47141   123.71553   215.57293
   379  C   4.0   -0.04    4.35    4.29   423.39721   127.34988   219.84360
   380  C   4.0   -0.02    4.19    3.97   425.06385   129.21049   218.37850
   381  C   4.0   -0.08    4.11    3.82   423.87015   131.80949   218.02995
   382  C   4.0   -0.08    4.11    3.83   427.58733   129.53345   219.74530
   383  H   1.0    0.09    1.02    1.43   420.57161   123.87587   221.25175
   384  H   1.0    0.03    1.05    1.44   419.71083   128.48874   218.38764
   385  H   1.0    0.04    1.03    1.43   423.02206   128.07502   221.73491
   386  H   1.0    0.05    1.03    1.43   424.40230   125.55643   220.03853
   387  H   1.0    0.05    1.06    1.44   425.39558   128.41743   216.49931
   388  H   1.0    0.04    1.01    1.43   425.28535   133.06210   217.22585
   389  H   1.0    0.04    1.00    1.43   422.26081   131.75085   216.75534
   390  H   1.0    0.04    1.00    1.43   423.28671   132.58734   219.83648
   391  H   1.0    0.05    1.00    1.43   428.91693   130.56776   218.56826
   392  H   1.0    0.03    1.00    1.43   427.31135   130.57092   221.49334
   393  H   1.0    0.04    1.00    1.43   428.43639   127.71830   220.20173
   394  N   5.0   -0.20    3.23    1.96   428.84988   129.55590   213.30045
   395  C   4.0    0.03    4.25    4.10   429.74793   131.45594   211.52133
   396  C   4.0    0.14    3.41    3.08   432.05365   132.72157   212.70993
   397  O   6.0   -0.31    1.27    1.80   431.92556   133.83589   214.72207
   398  C   4.0   -0.07    4.11    3.82   427.62136   133.31484   211.00710
   399  H   1.0    0.08    1.03    1.43   427.08203   128.95192   212.86847
   400  H   1.0    0.04    1.05    1.44   430.31879   130.50055   209.76573
   401  H   1.0    0.05    1.00    1.43   428.23875   134.74188   209.66716
   402  H   1.0    0.04    1.00    1.43   426.00793   132.30278   210.23784
   403  H   1.0    0.05    1.01    1.43   427.09409   134.21543   212.77345
   404  N   5.0   -0.14    3.45    2.05   434.18750   132.60782   211.32708
   405  C   4.0    0.04    4.39    4.37   436.64272   133.01315   212.45170
   406  C   4.0    0.09    3.22    3.04   437.29588   135.77544   212.90888
   407  O   6.0   -0.32    1.21    1.80   438.67277   136.35093   214.68339
   408  C   4.0    0.05    4.25    4.10   438.69860   131.83420   210.75291
   409  O   6.0   -0.25    2.15    1.85   438.14233   132.60098   208.25511
   410  C   4.0   -0.07    4.06    3.73   438.76177   128.96387   211.04044
   411  H   1.0    0.09    1.08    1.44   434.21467   131.72620   209.63637
   412  H   1.0    0.05    1.06    1.44   436.68478   132.08779   214.30411
   413  H   1.0    0.05    1.04    1.43   440.53565   132.61736   211.33026
   414  H   1.0    0.13    1.03    1.43   439.35032   131.82638   207.13132
   415  H   1.0    0.05    1.00    1.43   440.06749   128.13869   209.68375
   416  H   1.0    0.05    1.00    1.43   439.37834   128.46875   212.93387
   417  H   1.0    0.05    1.00    1.43   436.89412   128.15824   210.74704
   418  H   1.0    0.10    1.07    1.44   416.48155   121.45371   229.87204
   419  H   1.0    0.06    1.04    1.44   425.27458   120.31226   232.24334
   420  H   1.0    0.10    1.07    1.44   427.09724   122.92659   224.19163
   421  H   1.0    0.07    1.04    1.44   410.98635   145.88153   234.36246
   422  H   1.0    0.10    1.07    1.44   415.24605   146.25566   222.49353
   423  H   1.0    0.06    1.05    1.44   429.17153   148.97128   222.74397
   424  H   1.0    0.09    1.08    1.44   422.92841   142.90357   216.57902
   425  H   1.0    0.06    1.05    1.44   419.07525   137.67044   212.51130
   426  H   1.0    0.09    1.07    1.44   418.37387   125.77169   221.06273
   427  H   1.0    0.06    1.04    1.44   420.45917   126.49031   214.41315
   428  H   1.0    0.10    1.07    1.44   429.89320   128.21307   213.27165
   429  H   1.0    0.06    1.04    1.44   436.60384   137.11169   211.76582

  Z AO/shell   Hii/eV     exponent
  1     Wed Apr 25 08:07:45 CEST 2018   EN: 2.200 GM2: 0.406  GM3: 0.0800  RAES: 1.40
     1s    -10.707211    1.230000
  6     Wed Apr 25 08:07:45 CEST 2018   EN: 2.550 GM2: 0.538  GM3: 0.1500  RAES: 3.00
     2s    -13.970922    2.096432
     2p    -10.063292    1.800000
  7     Wed Apr 25 08:07:45 CEST 2018   EN: 3.040 GM2: 0.461  GM3:-0.0640  RAES: 1.90
     2s    -16.686243    2.339881
     2p    -12.523956    2.014332
  8     Wed Apr 25 08:07:45 CEST 2018   EN: 3.440 GM2: 0.452  GM3:-0.0517  RAES: 1.80
     2s    -20.229985    2.439742
     2p    -15.503117    2.137023
 no old-style atom pair restraining (fixing) potential

molecular fragmentation (1/2 indicates fragments):
111111111111111111111111111111111111111111222222222222222222222222222222
222222222222222222222222222222222222222222222222222222222222222222222222
222222222222222222222222222222222222222222222222222222222222222222222222
222222222222222222222222222222222222222222222222222222222222222222222222
222222222222222222222222222222222222222222222222222222222222222222222222
222222222222222222222222222222222222222222222222222222222112222222222
# atoms in fragment 1/2:    44   385
 fragment masses (1/2) :      278.37     2660.01
CMA distance (Bohr)    :  14.862
constraining FC (au)   :  0.0500
           ------------------------------------------------- 
          |        Self-Consistent Charge Iterations        |
           ------------------------------------------------- 

 Ncao       : 1047
 Nao        : 1047
 Nshell     : 635
 Nel        : 1166
 T(el)      :   500.0
 intcut     :    35.0
 scfconv/Eh :  0.100E-06
   qconv/e  :  0.100E-04
 intneglect :  0.100E-08
 broydamp   :      0.400
 iter      E             dE          RMSdq      gap      omega  full diag
   1   -670.5111488 -0.670511E+03  0.467E+00    3.10       0.0  T
   2   -672.0960591 -0.158491E+01  0.219E+00    1.80       1.0  T
   3   -672.1926592 -0.966001E-01  0.122E+00    1.80       1.0  T
   4   -672.2933209 -0.100662E+00  0.257E-01    1.24       1.0  T
   5   -672.2989514 -0.563048E-02  0.122E-01    1.48       1.0  T
   6   -672.3000414 -0.108999E-02  0.529E-02    1.48       1.0  T
   7   -672.3003492 -0.307834E-03  0.237E-02    1.49       1.0  T
   8   -672.3003878 -0.385855E-04  0.117E-02    1.49       1.0  T
   9   -672.3004038 -0.160056E-04  0.549E-03    1.50       1.0  T
  10   -672.3004068 -0.300653E-05  0.253E-03    1.50       1.9  T
  11   -672.3004075 -0.717618E-06  0.116E-03    1.51       4.2  T
  12   -672.3004077 -0.135187E-06  0.556E-04    1.51       8.7  T
  13   -672.3004077 -0.397147E-07  0.295E-04    1.51      16.4  T
  14   -672.3004077 -0.978866E-08  0.139E-04    1.51      34.7  T
  15   -672.3004077 -0.221280E-08  0.624E-05    1.51      77.4  T
  16   -672.3004077 -0.427121E-09  0.291E-05    1.51     165.7  T
speedup 13.16
cpu  time for SCC   48.31 s
wall time for SCC    3.67 s

   *** convergence criteria satisfied after 16 iterations ***

          eigenvalues
 #    :         571        572        573        574        575        576        577        578
 occ. :        2.000      2.000      2.000      2.000      2.000      2.000      2.000      2.000
 eps  :       -10.626    -10.617    -10.527    -10.422    -10.291    -10.135    -10.131    -10.080
 #    :         579        580        581        582        583        584        585        586
 occ. :        2.000      2.000      2.000      2.000      2.000      0.000      0.000      0.000
 eps  :       -10.050    -10.040    -10.003     -9.910     -9.849     -8.340     -8.170     -7.961
 #    :         587        588        589        590        591        592        593        594
 occ. :        0.000      0.000      0.000      0.000      0.000      0.000      0.000      0.000
 eps  :        -7.844     -7.793     -7.576     -6.790     -6.565     -6.491     -6.436     -6.356


   #   Z            q   n(s)   n(p)   n(d)      C6AA      α(0)
   1   7 N     -0.398  1.313  4.085  0.000    30.307     8.176
   2   6 C      0.039  1.056  2.905  0.000    19.928     6.358
   3   6 C      0.268  1.049  2.682  0.000    22.472     7.763
   4   8 O     -0.501  1.748  4.753  0.000    23.814     6.543
   5   6 C     -0.080  1.058  3.022  0.000    22.022     6.679
   6   6 C      0.010  1.083  2.907  0.000    27.788     8.647
   7   6 C     -0.039  1.078  2.960  0.000    28.960     8.825
   8   6 C     -0.046  1.081  2.965  0.000    29.136     8.852
   9   6 C     -0.034  1.079  2.955  0.000    28.842     8.807
  10   6 C     -0.032  1.078  2.954  0.000    28.801     8.801
  11   6 C     -0.034  1.079  2.956  0.000    28.853     8.809
  12   1 H      0.173  0.827  0.000  0.000     1.258     1.757
  13   1 H      0.031  0.969  0.000  0.000     2.571     2.507
  14   1 H      0.060  0.940  0.000  0.000     2.193     2.316
  15   1 H      0.062  0.938  0.000  0.000     2.177     2.307
  16   1 H      0.034  0.966  0.000  0.000     2.528     2.486
  17   1 H      0.040  0.960  0.000  0.000     2.447     2.446
  18   1 H      0.042  0.958  0.000  0.000     2.423     2.434
  19   1 H      0.018  0.982  0.000  0.000     2.758     2.597
  20   1 H      0.034  0.966  0.000  0.000     2.529     2.487
  21   7 N     -0.162  1.238  3.925  0.000    24.511     7.353
  22   6 C      0.026  1.057  2.917  0.000    20.143     6.390
  23   6 C      0.202  1.085  2.713  0.000    23.699     7.972
  24   8 O     -0.361  1.747  4.614  0.000    20.918     6.132
  25   6 C     -0.088  1.059  3.029  0.000    22.174     6.703
  26   6 C     -0.078  1.050  3.028  0.000    21.984     6.676
  27   6 C     -0.095  1.055  3.041  0.000    22.315     6.725
  28   6 C     -0.041  1.055  2.986  0.000    21.407     6.604
  29   7 N     -0.168  1.240  3.928  0.000    24.624     7.370
  30   1 H      0.224  0.776  0.000  0.000     0.993     1.561
  31   1 H      0.078  0.922  0.000  0.000     2.000     2.212
  32   1 H      0.066  0.934  0.000  0.000     2.127     2.281
  33   1 H      0.095  0.905  0.000  0.000     1.835     2.119
  34   1 H      0.066  0.934  0.000  0.000     2.135     2.285
  35   1 H      0.060  0.940  0.000  0.000     2.201     2.320
  36   1 H      0.082  0.918  0.000  0.000     1.953     2.186
  37   1 H      0.082  0.918  0.000  0.000     1.957     2.188
  38   1 H      0.111  0.889  0.000  0.000     1.688     2.032
  39   1 H      0.096  0.904  0.000  0.000     1.824     2.112
  40   1 H      0.282  0.718  0.000  0.000     0.769     1.374
  41   1 H      0.302  0.698  0.000  0.000     0.707     1.317
  42   1 H      0.286  0.714  0.000  0.000     0.756     1.362
  43   7 N     -0.407  1.308  4.099  0.000    30.556     8.210
  44   6 C      0.039  1.051  2.910  0.000    19.933     6.359
  45   6 C      0.259  1.054  2.687  0.000    22.644     7.793
  46   8 O     -0.512  1.741  4.771  0.000    24.046     6.575
  47   6 C     -0.108  1.039  3.070  0.000    22.620     6.781
  48   1 H      0.186  0.814  0.000  0.000     1.182     1.703
  49   1 H      0.046  0.954  0.000  0.000     2.367     2.406
  50   1 H      0.047  0.953  0.000  0.000     2.357     2.401
  51   1 H      0.053  0.947  0.000  0.000     2.283     2.363
  52   1 H      0.040  0.960  0.000  0.000     2.446     2.446
  53   7 N     -0.163  1.236  3.927  0.000    24.531     7.356
  54   6 C      0.004  1.067  2.929  0.000    20.509     6.448
  55   6 C      0.280  1.040  2.680  0.000    22.254     7.725
  56   8 O     -0.496  1.745  4.751  0.000    23.695     6.526
  57   6 C      0.112  1.046  2.842  0.000    18.842     6.197
  58   8 O     -0.482  1.727  4.755  0.000    22.503     6.404
  59   6 C     -0.152  1.047  3.105  0.000    23.498     6.913
  60   1 H      0.235  0.765  0.000  0.000     0.942     1.520
  61   1 H      0.073  0.927  0.000  0.000     2.058     2.243
  62   1 H      0.048  0.952  0.000  0.000     2.343     2.394
  63   1 H      0.346  0.654  0.000  0.000     0.598     1.214
  64   1 H      0.074  0.926  0.000  0.000     2.041     2.234
  65   1 H      0.061  0.939  0.000  0.000     2.183     2.310
  66   1 H      0.080  0.920  0.000  0.000     1.979     2.200
  67   7 N     -0.168  1.236  3.932  0.000    24.642     7.373
  68   6 C     -0.035  1.052  2.982  0.000    21.261     6.577
  69   6 C      0.278  1.037  2.685  0.000    22.294     7.732
  70   8 O     -0.500  1.747  4.753  0.000    23.777     6.538
  71   1 H      0.216  0.784  0.000  0.000     1.026     1.587
  72   1 H      0.091  0.909  0.000  0.000     1.869     2.138
  73   1 H      0.099  0.901  0.000  0.000     1.795     2.095
  74   7 N     -0.178  1.244  3.935  0.000    24.861     7.405
  75   6 C      0.016  1.061  2.923  0.000    20.304     6.416
  76   6 C      0.274  1.043  2.683  0.000    22.365     7.745
  77   8 O     -0.487  1.741  4.746  0.000    23.505     6.500
  78   6 C     -0.072  1.056  3.015  0.000    21.861     6.655
  79   6 C     -0.011  1.056  2.955  0.000    20.736     6.477
  80   6 C     -0.110  1.040  3.071  0.000    22.658     6.787
  81   6 C     -0.126  1.042  3.084  0.000    22.978     6.834
  82   1 H      0.217  0.783  0.000  0.000     1.025     1.586
  83   1 H      0.092  0.908  0.000  0.000     1.863     2.135
  84   1 H      0.044  0.956  0.000  0.000     2.397     2.421
  85   1 H      0.057  0.943  0.000  0.000     2.230     2.335
  86   1 H      0.036  0.964  0.000  0.000     2.497     2.471
  87   1 H      0.049  0.951  0.000  0.000     2.338     2.391
  88   1 H      0.026  0.974  0.000  0.000     2.643     2.542
  89   1 H      0.036  0.964  0.000  0.000     2.501     2.473
  90   1 H      0.069  0.931  0.000  0.000     2.100     2.266
  91   1 H      0.047  0.953  0.000  0.000     2.361     2.403
  92   1 H      0.034  0.966  0.000  0.000     2.531     2.488
  93   7 N     -0.170  1.237  3.934  0.000    24.686     7.379
  94   6 C     -0.035  1.052  2.983  0.000    21.254     6.575
  95   6 C      0.280  1.041  2.679  0.000    22.268     7.727
  96   8 O     -0.471  1.736  4.735  0.000    23.147     6.450
  97   1 H      0.214  0.786  0.000  0.000     1.035     1.594
  98   1 H      0.091  0.909  0.000  0.000     1.870     2.139
  99   1 H      0.098  0.902  0.000  0.000     1.804     2.100
 100   7 N     -0.168  1.243  3.926  0.000    24.641     7.372
 101   6 C     -0.032  1.050  2.982  0.000    21.205     6.568
 102   6 C      0.279  1.038  2.683  0.000    22.276     7.728
 103   8 O     -0.491  1.744  4.747  0.000    23.588     6.512
 104   1 H      0.219  0.781  0.000  0.000     1.012     1.576
 105   1 H      0.085  0.915  0.000  0.000     1.925     2.170
 106   1 H      0.084  0.916  0.000  0.000     1.940     2.178
 107   7 N     -0.184  1.247  3.937  0.000    24.985     7.424
 108   6 C      0.013  1.064  2.923  0.000    20.360     6.425
 109   6 C      0.271  1.045  2.684  0.000    22.418     7.754
 110   8 O     -0.472  1.735  4.737  0.000    23.163     6.453
 111   6 C      0.116  1.048  2.836  0.000    18.781     6.187
 112   8 O     -0.491  1.731  4.761  0.000    22.709     6.433
 113   6 C     -0.141  1.045  3.096  0.000    23.280     6.881
 114   1 H      0.225  0.775  0.000  0.000     0.989     1.558
 115   1 H      0.086  0.914  0.000  0.000     1.922     2.168
 116   1 H      0.025  0.975  0.000  0.000     2.653     2.547
 117   1 H      0.348  0.652  0.000  0.000     0.594     1.210
 118   1 H      0.069  0.931  0.000  0.000     2.098     2.265
 119   1 H      0.060  0.940  0.000  0.000     2.196     2.318
 120   1 H      0.065  0.935  0.000  0.000     2.137     2.286
 121   7 N     -0.166  1.243  3.922  0.000    24.590     7.365
 122   6 C      0.031  1.055  2.914  0.000    20.049     6.375
 123   6 C      0.289  1.041  2.670  0.000    22.100     7.698
 124   8 O     -0.501  1.739  4.762  0.000    23.809     6.542
 125   6 C     -0.120  1.071  3.049  0.000    22.793     6.797
 126   6 C      0.362  1.024  2.614  0.000    20.856     7.474
 127   8 O     -0.546  1.741  4.805  0.000    24.815     6.679
 128   8 O     -0.565  1.730  4.836  0.000    25.281     6.741
 129   1 H      0.198  0.802  0.000  0.000     1.119     1.657
 130   1 H      0.083  0.917  0.000  0.000     1.949     2.183
 131   1 H      0.075  0.925  0.000  0.000     2.029     2.227
 132   1 H      0.050  0.950  0.000  0.000     2.318     2.381
 133   7 N     -0.170  1.237  3.933  0.000    24.680     7.378
 134   6 C      0.021  1.060  2.919  0.000    20.232     6.406
 135   6 C      0.264  1.045  2.691  0.000    22.551     7.777
 136   8 O     -0.450  1.721  4.729  0.000    22.700     6.388
 137   6 C     -0.062  1.055  3.008  0.000    21.696     6.632
 138   6 C     -0.097  1.057  3.040  0.000    22.345     6.729
 139   6 C      0.289  1.036  2.675  0.000    22.106     7.698
 140   8 O     -0.518  1.758  4.760  0.000    24.190     6.594
 141   7 N     -0.290  1.273  4.017  0.000    27.491     7.787
 142   1 H      0.222  0.778  0.000  0.000     1.003     1.569
 143   1 H      0.057  0.943  0.000  0.000     2.229     2.335
 144   1 H      0.068  0.932  0.000  0.000     2.103     2.268
 145   1 H      0.045  0.955  0.000  0.000     2.382     2.414
 146   1 H      0.074  0.926  0.000  0.000     2.043     2.235
 147   1 H      0.067  0.933  0.000  0.000     2.114     2.274
 148   1 H      0.224  0.776  0.000  0.000     0.991     1.560
 149   1 H      0.224  0.776  0.000  0.000     0.990     1.559
 150   7 N     -0.163  1.238  3.925  0.000    24.530     7.356
 151   6 C      0.016  1.063  2.921  0.000    20.310     6.417
 152   6 C      0.278  1.041  2.681  0.000    22.293     7.731
 153   8 O     -0.491  1.748  4.743  0.000    23.583     6.511
 154   6 C     -0.078  1.059  3.019  0.000    21.986     6.675
 155   6 C     -0.064  1.045  3.019  0.000    21.734     6.638
 156   6 C     -0.093  1.055  3.038  0.000    22.269     6.718
 157   6 C     -0.037  1.055  2.982  0.000    21.326     6.592
 158   7 N     -0.171  1.245  3.926  0.000    24.698     7.381
 159   1 H      0.203  0.797  0.000  0.000     1.090     1.635
 160   1 H      0.087  0.913  0.000  0.000     1.909     2.161
 161   1 H      0.055  0.945  0.000  0.000     2.254     2.348
 162   1 H      0.083  0.917  0.000  0.000     1.952     2.185
 163   1 H      0.037  0.963  0.000  0.000     2.485     2.465
 164   1 H      0.034  0.966  0.000  0.000     2.526     2.485
 165   1 H      0.077  0.923  0.000  0.000     2.008     2.216
 166   1 H      0.093  0.907  0.000  0.000     1.849     2.127
 167   1 H      0.091  0.909  0.000  0.000     1.871     2.139
 168   1 H      0.118  0.882  0.000  0.000     1.630     1.997
 169   1 H      0.274  0.726  0.000  0.000     0.795     1.397
 170   1 H      0.309  0.691  0.000  0.000     0.686     1.298
 171   1 H      0.236  0.764  0.000  0.000     0.939     1.518
 172   7 N     -0.175  1.247  3.928  0.000    24.790     7.395
 173   6 C      0.022  1.063  2.915  0.000    20.207     6.400
 174   6 C      0.282  1.044  2.674  0.000    22.222     7.719
 175   8 O     -0.488  1.743  4.745  0.000    23.528     6.503
 176   6 C     -0.022  1.067  2.954  0.000    20.922     6.506
 177   6 C     -0.059  1.049  3.010  0.000    21.632     6.621
 178   6 C     -0.121  1.038  3.083  0.000    22.869     6.819
 179   6 C     -0.115  1.037  3.078  0.000    22.760     6.804
 180   1 H      0.213  0.787  0.000  0.000     1.043     1.600
 181   1 H      0.069  0.931  0.000  0.000     2.098     2.265
 182   1 H      0.050  0.950  0.000  0.000     2.318     2.381
 183   1 H      0.033  0.967  0.000  0.000     2.541     2.493
 184   1 H      0.034  0.966  0.000  0.000     2.526     2.485
 185   1 H      0.069  0.931  0.000  0.000     2.092     2.262
 186   1 H      0.032  0.968  0.000  0.000     2.565     2.504
 187   1 H      0.046  0.954  0.000  0.000     2.370     2.407
 188   1 H      0.049  0.951  0.000  0.000     2.330     2.387
 189   1 H      0.047  0.953  0.000  0.000     2.358     2.401
 190   1 H      0.045  0.955  0.000  0.000     2.378     2.412
 191   7 N     -0.187  1.259  3.929  0.000    25.056     7.434
 192   6 C      0.037  1.056  2.908  0.000    19.966     6.364
 193   6 C      0.195  1.092  2.713  0.000    23.843     7.997
 194   8 O     -0.340  1.739  4.601  0.000    20.528     6.074
 195   6 C     -0.104  1.068  3.036  0.000    22.486     6.751
 196   6 C      0.373  1.021  2.605  0.000    20.672     7.440
 197   8 O     -0.620  1.771  4.850  0.000    26.626     6.918
 198   8 O     -0.631  1.771  4.860  0.000    26.895     6.953
 199   1 H      0.216  0.784  0.000  0.000     1.026     1.587
 200   1 H      0.081  0.919  0.000  0.000     1.966     2.193
 201   1 H      0.053  0.947  0.000  0.000     2.288     2.366
 202   1 H      0.051  0.949  0.000  0.000     2.312     2.378
 203   7 N     -0.392  1.330  4.062  0.000    30.147     8.155
 204   6 C      0.029  1.061  2.911  0.000    20.103     6.385
 205   6 C      0.279  1.044  2.678  0.000    22.285     7.731
 206   8 O     -0.500  1.738  4.762  0.000    23.786     6.539
 207   6 C     -0.077  1.057  3.020  0.000    21.975     6.674
 208   6 C     -0.069  1.049  3.019  0.000    21.810     6.648
 209   6 C     -0.091  1.054  3.037  0.000    22.230     6.713
 210   6 C     -0.043  1.057  2.985  0.000    21.436     6.609
 211   7 N     -0.151  1.233  3.918  0.000    24.247     7.313
 212   1 H      0.159  0.841  0.000  0.000     1.342     1.815
 213   1 H      0.037  0.963  0.000  0.000     2.492     2.469
 214   1 H      0.066  0.934  0.000  0.000     2.132     2.283
 215   1 H      0.040  0.960  0.000  0.000     2.442     2.444
 216   1 H      0.031  0.969  0.000  0.000     2.567     2.505
 217   1 H      0.044  0.956  0.000  0.000     2.403     2.424
 218   1 H      0.075  0.925  0.000  0.000     2.029     2.228
 219   1 H      0.087  0.913  0.000  0.000     1.907     2.159
 220   1 H      0.115  0.885  0.000  0.000     1.656     2.012
 221   1 H      0.098  0.902  0.000  0.000     1.800     2.098
 222   1 H      0.304  0.696  0.000  0.000     0.701     1.312
 223   1 H      0.297  0.703  0.000  0.000     0.722     1.331
 224   1 H      0.308  0.692  0.000  0.000     0.689     1.300
 225   7 N     -0.165  1.243  3.923  0.000    24.573     7.362
 226   6 C      0.025  1.059  2.915  0.000    20.144     6.390
 227   6 C      0.282  1.039  2.679  0.000    22.225     7.720
 228   8 O     -0.513  1.746  4.766  0.000    24.067     6.577
 229   6 C     -0.009  1.060  2.949  0.000    20.699     6.471
 230   6 C     -0.108  1.036  3.072  0.000    22.627     6.782
 231   6 C     -0.108  1.038  3.070  0.000    22.627     6.782
 232   1 H      0.200  0.800  0.000  0.000     1.107     1.648
 233   1 H      0.075  0.925  0.000  0.000     2.030     2.228
 234   1 H      0.035  0.965  0.000  0.000     2.518     2.481
 235   1 H      0.062  0.938  0.000  0.000     2.181     2.309
 236   1 H      0.015  0.985  0.000  0.000     2.814     2.624
 237   1 H      0.048  0.952  0.000  0.000     2.344     2.394
 238   1 H      0.058  0.942  0.000  0.000     2.223     2.332
 239   1 H      0.045  0.955  0.000  0.000     2.387     2.416
 240   1 H      0.043  0.957  0.000  0.000     2.406     2.426
 241   7 N     -0.175  1.247  3.928  0.000    24.795     7.395
 242   6 C      0.021  1.061  2.918  0.000    20.232     6.405
 243   6 C      0.269  1.046  2.686  0.000    22.466     7.762
 244   8 O     -0.500  1.727  4.773  0.000    23.790     6.539
 245   6 C      0.135  1.041  2.825  0.000    18.495     6.140
 246   8 O     -0.494  1.719  4.775  0.000    22.768     6.441
 247   6 C     -0.126  1.043  3.083  0.000    22.972     6.834
 248   1 H      0.216  0.784  0.000  0.000     1.027     1.587
 249   1 H      0.063  0.937  0.000  0.000     2.162     2.299
 250   1 H      0.015  0.985  0.000  0.000     2.815     2.624
 251   1 H      0.322  0.678  0.000  0.000     0.659     1.275
 252   1 H      0.082  0.918  0.000  0.000     1.960     2.190
 253   1 H      0.042  0.958  0.000  0.000     2.422     2.434
 254   1 H      0.046  0.954  0.000  0.000     2.373     2.409
 255   7 N     -0.181  1.262  3.920  0.000    24.925     7.415
 256   6 C      0.022  1.061  2.918  0.000    20.207     6.399
 257   6 C      0.275  1.048  2.678  0.000    22.353     7.743
 258   8 O     -0.500  1.745  4.755  0.000    23.783     6.539
 259   6 C      0.000  1.054  2.946  0.000    20.538     6.446
 260   6 C     -0.111  1.038  3.073  0.000    22.671     6.788
 261   6 C     -0.115  1.039  3.076  0.000    22.751     6.801
 262   1 H      0.216  0.784  0.000  0.000     1.027     1.588
 263   1 H      0.089  0.911  0.000  0.000     1.893     2.152
 264   1 H      0.020  0.980  0.000  0.000     2.728     2.583
 265   1 H      0.064  0.936  0.000  0.000     2.156     2.296
 266   1 H      0.017  0.983  0.000  0.000     2.787     2.610
 267   1 H      0.054  0.946  0.000  0.000     2.271     2.357
 268   1 H      0.064  0.936  0.000  0.000     2.148     2.292
 269   1 H      0.034  0.966  0.000  0.000     2.535     2.490
 270   1 H      0.047  0.953  0.000  0.000     2.356     2.400
 271   7 N     -0.189  1.265  3.924  0.000    25.108     7.442
 272   6 C      0.007  1.069  2.923  0.000    20.457     6.440
 273   6 C      0.270  1.045  2.686  0.000    22.442     7.758
 274   8 O     -0.474  1.731  4.743  0.000    23.226     6.461
 275   6 C      0.107  1.046  2.848  0.000    18.920     6.210
 276   8 O     -0.466  1.712  4.754  0.000    22.172     6.356
 277   6 C     -0.146  1.046  3.100  0.000    23.380     6.895
 278   1 H      0.235  0.765  0.000  0.000     0.945     1.523
 279   1 H      0.061  0.939  0.000  0.000     2.188     2.313
 280   1 H      0.061  0.939  0.000  0.000     2.193     2.316
 281   1 H      0.336  0.664  0.000  0.000     0.621     1.238
 282   1 H      0.087  0.913  0.000  0.000     1.910     2.161
 283   1 H      0.054  0.946  0.000  0.000     2.275     2.359
 284   1 H      0.063  0.937  0.000  0.000     2.163     2.300
 285   7 N     -0.165  1.242  3.924  0.000    24.575     7.363
 286   6 C     -0.043  1.053  2.990  0.000    21.407     6.600
 287   6 C      0.269  1.039  2.692  0.000    22.461     7.761
 288   8 O     -0.477  1.739  4.738  0.000    23.280     6.469
 289   1 H      0.214  0.786  0.000  0.000     1.036     1.594
 290   1 H      0.107  0.893  0.000  0.000     1.723     2.053
 291   1 H      0.113  0.887  0.000  0.000     1.673     2.023
 292   7 N     -0.173  1.241  3.932  0.000    24.743     7.388
 293   6 C     -0.027  1.050  2.977  0.000    21.119     6.554
 294   6 C      0.273  1.039  2.688  0.000    22.384     7.747
 295   8 O     -0.498  1.749  4.749  0.000    23.742     6.533
 296   1 H      0.209  0.791  0.000  0.000     1.061     1.614
 297   1 H      0.091  0.909  0.000  0.000     1.871     2.139
 298   1 H      0.076  0.924  0.000  0.000     2.018     2.222
 299   7 N     -0.158  1.243  3.915  0.000    24.428     7.341
 300   6 C      0.012  1.067  2.920  0.000    20.372     6.427
 301   6 C      0.270  1.043  2.687  0.000    22.437     7.757
 302   8 O     -0.434  1.726  4.709  0.000    22.377     6.342
 303   6 C      0.116  1.045  2.839  0.000    18.778     6.187
 304   8 O     -0.473  1.719  4.754  0.000    22.318     6.377
 305   6 C     -0.143  1.048  3.096  0.000    23.323     6.887
 306   1 H      0.240  0.760  0.000  0.000     0.924     1.505
 307   1 H      0.058  0.942  0.000  0.000     2.224     2.332
 308   1 H      0.039  0.961  0.000  0.000     2.463     2.455
 309   1 H      0.352  0.648  0.000  0.000     0.583     1.199
 310   1 H      0.069  0.931  0.000  0.000     2.099     2.266
 311   1 H      0.054  0.946  0.000  0.000     2.269     2.356
 312   1 H      0.061  0.939  0.000  0.000     2.189     2.314
 313   7 N     -0.177  1.248  3.929  0.000    24.834     7.401
 314   6 C     -0.039  1.052  2.987  0.000    21.337     6.589
 315   6 C      0.274  1.039  2.687  0.000    22.371     7.745
 316   8 O     -0.473  1.737  4.736  0.000    23.198     6.458
 317   1 H      0.203  0.797  0.000  0.000     1.091     1.636
 318   1 H      0.087  0.913  0.000  0.000     1.908     2.160
 319   1 H      0.118  0.882  0.000  0.000     1.633     1.998
 320   7 N     -0.181  1.244  3.937  0.000    24.921     7.414
 321   6 C      0.017  1.060  2.923  0.000    20.296     6.415
 322   6 C      0.274  1.044  2.682  0.000    22.367     7.744
 323   8 O     -0.486  1.742  4.744  0.000    23.469     6.495
 324   6 C     -0.059  1.048  3.011  0.000    21.633     6.621
 325   6 C     -0.067  1.047  3.020  0.000    21.775     6.643
 326   6 C     -0.095  1.053  3.042  0.000    22.303     6.723
 327   6 C     -0.047  1.059  2.988  0.000    21.510     6.620
 328   7 N     -0.159  1.234  3.925  0.000    24.436     7.342
 329   1 H      0.205  0.795  0.000  0.000     1.083     1.630
 330   1 H      0.108  0.892  0.000  0.000     1.716     2.049
 331   1 H      0.025  0.975  0.000  0.000     2.652     2.547
 332   1 H      0.068  0.932  0.000  0.000     2.104     2.268
 333   1 H      0.032  0.968  0.000  0.000     2.561     2.503
 334   1 H      0.064  0.936  0.000  0.000     2.153     2.295
 335   1 H      0.079  0.921  0.000  0.000     1.987     2.204
 336   1 H      0.073  0.927  0.000  0.000     2.048     2.238
 337   1 H      0.118  0.882  0.000  0.000     1.632     1.998
 338   1 H      0.115  0.885  0.000  0.000     1.653     2.011
 339   1 H      0.300  0.700  0.000  0.000     0.714     1.324
 340   1 H      0.300  0.700  0.000  0.000     0.713     1.323
 341   1 H      0.288  0.712  0.000  0.000     0.750     1.356
 342   7 N     -0.177  1.235  3.942  0.000    24.834     7.401
 343   6 C      0.047  1.051  2.902  0.000    19.794     6.336
 344   6 C      0.195  1.087  2.718  0.000    23.840     7.997
 345   8 O     -0.368  1.748  4.620  0.000    21.056     6.152
 346   6 C     -0.093  1.076  3.017  0.000    22.269     6.718
 347   6 C      0.379  1.019  2.602  0.000    20.579     7.424
 348   8 O     -0.621  1.761  4.860  0.000    26.635     6.919
 349   8 O     -0.604  1.765  4.839  0.000    26.207     6.864
 350   1 H      0.197  0.803  0.000  0.000     1.123     1.660
 351   1 H      0.079  0.921  0.000  0.000     1.988     2.205
 352   1 H      0.035  0.965  0.000  0.000     2.522     2.484
 353   1 H      0.042  0.958  0.000  0.000     2.423     2.434
 354   7 N     -0.382  1.314  4.068  0.000    29.875     8.118
 355   6 C      0.037  1.059  2.904  0.000    19.977     6.367
 356   6 C      0.197  1.084  2.718  0.000    23.793     7.989
 357   8 O     -0.374  1.757  4.617  0.000    21.168     6.169
 358   6 C     -0.072  1.057  3.015  0.000    21.867     6.656
 359   6 C     -0.000  1.075  2.925  0.000    28.026     8.684
 360   6 C     -0.047  1.081  2.966  0.000    29.155     8.855
 361   6 C     -0.044  1.080  2.963  0.000    29.087     8.845
 362   6 C     -0.057  1.075  2.982  0.000    29.422     8.895
 363   6 C     -0.062  1.077  2.984  0.000    29.535     8.912
 364   6 C      0.147  1.045  2.809  0.000    24.810     8.163
 365   8 O     -0.426  1.718  4.708  0.000    21.360     6.239
 366   1 H      0.162  0.838  0.000  0.000     1.322     1.801
 367   1 H      0.071  0.929  0.000  0.000     2.073     2.252
 368   1 H      0.049  0.951  0.000  0.000     2.330     2.387
 369   1 H      0.057  0.943  0.000  0.000     2.232     2.336
 370   1 H      0.037  0.963  0.000  0.000     2.490     2.467
 371   1 H      0.050  0.950  0.000  0.000     2.314     2.379
 372   1 H      0.032  0.968  0.000  0.000     2.559     2.502
 373   1 H      0.045  0.955  0.000  0.000     2.388     2.417
 374   1 H      0.332  0.668  0.000  0.000     0.632     1.249
 375   7 N     -0.381  1.319  4.062  0.000    29.843     8.113
 376   6 C      0.041  1.055  2.904  0.000    19.907     6.356
 377   6 C      0.203  1.090  2.707  0.000    23.689     7.971
 378   8 O     -0.370  1.759  4.611  0.000    21.100     6.159
 379   6 C     -0.066  1.059  3.007  0.000    21.758     6.640
 380   6 C     -0.014  1.057  2.957  0.000    20.791     6.486
 381   6 C     -0.115  1.040  3.075  0.000    22.744     6.800
 382   6 C     -0.114  1.042  3.072  0.000    22.732     6.797
 383   1 H      0.161  0.839  0.000  0.000     1.332     1.808
 384   1 H      0.045  0.955  0.000  0.000     2.385     2.415
 385   1 H      0.048  0.952  0.000  0.000     2.349     2.397
 386   1 H      0.043  0.957  0.000  0.000     2.405     2.425
 387   1 H      0.031  0.969  0.000  0.000     2.568     2.506
 388   1 H      0.050  0.950  0.000  0.000     2.325     2.385
 389   1 H      0.030  0.970  0.000  0.000     2.589     2.516
 390   1 H      0.039  0.961  0.000  0.000     2.460     2.453
 391   1 H      0.054  0.946  0.000  0.000     2.266     2.354
 392   1 H      0.042  0.958  0.000  0.000     2.423     2.434
 393   1 H      0.029  0.971  0.000  0.000     2.598     2.521
 394   7 N     -0.377  1.324  4.053  0.000    29.738     8.099
 395   6 C      0.039  1.056  2.906  0.000    19.940     6.360
 396   6 C      0.268  1.047  2.686  0.000    22.482     7.765
 397   8 O     -0.454  1.746  4.708  0.000    22.787     6.400
 398   6 C     -0.119  1.041  3.078  0.000    22.837     6.813
 399   1 H      0.154  0.846  0.000  0.000     1.372     1.835
 400   1 H      0.006  0.994  0.000  0.000     2.951     2.686
 401   1 H      0.048  0.952  0.000  0.000     2.342     2.393
 402   1 H      0.054  0.946  0.000  0.000     2.273     2.357
 403   1 H      0.067  0.933  0.000  0.000     2.123     2.278
 404   7 N     -0.180  1.244  3.936  0.000    24.907     7.412
 405   6 C      0.021  1.058  2.921  0.000    20.225     6.404
 406   6 C      0.199  1.092  2.709  0.000    23.758     7.983
 407   8 O     -0.350  1.725  4.624  0.000    20.700     6.100
 408   6 C      0.114  1.049  2.836  0.000    18.799     6.190
 409   8 O     -0.481  1.724  4.757  0.000    22.479     6.400
 410   6 C     -0.143  1.046  3.097  0.000    23.319     6.886
 411   1 H      0.217  0.783  0.000  0.000     1.022     1.583
 412   1 H      0.096  0.904  0.000  0.000     1.821     2.110
 413   1 H      0.050  0.950  0.000  0.000     2.319     2.382
 414   1 H      0.350  0.650  0.000  0.000     0.589     1.206
 415   1 H      0.071  0.929  0.000  0.000     2.077     2.254
 416   1 H      0.064  0.936  0.000  0.000     2.149     2.292
 417   1 H      0.058  0.942  0.000  0.000     2.219     2.329
 418   1 H      0.181  0.819  0.000  0.000     1.210     1.723
 419   1 H      0.080  0.920  0.000  0.000     1.983     2.202
 420   1 H      0.172  0.828  0.000  0.000     1.261     1.759
 421   1 H      0.077  0.923  0.000  0.000     2.006     2.214
 422   1 H      0.193  0.807  0.000  0.000     1.139     1.672
 423   1 H      0.076  0.924  0.000  0.000     2.025     2.225
 424   1 H      0.178  0.822  0.000  0.000     1.226     1.734
 425   1 H      0.067  0.933  0.000  0.000     2.117     2.275
 426   1 H      0.180  0.820  0.000  0.000     1.212     1.724
 427   1 H      0.064  0.936  0.000  0.000     2.149     2.292
 428   1 H      0.172  0.828  0.000  0.000     1.258     1.757
 429   1 H      0.092  0.908  0.000  0.000     1.858     2.131

 Mol. C6AA /au·bohr⁶  :    1657050.540972
 Mol. C8AA /au·bohr⁸  :   36601763.892766
 Mol. α(0) /au        :       1921.153897

 
molecular dipole:
                 x           y           z       tot (Debye)
 q only:      426.861     132.496     230.537
   full:      426.146     133.845     230.512    1277.620
molecular quadrupole (traceless):
                xx          xy          yy          xz          yz          zz
 q only:   146719.629   84738.676 -100144.287  147367.977   45760.718  -46575.343
  q+dip:   145920.741   85484.569  -99445.640  147120.330   46254.848  -46475.101
   full:   145918.432   85481.287  -99443.509  147122.431   46261.002  -46474.923
speedup 13.35
cpu  time for grad   53.12 s
wall time for grad    3.98 s

SCC energy    :    -672.3143669
rep           :       7.8588702
ES            :       2.1055480
AES           :      -0.1185520
AXC           :       0.1927847
disp          :      -0.5737699
XB            :       0.0000000
fix           :       0.0000000
Gborn         :       0.0000000
Gsasa         :       0.0000000
Ghb           :       0.0000000
Gshift        :       0.0000000
Gsolv         :      -0.4625924     -290.28
Etot ala COSMO:    -672.3143669
grad norm     :       0.5469704
total E       :    -664.3919342
atomizationE  :     119.3217381    74875.52
(atE without considering molecular charge,
 total energy contains solvation terms)
H-L gap (eV)  :          1.5084

------------------------------------------------------------------------
 * finished run on 2019/02/13 at 00:16:55.994     
------------------------------------------------------------------------
 total:
 * wall-time:     0 d,  0 h,  0 min,  4.349 sec
 *  cpu-time:     0 d,  0 h,  0 min, 58.837 sec
 * ratio c/w:    13.528 speedup
 SCF:
 * wall-time:     0 d,  0 h,  0 min,  4.168 sec
 *  cpu-time:     0 d,  0 h,  0 min, 56.135 sec
 * ratio c/w:    13.468 speedup

