      -----------------------------------------------------------      
     |                   =====================                   |     
     |                           x T B                           |     
     |                   =====================                   |     
     |                         S. Grimme                         |     
     |          Mulliken Center for Theoretical Chemistry        |     
     |                    University of Bonn                     |     
     |                 Version 6.0.1 (SAW181210)                 |     
      -----------------------------------------------------------      

   This program is distributed in the hope that it will be useful,
   but WITHOUT ANY WARRANTY; without even the implied warranty of
   MERCHANTABILITY or FITNESS FOR A PARTICULAR PURPOSE.
   
   FOR NON-COMMERCIAL, ACADEMIA USE ONLY.
   
   Cite this work as:
   S. Grimme, C. Bannwarth, P. Shushkov, J. Comput. Theory Chem., 2017,
   13, 1989-2009.
   C. Bannwarth, S. Ehlert and S. Grimme., ChemRxiv, 2018, preprint.
   http://doi.org/10.26434/chemrxiv.7246238.v1
   
   for sTDA-xTB:
   S. Grimme and C. Bannwarth, J. Chem. Phys., 2016, 145, 054103.
   
   in the mass-spec context:
   V. Asgeirsson, C. Bauer and S. Grimme, Chem. Sci., 2017, 8, 4879.
   
   if GBSA is used:
   P. Shushkov, F. März and S. Grimme, unpublished.
   
   for ANC optimizer:
   S. Grimme, unpublished.
   Rational Function algorithm used in ANCopt:
   F. Eckert, P. Pulay, H.-J. Werner, J. Comput. Chem., 1997, 18, 1473.
   
   with help from (in alphabetical order)
   C. Bannwarth, F. Bohle, G. Brandenburg, E. Caldeweyher, M. Checinski,
   S. Dohm, S. Ehlert, S. Ehrlich, F. März, H. Neugebauer, J. Pisarek,
   P. Pracht, P. Shushkov, and S. Spicher.
   
 * started run on 2019/03/14 at 15:08:20.037     
========================================================================
 # omp threads = 1
========================================================================
number of atoms            : 646
number of electrons        : 1676
charge                     : 0
spin                       : .0
first test random number   : .2828
           ------------------------------------------------- 
          |                 G F N 2 - x T B                 |
          | Geometry, Frequencies, Noncovalent interactions |
          |            JCTC 2018 parametrisation            |
           ------------------------------------------------- 
 
      method parameters     
 k(s)        :  1.8500
 k(p)        :  2.2300
 k(d)        :  2.2300
 k(f)        :  2.0000
 kEN (H0ij)  : -2.0000
 D4 a1       :  0.5200
 D4 a2       :  5.0000
 D4 s6       :  1.0000
 D4 s8       :  2.7000
 D4 s9       :  5.0000
 alphaj      :  2.0000

 Solvent             : h2o
 Using internal parameter file: .param_gbsa2_h2o
 Gsolv ref. state (COSMO-RS): gsolv [1 M gas/solution]
 temperature (mdtemp)       :    298.150000000000     
 dielectric constant        :    80.2000000000000     
 rho                        :    1.00000000000000     
 mass                       :    18.0000000000000     
 surface tension            :    15.5689454083859     
 probe radius               :   0.975313790000000     
 vdW radii scaling          :    1.00000000000000     
 Gshift (Eh)                :   1.857443126794793E-003
 c1                         :    1.55243817000000     
 soset                      :   0.130326360000000     
 HB correction              :  T

            Z     q(EN)     CN     RAES       Cart. coordinates
     1  N   5.0   -0.22    3.22    1.96    54.54425    99.60141    48.67462
     2  C   4.0    0.03    4.32    4.23    53.09638    97.67577    47.36868
     3  C   4.0    0.07    3.26    3.04    51.98656    98.66381    44.91359
     4  O   6.0   -0.33    1.19    1.80    51.89723    97.32390    43.01261
     5  C   4.0   -0.02    4.28    4.16    50.99040    96.71571    49.10777
     6  C   4.0   -0.07    4.13    3.87    48.97642    95.20864    47.70258
     7  C   4.0   -0.08    4.14    3.89    52.17542    95.11031    51.17470
     8  H   1.0    0.08    1.03    1.43    54.28455    99.81514    50.56067
     9  H   1.0    0.04    1.05    1.44    54.40319    96.15768    46.80911
    10  H   1.0    0.04    1.06    1.44    50.07814    98.38074    49.93144
    11  H   1.0    0.04    1.00    1.43    47.48332    94.70110    49.01760
    12  H   1.0    0.05    1.01    1.43    48.16351    96.27785    46.14888
    13  H   1.0    0.04    1.00    1.43    49.77804    93.48892    46.92261
    14  H   1.0    0.04    1.01    1.43    50.72272    94.35397    52.40076
    15  H   1.0    0.03    1.00    1.43    53.19051    93.53898    50.32760
    16  H   1.0    0.03    1.00    1.43    53.50020    96.20973    52.28995
    17  N   5.0   -0.21    3.29    1.98    57.18520   100.65955    40.09542
    18  C   4.0    0.03    4.42    4.42    58.39582    98.44966    39.04496
    19  C   4.0    0.15    3.53    3.13    56.42157    97.17134    37.42181
    20  O   6.0   -0.33    1.46    1.80    57.02819    96.33501    35.34092
    21  C   4.0   -0.03    4.31    4.21    59.62968    96.62513    40.95504
    22  C   4.0   -0.05    4.20    4.00    57.63061    95.05898    42.34659
    23  C   4.0   -0.08    4.15    3.89    61.30429    98.23046    42.64784
    24  C   4.0   -0.09    4.01    3.63    58.71140    93.14659    44.21432
    25  H   1.0    0.08    1.02    1.43    56.35324   100.46942    41.80650
    26  H   1.0    0.04    1.06    1.44    59.91832    99.14768    37.82175
    27  H   1.0    0.04    1.05    1.44    60.83376    95.32194    39.87788
    28  H   1.0    0.05    1.03    1.43    56.33503    96.34594    43.28122
    29  H   1.0    0.04    1.04    1.43    56.54328    94.02861    40.92725
    30  H   1.0    0.04    1.01    1.43    62.02656    97.12559    44.19911
    31  H   1.0    0.04    1.00    1.43    62.85760    98.99930    41.54535
    32  H   1.0    0.04    1.02    1.43    60.21994    99.78152    43.40861
    33  H   1.0    0.03    1.01    1.43    57.23755    92.15920    45.23367
    34  H   1.0    0.04    1.00    1.43    59.79444    91.73922    43.18266
    35  H   1.0    0.03    1.00    1.43    59.87310    94.03267    45.65348
    36  N   5.0   -0.15    3.50    2.08    54.02517    97.11517    38.19536
    37  C   4.0    0.05    4.39    4.36    52.13962    96.12129    36.46772
    38  C   4.0    0.10    3.30    3.05    52.37048    97.71656    34.04706
    39  O   6.0   -0.28    1.13    1.80    52.55938    96.84311    31.91756
    40  C   4.0   -0.04    4.28    4.16    49.49743    96.19216    37.61972
    41  C   4.0    0.15    3.23    3.04    47.83203    94.28989    36.22350
    42  O   6.0   -0.27    1.24    1.80    48.70461    92.80497    34.70239
    43  N   5.0   -0.18    3.17    1.95    45.36055    94.34326    36.80397
    44  H   1.0    0.11    1.11    1.44    53.46889    97.46554    40.00337
    45  H   1.0    0.07    1.06    1.44    52.57261    94.15232    35.95427
    46  H   1.0    0.05    1.03    1.43    49.60229    95.65068    39.61211
    47  H   1.0    0.05    1.02    1.43    48.70875    98.09033    37.49623
    48  H   1.0    0.10    1.03    1.43    44.25225    93.07233    35.91432
    49  H   1.0    0.08    1.03    1.43    44.64402    95.39729    38.20920
    50  N   5.0   -0.20    3.26    1.97    58.03148    96.62951    30.43507
    51  C   4.0    0.04    4.26    4.12    57.63067    94.21539    29.30344
    52  C   4.0    0.09    3.18    3.03    56.09984    94.46361    26.83357
    53  O   6.0   -0.28    1.14    1.80    56.49304    93.04087    25.05131
    54  C   4.0   -0.02    4.27    4.14    56.39213    92.40018    31.21839
    55  C   4.0    0.01    3.71    3.25    58.29884    91.10678    32.83501
    56  N   5.0   -0.12    3.56    2.12    59.63410    92.14762    34.78720
    57  C   4.0    0.02    3.75    3.28    59.15150    88.67099    32.69123
    58  C   4.0    0.05    3.64    3.19    61.13043    90.32007    35.75224
    59  N   5.0   -0.20    2.47    1.90    60.89577    88.20191    34.51222
    60  H   1.0    0.13    1.08    1.44    57.00228    97.05969    31.98189
    61  H   1.0    0.04    1.07    1.44    59.55171    93.58959    28.79889
    62  H   1.0    0.08    1.04    1.44    55.06469    93.49864    32.34969
    63  H   1.0    0.06    1.03    1.43    55.30137    90.95554    30.23036
    64  H   1.0    0.10    1.10    1.44    59.46435    93.97119    35.32165
    65  H   1.0    0.04    1.04    1.43    58.58458    87.22724    31.41157
    66  H   1.0    0.03    1.02    1.43    62.30157    90.56780    37.38473
    67  N   5.0   -0.22    3.25    1.97    48.55466    88.26912    61.20048
    68  C   4.0    0.03    4.36    4.31    50.47171    89.22267    59.49826
    69  C   4.0    0.14    3.43    3.09    51.85998    87.07675    58.18424
    70  O   6.0   -0.34    1.36    1.80    52.53542    87.33133    55.97229
    71  C   4.0   -0.05    4.34    4.27    52.28291    90.93148    60.94188
    72  C   4.0   -0.02    4.17    3.94    53.62162    92.94503    59.33169
    73  C   4.0   -0.08    4.10    3.80    56.26685    92.13145    58.52393
    74  C   4.0   -0.08    4.15    3.90    52.13128    93.79499    57.01669
    75  H   1.0    0.08    1.02    1.43    48.83431    88.49460    63.08838
    76  H   1.0    0.04    1.07    1.44    49.53667    90.29726    57.99823
    77  H   1.0    0.04    1.04    1.43    51.15362    91.87817    62.38017
    78  H   1.0    0.04    1.03    1.43    53.67301    89.74524    61.89647
    79  H   1.0    0.04    1.07    1.44    53.81879    94.58425    60.54987
    80  H   1.0    0.03    1.00    1.43    57.01721    93.50886    57.19576
    81  H   1.0    0.04    1.00    1.43    57.52672    92.03042    60.14392
    82  H   1.0    0.05    1.00    1.43    56.21820    90.30345    57.59395
    83  H   1.0    0.03    1.00    1.43    52.95603    95.51322    56.26316
    84  H   1.0    0.04    1.00    1.43    52.23049    92.38125    55.53395
    85  H   1.0    0.04    1.00    1.43    50.16789    94.20782    57.45899
    86  N   5.0   -0.15    3.52    2.09    52.23646    85.00449    59.54193
    87  C   4.0    0.03    4.49    4.52    53.18710    82.65483    58.49121
    88  C   4.0    0.15    3.57    3.15    51.16560    81.67573    56.70978
    89  O   6.0   -0.33    1.38    1.80    51.67091    80.77838    54.64073
    90  C   4.0   -0.03    4.30    4.20    53.92614    80.69250    60.53280
    91  C   4.0   -0.05    4.17    3.95    56.25853    79.16354    59.72729
    92  C   4.0   -0.08    4.15    3.90    51.75831    78.91731    61.25177
    93  C   4.0   -0.08    4.04    3.69    55.87028    77.71338    57.27515
    94  H   1.0    0.07    1.07    1.44    51.94579    85.03362    61.43729
    95  H   1.0    0.05    1.07    1.44    54.84304    83.09287    57.33481
    96  H   1.0    0.04    1.06    1.44    54.44636    81.76314    62.22046
    97  H   1.0    0.03    1.02    1.43    57.87431    80.42893    59.52574
    98  H   1.0    0.04    1.03    1.43    56.68161    77.82301    61.23480
    99  H   1.0    0.04    1.00    1.43    52.28598    77.80410    62.89775
   100  H   1.0    0.04    1.00    1.43    50.05237    79.96088    61.68212
   101  H   1.0    0.04    1.00    1.43    51.27431    77.61265    59.74237
   102  H   1.0    0.03    1.00    1.43    57.40829    76.40077    56.92337
   103  H   1.0    0.04    1.00    1.43    54.13579    76.62290    57.35345
   104  H   1.0    0.05    1.00    1.43    55.74132    79.00652    55.68718
   105  N   5.0   -0.15    3.55    2.11    48.77321    81.91477    57.49735
   106  C   4.0    0.03    4.44    4.45    46.82059    81.23996    55.72073
   107  C   4.0    0.16    3.59    3.16    47.20448    82.84487    53.37589
   108  O   6.0   -0.33    1.43    1.80    47.06635    81.92911    51.27295
   109  C   4.0    0.02    4.17    3.93    44.12365    81.63698    56.67572
   110  O   6.0   -0.27    2.05    1.83    43.33946    79.79567    58.39687
   111  H   1.0    0.07    1.06    1.44    48.29656    82.65286    59.18883
   112  H   1.0    0.05    1.06    1.44    47.06872    79.25397    55.16926
   113  H   1.0    0.04    1.01    1.43    43.96897    83.53163    57.48931
   114  H   1.0    0.04    1.02    1.43    42.88292    81.50838    55.02617
   115  H   1.0    0.11    1.03    1.43    44.31068    80.03694    59.93587
   116  N   5.0   -0.13    3.52    2.09    47.71100    85.29145    53.73146
   117  C   4.0    0.04    4.43    4.43    48.23750    86.77697    51.50019
   118  C   4.0    0.16    3.53    3.13    50.49602    85.62229    50.11497
   119  O   6.0   -0.34    1.43    1.80    50.38683    85.33859    47.82786
   120  C   4.0    0.02    4.15    3.91    48.72004    89.55188    52.12618
   121  O   6.0   -0.27    2.04    1.83    46.59117    90.78449    53.12252
   122  H   1.0    0.08    1.06    1.44    47.42358    86.16589    55.41700
   123  H   1.0    0.05    1.06    1.44    46.63846    86.66345    50.17901
   124  H   1.0    0.05    1.03    1.43    50.32081    89.66841    53.43048
   125  H   1.0    0.04    1.02    1.43    49.20165    90.53834    50.37895
   126  H   1.0    0.11    1.02    1.43    45.97856    89.85888    54.57867
   127  N   5.0   -0.13    3.50    2.07    52.53423    84.99588    51.45475
   128  C   4.0    0.04    4.45    4.46    54.76300    84.11518    50.11817
   129  C   4.0    0.16    3.51    3.12    54.25886    81.72652    48.59714
   130  O   6.0   -0.34    1.37    1.80    55.39518    81.44392    46.58720
   131  C   4.0   -0.05    4.38    4.35    57.05781    83.43650    51.74816
   132  C   4.0   -0.02    4.19    3.99    57.70049    85.33818    53.81635
   133  C   4.0   -0.08    4.11    3.82    59.80885    84.25431    55.45953
   134  C   4.0   -0.08    4.10    3.81    58.45218    87.90497    52.75191
   135  H   1.0    0.12    1.13    1.45    52.70335    85.61984    53.26840
   136  H   1.0    0.04    1.06    1.44    55.34446    85.57723    48.76628
   137  H   1.0    0.04    1.03    1.43    56.74692    81.58309    52.60004
   138  H   1.0    0.04    1.03    1.43    58.65116    83.26317    50.44547
   139  H   1.0    0.06    1.08    1.44    56.02457    85.61074    54.97599
   140  H   1.0    0.04    1.00    1.43    59.92337    85.24662    57.25438
   141  H   1.0    0.03    1.00    1.43    59.49814    82.25588    55.82362
   142  H   1.0    0.04    1.00    1.43    61.60341    84.44503    54.48305
   143  H   1.0    0.04    1.00    1.43    58.79128    89.21210    54.29739
   144  H   1.0    0.03    1.00    1.43    60.17749    87.76153    51.64785
   145  H   1.0    0.04    1.00    1.43    56.96604    88.66733    51.55830
   146  N   5.0   -0.14    3.51    2.08    52.78386    79.96709    49.61360
   147  C   4.0    0.03    4.51    4.55    52.15625    77.70286    48.20086
   148  C   4.0    0.15    3.53    3.13    50.14413    78.35688    46.25864
   149  O   6.0   -0.32    1.44    1.80    50.39159    77.71005    44.04038
   150  C   4.0   -0.03    4.24    4.09    51.42338    75.39134    49.81367
   151  C   4.0   -0.08    4.15    3.90    53.68902    74.60369    51.40604
   152  C   4.0   -0.07    4.11    3.83    49.11565    75.83987    51.47527
   153  H   1.0    0.12    1.12    1.45    52.06828    80.21693    51.37294
   154  H   1.0    0.05    1.07    1.44    53.81169    77.17749    47.07367
   155  H   1.0    0.04    1.06    1.44    51.01510    73.87465    48.47165
   156  H   1.0    0.04    1.01    1.43    53.20524    73.07936    52.69031
   157  H   1.0    0.04    1.02    1.43    55.18655    73.91001    50.19402
   158  H   1.0    0.04    1.01    1.43    54.36477    76.19544    52.50209
   159  H   1.0    0.03    1.00    1.43    48.76144    74.18693    52.64155
   160  H   1.0    0.06    1.01    1.43    49.46773    77.43176    52.71415
   161  H   1.0    0.04    1.00    1.43    47.43521    76.19957    50.35305
   162  N   5.0   -0.15    3.54    2.11    48.15563    79.67421    47.01784
   163  C   4.0    0.04    4.53    4.58    46.29179    80.44280    45.17109
   164  C   4.0    0.16    3.56    3.14    47.65303    81.63802    42.92970
   165  O   6.0   -0.33    1.43    1.80    46.91905    81.16799    40.77549
   166  C   4.0   -0.02    4.25    4.10    44.20025    82.14918    46.27214
   167  C   4.0   -0.07    4.15    3.90    44.53967    84.92934    45.58827
   168  C   4.0   -0.08    4.12    3.84    41.63920    81.20970    45.34216
   169  H   1.0    0.12    1.16    1.45    47.94390    80.24784    48.82973
   170  H   1.0    0.04    1.07    1.44    45.38981    78.72886    44.41403
   171  H   1.0    0.06    1.07    1.44    44.27444    81.97827    48.32604
   172  H   1.0    0.04    1.00    1.43    43.06189    86.02691    46.49764
   173  H   1.0    0.06    1.01    1.43    46.36654    85.62308    46.20885
   174  H   1.0    0.05    1.00    1.43    44.38662    85.18752    43.55574
   175  H   1.0    0.04    1.00    1.43    40.13484    82.46635    45.95111
   176  H   1.0    0.05    1.01    1.43    41.61923    81.14518    43.29178
   177  H   1.0    0.04    1.00    1.43    41.26489    79.32103    46.05257
   178  N   5.0   -0.14    3.56    2.13    49.58081    83.15617    43.44741
   179  C   4.0    0.03    4.39    4.37    51.32099    84.19988    41.60748
   180  C   4.0    0.15    3.51    3.12    52.71717    81.99967    40.36648
   181  O   6.0   -0.34    1.53    1.80    52.46174    81.61680    38.09228
   182  C   4.0   -0.05    4.37    4.33    53.19415    86.02057    42.83338
   183  C   4.0   -0.02    4.19    3.97    52.02530    88.57604    43.58154
   184  C   4.0   -0.08    4.13    3.87    53.36350    89.62931    45.91857
   185  C   4.0   -0.08    4.12    3.83    52.30188    90.46423    41.43082
   186  H   1.0    0.12    1.17    1.46    49.92794    83.62809    45.27143
   187  H   1.0    0.05    1.05    1.44    50.27052    85.19236    40.11199
   188  H   1.0    0.06    1.04    1.43    54.00316    85.09942    44.48237
   189  H   1.0    0.04    1.03    1.43    54.72741    86.34518    41.48645
   190  H   1.0    0.05    1.05    1.44    50.03221    88.27187    44.02593
   191  H   1.0    0.03    1.00    1.43    53.20347    91.67436    46.06987
   192  H   1.0    0.05    1.03    1.43    52.55264    88.82236    47.60989
   193  H   1.0    0.03    1.01    1.43    55.34816    89.12864    45.79881
   194  H   1.0    0.05    1.00    1.43    51.70478    92.31905    42.07289
   195  H   1.0    0.04    1.01    1.43    54.28564    90.56086    40.90695
   196  H   1.0    0.05    1.00    1.43    51.21316    89.93387    39.77284
   197  N   5.0   -0.14    3.53    2.10    54.10120    80.49092    41.80653
   198  C   4.0    0.04    4.51    4.56    55.48284    78.37112    40.74819
   199  C   4.0    0.15    3.48    3.11    53.91350    76.60994    39.07103
   200  O   6.0   -0.33    1.25    1.80    54.96049    75.02513    37.76836
   201  C   4.0   -0.02    4.27    4.13    56.84295    76.82555    42.82350
   202  C   4.0   -0.07    4.15    3.91    55.60362    74.27189    43.36278
   203  C   4.0   -0.08    4.14    3.87    59.55261    76.36828    41.97328
   204  H   1.0    0.12    1.15    1.45    54.51428    80.95296    43.63226
   205  H   1.0    0.04    1.08    1.44    56.93488    79.14805    39.48902
   206  H   1.0    0.05    1.07    1.44    56.83475    77.98937    44.52655
   207  H   1.0    0.03    1.00    1.43    56.45264    73.39523    45.01631
   208  H   1.0    0.06    1.00    1.43    53.57920    74.43311    43.65423
   209  H   1.0    0.05    1.01    1.43    55.91005    73.01781    41.76440
   210  H   1.0    0.04    1.00    1.43    60.57230    75.18638    43.30442
   211  H   1.0    0.05    1.01    1.43    59.48161    75.38188    40.17435
   212  H   1.0    0.04    1.00    1.43    60.54012    78.15043    41.73116
   213  N   5.0   -0.12    3.62    2.17    51.40367    76.99576    39.14541
   214  C   4.0    0.03    4.44    4.45    49.54794    75.57444    37.77829
   215  C   4.0    0.08    3.61    3.17    47.99164    77.10730    35.96882
   216  O   6.0   -0.25    2.28    1.88    46.83314    75.91993    34.10441
   217  C   4.0   -0.03    4.43    4.43    47.62961    74.54040    39.68343
   218  C   4.0   -0.02    3.60    3.16    48.65189    72.32677    41.09433
   219  C   4.0   -0.05    3.49    3.11    48.87212    72.42716    43.69809
   220  C   4.0   -0.05    3.49    3.11    49.11403    70.08206    39.81285
   221  C   4.0   -0.05    3.46    3.10    49.53344    70.30515    45.04231
   222  C   4.0   -0.06    3.53    3.13    49.63241    67.90729    41.15420
   223  C   4.0    0.06    3.53    3.13    49.83569    68.02720    43.78073
   224  O   6.0   -0.25    2.20    1.86    50.09350    65.97384    45.26751
   225  H   1.0    0.12    1.16    1.46    50.75205    77.78452    40.76174
   226  H   1.0    0.05    1.06    1.44    50.50982    74.07151    36.70791
   227  H   1.0    0.06    1.04    1.43    47.14507    76.08196    40.96319
   228  H   1.0    0.04    1.04    1.43    45.91746    73.97685    38.69345
   229  H   1.0    0.06    1.05    1.44    48.40297    74.14730    44.66985
   230  H   1.0    0.05    1.03    1.43    48.86468    69.97726    37.78869
   231  H   1.0    0.05    1.03    1.43    49.65767    70.29984    47.07298
   232  H   1.0    0.05    1.03    1.43    49.72480    66.10783    40.19254
   233  H   1.0    0.14    1.06    1.44    50.70318    64.48401    44.39234
   234  N   5.0   -0.13    3.55    2.12    47.52192    79.49532    36.39572
   235  C   4.0    0.03    4.42    4.41    46.34992    81.25779    34.67612
   236  C   4.0    0.15    3.51    3.12    48.41747    82.22201    32.86440
   237  O   6.0   -0.32    1.32    1.80    48.06403    82.14713    30.56040
   238  C   4.0   -0.03    4.36    4.31    45.26295    83.52367    36.08583
   239  C   4.0   -0.00    3.54    3.13    42.85944    83.09463    37.55913
   240  C   4.0   -0.03    3.46    3.10    41.59672    80.80095    37.69712
   241  C   4.0   -0.04    3.48    3.11    41.84720    85.17507    38.81364
   242  C   4.0   -0.04    3.38    3.07    39.32534    80.61699    38.99659
   243  C   4.0   -0.04    3.37    3.07    39.58373    84.99999    40.10307
   244  C   4.0   -0.04    3.38    3.07    38.30463    82.71678    40.17876
   245  H   1.0    0.13    1.20    1.46    47.91764    80.19887    38.17792
   246  H   1.0    0.06    1.06    1.44    44.91439    80.33530    33.50980
   247  H   1.0    0.06    1.04    1.43    46.71838    84.21181    37.37547
   248  H   1.0    0.05    1.03    1.43    44.91701    84.99863    34.67764
   249  H   1.0    0.06    1.03    1.43    42.35822    79.13211    36.80371
   250  H   1.0    0.05    1.03    1.43    42.85428    86.94994    38.76216
   251  H   1.0    0.06    1.03    1.43    38.36214    78.81650    39.09368
   252  H   1.0    0.05    1.03    1.43    38.83368    86.64484    41.04945
   253  H   1.0    0.05    1.03    1.43    36.55113    82.56201    41.20650
   254  N   5.0   -0.14    3.52    2.09    50.48779    83.09844    33.96425
   255  C   4.0    0.04    4.38    4.34    52.77259    83.64891    32.55185
   256  C   4.0    0.15    3.60    3.17    53.07595    81.76890    30.38906
   257  O   6.0   -0.30    1.52    1.80    53.29966    82.58279    28.21831
   258  C   4.0   -0.04    4.33    4.26    55.16000    84.06113    34.17591
   259  C   4.0   -0.01    4.18    3.97    56.83987    81.92867    35.19470
   260  C   4.0   -0.08    4.11    3.83    58.59244    80.74917    33.24124
   261  C   4.0   -0.08    4.15    3.89    58.50244    83.08812    37.25859
   262  H   1.0    0.12    1.18    1.46    50.81752    82.77515    35.85212
   263  H   1.0    0.06    1.06    1.44    52.50455    85.49737    31.63704
   264  H   1.0    0.04    1.06    1.44    56.37674    85.22872    33.01621
   265  H   1.0    0.05    1.04    1.43    54.57906    85.21782    35.78118
   266  H   1.0    0.06    1.08    1.44    55.68322    80.43035    35.97884
   267  H   1.0    0.04    1.00    1.43    59.46089    79.08582    34.08204
   268  H   1.0    0.05    1.01    1.43    57.58376    80.14259    31.56660
   269  H   1.0    0.04    1.00    1.43    60.06051    82.08198    32.71245
   270  H   1.0    0.03    1.00    1.43    59.87309    81.71421    37.93341
   271  H   1.0    0.05    1.02    1.43    59.51572    84.68429    36.45303
   272  H   1.0    0.04    1.00    1.43    57.38238    83.74001    38.85328
   273  N   5.0   -0.11    3.71    2.28    53.23310    79.29769    30.82443
   274  C   4.0    0.03    4.62    4.68    53.86179    77.58873    28.76187
   275  C   4.0    0.16    3.50    3.11    52.31336    78.09607    26.41181
   276  O   6.0   -0.29    1.23    1.80    53.23407    78.01580    24.29146
   277  C   4.0   -0.03    4.30    4.19    53.42594    74.89684    29.81342
   278  C   4.0   -0.07    3.36    3.07    53.02802    75.24904    32.58799
   279  C   4.0    0.01    4.44    4.45    52.26106    77.90461    32.98328
   280  H   1.0    0.05    1.05    1.44    55.85087    77.81274    28.25336
   281  H   1.0    0.04    1.05    1.44    51.76983    74.09133    28.89149
   282  H   1.0    0.04    1.02    1.43    55.03623    73.67162    29.43083
   283  H   1.0    0.11    1.03    1.43    47.73661    74.44062    33.49851
   284  H   1.0    0.07    1.03    1.43    54.38950    74.47591    33.88119
   285  H   1.0    0.06    1.10    1.44    50.19297    78.09581    32.86941
   286  H   1.0    0.06    1.04    1.43    52.86180    78.73705    34.75648
   287  N   5.0   -0.14    3.54    2.11    49.82108    78.37332    26.84203
   288  C   4.0    0.04    4.36    4.30    48.10855    79.05734    24.82708
   289  C   4.0    0.16    3.41    3.08    48.82610    81.64447    23.71931
   290  O   6.0   -0.28    1.20    1.80    48.87816    82.01387    21.42958
   291  C   4.0   -0.06    4.12    3.85    45.42879    79.01389    25.85886
   292  H   1.0    0.10    1.10    1.44    49.23093    78.84634    28.59372
   293  H   1.0    0.07    1.05    1.44    48.32624    77.68582    23.28719
   294  H   1.0    0.06    1.00    1.43    44.08198    79.46251    24.38045
   295  H   1.0    0.05    1.02    1.43    45.01974    77.12443    26.55504
   296  H   1.0    0.06    1.00    1.43    45.24693    80.34429    27.41404
   297  N   5.0   -0.13    3.57    2.13    49.33904    83.39822    25.45372
   298  C   4.0    0.04    4.40    4.37    50.29526    85.91932    24.99359
   299  C   4.0    0.17    3.48    3.11    53.20302    85.98519    25.13930
   300  O   6.0   -0.30    1.26    1.80    54.36586    87.57917    26.35071
   301  C   4.0   -0.02    4.28    4.16    49.09126    87.73943    26.89786
   302  C   4.0   -0.03    4.24    4.09    46.21443    87.66952    26.71905
   303  C   4.0    0.16    3.20    3.04    44.87988    89.47583    28.51593
   304  O   6.0   -0.26    1.21    1.80    45.93167    90.80369    30.06993
   305  N   5.0   -0.18    3.19    1.95    42.34644    89.46803    28.24691
   306  H   1.0    0.12    1.13    1.45    49.37697    82.87015    27.29640
   307  H   1.0    0.06    1.05    1.44    49.78829    86.43388    23.04916
   308  H   1.0    0.07    1.03    1.43    49.66018    87.17793    28.79723
   309  H   1.0    0.07    1.03    1.43    49.79253    89.64728    26.56652
   310  H   1.0    0.05    1.03    1.43    45.62939    88.11209    24.79249
   311  H   1.0    0.05    1.03    1.43    45.56593    85.75946    27.15778
   312  H   1.0    0.08    1.03    1.43    41.48989    88.37304    26.95864
   313  H   1.0    0.10    1.03    1.43    41.29246    90.62017    29.34048
   314  N   5.0   -0.12    3.44    2.04    54.36313    84.30922    23.60692
   315  C   4.0    0.04    4.37    4.32    57.05969    83.92190    23.84283
   316  C   4.0    0.16    3.41    3.08    58.55615    83.32849    21.42791
   317  O   6.0   -0.26    1.22    1.80    58.25597    81.46952    20.11255
   318  C   4.0   -0.05    4.17    3.95    57.78861    81.80418    25.66034
   319  H   1.0    0.12    1.08    1.44    53.31709    82.87908    22.90298
   320  H   1.0    0.05    1.10    1.44    57.73263    85.70313    24.60905
   321  H   1.0    0.05    1.03    1.43    59.78455    81.45533    25.44546
   322  H   1.0    0.05    1.01    1.43    57.36857    82.31408    27.60058
   323  H   1.0    0.08    1.02    1.43    56.75095    80.10865    25.16670
   324  N   5.0   -0.14    3.38    2.01    60.53585    84.93064    21.11546
   325  C   4.0    0.02    4.14    3.88    62.48100    84.49726    19.24448
   326  C   4.0    0.09    3.14    3.03    63.84913    82.00771    19.75714
   327  O   6.0   -0.30    1.20    1.80    63.82864    80.95830    21.80832
   328  H   1.0    0.07    1.06    1.44    60.48185    86.66984    21.88422
   329  H   1.0    0.05    1.02    1.43    61.66648    84.42096    17.34773
   330  H   1.0    0.04    1.02    1.43    63.85821    86.03212    19.34713
   331  N   5.0   -0.21    3.23    1.96    67.52875    80.13556    25.48807
   332  C   4.0    0.03    4.27    4.13    66.34021    80.13353    27.92971
   333  C   4.0    0.08    3.24    3.04    65.95154    77.53088    29.03209
   334  O   6.0   -0.32    1.21    1.80    65.59739    77.27548    31.30878
   335  C   4.0   -0.04    4.33    4.25    63.75100    81.36710    27.85887
   336  C   4.0   -0.05    4.19    3.98    63.88572    84.13773    27.03904
   337  C   4.0   -0.06    4.21    4.02    62.26618    85.76951    28.76980
   338  C   4.0   -0.04    4.13    3.85    62.22118    88.55010    27.98973
   339  N   5.0   -0.11    4.06    3.03    59.74638    89.19584    26.80882
   340  H   1.0    0.12    1.07    1.44    66.38753    80.18029    23.94326
   341  H   1.0    0.04    1.07    1.44    67.67247    81.12967    29.16183
   342  H   1.0    0.05    1.04    1.43    62.63211    80.20149    26.58425
   343  H   1.0    0.04    1.04    1.43    62.91291    81.20521    29.73357
   344  H   1.0    0.04    1.04    1.43    65.84420    84.75323    27.14047
   345  H   1.0    0.05    1.03    1.43    63.21473    84.32455    25.10529
   346  H   1.0    0.04    1.04    1.43    60.37125    84.96928    28.73084
   347  H   1.0    0.04    1.03    1.43    62.93212    85.63370    30.71184
   348  H   1.0    0.04    1.03    1.43    62.49717    89.73916    29.64847
   349  H   1.0    0.04    1.02    1.43    63.73260    88.96790    26.65901
   350  H   1.0    0.07    1.08    1.44    59.02991    90.88671    27.44445
   351  H   1.0    0.07    1.02    1.43    59.84050    89.41038    24.88516
   352  H   1.0    0.07    1.04    1.43    58.33356    87.90854    27.25412
   353  N   5.0   -0.20    3.25    1.97    71.60651    78.55175    32.85391
   354  C   4.0    0.03    4.31    4.22    70.84904    80.26676    34.84822
   355  C   4.0    0.15    3.47    3.10    69.39660    78.86403    36.89711
   356  O   6.0   -0.31    1.26    1.80    69.84157    79.19650    39.16000
   357  C   4.0   -0.05    4.41    4.40    69.15927    82.23238    33.57897
   358  C   4.0   -0.02    4.19    3.98    68.02351    84.22137    35.32483
   359  C   4.0   -0.08    4.11    3.81    67.40539    86.58829    33.79518
   360  C   4.0   -0.08    4.11    3.83    65.71222    83.20434    36.73387
   361  H   1.0    0.08    1.03    1.43    71.66268    79.22953    31.05996
   362  H   1.0    0.05    1.04    1.44    72.50484    81.13121    35.75837
   363  H   1.0    0.04    1.04    1.43    70.33616    83.16049    32.16195
   364  H   1.0    0.05    1.05    1.44    67.61828    81.19940    32.68815
   365  H   1.0    0.04    1.06    1.44    69.47103    84.70955    36.70237
   366  H   1.0    0.04    1.00    1.43    66.36422    87.92865    34.94429
   367  H   1.0    0.04    1.00    1.43    69.15264    87.46843    33.16879
   368  H   1.0    0.04    1.01    1.43    66.27261    86.10990    32.16055
   369  H   1.0    0.04    1.00    1.43    64.54799    84.73687    37.44283
   370  H   1.0    0.04    1.00    1.43    64.55784    82.00578    35.53060
   371  H   1.0    0.05    1.01    1.43    66.30942    82.10593    38.35894
   372  N   5.0   -0.15    3.49    2.07    67.49071    77.39902    36.15310
   373  C   4.0    0.03    4.32    4.23    65.69687    76.45404    37.98433
   374  C   4.0    0.10    3.26    3.05    66.94678    74.77073    39.94385
   375  O   6.0   -0.33    1.21    1.80    66.26245    74.83446    42.15995
   376  C   4.0    0.03    4.16    3.92    63.58738    75.01666    36.59896
   377  O   6.0   -0.24    2.05    1.83    64.31544    72.65522    35.68532
   378  H   1.0    0.11    1.13    1.45    66.97465    77.25983    34.30680
   379  H   1.0    0.04    1.05    1.44    64.88682    78.02939    39.07359
   380  H   1.0    0.04    1.02    1.43    62.07130    74.63912    37.93687
   381  H   1.0    0.05    1.01    1.43    62.88719    76.22726    35.06486
   382  H   1.0    0.13    1.02    1.43    65.67598    72.82296    34.45392
   383  N   5.0   -0.20    3.25    1.97    69.43378    78.49706    45.01760
   384  C   4.0    0.03    4.41    4.40    67.40238    78.92331    46.79846
   385  C   4.0    0.15    3.49    3.11    67.10950    76.61495    48.49411
   386  O   6.0   -0.33    1.38    1.80    66.83068    76.86904    50.78908
   387  C   4.0   -0.02    4.27    4.14    64.87804    79.51177    45.49032
   388  C   4.0   -0.08    4.13    3.86    62.81384    79.94067    47.46213
   389  C   4.0   -0.08    4.13    3.85    65.15777    81.86250    43.85328
   390  H   1.0    0.11    1.04    1.43    69.00952    78.36882    43.15868
   391  H   1.0    0.04    1.05    1.44    67.94325    80.50610    48.03190
   392  H   1.0    0.06    1.06    1.44    64.38091    77.87352    44.33893
   393  H   1.0    0.04    1.00    1.43    61.01058    80.26119    46.53148
   394  H   1.0    0.05    1.01    1.43    62.62129    78.32327    48.70971
   395  H   1.0    0.04    1.00    1.43    63.28142    81.57374    48.61989
   396  H   1.0    0.03    1.00    1.43    63.40104    82.29661    42.88306
   397  H   1.0    0.04    1.00    1.43    65.64597    83.44944    45.05656
   398  H   1.0    0.05    1.00    1.43    66.64825    81.63238    42.46273
   399  N   5.0   -0.14    3.49    2.07    67.11875    74.36441    47.39085
   400  C   4.0    0.04    4.37    4.33    66.93748    72.08906    48.90557
   401  C   4.0    0.09    3.28    3.05    68.91412    72.15626    50.98822
   402  O   6.0   -0.29    1.13    1.80    68.37260    71.66726    53.20674
   403  C   4.0   -0.05    4.34    4.28    67.22727    69.69455    47.32484
   404  C   4.0   -0.02    4.21    4.03    65.33364    69.58040    45.13854
   405  C   4.0   -0.07    4.12    3.84    65.40463    66.95928    43.97038
   406  C   4.0   -0.06    4.13    3.87    62.63873    70.21895    45.90722
   407  H   1.0    0.11    1.11    1.44    67.11999    74.19577    45.48018
   408  H   1.0    0.07    1.08    1.44    65.10194    72.01580    49.84496
   409  H   1.0    0.04    1.03    1.43    69.14250    69.59233    46.56926
   410  H   1.0    0.05    1.03    1.43    66.94137    68.08160    48.58227
   411  H   1.0    0.06    1.07    1.44    65.88660    70.94861    43.70068
   412  H   1.0    0.05    1.00    1.43    64.23239    66.97189    42.28497
   413  H   1.0    0.05    1.00    1.43    67.32976    66.42163    43.48981
   414  H   1.0    0.06    1.00    1.43    64.64209    65.58934    45.29847
   415  H   1.0    0.04    1.00    1.43    61.37249    69.78836    44.35175
   416  H   1.0    0.06    1.01    1.43    62.05603    69.12700    47.54035
   417  H   1.0    0.05    1.00    1.43    62.46347    72.21166    46.36916
   418  N   5.0   -0.20    3.24    1.97    67.27167    77.67421    55.74907
   419  C   4.0    0.03    4.22    4.04    65.04480    77.07230    57.20463
   420  C   4.0    0.08    3.21    3.04    65.71983    75.00501    59.11887
   421  O   6.0   -0.30    1.12    1.80    64.90757    75.09932    61.28542
   422  C   4.0   -0.05    4.24    4.07    62.82348    76.43589    55.44525
   423  C   4.0   -0.02    4.25    4.10    62.98553    73.75312    54.42888
   424  C   4.0    0.14    3.28    3.05    61.39842    72.96526    52.19320
   425  O   6.0   -0.31    1.45    1.80    61.41730    70.75001    51.53536
   426  N   5.0   -0.20    3.20    1.96    60.18493    74.73275    50.83846
   427  H   1.0    0.13    1.11    1.45    67.21138    77.44394    53.84284
   428  H   1.0    0.04    1.05    1.44    64.53687    78.73098    58.35083
   429  H   1.0    0.04    1.03    1.43    61.08728    76.71795    56.51061
   430  H   1.0    0.04    1.03    1.43    62.90433    77.78430    53.88589
   431  H   1.0    0.08    1.06    1.44    64.91278    73.43676    53.76960
   432  H   1.0    0.05    1.03    1.43    62.64395    72.36527    55.91594
   433  H   1.0    0.07    1.03    1.43    59.88396    76.47745    51.50666
   434  H   1.0    0.08    1.03    1.43    59.12607    74.12559    49.36844
   435  N   5.0   -0.19    3.24    1.97    69.67898    77.35713    64.44477
   436  C   4.0    0.04    4.25    4.10    68.03022    78.84233    66.05577
   437  C   4.0    0.09    3.21    3.04    66.56200    77.08157    67.80724
   438  O   6.0   -0.28    1.11    1.80    66.44347    77.45890    70.09448
   439  C   4.0   -0.03    4.31    4.21    66.22084    80.44528    64.45851
   440  C   4.0   -0.02    3.54    3.13    67.52694    82.29240    62.71955
   441  C   4.0   -0.05    3.47    3.10    66.12813    83.62716    60.93357
   442  C   4.0   -0.04    3.52    3.12    70.12821    82.59626    62.72621
   443  C   4.0   -0.05    3.38    3.07    67.31051    85.13859    59.15781
   444  C   4.0   -0.04    3.39    3.07    71.31934    83.97373    60.85615
   445  C   4.0   -0.04    3.37    3.07    69.92144    85.28200    59.08254
   446  H   1.0    0.09    1.03    1.43    69.51222    77.60151    62.55350
   447  H   1.0    0.05    1.05    1.44    69.19565    80.04257    67.28852
   448  H   1.0    0.06    1.03    1.43    65.08984    79.16690    63.28885
   449  H   1.0    0.05    1.03    1.43    64.92235    81.44613    65.71253
   450  H   1.0    0.04    1.03    1.43    64.09028    83.50679    60.94122
   451  H   1.0    0.05    1.04    1.44    71.27406    81.72915    64.16292
   452  H   1.0    0.04    1.03    1.43    66.20021    86.15903    57.78504
   453  H   1.0    0.05    1.03    1.43    73.35193    83.94193    60.75252
   454  H   1.0    0.05    1.03    1.43    70.87029    86.44039    57.69575
   455  N   5.0   -0.21    3.22    1.96    49.26042    64.41734    58.92288
   456  C   4.0    0.03    4.30    4.19    50.29950    66.35671    57.28980
   457  C   4.0    0.07    3.29    3.05    52.75952    65.22414    56.29227
   458  O   6.0   -0.34    1.32    1.80    53.18565    65.30718    54.00689
   459  C   4.0   -0.03    4.29    4.19    50.56346    69.04750    58.39216
   460  C   4.0   -0.05    4.18    3.96    52.93051    69.38190    60.01964
   461  C   4.0   -0.08    4.10    3.81    48.15281    69.81028    59.78099
   462  C   4.0   -0.08    4.05    3.71    55.27368    69.75446    58.37287
   463  H   1.0    0.08    1.02    1.43    49.27256    64.65014    60.82310
   464  H   1.0    0.04    1.06    1.44    49.06436    66.52205    55.62740
   465  H   1.0    0.04    1.06    1.44    50.77532    70.28941    56.74381
   466  H   1.0    0.04    1.03    1.43    52.68766    71.03843    61.22177
   467  H   1.0    0.04    1.03    1.43    53.17101    67.75426    61.24969
   468  H   1.0    0.04    1.00    1.43    48.32488    71.72419    60.50582
   469  H   1.0    0.04    1.00    1.43    46.54056    69.73811    58.51291
   470  H   1.0    0.04    1.00    1.43    47.80195    68.55025    61.35571
   471  H   1.0    0.04    1.00    1.43    56.95663    69.03246    59.28581
   472  H   1.0    0.05    1.04    1.43    55.08786    68.78161    56.58193
   473  H   1.0    0.04    1.00    1.43    55.54425    71.73991    57.93418
   474  N   5.0   -0.20    3.27    1.97    51.42005    59.96293    51.72478
   475  C   4.0    0.05    4.36    4.31    50.72602    61.30553    49.46208
   476  C   4.0    0.16    3.43    3.09    53.08195    62.50763    48.31340
   477  O   6.0   -0.33    1.47    1.80    53.29153    62.55384    46.00198
   478  C   4.0   -0.03    4.31    4.22    48.63037    63.19004    50.02948
   479  C   4.0    0.15    3.24    3.04    46.24446    61.74962    50.75449
   480  O   6.0   -0.29    1.22    1.80    45.75241    59.66403    49.90755
   481  N   5.0   -0.19    3.18    1.95    44.69057    62.97271    52.33685
   482  H   1.0    0.09    1.03    1.43    50.58935    60.46913    53.38250
   483  H   1.0    0.06    1.06    1.44    50.03775    59.94185    48.04700
   484  H   1.0    0.05    1.03    1.43    49.23790    64.46374    51.52220
   485  H   1.0    0.06    1.05    1.44    48.24515    64.29207    48.33092
   486  H   1.0    0.10    1.03    1.43    43.07790    62.11039    52.87041
   487  H   1.0    0.08    1.03    1.43    45.15211    64.63825    53.11608
   488  N   5.0   -0.14    3.51    2.09    54.85185    63.42542    49.82768
   489  C   4.0    0.04    4.41    4.40    57.08617    64.68911    48.88128
   490  C   4.0    0.08    3.22    3.04    58.88111    62.82854    47.59516
   491  O   6.0   -0.31    1.15    1.80    60.07579    63.41322    45.69624
   492  C   4.0   -0.03    4.12    3.85    58.42169    66.11871    50.98660
   493  S   6.0   -0.03    2.70    3.10    56.87714    69.10824    51.61211
   494  H   1.0    0.12    1.16    1.46    54.48692    63.65108    51.70198
   495  H   1.0    0.05    1.08    1.44    56.55280    66.04584    47.40527
   496  H   1.0    0.05    1.06    1.44    58.53659    65.01473    52.71933
   497  H   1.0    0.06    1.08    1.44    60.33936    66.59568    50.41873
   498  H   1.0    0.07    1.01    1.43    54.58461    68.15983    52.09046
   499  N   5.0   -0.20    3.23    1.96    54.89341    61.38459    41.59443
   500  C   4.0    0.03    4.29    4.18    55.06668    63.32839    39.66681
   501  C   4.0    0.08    3.30    3.05    57.55844    63.08889    38.29653
   502  O   6.0   -0.29    1.13    1.80    57.75382    63.53679    36.03430
   503  C   4.0   -0.02    4.31    4.21    54.95042    66.06409    40.65599
   504  C   4.0   -0.06    4.14    3.89    57.01082    66.77773    42.51885
   505  C   4.0   -0.07    4.15    3.91    54.98809    67.91570    38.44119
   506  H   1.0    0.13    1.15    1.45    54.58274    61.89129    43.42108
   507  H   1.0    0.05    1.05    1.44    53.55135    63.04243    38.26992
   508  H   1.0    0.05    1.13    1.45    53.19481    66.25761    41.68152
   509  H   1.0    0.04    1.00    1.43    56.42205    68.48954    43.48972
   510  H   1.0    0.07    1.04    1.43    57.27947    65.30249    43.89832
   511  H   1.0    0.05    1.00    1.43    58.82190    67.10892    41.61354
   512  H   1.0    0.05    1.00    1.43    54.57843    69.82523    39.07896
   513  H   1.0    0.06    1.01    1.43    56.85265    67.92336    37.57974
   514  H   1.0    0.05    1.00    1.43    53.63287    67.41471    36.98354
   515  N   5.0   -0.21    3.24    1.97    45.86947    65.31069    25.23472
   516  C   4.0    0.02    4.43    4.43    46.71169    67.57508    26.53469
   517  C   4.0    0.15    3.47    3.10    44.38756    69.10479    27.34327
   518  O   6.0   -0.33    1.33    1.80    44.11041    69.83728    29.52537
   519  C   4.0   -0.02    4.35    4.28    48.49925    69.17566    24.92954
   520  C   4.0   -0.05    4.19    3.99    50.95711    67.73689    24.41150
   521  C   4.0   -0.07    4.19    3.98    49.02226    71.59093    26.40343
   522  C   4.0   -0.07    4.02    3.66    52.63813    69.11137    22.52320
   523  H   1.0    0.09    1.03    1.43    46.06590    65.22006    23.34461
   524  H   1.0    0.04    1.06    1.44    47.70405    67.04272    28.27623
   525  H   1.0    0.05    1.05    1.44    47.57258    69.64936    23.14038
   526  H   1.0    0.04    1.03    1.43    51.98157    67.50169    26.18535
   527  H   1.0    0.04    1.03    1.43    50.55414    65.84819    23.69360
   528  H   1.0    0.05    1.00    1.43    50.34340    72.79863    25.40196
   529  H   1.0    0.05    1.01    1.43    47.29953    72.66136    26.72963
   530  H   1.0    0.04    1.01    1.43    49.82194    71.08760    28.23018
   531  H   1.0    0.05    1.00    1.43    54.19118    67.89793    21.95867
   532  H   1.0    0.05    1.00    1.43    51.57339    69.64657    20.85160
   533  H   1.0    0.05    1.00    1.43    53.43666    70.81665    23.34396
   534  N   5.0   -0.14    3.53    2.10    42.65167    69.42397    25.54426
   535  C   4.0    0.04    4.31    4.22    40.34021    70.87200    25.92277
   536  C   4.0    0.09    3.25    3.04    38.82657    69.56662    27.99183
   537  O   6.0   -0.29    1.13    1.80    37.83470    70.68288    29.76729
   538  C   4.0   -0.03    4.25    4.10    38.85970    70.90716    23.44522
   539  C   4.0    0.25    3.12    3.03    40.62094    71.63784    21.14233
   540  O   6.0   -0.29    1.18    1.80    42.33278    73.19536    21.55072
   541  O   6.0   -0.28    1.16    1.80    40.20116    70.48833    19.13686
   542  H   1.0    0.09    1.10    1.44    43.17743    69.26831    23.72054
   543  H   1.0    0.06    1.05    1.44    40.79703    72.80359    26.52376
   544  H   1.0    0.06    1.03    1.43    38.08489    69.03992    23.04986
   545  H   1.0    0.05    1.02    1.43    37.32554    72.27682    23.57009
   546  N   5.0   -0.19    3.25    1.97    41.34630    65.61225    32.04037
   547  C   4.0    0.03    4.24    4.08    42.69685    65.81678    34.40668
   548  C   4.0    0.15    3.43    3.09    41.88723    68.28129    35.69482
   549  O   6.0   -0.33    1.35    1.80    41.41917    68.30088    37.95707
   550  C   4.0   -0.07    4.10    3.81    45.54103    65.74691    33.99173
   551  H   1.0    0.09    1.03    1.43    42.47065    65.35196    30.50771
   552  H   1.0    0.05    1.05    1.44    42.11916    64.28036    35.68397
   553  H   1.0    0.04    1.00    1.43    46.49666    65.93035    35.79860
   554  H   1.0    0.04    1.00    1.43    46.12988    63.98878    33.10667
   555  H   1.0    0.06    1.01    1.43    46.05212    67.28842    32.73990
   556  N   5.0   -0.14    3.47    2.06    41.67775    70.35164    34.24670
   557  C   4.0    0.04    4.34    4.28    40.81791    72.74335    35.28146
   558  C   4.0    0.09    3.31    3.06    38.31416    72.35814    36.67721
   559  O   6.0   -0.32    1.15    1.80    37.78142    73.48256    38.62150
   560  C   4.0   -0.03    4.13    3.86    40.14535    74.70757    33.26599
   561  S   6.0   -0.04    2.44    3.10    42.64179    75.73160    31.12684
   562  H   1.0    0.12    1.11    1.45    42.22207    70.32103    32.40963
   563  H   1.0    0.05    1.05    1.44    42.19847    73.47630    36.64549
   564  H   1.0    0.07    1.10    1.44    38.70601    73.96402    32.00133
   565  H   1.0    0.05    1.07    1.44    39.47070    76.42713    34.18441
   566  H   1.0    0.07    1.01    1.43    43.31779    73.40605    30.44823
   567  N   5.0   -0.21    3.29    1.98    38.89793    67.32362    42.42320
   568  C   4.0    0.03    4.45    4.46    39.89443    68.53288    44.65576
   569  C   4.0    0.15    3.48    3.11    38.06230    70.38756    45.80298
   570  O   6.0   -0.33    1.37    1.80    37.96630    70.63302    48.10713
   571  C   4.0   -0.02    4.37    4.32    42.38086    69.88733    44.09089
   572  C   4.0   -0.03    4.26    4.11    42.09569    71.82676    41.96367
   573  C   4.0   -0.07    4.21    4.02    44.27557    67.83270    43.43887
   574  C   4.0   -0.07    4.01    3.64    42.07343    74.56974    42.80885
   575  H   1.0    0.12    1.08    1.44    39.66239    67.72041    40.71102
   576  H   1.0    0.05    1.06    1.44    40.23244    67.09411    46.11736
   577  H   1.0    0.04    1.06    1.44    42.98702    70.85693    45.81314
   578  H   1.0    0.05    1.04    1.43    43.63424    71.56232    40.62964
   579  H   1.0    0.07    1.07    1.44    40.37681    71.46608    40.91886
   580  H   1.0    0.05    1.09    1.44    45.79850    68.65754    42.38353
   581  H   1.0    0.05    1.00    1.43    45.00585    66.97408    45.15246
   582  H   1.0    0.05    1.01    1.43    43.43159    66.39043    42.25224
   583  H   1.0    0.05    1.00    1.43    41.84186    75.78419    41.16587
   584  H   1.0    0.05    1.00    1.43    40.53158    74.95290    44.10714
   585  H   1.0    0.04    1.00    1.43    43.84782    75.02152    43.72871
   586  N   5.0   -0.15    3.48    2.07    36.69287    71.81731    44.24986
   587  C   4.0    0.04    4.28    4.15    34.95643    73.63644    45.32123
   588  C   4.0    0.09    3.24    3.04    32.82132    72.20297    46.64887
   589  O   6.0   -0.28    1.11    1.80    32.00974    72.90904    48.70299
   590  C   4.0   -0.07    4.10    3.80    33.93094    75.40320    43.30404
   591  H   1.0    0.10    1.07    1.44    36.87442    71.73332    42.35345
   592  H   1.0    0.06    1.05    1.44    35.94725    74.71690    46.79307
   593  H   1.0    0.05    1.00    1.43    32.60820    76.72942    44.14425
   594  H   1.0    0.05    1.00    1.43    35.47470    76.44800    42.44280
   595  H   1.0    0.05    1.00    1.43    32.97087    74.31889    41.84943
   596  N   5.0   -0.19    3.22    1.96    35.90921    68.74122    52.31527
   597  C   4.0    0.04    4.24    4.08    36.50801    70.58930    54.25856
   598  C   4.0    0.09    3.23    3.04    34.11039    71.71570    55.36837
   599  O   6.0   -0.28    1.11    1.80    33.86956    72.09563    57.64569
   600  C   4.0   -0.04    4.38    4.34    38.16840    72.69278    53.19421
   601  C   4.0   -0.02    4.20    3.99    39.21842    74.43173    55.24704
   602  C   4.0   -0.07    4.11    3.82    41.03319    73.03691    57.00724
   603  C   4.0   -0.08    4.12    3.84    40.57164    76.64399    53.99199
   604  H   1.0    0.13    1.11    1.44    36.71927    69.09218    50.60016
   605  H   1.0    0.05    1.06    1.44    37.51710    69.65386    55.80068
   606  H   1.0    0.05    1.03    1.43    39.74695    71.83979    52.18136
   607  H   1.0    0.06    1.03    1.43    37.06893    73.79787    51.84556
   608  H   1.0    0.06    1.06    1.44    37.64962    75.17589    56.37101
   609  H   1.0    0.05    1.01    1.43    42.12187    74.42101    58.05668
   610  H   1.0    0.05    1.00    1.43    40.02863    71.86736    58.36237
   611  H   1.0    0.04    1.00    1.43    42.32368    71.84578    55.93649
   612  H   1.0    0.06    1.02    1.43    41.35998    77.85336    55.43735
   613  H   1.0    0.04    1.00    1.43    42.10342    75.96822    52.80155
   614  H   1.0    0.04    1.00    1.43    39.27193    77.74604    52.84317
   615  H   1.0    0.09    1.07    1.44    56.20507    99.28037    48.49801
   616  H   1.0    0.05    1.05    1.44    51.31381   100.42740    44.82302
   617  H   1.0    0.09    1.07    1.44    58.33331   101.90000    40.28442
   618  H   1.0    0.06    1.05    1.44    52.37235    99.60318    34.15539
   619  H   1.0    0.10    1.08    1.44    59.65465    96.76460    30.92459
   620  H   1.0    0.07    1.04    1.43    54.77014    95.79709    26.67606
   621  H   1.0    0.09    1.07    1.44    47.07392    89.04089    60.87746
   622  H   1.0    0.06    1.05    1.44    64.82076    81.16146    18.37480
   623  H   1.0    0.09    1.08    1.44    68.52959    81.50318    25.34498
   624  H   1.0    0.06    1.05    1.44    65.98269    76.01354    27.90614
   625  H   1.0    0.09    1.07    1.44    73.17941    77.98262    33.16154
   626  H   1.0    0.06    1.05    1.44    68.33846    73.59878    39.43315
   627  H   1.0    0.10    1.07    1.44    70.55372    79.77309    45.11782
   628  H   1.0    0.06    1.05    1.44    70.70361    72.60438    50.57838
   629  H   1.0    0.09    1.07    1.44    67.67231    79.31156    55.97524
   630  H   1.0    0.07    1.04    1.44    66.83063    73.56588    58.60301
   631  H   1.0    0.09    1.07    1.44    71.30126    77.71847    64.80559
   632  H   1.0    0.07    1.05    1.44    65.66564    75.57627    67.09895
   633  H   1.0    0.09    1.07    1.44    47.61722    64.18321    58.55186
   634  H   1.0    0.05    1.04    1.43    53.98956    64.43367    57.48945
   635  H   1.0    0.10    1.07    1.44    51.05178    58.31270    51.54127
   636  H   1.0    0.06    1.05    1.44    59.10295    61.08916    48.29972
   637  H   1.0    0.10    1.07    1.44    53.60795    60.33341    41.22676
   638  H   1.0    0.06    1.05    1.44    59.10657    62.55186    39.23778
   639  H   1.0    0.09    1.07    1.44    46.72768    63.96559    25.82357
   640  H   1.0    0.06    1.05    1.44    38.59439    67.69162    27.95277
   641  H   1.0    0.09    1.07    1.44    40.28278    64.28669    32.10641
   642  H   1.0    0.07    1.05    1.44    37.03321    71.14380    36.00222
   643  H   1.0    0.10    1.07    1.44    39.05947    65.63702    42.57104
   644  H   1.0    0.06    1.05    1.44    32.06892    70.66871    45.84203
   645  H   1.0    0.10    1.07    1.44    36.44473    67.20436    52.80906
   646  H   1.0    0.07    1.05    1.44    32.66823    72.17145    54.23544

  Z AO/shell   Hii/eV     exponent
  1     Wed Apr 25 08:07:45 CEST 2018   EN: 2.200 GM2: 0.406  GM3: 0.0800  RAES: 1.40
     1s    -10.707211    1.230000
  6     Wed Apr 25 08:07:45 CEST 2018   EN: 2.550 GM2: 0.538  GM3: 0.1500  RAES: 3.00
     2s    -13.970922    2.096432
     2p    -10.063292    1.800000
  7     Wed Apr 25 08:07:45 CEST 2018   EN: 3.040 GM2: 0.461  GM3:-0.0640  RAES: 1.90
     2s    -16.686243    2.339881
     2p    -12.523956    2.014332
  8     Wed Apr 25 08:07:45 CEST 2018   EN: 3.440 GM2: 0.452  GM3:-0.0517  RAES: 1.80
     2s    -20.229985    2.439742
     2p    -15.503117    2.137023
 16     Tue Apr 24 11:44:34 CEST 2018   EN: 2.580 GM2: 0.340  GM3:-0.0502  RAES: 3.10
     3s    -20.029654    1.981333
     3p    -11.377694    2.025643
     3d     -0.420282    1.702555
 no old-style atom pair restraining (fixing) potential

molecular fragmentation (1/2 indicates fragments):
111111111111111122222222222222222222222222222222222222222222222222222222
222222222222222222222222222222222222222222222222222222222222222222222222
222222222222222222222222222222222222222222222222222222222222222222222222
222222222222222222222222222222222222222222222222222222222222222222222222
222222222222222222222222222222222222222222222222222222222222222222222222
222222222222222222222222222222222222222222222222222222222222222222222222
222222222222222222222222222222222222222222222222222222222222222222222222
222222222222222222222222222222222222222222222222222222222222222222222222
2222222222222222222222222222222222222211222222222222222222222222222222
# atoms in fragment 1/2:    18   628
 fragment masses (1/2) :      101.15     4112.20
CMA distance (Bohr)    :  19.469
constraining FC (au)   :  0.0500
           ------------------------------------------------- 
          |        Self-Consistent Charge Iterations        |
           ------------------------------------------------- 

 Ncao       : 1540
 Nao        : 1538
 Nshell     : 942
 Nel        : 1676
 T(el)      :   500.0
 intcut     :    35.0
 scfconv/Eh :  0.100E-06
   qconv/e  :  0.100E-04
 intneglect :  0.100E-08
 broydamp   :      0.400
 iter      E             dE          RMSdq      gap      omega  full diag
   1   -950.9513686 -0.950951E+03  0.442E+00    1.74       0.0  T
   2   -952.4830683 -0.153170E+01  0.225E+00    0.02       1.0  T
   3   -952.8420987 -0.359030E+00  0.157E+00    1.91       1.0  T
   4   -953.4122178 -0.570119E+00  0.596E-01    0.60       1.0  T
   5   -952.8548594  0.557358E+00  0.870E-01    0.08       1.0  T
   6   -953.4565148 -0.601655E+00  0.312E-01    0.34       1.0  T
   7   -953.4394817  0.170331E-01  0.331E-01    0.36       1.0  T
   8   -953.4287084  0.107733E-01  0.323E-01    0.07       1.0  T
   9   -953.4791809 -0.504725E-01  0.200E-01    0.32       1.0  T
  10   -953.4996871 -0.205062E-01  0.109E-01    0.17       1.0  T
  11   -953.5003711 -0.684003E-03  0.955E-02    0.17       1.0  T
  12   -953.4851551  0.152160E-01  0.167E-01    0.10       1.0  T
  13   -953.4992135 -0.140584E-01  0.967E-02    0.12       1.0  T
  14   -953.4990815  0.132011E-03  0.995E-02    0.15       1.0  T
  15   -953.5056967 -0.661525E-02  0.312E-02    0.17       1.0  T
  16   -953.5060750 -0.378265E-03  0.192E-02    0.17       1.0  T
  17   -953.5062348 -0.159827E-03  0.124E-02    0.17       1.0  T
  18   -953.5062644 -0.295994E-04  0.107E-02    0.18       1.0  T
  19   -953.5063054 -0.409689E-04  0.767E-03    0.18       1.0  T
  20   -953.5062809  0.245314E-04  0.958E-03    0.17       1.0  T
  21   -953.5063468 -0.659552E-04  0.184E-03    0.18       2.1  T
  22   -953.5063477 -0.851246E-06  0.146E-03    0.18       2.7  T
  23   -953.5063490 -0.137934E-05  0.385E-04    0.18      10.2  T
  24   -953.5063481  0.989366E-06  0.121E-03    0.18       3.3  T
  25   -953.5063488 -0.761918E-06  0.653E-04    0.18       6.0  T
  26   -953.5063491 -0.267580E-06  0.246E-04    0.18      16.0  T
  27   -953.5063491 -0.413665E-07  0.713E-05    0.18      55.2  T
  28   -953.5063491 -0.154421E-08  0.533E-05    0.18      73.9  T
speedup  1.00
cpu  time for SCC   34.17 s
wall time for SCC   34.18 s

   *** convergence criteria satisfied after 28 iterations ***

          eigenvalues
 #    :         826        827        828        829        830        831        832        833
 occ. :        2.000      2.000      2.000      2.000      2.000      2.000      2.000      2.000
 eps  :        -9.972     -9.942     -9.908     -9.878     -9.683     -9.638     -9.604     -9.474
 #    :         834        835        836        837        838        839        840        841
 occ. :        2.000      2.000      2.000      2.000      1.553      0.101      0.081      0.067
 eps  :        -9.465     -9.420     -9.391     -9.330     -7.899     -7.719     -7.709     -7.700
 #    :         842        843        844        845        846        847        848        849
 occ. :        0.066      0.044      0.033      0.019      0.012      0.007      0.006      0.004
 eps  :        -7.699     -7.681     -7.669     -7.645     -7.626     -7.600     -7.597     -7.576


   #   Z            q   n(s)   n(p)   n(d)      C6AA      α(0)
   1   7 N     -0.396  1.313  4.083  0.000    30.260     8.170
   2   6 C      0.039  1.057  2.904  0.000    19.936     6.359
   3   6 C      0.181  1.087  2.731  0.000    24.106     8.041
   4   8 O     -0.406  1.744  4.662  0.000    21.810     6.261
   5   6 C     -0.016  1.062  2.954  0.000    20.822     6.490
   6   6 C     -0.121  1.039  3.082  0.000    22.866     6.818
   7   6 C     -0.124  1.043  3.081  0.000    22.920     6.825
   8   1 H      0.163  0.837  0.000  0.000     1.318     1.799
   9   1 H      0.046  0.954  0.000  0.000     2.371     2.408
  10   1 H      0.045  0.955  0.000  0.000     2.385     2.415
  11   1 H      0.055  0.945  0.000  0.000     2.254     2.348
  12   1 H      0.032  0.968  0.000  0.000     2.558     2.501
  13   1 H      0.050  0.950  0.000  0.000     2.317     2.380
  14   1 H      0.063  0.937  0.000  0.000     2.166     2.301
  15   1 H      0.047  0.953  0.000  0.000     2.360     2.402
  16   1 H      0.044  0.956  0.000  0.000     2.397     2.421
  17   7 N     -0.390  1.322  4.068  0.000    30.098     8.148
  18   6 C      0.027  1.060  2.913  0.000    20.128     6.389
  19   6 C      0.263  1.051  2.686  0.000    22.565     7.780
  20   8 O     -0.493  1.737  4.756  0.000    23.629     6.517
  21   6 C     -0.027  1.066  2.961  0.000    21.027     6.522
  22   6 C     -0.065  1.048  3.017  0.000    21.748     6.639
  23   6 C     -0.114  1.034  3.081  0.000    22.731     6.797
  24   6 C     -0.117  1.034  3.082  0.000    22.797     6.809
  25   1 H      0.152  0.848  0.000  0.000     1.385     1.844
  26   1 H      0.051  0.949  0.000  0.000     2.302     2.373
  27   1 H      0.031  0.969  0.000  0.000     2.566     2.505
  28   1 H      0.037  0.963  0.000  0.000     2.484     2.465
  29   1 H      0.033  0.967  0.000  0.000     2.542     2.493
  30   1 H      0.051  0.949  0.000  0.000     2.309     2.376
  31   1 H      0.037  0.963  0.000  0.000     2.492     2.469
  32   1 H      0.042  0.958  0.000  0.000     2.427     2.436
  33   1 H      0.054  0.946  0.000  0.000     2.266     2.354
  34   1 H      0.036  0.964  0.000  0.000     2.496     2.471
  35   1 H      0.038  0.962  0.000  0.000     2.475     2.460
  36   7 N     -0.172  1.254  3.918  0.000    24.712     7.383
  37   6 C      0.036  1.055  2.908  0.000    19.964     6.361
  38   6 C      0.205  1.083  2.713  0.000    23.654     7.965
  39   8 O     -0.359  1.757  4.602  0.000    20.875     6.126
  40   6 C     -0.117  1.065  3.052  0.000    22.724     6.786
  41   6 C      0.288  1.032  2.679  0.000    22.114     7.700
  42   8 O     -0.476  1.757  4.719  0.000    23.254     6.465
  43   7 N     -0.294  1.264  4.030  0.000    27.582     7.800
  44   1 H      0.240  0.760  0.000  0.000     0.924     1.506
  45   1 H      0.093  0.907  0.000  0.000     1.849     2.127
  46   1 H      0.112  0.888  0.000  0.000     1.678     2.026
  47   1 H      0.083  0.917  0.000  0.000     1.945     2.181
  48   1 H      0.222  0.778  0.000  0.000     0.999     1.566
  49   1 H      0.236  0.764  0.000  0.000     0.941     1.519
  50   7 N     -0.398  1.308  4.090  0.000    30.311     8.177
  51   6 C      0.034  1.063  2.902  0.000    20.016     6.373
  52   6 C      0.190  1.098  2.712  0.000    23.927     8.011
  53   8 O     -0.381  1.749  4.632  0.000    21.301     6.188
  54   6 C     -0.089  1.054  3.034  0.000    22.183     6.705
  55   6 C      0.019  1.065  2.916  0.000    27.506     8.599
  56   7 N     -0.104  1.247  3.857  0.000    23.275     7.165
  57   6 C     -0.023  1.067  2.956  0.000    28.085     8.645
  58   6 C      0.081  1.059  2.860  0.000    25.888     8.317
  59   7 N     -0.275  1.474  3.801  0.000    27.985     7.843
  60   1 H      0.185  0.815  0.000  0.000     1.184     1.705
  61   1 H      0.062  0.938  0.000  0.000     2.179     2.308
  62   1 H      0.090  0.910  0.000  0.000     1.883     2.146
  63   1 H      0.055  0.945  0.000  0.000     2.262     2.352
  64   1 H      0.208  0.792  0.000  0.000     1.066     1.617
  65   1 H      0.037  0.963  0.000  0.000     2.485     2.465
  66   1 H      0.039  0.961  0.000  0.000     2.464     2.454
  67   7 N     -0.399  1.309  4.091  0.000    30.356     8.183
  68   6 C      0.021  1.057  2.922  0.000    20.238     6.407
  69   6 C      0.261  1.048  2.691  0.000    22.598     7.785
  70   8 O     -0.481  1.737  4.745  0.000    23.368     6.481
  71   6 C     -0.074  1.061  3.013  0.000    21.905     6.662
  72   6 C     -0.015  1.054  2.960  0.000    20.806     6.488
  73   6 C     -0.116  1.041  3.075  0.000    22.767     6.803
  74   6 C     -0.121  1.043  3.079  0.000    22.876     6.819
  75   1 H      0.162  0.838  0.000  0.000     1.324     1.803
  76   1 H      0.062  0.938  0.000  0.000     2.179     2.309
  77   1 H      0.046  0.954  0.000  0.000     2.370     2.407
  78   1 H      0.044  0.956  0.000  0.000     2.399     2.422
  79   1 H      0.032  0.968  0.000  0.000     2.554     2.499
  80   1 H      0.041  0.959  0.000  0.000     2.433     2.439
  81   1 H      0.031  0.969  0.000  0.000     2.572     2.508
  82   1 H      0.047  0.953  0.000  0.000     2.362     2.403
  83   1 H      0.043  0.957  0.000  0.000     2.415     2.430
  84   1 H      0.055  0.945  0.000  0.000     2.258     2.350
  85   1 H      0.038  0.962  0.000  0.000     2.469     2.457
  86   7 N     -0.170  1.241  3.929  0.000    24.688     7.380
  87   6 C      0.001  1.067  2.932  0.000    20.568     6.458
  88   6 C      0.275  1.042  2.683  0.000    22.343     7.742
  89   8 O     -0.461  1.732  4.729  0.000    22.935     6.421
  90   6 C     -0.030  1.070  2.960  0.000    21.068     6.529
  91   6 C     -0.067  1.050  3.017  0.000    21.791     6.646
  92   6 C     -0.127  1.039  3.088  0.000    22.997     6.838
  93   6 C     -0.115  1.035  3.080  0.000    22.761     6.803
  94   1 H      0.219  0.781  0.000  0.000     1.013     1.576
  95   1 H      0.099  0.901  0.000  0.000     1.796     2.096
  96   1 H      0.062  0.938  0.000  0.000     2.172     2.305
  97   1 H      0.042  0.958  0.000  0.000     2.418     2.432
  98   1 H      0.052  0.948  0.000  0.000     2.292     2.368
  99   1 H      0.058  0.942  0.000  0.000     2.218     2.329
 100   1 H      0.048  0.952  0.000  0.000     2.341     2.393
 101   1 H      0.052  0.948  0.000  0.000     2.296     2.370
 102   1 H      0.035  0.965  0.000  0.000     2.512     2.479
 103   1 H      0.050  0.950  0.000  0.000     2.320     2.382
 104   1 H      0.043  0.957  0.000  0.000     2.413     2.429
 105   7 N     -0.180  1.237  3.942  0.000    24.887     7.409
 106   6 C     -0.002  1.063  2.939  0.000    20.614     6.463
 107   6 C      0.271  1.040  2.688  0.000    22.415     7.755
 108   8 O     -0.454  1.726  4.729  0.000    22.797     6.402
 109   6 C      0.065  1.034  2.901  0.000    19.690     6.355
 110   8 O     -0.460  1.727  4.733  0.000    22.044     6.338
 111   1 H      0.215  0.785  0.000  0.000     1.033     1.592
 112   1 H      0.105  0.895  0.000  0.000     1.736     2.060
 113   1 H      0.048  0.952  0.000  0.000     2.350     2.397
 114   1 H      0.073  0.927  0.000  0.000     2.054     2.241
 115   1 H      0.344  0.656  0.000  0.000     0.603     1.220
 116   7 N     -0.177  1.240  3.937  0.000    24.828     7.400
 117   6 C      0.004  1.065  2.931  0.000    20.506     6.446
 118   6 C      0.270  1.041  2.689  0.000    22.440     7.758
 119   8 O     -0.476  1.729  4.748  0.000    23.268     6.467
 120   6 C      0.057  1.037  2.905  0.000    19.824     6.378
 121   8 O     -0.462  1.721  4.741  0.000    22.083     6.344
 122   1 H      0.201  0.799  0.000  0.000     1.099     1.643
 123   1 H      0.091  0.909  0.000  0.000     1.871     2.139
 124   1 H      0.064  0.936  0.000  0.000     2.150     2.293
 125   1 H      0.078  0.922  0.000  0.000     2.004     2.214
 126   1 H      0.322  0.678  0.000  0.000     0.657     1.274
 127   7 N     -0.193  1.261  3.931  0.000    25.179     7.453
 128   6 C      0.023  1.058  2.920  0.000    20.193     6.398
 129   6 C      0.270  1.043  2.687  0.000    22.445     7.759
 130   8 O     -0.498  1.734  4.763  0.000    23.739     6.532
 131   6 C     -0.076  1.059  3.017  0.000    21.942     6.666
 132   6 C     -0.022  1.056  2.966  0.000    20.932     6.507
 133   6 C     -0.118  1.041  3.077  0.000    22.810     6.809
 134   6 C     -0.119  1.039  3.080  0.000    22.844     6.815
 135   1 H      0.246  0.754  0.000  0.000     0.898     1.484
 136   1 H      0.075  0.925  0.000  0.000     2.028     2.227
 137   1 H      0.048  0.952  0.000  0.000     2.350     2.397
 138   1 H      0.063  0.937  0.000  0.000     2.159     2.298
 139   1 H      0.056  0.944  0.000  0.000     2.250     2.346
 140   1 H      0.042  0.958  0.000  0.000     2.416     2.431
 141   1 H      0.042  0.958  0.000  0.000     2.427     2.436
 142   1 H      0.041  0.959  0.000  0.000     2.432     2.439
 143   1 H      0.049  0.951  0.000  0.000     2.336     2.390
 144   1 H      0.041  0.959  0.000  0.000     2.437     2.441
 145   1 H      0.041  0.959  0.000  0.000     2.440     2.443
 146   7 N     -0.178  1.246  3.932  0.000    24.852     7.404
 147   6 C      0.005  1.065  2.930  0.000    20.490     6.444
 148   6 C      0.267  1.043  2.691  0.000    22.496     7.768
 149   8 O     -0.506  1.741  4.764  0.000    23.910     6.556
 150   6 C     -0.024  1.060  2.964  0.000    20.966     6.513
 151   6 C     -0.135  1.044  3.091  0.000    23.152     6.860
 152   6 C     -0.131  1.039  3.092  0.000    23.076     6.849
 153   1 H      0.245  0.755  0.000  0.000     0.905     1.490
 154   1 H      0.089  0.911  0.000  0.000     1.887     2.148
 155   1 H      0.052  0.948  0.000  0.000     2.296     2.370
 156   1 H      0.063  0.937  0.000  0.000     2.168     2.302
 157   1 H      0.050  0.950  0.000  0.000     2.323     2.384
 158   1 H      0.063  0.937  0.000  0.000     2.170     2.304
 159   1 H      0.059  0.941  0.000  0.000     2.212     2.326
 160   1 H      0.064  0.936  0.000  0.000     2.150     2.293
 161   1 H      0.039  0.961  0.000  0.000     2.455     2.450
 162   7 N     -0.197  1.258  3.939  0.000    25.280     7.468
 163   6 C      0.018  1.066  2.915  0.000    20.261     6.407
 164   6 C      0.282  1.042  2.677  0.000    22.229     7.720
 165   8 O     -0.498  1.731  4.767  0.000    23.733     6.532
 166   6 C     -0.027  1.064  2.963  0.000    21.017     6.521
 167   6 C     -0.128  1.041  3.087  0.000    23.018     6.841
 168   6 C     -0.126  1.043  3.083  0.000    22.962     6.832
 169   1 H      0.256  0.744  0.000  0.000     0.861     1.454
 170   1 H      0.066  0.934  0.000  0.000     2.131     2.283
 171   1 H      0.072  0.928  0.000  0.000     2.069     2.249
 172   1 H      0.055  0.945  0.000  0.000     2.261     2.351
 173   1 H      0.060  0.940  0.000  0.000     2.203     2.321
 174   1 H      0.039  0.961  0.000  0.000     2.468     2.457
 175   1 H      0.055  0.945  0.000  0.000     2.263     2.353
 176   1 H      0.046  0.954  0.000  0.000     2.372     2.409
 177   1 H      0.042  0.958  0.000  0.000     2.419     2.432
 178   7 N     -0.193  1.251  3.942  0.000    25.188     7.454
 179   6 C      0.022  1.061  2.916  0.000    20.208     6.402
 180   6 C      0.263  1.043  2.693  0.000    22.563     7.779
 181   8 O     -0.491  1.736  4.755  0.000    23.588     6.512
 182   6 C     -0.084  1.062  3.022  0.000    22.094     6.691
 183   6 C     -0.013  1.056  2.957  0.000    20.775     6.483
 184   6 C     -0.117  1.042  3.075  0.000    22.796     6.807
 185   6 C     -0.120  1.043  3.077  0.000    22.857     6.816
 186   1 H      0.252  0.748  0.000  0.000     0.877     1.467
 187   1 H      0.061  0.939  0.000  0.000     2.192     2.315
 188   1 H      0.070  0.930  0.000  0.000     2.084     2.257
 189   1 H      0.054  0.946  0.000  0.000     2.272     2.357
 190   1 H      0.044  0.956  0.000  0.000     2.393     2.419
 191   1 H      0.047  0.953  0.000  0.000     2.351     2.398
 192   1 H      0.039  0.961  0.000  0.000     2.467     2.456
 193   1 H      0.046  0.954  0.000  0.000     2.373     2.409
 194   1 H      0.054  0.946  0.000  0.000     2.268     2.355
 195   1 H      0.045  0.955  0.000  0.000     2.379     2.412
 196   1 H      0.030  0.970  0.000  0.000     2.585     2.514
 197   7 N     -0.182  1.261  3.921  0.000    24.948     7.418
 198   6 C      0.011  1.068  2.921  0.000    20.392     6.429
 199   6 C      0.289  1.038  2.673  0.000    22.095     7.697
 200   8 O     -0.474  1.747  4.728  0.000    23.226     6.461
 201   6 C     -0.020  1.063  2.957  0.000    20.897     6.502
 202   6 C     -0.118  1.038  3.080  0.000    22.814     6.810
 203   6 C     -0.123  1.044  3.078  0.000    22.900     6.822
 204   1 H      0.250  0.750  0.000  0.000     0.882     1.471
 205   1 H      0.090  0.910  0.000  0.000     1.883     2.146
 206   1 H      0.069  0.931  0.000  0.000     2.097     2.264
 207   1 H      0.044  0.956  0.000  0.000     2.398     2.422
 208   1 H      0.048  0.952  0.000  0.000     2.351     2.398
 209   1 H      0.040  0.960  0.000  0.000     2.455     2.450
 210   1 H      0.058  0.942  0.000  0.000     2.227     2.334
 211   1 H      0.044  0.956  0.000  0.000     2.402     2.424
 212   1 H      0.049  0.951  0.000  0.000     2.336     2.390
 213   7 N     -0.200  1.250  3.950  0.000    25.338     7.476
 214   6 C      0.026  1.052  2.922  0.000    20.144     6.391
 215   6 C      0.215  1.052  2.733  0.000    23.455     7.932
 216   8 O     -0.336  1.681  4.655  0.000    19.647     5.984
 217   6 C     -0.075  1.057  3.018  0.000    21.905     6.659
 218   6 C      0.004  1.069  2.926  0.000    27.922     8.668
 219   6 C     -0.038  1.080  2.958  0.000    28.942     8.823
 220   6 C     -0.041  1.079  2.962  0.000    29.030     8.836
 221   6 C     -0.062  1.073  2.989  0.000    29.554     8.915
 222   6 C     -0.067  1.076  2.991  0.000    29.669     8.932
 223   6 C      0.150  1.044  2.806  0.000    24.738     8.152
 224   8 O     -0.415  1.696  4.719  0.000    21.131     6.206
 225   1 H      0.244  0.756  0.000  0.000     0.908     1.493
 226   1 H      0.093  0.907  0.000  0.000     1.853     2.129
 227   1 H      0.081  0.919  0.000  0.000     1.967     2.193
 228   1 H      0.057  0.943  0.000  0.000     2.232     2.337
 229   1 H      0.058  0.942  0.000  0.000     2.223     2.332
 230   1 H      0.031  0.969  0.000  0.000     2.570     2.507
 231   1 H      0.068  0.932  0.000  0.000     2.106     2.269
 232   1 H      0.033  0.967  0.000  0.000     2.549     2.497
 233   1 H      0.328  0.672  0.000  0.000     0.644     1.260
 234   7 N     -0.125  1.244  3.880  0.000    23.708     7.232
 235   6 C      0.010  1.064  2.926  0.000    20.418     6.435
 236   6 C      0.270  1.043  2.686  0.000    22.432     7.756
 237   8 O     -0.517  1.749  4.769  0.000    24.169     6.591
 238   6 C     -0.078  1.054  3.024  0.000    21.980     6.673
 239   6 C      0.020  1.080  2.901  0.000    27.564     8.612
 240   6 C     -0.039  1.077  2.962  0.000    28.966     8.826
 241   6 C     -0.043  1.079  2.964  0.000    29.077     8.843
 242   6 C     -0.034  1.081  2.953  0.000    28.840     8.807
 243   6 C     -0.033  1.080  2.953  0.000    28.829     8.805
 244   6 C     -0.036  1.080  2.956  0.000    28.898     8.815
 245   1 H      0.291  0.709  0.000  0.000     0.741     1.348
 246   1 H      0.091  0.909  0.000  0.000     1.869     2.138
 247   1 H      0.078  0.922  0.000  0.000     1.998     2.211
 248   1 H      0.067  0.933  0.000  0.000     2.116     2.275
 249   1 H      0.026  0.974  0.000  0.000     2.639     2.540
 250   1 H      0.042  0.958  0.000  0.000     2.424     2.435
 251   1 H      0.036  0.964  0.000  0.000     2.502     2.473
 252   1 H      0.051  0.949  0.000  0.000     2.309     2.376
 253   1 H      0.045  0.955  0.000  0.000     2.389     2.417
 254   7 N     -0.207  1.277  3.931  0.000    25.515     7.502
 255   6 C      0.028  1.062  2.910  0.000    20.108     6.386
 256   6 C      0.266  1.045  2.689  0.000    22.507     7.769
 257   8 O     -0.510  1.756  4.754  0.000    24.015     6.570
 258   6 C     -0.088  1.062  3.027  0.000    22.177     6.704
 259   6 C     -0.019  1.055  2.964  0.000    20.885     6.500
 260   6 C     -0.117  1.040  3.078  0.000    22.798     6.807
 261   6 C     -0.128  1.045  3.083  0.000    22.999     6.836
 262   1 H      0.263  0.737  0.000  0.000     0.834     1.430
 263   1 H      0.065  0.935  0.000  0.000     2.140     2.288
 264   1 H      0.073  0.927  0.000  0.000     2.058     2.243
 265   1 H      0.067  0.933  0.000  0.000     2.115     2.274
 266   1 H      0.044  0.956  0.000  0.000     2.397     2.421
 267   1 H      0.035  0.965  0.000  0.000     2.510     2.478
 268   1 H      0.018  0.982  0.000  0.000     2.769     2.602
 269   1 H      0.058  0.942  0.000  0.000     2.219     2.329
 270   1 H      0.042  0.958  0.000  0.000     2.424     2.435
 271   1 H      0.080  0.920  0.000  0.000     1.983     2.202
 272   1 H      0.029  0.971  0.000  0.000     2.601     2.522
 273   7 N     -0.101  1.249  3.852  0.000    23.213     7.156
 274   6 C      0.031  1.063  2.905  0.000    20.022     6.366
 275   6 C      0.290  1.039  2.672  0.000    22.089     7.696
 276   8 O     -0.516  1.757  4.759  0.000    24.140     6.587
 277   6 C     -0.064  1.057  3.007  0.000    21.700     6.628
 278   6 C     -0.184  1.103  3.080  0.000    32.814     9.393
 279   6 C      0.004  1.053  2.943  0.000    20.548     6.459
 280   1 H      0.048  0.952  0.000  0.000     2.339     2.392
 281   1 H      0.031  0.969  0.000  0.000     2.578     2.511
 282   1 H      0.034  0.966  0.000  0.000     2.528     2.486
 283   1 H      0.361  0.639  0.000  0.000     0.564     1.180
 284   1 H      0.038  0.962  0.000  0.000     2.470     2.458
 285   1 H      0.015  0.985  0.000  0.000     2.804     2.619
 286   1 H      0.066  0.934  0.000  0.000     2.125     2.280
 287   7 N     -0.200  1.261  3.938  0.000    25.334     7.475
 288   6 C      0.038  1.055  2.908  0.000    19.944     6.359
 289   6 C      0.276  1.043  2.681  0.000    22.327     7.737
 290   8 O     -0.523  1.756  4.768  0.000    24.302     6.609
 291   6 C     -0.122  1.041  3.081  0.000    22.888     6.821
 292   1 H      0.208  0.792  0.000  0.000     1.068     1.619
 293   1 H      0.048  0.952  0.000  0.000     2.343     2.394
 294   1 H      0.055  0.945  0.000  0.000     2.262     2.352
 295   1 H      0.057  0.943  0.000  0.000     2.231     2.336
 296   1 H      0.077  0.923  0.000  0.000     2.014     2.219
 297   7 N     -0.179  1.248  3.931  0.000    24.886     7.409
 298   6 C      0.025  1.061  2.914  0.000    20.160     6.394
 299   6 C      0.286  1.049  2.665  0.000    22.149     7.707
 300   8 O     -0.463  1.716  4.747  0.000    22.980     6.427
 301   6 C     -0.057  1.045  3.011  0.000    21.590     6.615
 302   6 C     -0.101  1.058  3.043  0.000    22.421     6.740
 303   6 C      0.289  1.037  2.675  0.000    22.106     7.698
 304   8 O     -0.472  1.748  4.724  0.000    23.166     6.453
 305   7 N     -0.303  1.267  4.036  0.000    27.809     7.832
 306   1 H      0.233  0.767  0.000  0.000     0.951     1.527
 307   1 H      0.064  0.936  0.000  0.000     2.157     2.297
 308   1 H      0.062  0.938  0.000  0.000     2.176     2.307
 309   1 H      0.072  0.928  0.000  0.000     2.059     2.244
 310   1 H      0.062  0.938  0.000  0.000     2.178     2.308
 311   1 H      0.063  0.937  0.000  0.000     2.159     2.298
 312   1 H      0.219  0.781  0.000  0.000     1.016     1.579
 313   1 H      0.235  0.765  0.000  0.000     0.946     1.523
 314   7 N     -0.167  1.245  3.922  0.000    24.613     7.368
 315   6 C      0.017  1.057  2.926  0.000    20.293     6.413
 316   6 C      0.277  1.043  2.680  0.000    22.314     7.736
 317   8 O     -0.474  1.761  4.713  0.000    23.222     6.461
 318   6 C     -0.121  1.040  3.081  0.000    22.853     6.813
 319   1 H      0.176  0.824  0.000  0.000     1.235     1.741
 320   1 H      0.077  0.923  0.000  0.000     2.015     2.220
 321   1 H      0.077  0.923  0.000  0.000     2.013     2.219
 322   1 H      0.064  0.936  0.000  0.000     2.156     2.296
 323   1 H      0.051  0.949  0.000  0.000     2.306     2.375
 324   7 N     -0.172  1.238  3.934  0.000    24.723     7.385
 325   6 C     -0.034  1.052  2.982  0.000    21.265     6.580
 326   6 C      0.198  1.076  2.726  0.000    23.780     7.986
 327   8 O     -0.365  1.744  4.621  0.000    20.991     6.143
 328   1 H      0.216  0.784  0.000  0.000     1.027     1.588
 329   1 H      0.095  0.905  0.000  0.000     1.836     2.119
 330   1 H      0.138  0.862  0.000  0.000     1.477     1.901
 331   7 N     -0.409  1.321  4.088  0.000    30.627     8.219
 332   6 C      0.034  1.051  2.915  0.000    20.020     6.373
 333   6 C      0.194  1.093  2.713  0.000    23.860     8.000
 334   8 O     -0.384  1.737  4.648  0.000    21.373     6.198
 335   6 C     -0.074  1.055  3.019  0.000    21.896     6.659
 336   6 C     -0.084  1.054  3.030  0.000    22.103     6.693
 337   6 C     -0.103  1.060  3.042  0.000    22.453     6.746
 338   6 C     -0.055  1.062  2.994  0.000    21.666     6.644
 339   7 N     -0.148  1.232  3.917  0.000    24.200     7.306
 340   1 H      0.180  0.820  0.000  0.000     1.212     1.724
 341   1 H      0.078  0.922  0.000  0.000     1.995     2.209
 342   1 H      0.045  0.955  0.000  0.000     2.386     2.416
 343   1 H      0.056  0.944  0.000  0.000     2.246     2.343
 344   1 H      0.071  0.929  0.000  0.000     2.077     2.254
 345   1 H      0.063  0.937  0.000  0.000     2.165     2.301
 346   1 H      0.063  0.937  0.000  0.000     2.161     2.299
 347   1 H      0.103  0.897  0.000  0.000     1.756     2.072
 348   1 H      0.117  0.883  0.000  0.000     1.638     2.001
 349   1 H      0.132  0.868  0.000  0.000     1.519     1.928
 350   1 H      0.271  0.729  0.000  0.000     0.808     1.408
 351   1 H      0.271  0.729  0.000  0.000     0.808     1.408
 352   1 H      0.270  0.730  0.000  0.000     0.811     1.411
[...]
 360   6 C     -0.124  1.043  3.082  0.000    22.938     6.829
 361   1 H      0.163  0.837  0.000  0.000     1.314     1.795
 362   1 H      0.019  0.981  0.000  0.000     2.747     2.592
 363   1 H      0.050  0.950  0.000  0.000     2.319     2.381
 364   1 H      0.067  0.933  0.000  0.000     2.115     2.274
 365   1 H      0.024  0.976  0.000  0.000     2.667     2.554
 366   1 H      0.054  0.946  0.000  0.000     2.270     2.356
 367   1 H      0.040  0.960  0.000  0.000     2.455     2.450
 368   1 H      0.061  0.939  0.000  0.000     2.184     2.311
 369   1 H      0.061  0.939  0.000  0.000     2.191     2.315
 370   1 H      0.043  0.957  0.000  0.000     2.409     2.427
 371   1 H      0.025  0.975  0.000  0.000     2.660     2.550
 372   7 N     -0.183  1.251  3.931  0.000    24.963     7.420
 373   6 C      0.020  1.059  2.921  0.000    20.242     6.406
 374   6 C      0.205  1.079  2.717  0.000    23.652     7.965
 375   8 O     -0.361  1.738  4.623  0.000    20.916     6.132
 376   6 C      0.073  1.038  2.890  0.000    19.572     6.336
 377   8 O     -0.474  1.722  4.752  0.000    22.332     6.379
 378   1 H      0.243  0.757  0.000  0.000     0.912     1.496
 379   1 H      0.086  0.914  0.000  0.000     1.921     2.168
 380   1 H      0.074  0.926  0.000  0.000     2.044     2.236
 381   1 H      0.058  0.942  0.000  0.000     2.217     2.328
 382   1 H      0.338  0.662  0.000  0.000     0.617     1.234
 383   7 N     -0.402  1.314  4.088  0.000    30.420     8.191
 384   6 C      0.035  1.060  2.905  0.000    19.999     6.369
 385   6 C      0.268  1.052  2.681  0.000    22.485     7.766
 386   8 O     -0.503  1.736  4.767  0.000    23.845     6.547
 387   6 C     -0.027  1.063  2.964  0.000    21.022     6.521
 388   6 C     -0.122  1.041  3.081  0.000    22.891     6.821
 389   6 C     -0.112  1.038  3.073  0.000    22.687     6.791
 390   1 H      0.165  0.835  0.000  0.000     1.305     1.789
 391   1 H      0.035  0.965  0.000  0.000     2.523     2.484
 392   1 H      0.052  0.948  0.000  0.000     2.293     2.368
 393   1 H      0.056  0.944  0.000  0.000     2.250     2.346
 394   1 H      0.036  0.964  0.000  0.000     2.502     2.474
 395   1 H      0.043  0.957  0.000  0.000     2.415     2.430
 396   1 H      0.047  0.953  0.000  0.000     2.352     2.398
 397   1 H      0.041  0.959  0.000  0.000     2.432     2.438
 398   1 H      0.038  0.962  0.000  0.000     2.478     2.462
 399   7 N     -0.176  1.249  3.927  0.000    24.807     7.397
 400   6 C      0.028  1.054  2.918  0.000    20.107     6.384
 401   6 C      0.204  1.084  2.711  0.000    23.656     7.965
 402   8 O     -0.375  1.757  4.618  0.000    21.192     6.172
 403   6 C     -0.071  1.059  3.012  0.000    21.841     6.652
 404   6 C     -0.014  1.055  2.959  0.000    20.796     6.486
 405   6 C     -0.114  1.041  3.072  0.000    22.720     6.795
 406   6 C     -0.115  1.038  3.077  0.000    22.757     6.801
 407   1 H      0.239  0.761  0.000  0.000     0.928     1.509
 408   1 H      0.091  0.909  0.000  0.000     1.865     2.136
 409   1 H      0.049  0.951  0.000  0.000     2.337     2.391
 410   1 H      0.054  0.946  0.000  0.000     2.274     2.358
 411   1 H      0.046  0.954  0.000  0.000     2.365     2.405
 412   1 H      0.042  0.958  0.000  0.000     2.428     2.437
 413   1 H      0.036  0.964  0.000  0.000     2.501     2.473
 414   1 H      0.043  0.957  0.000  0.000     2.415     2.430
 415   1 H      0.044  0.956  0.000  0.000     2.396     2.421
 416   1 H      0.051  0.949  0.000  0.000     2.303     2.373
 417   1 H      0.038  0.962  0.000  0.000     2.482     2.464
 418   7 N     -0.422  1.319  4.103  0.000    30.995     8.268
 419   6 C      0.045  1.056  2.899  0.000    19.837     6.345
 420   6 C      0.199  1.094  2.706  0.000    23.752     7.981
 421   8 O     -0.375  1.750  4.625  0.000    21.192     6.172
 422   6 C     -0.070  1.057  3.014  0.000    21.847     6.654
 423   6 C     -0.105  1.052  3.053  0.000    22.497     6.752
 424   6 C      0.290  1.039  2.671  0.000    22.087     7.695
 425   8 O     -0.473  1.744  4.729  0.000    23.182     6.456
 426   7 N     -0.267  1.258  4.009  0.000    26.915     7.705
 427   1 H      0.205  0.795  0.000  0.000     1.078     1.627
 428   1 H      0.046  0.954  0.000  0.000     2.369     2.407
 429   1 H      0.056  0.944  0.000  0.000     2.243     2.342
 430   1 H      0.067  0.933  0.000  0.000     2.121     2.278
 431   1 H      0.104  0.896  0.000  0.000     1.753     2.071
 432   1 H      0.060  0.940  0.000  0.000     2.199     2.319
 433   1 H      0.211  0.789  0.000  0.000     1.050     1.605
 434   1 H      0.208  0.792  0.000  0.000     1.064     1.616
 435   7 N     -0.381  1.310  4.071  0.000    29.850     8.114
 436   6 C      0.046  1.054  2.900  0.000    19.823     6.342
 437   6 C      0.202  1.093  2.705  0.000    23.706     7.974
 438   8 O     -0.390  1.760  4.629  0.000    21.475     6.213
 439   6 C     -0.075  1.055  3.020  0.000    21.924     6.665
 440   6 C      0.015  1.083  2.902  0.000    27.679     8.630
 441   6 C     -0.045  1.080  2.965  0.000    29.114     8.849
 442   6 C     -0.042  1.076  2.966  0.000    29.045     8.838
 443   6 C     -0.035  1.080  2.955  0.000    28.880     8.813
 444   6 C     -0.035  1.080  2.955  0.000    28.875     8.812
 445   6 C     -0.038  1.079  2.959  0.000    28.954     8.824
 446   1 H      0.159  0.841  0.000  0.000     1.342     1.815
 447   1 H      0.043  0.957  0.000  0.000     2.410     2.428
 448   1 H      0.076  0.924  0.000  0.000     2.020     2.222
 449   1 H      0.057  0.943  0.000  0.000     2.236     2.338
 450   1 H      0.043  0.957  0.000  0.000     2.412     2.429
 451   1 H      0.031  0.969  0.000  0.000     2.570     2.507
 452   1 H      0.044  0.956  0.000  0.000     2.392     2.419
 453   1 H      0.029  0.971  0.000  0.000     2.601     2.522
 454   1 H      0.033  0.967  0.000  0.000     2.551     2.498
 455   7 N     -0.386  1.313  4.073  0.000    29.981     8.132
 456   6 C      0.036  1.061  2.902  0.000    19.981     6.367
 457   6 C      0.192  1.091  2.718  0.000    23.899     8.007
 458   8 O     -0.395  1.743  4.652  0.000    21.575     6.228
 459   6 C     -0.027  1.070  2.957  0.000    21.023     6.522
 460   6 C     -0.069  1.050  3.019  0.000    21.815     6.650
 461   6 C     -0.116  1.038  3.078  0.000    22.775     6.805
 462   6 C     -0.119  1.038  3.080  0.000    22.829     6.813
 463   1 H      0.166  0.834  0.000  0.000     1.298     1.785
 464   1 H      0.043  0.957  0.000  0.000     2.406     2.426
 465   1 H      0.049  0.951  0.000  0.000     2.333     2.389
 466   1 H      0.054  0.946  0.000  0.000     2.271     2.356
 467   1 H      0.036  0.964  0.000  0.000     2.507     2.476
 468   1 H      0.057  0.943  0.000  0.000     2.231     2.336
 469   1 H      0.043  0.957  0.000  0.000     2.405     2.425
 470   1 H      0.042  0.958  0.000  0.000     2.429     2.437
 471   1 H      0.036  0.964  0.000  0.000     2.506     2.476
 472   1 H      0.043  0.957  0.000  0.000     2.404     2.425
 473   1 H      0.054  0.946  0.000  0.000     2.276     2.359
 474   7 N     -0.389  1.306  4.083  0.000    30.065     8.143
 475   6 C      0.046  1.050  2.903  0.000    19.807     6.338
 476   6 C      0.268  1.051  2.681  0.000    22.475     7.763
 477   8 O     -0.503  1.735  4.769  0.000    23.852     6.548
 478   6 C     -0.110  1.062  3.048  0.000    22.597     6.766
 479   6 C      0.295  1.035  2.670  0.000    22.002     7.681
 480   8 O     -0.508  1.756  4.752  0.000    23.968     6.564
 481   7 N     -0.292  1.265  4.027  0.000    27.539     7.794
 482   1 H      0.158  0.842  0.000  0.000     1.351     1.821
 483   1 H      0.043  0.957  0.000  0.000     2.411     2.428
 484   1 H      0.076  0.924  0.000  0.000     2.023     2.224
 485   1 H      0.093  0.907  0.000  0.000     1.850     2.127
 486   1 H      0.229  0.771  0.000  0.000     0.968     1.541
 487   1 H      0.224  0.776  0.000  0.000     0.991     1.560
 488   7 N     -0.180  1.254  3.927  0.000    24.905     7.412
 489   6 C      0.029  1.056  2.915  0.000    20.068     6.374
 490   6 C      0.190  1.082  2.728  0.000    23.930     8.011
 491   8 O     -0.359  1.757  4.602  0.000    20.876     6.126
 492   6 C     -0.006  1.060  2.946  0.000    20.688     6.476
 493  16 S     -0.266  1.925  4.265  0.076   152.494    20.784
 494   1 H      0.257  0.743  0.000  0.000     0.858     1.451
 495   1 H      0.096  0.904  0.000  0.000     1.824     2.112
 496   1 H      0.056  0.944  0.000  0.000     2.242     2.342
 497   1 H      0.070  0.930  0.000  0.000     2.081     2.256
 498   1 H      0.177  0.823  0.000  0.000     1.225     1.731
 499   7 N     -0.438  1.327  4.111  0.000    31.452     8.329
 500   6 C      0.047  1.055  2.898  0.000    19.805     6.339
 501   6 C      0.207  1.090  2.703  0.000    23.601     7.957
 502   8 O     -0.403  1.757  4.646  0.000    21.751     6.253
 503   6 C     -0.022  1.062  2.960  0.000    20.925     6.505
 504   6 C     -0.120  1.038  3.083  0.000    22.858     6.816
 505   6 C     -0.108  1.039  3.069  0.000    22.616     6.780
 506   1 H      0.211  0.789  0.000  0.000     1.049     1.604
 507   1 H      0.025  0.975  0.000  0.000     2.657     2.549
 508   1 H      0.059  0.941  0.000  0.000     2.207     2.323
 509   1 H      0.045  0.955  0.000  0.000     2.378     2.412
 510   1 H      0.072  0.928  0.000  0.000     2.060     2.244
 511   1 H      0.032  0.968  0.000  0.000     2.555     2.500
 512   1 H      0.048  0.952  0.000  0.000     2.341     2.393
 513   1 H      0.034  0.966  0.000  0.000     2.530     2.488
 514   1 H      0.030  0.970  0.000  0.000     2.587     2.515
 515   7 N     -0.397  1.314  4.083  0.000    30.293     8.174
 516   6 C      0.028  1.063  2.909  0.000    20.110     6.385
 517   6 C      0.274  1.051  2.676  0.000    22.376     7.746
 518   8 O     -0.480  1.725  4.755  0.000    23.342     6.478
 519   6 C     -0.017  1.062  2.955  0.000    20.839     6.492
 520   6 C     -0.061  1.050  3.011  0.000    21.663     6.626
 521   6 C     -0.102  1.037  3.065  0.000    22.499     6.762
 522   6 C     -0.107  1.035  3.072  0.000    22.604     6.780
 523   1 H      0.156  0.844  0.000  0.000     1.358     1.826
 524   1 H      0.054  0.946  0.000  0.000     2.272     2.357
 525   1 H      0.017  0.983  0.000  0.000     2.774     2.605
 526   1 H      0.047  0.953  0.000  0.000     2.356     2.400
 527   1 H      0.039  0.961  0.000  0.000     2.463     2.454
 528   1 H      0.039  0.961  0.000  0.000     2.456     2.451
 529   1 H      0.022  0.978  0.000  0.000     2.700     2.570
 530   1 H      0.054  0.946  0.000  0.000     2.274     2.358
 531   1 H      0.050  0.950  0.000  0.000     2.321     2.382
 532   1 H      0.029  0.971  0.000  0.000     2.595     2.519
 533   1 H      0.036  0.964  0.000  0.000     2.502     2.474
 534   7 N     -0.165  1.251  3.914  0.000    24.569     7.362
 535   6 C      0.047  1.055  2.898  0.000    19.805     6.338
 536   6 C      0.190  1.079  2.731  0.000    23.926     8.011
 537   8 O     -0.386  1.743  4.642  0.000    21.399     6.202
 538   6 C     -0.103  1.078  3.025  0.000    22.459     6.747
 539   6 C      0.376  1.020  2.604  0.000    20.636     7.434
 540   8 O     -0.623  1.771  4.852  0.000    26.683     6.926
 541   8 O     -0.633  1.775  4.858  0.000    26.934     6.958
 542   1 H      0.190  0.810  0.000  0.000     1.157     1.685
 543   1 H      0.065  0.935  0.000  0.000     2.143     2.289
 544   1 H      0.040  0.960  0.000  0.000     2.451     2.448
 545   1 H      0.043  0.957  0.000  0.000     2.410     2.428
 546   7 N     -0.392  1.322  4.070  0.000    30.137     8.153
 547   6 C      0.041  1.054  2.905  0.000    19.909     6.356
 548   6 C      0.267  1.053  2.681  0.000    22.498     7.767
 549   8 O     -0.481  1.734  4.747  0.000    23.361     6.480
 550   6 C     -0.119  1.040  3.079  0.000    22.833     6.813
 551   1 H      0.150  0.850  0.000  0.000     1.404     1.856
 552   1 H      0.033  0.967  0.000  0.000     2.549     2.497
 553   1 H      0.050  0.950  0.000  0.000     2.326     2.385
 554   1 H      0.049  0.951  0.000  0.000     2.338     2.391
 555   1 H      0.057  0.943  0.000  0.000     2.232     2.336
 556   7 N     -0.177  1.245  3.933  0.000    24.844     7.403
 557   6 C      0.038  1.056  2.906  0.000    19.943     6.358
 558   6 C      0.195  1.079  2.726  0.000    23.846     7.998
 559   8 O     -0.363  1.734  4.629  0.000    20.951     6.137
 560   6 C     -0.020  1.067  2.953  0.000    20.925     6.511
 561  16 S     -0.296  1.925  4.331  0.039   153.860    20.877
 562   1 H      0.226  0.774  0.000  0.000     0.983     1.553
 563   1 H      0.079  0.921  0.000  0.000     1.988     2.205
 564   1 H      0.080  0.920  0.000  0.000     1.983     2.202
 565   1 H      0.080  0.920  0.000  0.000     1.981     2.201
 566   1 H      0.172  0.828  0.000  0.000     1.254     1.751
 567   7 N     -0.422  1.314  4.108  0.000    31.006     8.270
 568   6 C      0.038  1.055  2.907  0.000    19.932     6.357
 569   6 C      0.264  1.049  2.687  0.000    22.545     7.776
 570   8 O     -0.498  1.738  4.760  0.000    23.739     6.532
 571   6 C     -0.017  1.064  2.953  0.000    20.846     6.493
 572   6 C     -0.077  1.050  3.026  0.000    21.958     6.671
 573   6 C     -0.121  1.039  3.082  0.000    22.864     6.815
 574   6 C     -0.111  1.040  3.071  0.000    22.686     6.792
 575   1 H      0.192  0.808  0.000  0.000     1.150     1.680
 576   1 H      0.028  0.972  0.000  0.000     2.619     2.531
 577   1 H      0.033  0.967  0.000  0.000     2.540     2.492
 578   1 H      0.034  0.966  0.000  0.000     2.528     2.486
 579   1 H      0.060  0.940  0.000  0.000     2.204     2.322
 580   1 H      0.053  0.947  0.000  0.000     2.281     2.362
 581   1 H      0.029  0.971  0.000  0.000     2.606     2.525
 582   1 H      0.033  0.967  0.000  0.000     2.545     2.495
 583   1 H      0.043  0.957  0.000  0.000     2.404     2.425
 584   1 H      0.039  0.961  0.000  0.000     2.463     2.454
 585   1 H      0.036  0.964  0.000  0.000     2.496     2.471
 586   7 N     -0.167  1.241  3.926  0.000    24.610     7.368
 587   6 C      0.034  1.055  2.911  0.000    19.998     6.367
 588   6 C      0.205  1.086  2.709  0.000    23.650     7.964
 589   8 O     -0.365  1.755  4.610  0.000    21.003     6.144
 590   6 C     -0.131  1.042  3.089  0.000    23.065     6.848
 591   1 H      0.220  0.780  0.000  0.000     1.011     1.575
 592   1 H      0.087  0.913  0.000  0.000     1.911     2.162
 593   1 H      0.074  0.926  0.000  0.000     2.039     2.233
 594   1 H      0.086  0.914  0.000  0.000     1.919     2.166
 595   1 H      0.066  0.934  0.000  0.000     2.132     2.283
 596   7 N     -0.425  1.334  4.092  0.000    31.088     8.281
 597   6 C      0.046  1.053  2.901  0.000    19.818     6.341
 598   6 C      0.206  1.093  2.701  0.000    23.634     7.962
 599   8 O     -0.398  1.756  4.642  0.000    21.642     6.237
 600   6 C     -0.066  1.060  3.005  0.000    21.746     6.637
 601   6 C     -0.011  1.055  2.956  0.000    20.736     6.477
 602   6 C     -0.119  1.042  3.077  0.000    22.833     6.813
 603   6 C     -0.128  1.044  3.084  0.000    23.000     6.837
 604   1 H      0.193  0.807  0.000  0.000     1.144     1.675
 605   1 H      0.042  0.958  0.000  0.000     2.426     2.436
 606   1 H      0.062  0.938  0.000  0.000     2.173     2.305
 607   1 H      0.041  0.959  0.000  0.000     2.437     2.441
 608   1 H      0.018  0.982  0.000  0.000     2.765     2.600
 609   1 H      0.062  0.938  0.000  0.000     2.174     2.306
 610   1 H      0.029  0.971  0.000  0.000     2.603     2.523
 611   1 H      0.040  0.960  0.000  0.000     2.451     2.448
 612   1 H      0.074  0.926  0.000  0.000     2.045     2.236
 613   1 H      0.043  0.957  0.000  0.000     2.414     2.430
 614   1 H      0.029  0.971  0.000  0.000     2.606     2.525
 615   1 H      0.177  0.823  0.000  0.000     1.230     1.737
 616   1 H      0.057  0.943  0.000  0.000     2.234     2.337
 617   1 H      0.185  0.815  0.000  0.000     1.183     1.704
 618   1 H      0.071  0.929  0.000  0.000     2.077     2.253
 619   1 H      0.188  0.812  0.000  0.000     1.167     1.692
 620   1 H      0.076  0.924  0.000  0.000     2.015     2.220
 621   1 H      0.182  0.818  0.000  0.000     1.201     1.716
 622   1 H      0.073  0.927  0.000  0.000     2.057     2.243
 623   1 H      0.185  0.815  0.000  0.000     1.185     1.705
 624   1 H      0.065  0.935  0.000  0.000     2.135     2.285
 625   1 H      0.173  0.827  0.000  0.000     1.252     1.753
 626   1 H      0.068  0.932  0.000  0.000     2.104     2.268
 627   1 H      0.175  0.825  0.000  0.000     1.242     1.745
 628   1 H      0.065  0.935  0.000  0.000     2.143     2.289
 629   1 H      0.166  0.834  0.000  0.000     1.300     1.786
 630   1 H      0.066  0.934  0.000  0.000     2.133     2.284
 631   1 H      0.179  0.821  0.000  0.000     1.220     1.730
 632   1 H      0.077  0.923  0.000  0.000     2.010     2.217
 633   1 H      0.179  0.821  0.000  0.000     1.219     1.729
 634   1 H      0.073  0.927  0.000  0.000     2.052     2.240
 635   1 H      0.177  0.823  0.000  0.000     1.233     1.739
 636   1 H      0.065  0.935  0.000  0.000     2.141     2.288
 637   1 H      0.165  0.835  0.000  0.000     1.303     1.788
 638   1 H      0.065  0.935  0.000  0.000     2.144     2.289
 639   1 H      0.192  0.808  0.000  0.000     1.148     1.678
 640   1 H      0.063  0.937  0.000  0.000     2.160     2.298
 641   1 H      0.180  0.820  0.000  0.000     1.211     1.724
 642   1 H      0.059  0.941  0.000  0.000     2.207     2.323
 643   1 H      0.165  0.835  0.000  0.000     1.305     1.790
 644   1 H      0.068  0.932  0.000  0.000     2.105     2.269
 645   1 H      0.172  0.828  0.000  0.000     1.259     1.758
 646   1 H      0.061  0.939  0.000  0.000     2.182     2.310

 Mol. C6AA /au·bohr⁶  :    3698853.260049
 Mol. C8AA /au·bohr⁸  :   82354023.008821
 Mol. α(0) /au        :       2887.099185

 
molecular dipole:
                 x           y           z       tot (Debye)
 q only:       12.756      29.496      24.507
   full:       12.237      29.097      24.383     101.383
molecular quadrupole (traceless):
                xx          xy          yy          xz          yz          zz
 q only:    -2047.745    3819.590    3228.493    2171.251    4614.878   -1180.748
  q+dip:    -2112.998    3769.808    3229.496    2150.616    4661.007   -1116.498
   full:    -2106.178    3772.295    3231.222    2150.435    4657.216   -1125.044
speedup  1.00
cpu  time for grad   39.62 s
wall time for grad   39.62 s

SCC energy    :    -953.5368597
rep           :      12.1577978
ES            :       2.2409355
AES           :      -0.0476366
AXC           :       0.3648391
disp          :      -0.9181285
XB            :       0.0000000
fix           :       0.0000000
Gborn         :       0.0000000
Gsasa         :       0.0000000
Ghb           :       0.0000000
Gshift        :       0.0000000
Gsolv         :      -0.3886932     -243.91
Etot ala COSMO:    -953.5368597
grad norm     :       0.8745477
total E       :    -941.2690003
atomizationE  :     175.8315647   110335.97
(atE without considering molecular charge,
 total energy contains solvation terms)
H-L gap (eV)  :          0.1802

------------------------------------------------------------------------
 * finished run on 2019/03/14 at 15:09:02.162     
------------------------------------------------------------------------
 total:
 * wall-time:     0 d,  0 h,  0 min, 42.124 sec
 *  cpu-time:     0 d,  0 h,  0 min, 41.908 sec
 * ratio c/w:     0.995 speedup
 SCF:
 * wall-time:     0 d,  0 h,  0 min, 41.230 sec
 *  cpu-time:     0 d,  0 h,  0 min, 41.222 sec
 * ratio c/w:     1.000 speedup

