      -----------------------------------------------------------      
     |                   =====================                   |     
     |                           x T B                           |     
     |                   =====================                   |     
     |                         S. Grimme                         |     
     |          Mulliken Center for Theoretical Chemistry        |     
     |                    University of Bonn                     |     
     |                Version 6.1 RC1 (SAW190329)                |     
      -----------------------------------------------------------      

   This program is distributed in the hope that it will be useful,
   but WITHOUT ANY WARRANTY; without even the implied warranty of
   MERCHANTABILITY or FITNESS FOR A PARTICULAR PURPOSE.
   
   FOR NON-COMMERCIAL, ACADEMIA USE ONLY.
   
   Cite this work as:
   S. Grimme, C. Bannwarth, P. Shushkov, J. Comput. Theory Chem., 2017,
   13, 1989-2009. DOI: 10.1021/acs.jctc.7b00118
   C. Bannwarth, S. Ehlert and S. Grimme., J. Comput. Theory Chem., 2019,
   just accepted. DOI: 10.1021/acs.jctc.8b01176
   
   for sTDA-xTB:
   S. Grimme and C. Bannwarth, J. Chem. Phys., 2016, 145, 054103.
   DOI: 10.1063/1.4959605
   
   in the mass-spec context:
   V. Asgeirsson, C. Bauer and S. Grimme, Chem. Sci., 2017, 8, 4879.
   DOI: 10.1039/c7sc00601b
   
   for metadynamics refer to:
   S. Grimme, ChemRxiv, Preprint. DOI: 10.26434/chemrxiv.7660532.v1
   
   with help from (in alphabetical order)
   C. Bannwarth, F. Bohle, G. Brandenburg, E. Caldeweyher, M. Checinski,
   S. Dohm, S. Ehlert, S. Ehrlich, F. März, H. Neugebauer, J. Pisarek,
   P. Pracht, P. Shushkov, and S. Spicher.
   
 * started run on 2019/05/31 at 06:33:53.933     

           -------------------------------------------------
          |                Calculation Setup                |
           -------------------------------------------------

          program call               : /home/lum/qr/xtb-190329/bin/xtb xtb_tmp.xyz --chrg 0 --grad --gfn 2 --etemp 500 --acc 0.1 --gbsa h2o --parallel 2
          hostname                   : cu39
          coordinate file            : xtb_tmp.xyz
          omp threads                :                     2
          number of atoms            :                   258
          number of electrons        :                   694
          charge                     :                     0
          spin                       :                   0.0
          first test random number   :      0.03945682167720


molecular fragmentation (1/2 indicates fragments):
111111111111111111111111111111111111111111111111222222222222222222222222
222222222222222222222222222222222222222222222222222222222222222222222222
222222222222222222222222222222222222222222222222222222222222222222222222
222222222222222222222222222222222211222222
# atoms in fragment 1/2:    50   208
 fragment masses (1/2) :      357.39     1384.66
CMA distance (Bohr)    :  17.290
constraining FC (au)   :  0.0500

########################################################################
# WARNING! Please study the warnings concerning your input carefully
#  - XTBPATH is not set, using XTBHOME instead
#  - Process number higher than OMP_NUM_THREADS, I hope you know what you are doing.
########################################################################

           ------------------------------------------------- 
          |                 G F N 2 - x T B                 |
          | Geometry, Frequencies, Noncovalent interactions |
          |            JCTC 2018 parametrisation            |
           ------------------------------------------------- 
 
             k(s)              :                1.8500
             k(p)              :                2.2300
             k(d)              :                2.2300
             k(f)              :                2.0000
             kEN (H0ij)        :               -2.0000
             D4 a1             :                0.5200
             D4 a2             :                5.0000
             D4 s6             :                1.0000
             D4 s8             :                2.7000
             D4 s9             :                5.0000
             alphaj            :                2.0000

  Z AO/shell   Hii/eV     exponent
  1     Wed Apr 25 08:07:45 CEST 2018   EN: 2.200 GM2: 0.406  GM3: 0.0800  RAES: 1.40
     1s    -10.707211    1.230000
  6     Wed Apr 25 08:07:45 CEST 2018   EN: 2.550 GM2: 0.538  GM3: 0.1500  RAES: 3.00
     2s    -13.970922    2.096432
     2p    -10.063292    1.800000
  7     Wed Apr 25 08:07:45 CEST 2018   EN: 3.040 GM2: 0.461  GM3:-0.0640  RAES: 1.90
     2s    -16.686243    2.339881
     2p    -12.523956    2.014332
  8     Wed Apr 25 08:07:45 CEST 2018   EN: 3.440 GM2: 0.452  GM3:-0.0517  RAES: 1.80
     2s    -20.229985    2.439742
     2p    -15.503117    2.137023

 Solvent             : h2o
 Using internal parameter file: .param_gbsa2_h2o
 Gsolv ref. state (COSMO-RS): gsolv [1 M gas/solution]
 temperature (mdtemp)       :    298.150000000000     
 dielectric constant        :    80.2000000000000     
 rho                        :    1.00000000000000     
 mass                       :    18.0000000000000     
 surface tension            :    15.5689454083859     
 probe radius               :   0.975313790000000     
 vdW radii scaling          :    1.00000000000000     
 Gshift (Eh)                :   1.857443126794793E-003
 c1                         :    1.55243817000000     
 soset                      :   0.130326360000000     
 HB correction              :  T
 Number of grid points      :          230

            Z     q(EN)     CN     RAES       Cart. coordinates
     1  N   5.0   -0.68    3.00    1.93    87.75883    71.09593    98.60038
     2  C   4.0    0.08    3.99    3.60    88.22764    73.78405    98.55990
     3  C   4.0    0.27    3.01    3.02    91.02765    74.35014    98.10993
     4  O   6.0   -0.40    1.00    1.80    92.70428    72.87448    98.71611
     5  C   4.0   -0.09    3.98    3.58    87.19270    75.01921   100.99687
     6  C   4.0   -0.15    3.98    3.59    88.73108    74.20916   103.31040
     7  C   4.0   -0.23    3.98    3.59    84.39573    74.34748   101.30035
     8  C   4.0   -0.24    3.98    3.58    87.73988    75.36201   105.75730
     9  H   1.0    0.27    1.00    1.43    88.50586    70.06156   100.02513
    10  H   1.0    0.11    0.99    1.43    87.19284    74.52959    96.93283
    11  H   1.0    0.11    0.99    1.43    87.37800    77.06149   100.73011
    12  H   1.0    0.11    0.99    1.43    88.69133    72.15291   103.46292
    13  H   1.0    0.12    0.99    1.43    90.69170    74.77239   103.01174
    14  H   1.0    0.10    0.99    1.43    83.47667    75.66763   102.57276
    15  H   1.0    0.10    0.99    1.43    83.44416    74.43175    99.48277
    16  H   1.0    0.10    0.99    1.43    84.18953    72.44660   102.04860
    17  H   1.0    0.10    0.99    1.43    89.01441    74.93660   107.30999
    18  H   1.0    0.10    0.99    1.43    87.58332    77.40222   105.57295
    19  H   1.0    0.09    0.99    1.43    85.89080    74.59967   106.20985
    20  N   5.0   -0.50    3.01    1.93    91.44298    76.60647    97.04097
    21  C   4.0    0.07    3.99    3.60    93.93672    77.56569    96.48335
    22  C   4.0    0.26    3.01    3.02    93.85244    80.44142    96.62765
    23  O   6.0   -0.40    1.00    1.80    91.90194    81.66013    96.41109
    24  C   4.0   -0.12    3.98    3.59    94.81488    76.73067    93.80966
    25  C   4.0   -0.11    3.97    3.57    97.60680    76.08891    93.63719
    26  C   4.0    0.32    2.99    3.02    98.51942    75.59793    90.86092
    27  O   6.0   -0.35    1.00    1.80   100.39280    74.20475    90.62016
    28  O   6.0   -0.36    1.00    1.80    97.36253    76.71721    89.13563
    29  H   1.0    0.25    1.00    1.43    89.97250    77.72575    96.52239
    30  H   1.0    0.13    0.99    1.43    95.23674    76.78777    97.89900
    31  H   1.0    0.15    0.99    1.43    93.72080    75.05610    93.30122
    32  H   1.0    0.15    0.99    1.43    94.39507    78.19676    92.42600
    33  H   1.0    0.13    0.99    1.43    98.77428    77.66147    94.30157
    34  H   1.0    0.13    0.99    1.43    98.06356    74.42795    94.77438
    35  N   5.0   -0.47    3.01    1.93    96.11291    81.55495    96.89051
    36  C   4.0    0.06    3.99    3.60    96.42910    84.27831    96.87905
    37  C   4.0    0.07    3.00    3.02    98.63167    84.91720    95.11116
    38  O   6.0   -0.42    1.00    1.80   100.54239    83.58420    95.11216
    39  C   4.0   -0.09    3.98    3.59    96.76840    85.33686    99.56886
    40  C   4.0    0.29    2.99    3.02    98.73568    84.09552   101.25921
    41  O   6.0   -0.45    1.00    1.80    98.64469    84.37625   103.56065
    42  N   5.0   -0.64    3.00    1.93   100.52222    82.69177   100.16508
    43  H   1.0    0.25    1.00    1.43    97.68985    80.48881    97.02816
    44  H   1.0    0.14    0.99    1.43    94.68002    85.07478    96.11391
    45  H   1.0    0.10    0.99    1.43    97.21527    87.34904    99.45335
    46  H   1.0    0.13    0.99    1.43    94.96761    85.17896   100.57438
    47  H   1.0    0.29    1.00    1.43   101.85964    81.92011   101.27774
    48  H   1.0    0.32    1.00    1.43   100.82707    82.72359    98.26044
    49  N   5.0   -0.70    3.00    1.93    82.90754    99.77230   112.05953
    50  C   4.0    0.02    3.98    3.58    83.71541    97.30769   112.92659
    51  C   4.0    0.06    3.00    3.02    84.33472    97.33809   115.73910
    52  O   6.0   -0.38    1.00    1.80    85.53132    99.08094   116.69250
    53  H   1.0    0.28    1.00    1.43    81.48733   100.57661   113.04646
    54  H   1.0    0.16    0.99    1.43    82.24661    95.91079   112.55255
    55  H   1.0    0.13    0.99    1.43    85.42405    96.81221   111.87311
    56  N   5.0   -0.69    3.00    1.93   105.69821    76.49236   116.14727
    57  C   4.0    0.07    3.98    3.59   105.62947    77.40028   113.54584
    58  C   4.0    0.27    3.01    3.02   102.98688    76.97531   112.42971
    59  O   6.0   -0.41    1.00    1.80   102.57529    75.70288   110.54869
    60  C   4.0   -0.07    3.98    3.58   107.71428    76.11850   112.02440
    61  C   4.0    0.32    2.99    3.02   110.40352    76.35800   113.22808
    62  O   6.0   -0.39    1.00    1.80   110.58031    77.25573   115.41278
    63  O   6.0   -0.35    1.00    1.80   112.18608    75.58608   111.91322
    64  H   1.0    0.32    1.00    1.43   107.47628    76.78331   116.85570
    65  H   1.0    0.12    0.99    1.43   106.00338    79.44495   113.58971
    66  H   1.0    0.15    0.99    1.43   107.29788    74.10223   111.84895
    67  H   1.0    0.13    0.99    1.43   107.81756    76.91513   110.12601
    68  N   5.0   -0.47    3.01    1.93   101.18019    78.28661   113.63980
    69  C   4.0    0.07    3.99    3.60    98.51618    77.71610   113.27502
    70  C   4.0    0.27    3.02    3.02    97.45635    79.54500   111.28555
    71  O   6.0   -0.38    1.01    1.80    97.48013    81.86178   111.53601
    72  C   4.0   -0.14    3.98    3.59    97.16347    77.57327   115.85045
    73  C   4.0   -0.09    3.97    3.58    97.22001    79.89426   117.60148
    74  C   4.0   -0.21    3.98    3.59    95.12966    81.78906   116.98188
    75  C   4.0   -0.23    3.98    3.59    96.91750    79.01948   120.34292
    76  H   1.0    0.23    1.00    1.43   101.66114    79.21725   115.23438
    77  H   1.0    0.13    0.99    1.43    98.47574    75.81116   112.46939
    78  H   1.0    0.11    0.99    1.43    95.20527    77.02824   115.51775
    79  H   1.0    0.11    0.99    1.43    98.12382    76.02034   116.82133
    80  H   1.0    0.12    0.99    1.43    99.06096    80.83423   117.45894
    81  H   1.0    0.11    0.99    1.43    95.26643    83.40084   118.24942
    82  H   1.0    0.15    0.99    1.43    95.32353    82.47398   115.05874
    83  H   1.0    0.11    0.99    1.43    93.28837    80.90928   117.22373
    84  H   1.0    0.11    0.99    1.43    96.99814    80.65284   121.58353
    85  H   1.0    0.11    0.99    1.43    95.11704    78.06889   120.61403
    86  H   1.0    0.11    0.99    1.43    98.44711    77.75219   120.87747
    87  N   5.0   -0.33    3.03    1.93    96.46893    78.54872   109.18761
    88  C   4.0    0.08    4.04    3.69    95.68171    80.29596   107.20711
    89  C   4.0    0.31    3.01    3.02    94.17702    82.51820   108.27426
    90  O   6.0   -0.41    1.00    1.80    92.28909    82.19418   109.58313
    91  C   4.0   -0.13    4.01    3.64    94.07146    78.62947   105.49529
    92  C   4.0   -0.14    4.01    3.64    95.48198    76.11412   105.58038
    93  C   4.0   -0.05    4.01    3.63    96.43719    75.94264   108.31183
    94  H   1.0    0.15    0.99    1.43    97.35510    81.02333   106.22209
    95  H   1.0    0.12    0.99    1.43    92.19450    78.45098   106.32248
    96  H   1.0    0.12    0.99    1.43    93.89955    79.41057   103.60212
    97  H   1.0    0.10    0.99    1.43    94.29926    74.50980   105.08319
    98  H   1.0    0.12    0.99    1.43    97.07167    76.15978   104.27071
    99  H   1.0    0.10    0.99    1.43    95.16033    74.82131   109.48734
   100  H   1.0    0.14    0.99    1.43    98.33063    75.11747   108.38907
   101  N   5.0   -0.47    3.01    1.93    94.99492    84.79165   107.52105
   102  C   4.0    0.07    4.00    3.61    93.35495    86.97556   107.79830
   103  C   4.0    0.28    3.01    3.02    90.83674    86.26788   106.53228
   104  O   6.0   -0.40    1.00    1.80    90.76207    85.25590   104.45654
   105  C   4.0   -0.14    3.98    3.59    94.60384    89.30088   106.59612
   106  C   4.0   -0.11    3.97    3.58    94.23500    91.76668   108.07629
   107  C   4.0   -0.22    3.98    3.59    96.26475    93.66960   107.29117
   108  C   4.0   -0.21    3.98    3.59    91.61854    92.91535   107.67979
   109  H   1.0    0.28    1.00    1.43    96.33749    84.86747   106.14459
   110  H   1.0    0.12    0.99    1.43    93.02595    87.28896   109.82177
   111  H   1.0    0.13    0.99    1.43    96.62763    88.91384   106.49557
   112  H   1.0    0.12    0.99    1.43    93.92296    89.54214   104.66466
   113  H   1.0    0.11    0.99    1.43    94.48265    91.35356   110.08957
   114  H   1.0    0.11    0.99    1.43    95.99525    95.44623   108.28611
   115  H   1.0    0.11    0.99    1.43    98.14511    92.96183   107.72849
   116  H   1.0    0.11    0.99    1.43    96.15967    94.04676   105.27308
   117  H   1.0    0.11    0.99    1.43    91.42281    94.61099   108.82682
   118  H   1.0    0.11    0.99    1.43    91.38053    93.43862   105.70923
   119  H   1.0    0.13    0.99    1.43    90.11728    91.62034   108.21128
   120  N   5.0   -0.49    3.01    1.93    88.78594    86.84960   107.88293
   121  C   4.0    0.07    3.99    3.60    86.20370    86.45900   107.06674
   122  C   4.0    0.27    3.01    3.02    84.68509    88.71006   108.08555
   123  O   6.0   -0.42    1.00    1.80    85.66712    90.31194   109.42916
   124  C   4.0   -0.08    3.98    3.58    85.25714    83.84758   107.99118
   125  C   4.0   -0.20    3.98    3.59    84.91117    83.87086   110.85805
   126  C   4.0   -0.23    3.98    3.59    82.87192    82.94026   106.63143
   127  H   1.0    0.25    1.00    1.43    88.96409    87.88663   109.48031
   128  H   1.0    0.13    0.99    1.43    86.20091    86.48494   104.99481
   129  H   1.0    0.13    0.99    1.43    86.79350    82.54358   107.51472
   130  H   1.0    0.11    0.99    1.43    84.17460    82.06073   111.48811
   131  H   1.0    0.12    0.99    1.43    86.72392    84.23341   111.75488
   132  H   1.0    0.14    0.99    1.43    83.58760    85.34442   111.41403
   133  H   1.0    0.10    0.99    1.43    82.72494    80.90327   106.83646
   134  H   1.0    0.14    0.99    1.43    81.15640    83.74297   107.43268
   135  H   1.0    0.10    0.99    1.43    82.98621    83.34352   104.61800
   136  N   5.0   -0.50    3.01    1.93    82.26818    88.80218   107.34951
   137  C   4.0    0.08    3.99    3.60    80.58763    90.84725   108.05035
   138  C   4.0    0.28    3.01    3.02    79.86121    90.81456   110.85139
   139  O   6.0   -0.46    1.00    1.80    79.97955    92.73150   112.13007
   140  C   4.0   -0.14    3.99    3.60    78.19124    90.63602   106.43648
   141  C   4.0   -0.15    3.98    3.59    76.21734    92.68652   106.96206
   142  C   4.0   -0.03    3.99    3.60    76.80499    95.18546   105.64834
   143  N   5.0   -0.48    3.02    1.93    76.68738    94.82447   102.93316
   144  C   4.0    0.37    3.01    3.02    77.37035    96.49962   101.20912
   145  N   5.0   -0.64    3.01    1.93    78.01686    98.86134   101.85305
   146  N   5.0   -0.64    3.02    1.93    77.61980    95.76195    98.82125
   147  H   1.0    0.23    1.00    1.43    81.51009    87.32246   106.41852
   148  H   1.0    0.14    0.99    1.43    81.60758    92.62201   107.73033
   149  H   1.0    0.14    0.99    1.43    78.73591    90.66875   104.45019
   150  H   1.0    0.14    0.99    1.43    77.36293    88.78659   106.81988
   151  H   1.0    0.11    0.99    1.43    74.38544    92.02205   106.28768
   152  H   1.0    0.12    0.99    1.43    76.08136    93.01815   108.98902
   153  H   1.0    0.11    0.99    1.43    75.41607    96.59646   106.24207
   154  H   1.0    0.13    0.99    1.43    78.70656    95.81133   106.16404
   155  H   1.0    0.28    1.00    1.43    76.12185    93.10268   102.30563
   156  H   1.0    0.26    1.00    1.43    77.45071    99.56267   103.53095
   157  H   1.0    0.27    1.00    1.43    78.31943   100.10167   100.43605
   158  H   1.0    0.29    1.00    1.43    76.98423    94.03528    98.32367
   159  H   1.0    0.27    1.00    1.43    78.07162    97.01578    97.45175
   160  N   5.0   -0.48    3.01    1.93    78.98258    88.61420   111.74647
   161  C   4.0    0.07    4.00    3.62    77.87025    88.51418   114.25387
   162  C   4.0    0.26    3.02    3.02    78.42317    85.90755   115.32194
   163  O   6.0   -0.46    1.00    1.80    77.75634    83.99414   114.19790
   164  C   4.0   -0.14    3.98    3.59    75.02332    89.04664   114.06743
   165  C   4.0   -0.17    3.98    3.58    73.83447    89.50158   116.65190
   166  C   4.0   -0.15    3.98    3.58    70.99271    90.01415   116.49498
   167  C   4.0   -0.06    3.98    3.58    70.39084    92.44568   115.06503
   168  N   5.0   -0.73    3.98    2.82    67.63224    92.98924   115.21739
   169  H   1.0    0.28    1.00    1.43    78.59499    87.13204   110.59247
   170  H   1.0    0.13    0.99    1.43    78.75372    89.97860   115.41503
   171  H   1.0    0.11    0.99    1.43    74.83672    90.74374   112.91499
   172  H   1.0    0.12    0.99    1.43    74.10169    87.45955   113.12000
   173  H   1.0    0.12    0.99    1.43    74.13952    87.84132   117.84010
   174  H   1.0    0.11    0.99    1.43    74.80231    91.07823   117.56942
   175  H   1.0    0.12    0.99    1.43    70.07507    88.39955   115.59275
   176  H   1.0    0.11    0.99    1.43    70.29592    90.15960   118.42893
   177  H   1.0    0.11    0.99    1.43    71.45115    94.00450   115.90041
   178  H   1.0    0.11    0.99    1.43    70.90506    92.25419   113.08121
   179  H   1.0    0.24    1.00    1.43    67.17929    94.56956   114.17342
   180  H   1.0    0.25    1.00    1.43    66.63325    91.45563   114.54333
   181  H   1.0    0.24    1.00    1.43    67.11838    93.28387   117.07309
   182  N   5.0   -0.49    3.01    1.93    79.77740    85.86396   117.45108
   183  C   4.0    0.06    3.99    3.61    80.37875    83.50621   118.70613
   184  C   4.0    0.05    3.00    3.02    79.69868    83.71528   121.50593
   185  O   6.0   -0.40    1.00    1.80    80.83448    85.14924   122.92927
   186  C   4.0   -0.12    3.98    3.59    83.18522    82.84573   118.39932
   187  C   4.0   -0.16    3.98    3.58    83.75220    80.25913   119.55243
   188  C   4.0   -0.04    3.98    3.59    86.52789    79.48084   119.23950
   189  N   5.0   -0.48    3.01    1.93    87.40631    79.54261   116.64061
   190  C   4.0    0.35    3.00    3.02    86.98511    77.78222   114.89051
   191  N   5.0   -0.64    3.01    1.93    85.95041    75.55539   115.48669
   192  N   5.0   -0.66    3.02    1.93    87.88267    78.13868   112.56599
   193  H   1.0    0.25    1.00    1.43    80.41231    87.48776   118.23905
   194  H   1.0    0.13    0.99    1.43    79.19576    82.05512   117.82660
   195  H   1.0    0.12    0.99    1.43    83.59061    82.85604   116.37739
   196  H   1.0    0.13    0.99    1.43    84.29881    84.31772   119.32257
   197  H   1.0    0.11    0.99    1.43    83.33305    80.31957   121.57242
   198  H   1.0    0.10    0.99    1.43    82.50572    78.84511   118.71207
   199  H   1.0    0.11    0.99    1.43    87.71618    80.76864   120.32086
   200  H   1.0    0.11    0.99    1.43    86.76318    77.58372   120.00678
   201  H   1.0    0.23    1.00    1.43    88.10490    81.21936   116.04866
   202  H   1.0    0.24    1.00    1.43    84.80779    75.28283   117.03952
   203  H   1.0    0.24    1.00    1.43    85.54413    74.36616   114.04752
   204  H   1.0    0.28    1.00    1.43    88.88185    79.69630   112.08895
   205  H   1.0    0.25    1.00    1.43    87.55118    76.86347   111.18758
   206  N   5.0   -0.70    3.00    1.93    76.36728    75.89469   115.03341
   207  C   4.0    0.07    3.99    3.60    77.94614    77.08030   113.13771
   208  C   4.0    0.27    3.02    3.02    76.21361    77.78719   110.92300
   209  O   6.0   -0.42    1.00    1.80    75.03966    76.19890   109.71978
   210  C   4.0   -0.09    3.98    3.58    80.14337    75.31420   112.39279
   211  C   4.0   -0.21    3.98    3.59    79.24317    72.71488   111.50263
   212  C   4.0   -0.23    3.98    3.59    81.72086    76.60080   110.34615
   213  H   1.0    0.28    1.00    1.43    75.74030    74.14477   114.60694
   214  H   1.0    0.11    0.99    1.43    78.66846    78.82350   113.98482
   215  H   1.0    0.10    0.99    1.43    81.23232    75.03932   114.12841
   216  H   1.0    0.10    0.99    1.43    80.81765    71.64755   110.72774
   217  H   1.0    0.10    0.99    1.43    78.46357    71.64153   113.07405
   218  H   1.0    0.14    0.99    1.43    77.80261    72.89693   110.05058
   219  H   1.0    0.09    0.99    1.43    83.37348    75.47126   109.89376
   220  H   1.0    0.12    0.99    1.43    80.57661    76.77611   108.64892
   221  H   1.0    0.10    0.99    1.43    82.28889    78.48233   110.93964
   222  N   5.0   -0.49    3.01    1.93    76.12882    80.27162   110.40953
   223  C   4.0    0.07    4.00    3.63    74.11739    81.25828   108.85003
   224  C   4.0    0.26    3.01    3.02    75.03326    83.46866   107.24926
   225  O   6.0   -0.46    1.00    1.80    76.85147    84.78894   107.78463
   226  C   4.0   -0.13    3.98    3.59    71.90642    82.17943   110.50838
   227  C   4.0   -0.09    3.97    3.58    70.84454    80.09389   112.17575
   228  C   4.0    0.31    2.99    3.02    68.32499    80.84388   113.52741
   229  O   6.0   -0.38    1.00    1.80    67.17503    82.74207   112.74565
   230  O   6.0   -0.36    1.00    1.80    67.67092    79.43173   115.29905
   231  H   1.0    0.29    1.00    1.43    76.88087    81.53463   111.64470
   232  H   1.0    0.14    0.99    1.43    73.48081    79.70260   107.63992
   233  H   1.0    0.13    0.99    1.43    72.57936    83.70631   111.72534
   234  H   1.0    0.14    0.99    1.43    70.37793    82.90790   109.32987
   235  H   1.0    0.14    0.99    1.43    70.43209    78.39702   111.06584
   236  H   1.0    0.15    0.99    1.43    72.17730    79.56835   113.66566
   237  N   5.0   -0.49    3.02    1.93    73.59773    83.83202   105.20432
   238  C   4.0    0.07    3.98    3.59    73.73420    85.86765   103.39976
   239  C   4.0    0.06    3.00    3.02    71.14524    85.88488   102.06255
   240  O   6.0   -0.40    1.00    1.80    69.71982    84.06280   102.29430
   241  C   4.0   -0.09    3.99    3.60    75.88114    85.42870   101.49959
   242  C   4.0    0.26    3.00    3.02    76.44587    87.71074    99.87316
   243  O   6.0   -0.46    1.00    1.80    76.09199    89.89105   100.55594
   244  N   5.0   -0.65    3.01    1.93    77.58080    87.17304    97.67698
   245  H   1.0    0.27    1.00    1.43    72.08623    82.69720   104.87012
   246  H   1.0    0.12    0.99    1.43    74.02677    87.67683   104.35905
   247  H   1.0    0.12    0.99    1.43    77.58920    84.99496   102.58084
   248  H   1.0    0.12    0.99    1.43    75.43472    83.79884   100.31762
   249  H   1.0    0.28    1.00    1.43    77.88296    88.58152    96.42741
   250  H   1.0    0.26    1.00    1.43    77.63615    85.38764    97.02707
   251  H   1.0    0.29    1.00    1.43    86.08419    70.81299    98.69036
   252  H   1.0    0.13    1.00    1.43    98.51687    86.41198    93.96072
   253  H   1.0    0.32    1.00    1.43    84.21401   100.85831   112.13861
   254  H   1.0    0.14    1.00    1.43    83.76352    95.91836   116.84778
   255  H   1.0    0.30    1.00    1.43   104.55800    77.34589   117.07678
   256  H   1.0    0.13    1.00    1.43    78.29685    82.66738   122.21857
   257  H   1.0    0.29    1.00    1.43    77.23796    75.74885   116.48710
   258  H   1.0    0.14    1.00    1.43    70.63313    87.37141   101.01421

           ------------------------------------------------- 
          |        Self-Consistent Charge Iterations        |
           ------------------------------------------------- 

          ...................................................
          :                      SETUP                      :
          :.................................................:
          :  # basis functions                 624          :
          :  # atomic orbitals                 624          :
          :  # shells                          380          :
          :  # electrons                       694          :
          :  max. iterations                   250          :
          :  Hamiltonian                  GFN2-xTB          :
          :  restarted?                      false          :
          :  GBSA solvation                   true          :
          :  PC potential                    false          :
          :  electronic temp.          500.0000000     K    :
          :  accuracy                    0.1000000          :
          :  -> integral cutoff          0.3500000E+02      :
          :  -> integral neglect         0.1000000E-08      :
          :  -> SCF convergence          0.1000000E-06 Eh   :
          :  -> wf. convergence          0.1000000E-04 e    :
          :  Broyden damping             0.4000000          :
          ...................................................

 iter      E             dE          RMSdq      gap      omega  full diag
   1   -397.4616906 -0.397462E+03  0.421E+00    1.86       0.0  T
   2   -398.5461322 -0.108444E+01  0.215E+00    1.09       1.0  T
   3   -398.5925955 -0.464633E-01  0.118E+00    1.46       1.0  T
   4   -398.6089887 -0.163932E-01  0.308E-01    0.49       1.0  T
   5   -398.6197357 -0.107470E-01  0.133E-01    0.69       1.0  T
   6   -398.6202688 -0.533018E-03  0.566E-02    0.69       1.0  T
   7   -398.6203394 -0.706162E-04  0.227E-02    0.72       1.0  T
   8   -398.6203695 -0.301744E-04  0.882E-03    0.72       1.0  T
   9   -398.6203723 -0.278432E-05  0.394E-03    0.72       1.6  T
  10   -398.6203728 -0.514714E-06  0.165E-03    0.71       3.8  T
  11   -398.6203730 -0.152642E-06  0.589E-04    0.71      10.6  T
  12   -398.6203730 -0.141920E-07  0.276E-04    0.71      22.5  T
  13   -398.6203730 -0.274326E-08  0.107E-04    0.71      58.1  T
  14   -398.6203730 -0.551040E-09  0.407E-05    0.71     153.1  T
  15   -398.6203730 -0.743512E-10  0.175E-05    0.71     356.3  T

   *** convergence criteria satisfied after 15 iterations ***

         #    Occupation            Energy/Eh            Energy/eV
      -------------------------------------------------------------
         1        2.0000           -0.7606628             -20.6987
       ...           ...                  ...                  ...
       341        2.0000           -0.3670835              -9.9889
       342        2.0000           -0.3612101              -9.8290
       343        2.0000           -0.3609902              -9.8230
       344        2.0000           -0.3594870              -9.7821
       345        2.0000           -0.3566186              -9.7041
       346        2.0000           -0.3565444              -9.7021
       347        1.9995           -0.3480534              -9.4710 (HOMO)
       348        0.0005           -0.3218079              -8.7568 (LUMO)
       349                         -0.3054806              -8.3125
       350                         -0.3002960              -8.1715
       351                         -0.2739020              -7.4533
       352                         -0.2356615              -6.4127
       ...                                ...                  ...
       624                          0.6456534              17.5691
      -------------------------------------------------------------
                  HL-Gap            0.0262455 Eh            0.7142 eV
             Fermi-level           -0.3349225 Eh           -9.1137 eV

 SCC (total)                   0 d,  0 h,  0 min,  3.004 sec
 SCC setup                      ...        0 min,  0.039 sec (  1.299%)
 Dispersion                     ...        0 min,  0.022 sec (  0.727%)
 integral evaluation            ...        0 min,  0.115 sec (  3.817%)
 zeroth order Hamiltonian       ...        0 min,  0.004 sec (  0.132%)
 iterations                     ...        0 min,  2.486 sec ( 82.746%)
 molecular gradient             ...        0 min,  0.331 sec ( 11.031%)
 printout                       ...        0 min,  0.007 sec (  0.246%)

         :::::::::::::::::::::::::::::::::::::::::::::::::::::
         ::                     SUMMARY                     ::
         :::::::::::::::::::::::::::::::::::::::::::::::::::::
         :: total energy             -393.919450012673 Eh   ::
         :: total w/o Gsasa/hb       -393.859757823212 Eh   ::
         :: gradient norm               0.453486781388 Eh/α ::
         :: HOMO-LUMO gap               0.714177274896 eV   ::
         ::.................................................::
         :: SCC energy               -398.631621222215 Eh   ::
         :: -> isotropic ES             1.624585905211 Eh   ::
         :: -> anisotropic ES          -0.067969168669 Eh   ::
         :: -> anisotropic XC           0.131236388237 Eh   ::
         :: -> dispersion              -0.289929558790 Eh   ::
         :: -> Gsolv                   -0.586046242423 Eh   ::
         ::    -> Gborn                -0.526354052962 Eh   ::
         ::    -> Gsasa                -0.013105646215 Eh   ::
         ::    -> Ghb                  -0.048443986373 Eh   ::
         ::    -> Gshift                0.001857443127 Eh   ::
         :: repulsion energy            4.693299550414 Eh   ::
         :: add. restraining            0.000000000000 Eh   ::
         :::::::::::::::::::::::::::::::::::::::::::::::::::::

           -------------------------------------------------
          |                Property Printout                |
           -------------------------------------------------

    * Orbital Energies and Occupations

         #    Occupation            Energy/Eh            Energy/eV
      -------------------------------------------------------------
         1        2.0000           -0.7606628             -20.6987
       ...           ...                  ...                  ...
       335        2.0000           -0.3897472             -10.6056
       336        2.0000           -0.3853907             -10.4870
       337        2.0000           -0.3831633             -10.4264
       338        2.0000           -0.3808563             -10.3636
       339        2.0000           -0.3757139             -10.2237
       340        2.0000           -0.3688281             -10.0363
       341        2.0000           -0.3670835              -9.9889
       342        2.0000           -0.3612101              -9.8290
       343        2.0000           -0.3609902              -9.8230
       344        2.0000           -0.3594870              -9.7821
       345        2.0000           -0.3566186              -9.7041
       346        2.0000           -0.3565444              -9.7021
       347        1.9995           -0.3480534              -9.4710 (HOMO)
       348        0.0005           -0.3218079              -8.7568 (LUMO)
       349                         -0.3054806              -8.3125
       350                         -0.3002960              -8.1715
       351                         -0.2739020              -7.4533
       352                         -0.2356615              -6.4127
       353                         -0.2344729              -6.3803
       354                         -0.2328589              -6.3364
       355                         -0.2327994              -6.3348
       356                         -0.2323860              -6.3235
       357                         -0.2280659              -6.2060
       358                         -0.2279789              -6.2036
       ...                                ...                  ...
       624                          0.6456534              17.5691
      -------------------------------------------------------------
                  HL-Gap            0.0262455 Eh            0.7142 eV
             Fermi-level           -0.3349225 Eh           -9.1137 eV

   #   Z        covCN         q      C6AA      α(0)
   1   7 N      2.635    -0.393    30.186     8.160
   2   6 C      3.791     0.027    20.135     6.390
   3   6 C      2.752     0.274    22.373     7.745
   4   8 O      0.858    -0.495    23.672     6.523
   5   6 C      3.852    -0.028    21.038     6.524
   6   6 C      3.803    -0.056    21.570     6.612
   7   6 C      3.755    -0.116    22.782     6.806
   8   6 C      3.752    -0.120    22.858     6.818
   9   1 H      0.860     0.153     1.379     1.840
  10   1 H      0.924     0.038     2.476     2.461
  11   1 H      0.924     0.033     2.547     2.496
  12   1 H      0.924     0.032     2.560     2.502
  13   1 H      0.924     0.017     2.783     2.609
  14   1 H      0.925     0.064     2.148     2.292
  15   1 H      0.925     0.039     2.469     2.457
  16   1 H      0.925     0.046     2.375     2.410
  17   1 H      0.925     0.044     2.394     2.420
  18   1 H      0.925     0.048     2.339     2.392
  19   1 H      0.925     0.059     2.208     2.324
  20   7 N      2.693    -0.185    25.005     7.427
  21   6 C      3.793     0.023    20.201     6.400
  22   6 C      2.758     0.269    22.460     7.761
  23   8 O      0.859    -0.457    22.861     6.411
  24   6 C      3.803    -0.050    21.465     6.596
  25   6 C      3.796    -0.092    22.254     6.717
  26   6 C      2.682     0.372    20.688     7.443
  27   8 O      0.856    -0.650    27.369     7.014
  28   8 O      0.856    -0.645    27.246     6.998
  29   1 H      0.860     0.214     1.037     1.595
  30   1 H      0.924     0.061     2.182     2.310
  31   1 H      0.924     0.043     2.412     2.429
  32   1 H      0.925     0.045     2.377     2.411
  33   1 H      0.924     0.016     2.798     2.616
  34   1 H      0.924     0.020     2.734     2.586
  35   7 N      2.692    -0.168    24.636     7.372
  36   6 C      3.789     0.019    20.267     6.412
  37   6 C      2.766     0.196    23.818     7.993
  38   8 O      0.856    -0.354    20.791     6.113
  39   6 C      3.804    -0.107    22.531     6.758
  40   6 C      2.741     0.292    22.054     7.689
  41   8 O      0.860    -0.499    23.752     6.534
  42   7 N      2.636    -0.297    27.646     7.809
  43   1 H      0.860     0.191     1.154     1.683
  44   1 H      0.924     0.124     1.579     1.965
  45   1 H      0.924     0.110     1.693     2.035
  46   1 H      0.924     0.113     1.673     2.023
  47   1 H      0.860     0.217     1.025     1.586
  48   1 H      0.860     0.239     0.928     1.509
  49   7 N      2.633    -0.363    29.371     8.049
  50   6 C      3.732    -0.024    21.090     6.555
  51   6 C      2.763     0.198    23.782     7.986
  52   8 O      0.856    -0.408    21.846     6.267
  53   1 H      0.860     0.163     1.319     1.799
  54   1 H      0.924     0.104     1.746     2.067
  55   1 H      0.924     0.086     1.921     2.167
  56   7 N      2.635    -0.422    31.007     8.270
  57   6 C      3.787     0.055    19.672     6.317
  58   6 C      2.754     0.271    22.416     7.753
  59   8 O      0.858    -0.496    23.692     6.526
  60   6 C      3.800    -0.088    22.180     6.705
  61   6 C      2.682     0.373    20.677     7.441
  62   8 O      0.856    -0.631    26.889     6.952
  63   8 O      0.856    -0.643    27.212     6.994
  64   1 H      0.859     0.182     1.202     1.718
  65   1 H      0.923    -0.010     3.242     2.816
  66   1 H      0.924     0.030     2.581     2.512
  67   1 H      0.924     0.011     2.870     2.649
  68   7 N      2.693    -0.181    24.931     7.416
  69   6 C      3.791     0.023    20.196     6.400
  70   6 C      2.766     0.264    22.553     7.777
  71   8 O      0.861    -0.492    23.608     6.515
  72   6 C      3.804    -0.081    22.042     6.684
  73   6 C      3.847    -0.006    20.647     6.463
  74   6 C      3.756    -0.124    22.941     6.829
  75   6 C      3.757    -0.122    22.899     6.823
  76   1 H      0.860     0.195     1.131     1.666
  77   1 H      0.924     0.062     2.175     2.306
  78   1 H      0.925     0.080     1.976     2.198
  79   1 H      0.924     0.055     2.264     2.353
  80   1 H      0.924     0.011     2.868     2.648
  81   1 H      0.925     0.045     2.386     2.415
  82   1 H      0.925     0.051     2.313     2.379
  83   1 H      0.925     0.059     2.214     2.327
  84   1 H      0.925     0.049     2.338     2.391
  85   1 H      0.925     0.064     2.155     2.296
  86   1 H      0.925     0.027     2.630     2.536
  87   7 N      2.761    -0.081    22.822     7.095
  88   6 C      3.843     0.026    20.101     6.378
  89   6 C      2.759     0.288    22.120     7.702
  90   8 O      0.858    -0.487    23.500     6.499
  91   6 C      3.833    -0.060    21.632     6.617
  92   6 C      3.832    -0.063    21.687     6.626
  93   6 C      3.761    -0.013    20.847     6.509
  94   1 H      0.924     0.036     2.498     2.472
  95   1 H      0.925     0.081     1.967     2.193
  96   1 H      0.925     0.041     2.433     2.439
  97   1 H      0.925     0.068     2.107     2.270
  98   1 H      0.924     0.036     2.498     2.472
  99   1 H      0.924     0.079     1.994     2.208
 100   1 H      0.924     0.059     2.215     2.327
 101   7 N      2.694    -0.191    25.146     7.448
 102   6 C      3.799     0.023    20.183     6.397
 103   6 C      2.754     0.280    22.259     7.726
 104   8 O      0.858    -0.500    23.789     6.539
 105   6 C      3.807    -0.075    21.931     6.666
 106   6 C      3.849    -0.013    20.773     6.483
 107   6 C      3.757    -0.116    22.777     6.805
 108   6 C      3.755    -0.123    22.904     6.824
 109   1 H      0.860     0.213     1.040     1.598
 110   1 H      0.924     0.061     2.191     2.315
 111   1 H      0.924     0.052     2.293     2.368
 112   1 H      0.924     0.052     2.299     2.371
 113   1 H      0.924     0.033     2.542     2.494
 114   1 H      0.925     0.049     2.336     2.390
 115   1 H      0.925     0.029     2.603     2.523
 116   1 H      0.925     0.043     2.413     2.429
 117   1 H      0.925     0.049     2.330     2.387
 118   1 H      0.925     0.047     2.363     2.404
 119   1 H      0.925     0.049     2.329     2.386
 120   7 N      2.695    -0.167    24.603     7.367
 121   6 C      3.792     0.006    20.484     6.445
 122   6 C      2.757     0.269    22.462     7.761
 123   8 O      0.858    -0.481    23.366     6.481
 124   6 C      3.849    -0.027    21.023     6.522
 125   6 C      3.754    -0.126    22.982     6.836
 126   6 C      3.753    -0.136    23.173     6.865
 127   1 H      0.860     0.209     1.059     1.612
 128   1 H      0.924     0.076     2.020     2.223
 129   1 H      0.924     0.052     2.294     2.369
 130   1 H      0.925     0.060     2.194     2.316
 131   1 H      0.925     0.049     2.331     2.388
 132   1 H      0.925     0.046     2.369     2.407
 133   1 H      0.925     0.060     2.205     2.322
 134   1 H      0.925     0.071     2.075     2.253
 135   1 H      0.925     0.045     2.378     2.412
 136   7 N      2.691    -0.176    24.805     7.397
 137   6 C      3.794     0.006    20.491     6.446
 138   6 C      2.759     0.275    22.354     7.743
 139   8 O      0.859    -0.467    23.073     6.440
 140   6 C      3.808    -0.106    22.524     6.756
 141   6 C      3.804    -0.085    22.123     6.696
 142   6 C      3.739    -0.032    21.219     6.573
 143   7 N      2.703    -0.141    24.043     7.283
 144   6 C      2.737     0.228    23.208     7.887
 145   7 N      2.649    -0.260    26.759     7.683
 146   7 N      2.655    -0.259    26.716     7.677
 147   1 H      0.860     0.217     1.023     1.585
 148   1 H      0.924     0.094     1.845     2.124
 149   1 H      0.925     0.087     1.906     2.159
 150   1 H      0.924     0.081     1.970     2.195
 151   1 H      0.924     0.078     1.995     2.209
 152   1 H      0.925     0.072     2.061     2.245
 153   1 H      0.924     0.091     1.872     2.140
 154   1 H      0.924     0.089     1.892     2.151
 155   1 H      0.860     0.249     0.888     1.476
 156   1 H      0.860     0.247     0.895     1.482
 157   1 H      0.860     0.240     0.922     1.504
 158   1 H      0.860     0.243     0.910     1.495
 159   1 H      0.860     0.245     0.903     1.489
 160   7 N      2.694    -0.176    24.804     7.397
 161   6 C      3.802     0.010    20.416     6.433
 162   6 C      2.762     0.268    22.483     7.765
 163   8 O      0.859    -0.470    23.119     6.447
 164   6 C      3.805    -0.079    21.998     6.677
 165   6 C      3.802    -0.072    21.878     6.659
 166   6 C      3.802    -0.088    22.186     6.706
 167   6 C      3.731    -0.054    21.638     6.640
 168   7 N      3.483    -0.148    24.198     7.306
 169   1 H      0.860     0.222     1.000     1.567
 170   1 H      0.924     0.078     1.998     2.211
 171   1 H      0.925     0.077     2.009     2.217
 172   1 H      0.924     0.055     2.260     2.351
 173   1 H      0.924     0.036     2.497     2.471
 174   1 H      0.924     0.064     2.148     2.292
 175   1 H      0.924     0.062     2.179     2.308
 176   1 H      0.924     0.074     2.044     2.236
 177   1 H      0.924     0.129     1.539     1.940
 178   1 H      0.925     0.123     1.592     1.973
 179   1 H      0.859     0.310     0.685     1.296
 180   1 H      0.859     0.291     0.740     1.347
 181   1 H      0.859     0.295     0.729     1.337
 182   7 N      2.691    -0.162    24.515     7.354
 183   6 C      3.795     0.019    20.259     6.409
 184   6 C      2.767     0.198    23.777     7.986
 185   8 O      0.856    -0.349    20.681     6.097
 186   6 C      3.805    -0.085    22.113     6.694
 187   6 C      3.802    -0.083    22.089     6.691
 188   6 C      3.738    -0.034    21.257     6.579
 189   7 N      2.698    -0.129    23.792     7.244
 190   6 C      2.736     0.227    23.234     7.892
 191   7 N      2.647    -0.237    26.198     7.602
 192   7 N      2.653    -0.228    25.986     7.571
 193   1 H      0.860     0.215     1.031     1.591
 194   1 H      0.924     0.088     1.897     2.154
 195   1 H      0.924     0.077     2.010     2.217
 196   1 H      0.924     0.080     1.978     2.199
 197   1 H      0.924     0.064     2.149     2.293
 198   1 H      0.924     0.062     2.174     2.306
 199   1 H      0.925     0.097     1.815     2.107
 200   1 H      0.925     0.095     1.832     2.117
 201   1 H      0.860     0.225     0.986     1.556
 202   1 H      0.859     0.243     0.911     1.495
 203   1 H      0.860     0.237     0.937     1.516
 204   1 H      0.860     0.238     0.932     1.512
 205   1 H      0.860     0.232     0.958     1.533
 206   7 N      2.639    -0.397    30.282     8.173
 207   6 C      3.789     0.024    20.185     6.399
 208   6 C      2.762     0.284    22.195     7.715
 209   8 O      0.858    -0.509    23.974     6.565
 210   6 C      3.850    -0.029    21.053     6.526
 211   6 C      3.754    -0.110    22.662     6.788
 212   6 C      3.757    -0.128    23.009     6.839
 213   1 H      0.860     0.148     1.418     1.865
 214   1 H      0.924     0.050     2.316     2.380
 215   1 H      0.924     0.042     2.420     2.433
 216   1 H      0.925     0.043     2.405     2.425
 217   1 H      0.925     0.027     2.627     2.535
 218   1 H      0.925     0.042     2.424     2.435
 219   1 H      0.925     0.052     2.297     2.370
 220   1 H      0.925     0.038     2.470     2.458
 221   1 H      0.925     0.057     2.232     2.336
 222   7 N      2.690    -0.187    25.058     7.435
 223   6 C      3.805     0.020    20.242     6.405
 224   6 C      2.753     0.266    22.516     7.770
 225   8 O      0.858    -0.455    22.804     6.403
 226   6 C      3.806    -0.052    21.495     6.600
 227   6 C      3.797    -0.084    22.110     6.695
 228   6 C      2.682     0.369    20.737     7.452
 229   8 O      0.856    -0.633    26.947     6.960
 230   8 O      0.856    -0.666    27.794     7.068
 231   1 H      0.860     0.235     0.943     1.522
 232   1 H      0.924     0.056     2.244     2.343
 233   1 H      0.924     0.050     2.321     2.383
 234   1 H      0.924     0.047     2.362     2.403
 235   1 H      0.924     0.005     2.981     2.700
 236   1 H      0.924     0.022     2.700     2.570
 237   7 N      2.701    -0.170    24.679     7.378
 238   6 C      3.786     0.026    20.157     6.395
 239   6 C      2.770     0.194    23.849     7.998
 240   8 O      0.856    -0.363    20.956     6.138
 241   6 C      3.810    -0.109    22.578     6.764
 242   6 C      2.743     0.282    22.230     7.720
 243   8 O      0.859    -0.465    23.025     6.433
 244   7 N      2.640    -0.278    27.187     7.744
 245   1 H      0.860     0.205     1.080     1.628
 246   1 H      0.924     0.124     1.581     1.966
 247   1 H      0.924     0.115     1.656     2.013
 248   1 H      0.924     0.076     2.021     2.223
 249   1 H      0.860     0.242     0.915     1.498
 250   1 H      0.860     0.222     1.001     1.567
 251   1 H      0.862     0.192     1.149     1.679
 252   1 H      0.930     0.112     1.677     2.025
 253   1 H      0.862     0.177     1.232     1.738
 254   1 H      0.930     0.058     2.217     2.328
 255   1 H      0.862     0.177     1.232     1.739
 256   1 H      0.930     0.078     1.997     2.210
 257   1 H      0.862     0.186     1.178     1.700
 258   1 H      0.930     0.107     1.724     2.053

 Mol. C6AA /au·bohr⁶  :     591104.684814
 Mol. C8AA /au·bohr⁸  :   12965265.659095
 Mol. α(0) /au        :       1143.884293


Wiberg/Mayer (AO) data.
largest (>0.10) Wiberg bond orders for each atom
          total WBO             WBO to atom ...
     1  N   2.995        C    2 1.025    H    9 0.954    H  251 0.946
     2  C   3.983        N    1 1.025    H   10 0.955    C    5 0.948    C    3 0.944
     3  C   3.935        O    4 1.648    N   20 1.274    C    2 0.944
     4  O   1.955        C    3 1.648    N   20 0.191
     5  C   3.992        C    7 1.006    C    6 0.998    H   11 0.968    C    2 0.948
     6  C   3.995        C    8 1.017    C    5 0.998    H   13 0.972    H   12 0.972
     7  C   3.993        C    5 1.006    H   15 0.984    H   16 0.984    H   14 0.982
     8  C   3.994        C    6 1.017    H   18 0.985    H   17 0.984    H   19 0.982
     9  H   0.977        N    1 0.954
    10  H   0.998        C    2 0.955
    11  H   0.999        C    5 0.968
    12  H   0.999        C    6 0.972
    13  H   1.000        C    6 0.972
    14  H   0.995        C    7 0.982
    15  H   0.998        C    7 0.984
    16  H   0.998        C    7 0.984
    17  H   0.998        C    8 0.984
    18  H   0.998        C    8 0.985
    19  H   0.996        C    8 0.982
    20  N   3.449        C    3 1.274    C   21 0.996    H   29 0.916    O    4 0.191
    21  C   3.975        N   20 0.996    H   30 0.952    C   24 0.950    C   22 0.950
    22  C   3.953        O   23 1.650    N   35 1.280    C   21 0.950
    23  O   1.974        C   22 1.650    N   35 0.194
    24  C   3.990        C   25 1.015    H   32 0.974    H   31 0.973    C   21 0.950
    25  C   3.988        C   24 1.015    H   34 0.979    H   33 0.961    C   26 0.902
    26  C   3.931        O   27 1.507    O   28 1.500    C   25 0.902
    27  O   1.797        C   26 1.507    O   28 0.216
    28  O   1.793        C   26 1.500    O   27 0.216
    29  H   0.954        N   20 0.916
    30  H   0.996        C   21 0.952
    31  H   0.998        C   24 0.973
    32  H   0.998        C   24 0.974
    33  H   1.000        C   25 0.961
    34  H   1.000        C   25 0.979
    35  N   3.462        C   22 1.280    C   36 0.980    H   43 0.921    O   23 0.194
    36  C   3.960        C   37 0.982    N   35 0.980    C   39 0.954    H   44 0.941
    37  C   3.881        O   38 1.876    C   36 0.982    H  252 0.949
    38  O   2.091        C   37 1.876
    39  C   3.981        C   40 0.973    C   36 0.954    H   46 0.951    H   45 0.943
    40  C   3.945        O   41 1.603    N   42 1.333    C   39 0.973
    41  O   1.964        C   40 1.603    N   42 0.194
    42  N   3.406        C   40 1.333    H   47 0.931    H   48 0.868    O   41 0.194
    43  H   0.964        N   35 0.921
    44  H   0.984        C   36 0.941
    45  H   0.987        C   39 0.943
    46  H   0.987        C   39 0.951
    47  H   0.953        N   42 0.931
    48  H   0.943        N   42 0.868
    49  N   3.019        C   50 1.025    H   53 0.959    H  253 0.957
    50  C   3.978        N   49 1.025    C   51 0.993    H   54 0.949    H   55 0.933
    51  C   3.888        O   52 1.868    C   50 0.993    H  254 0.956
    52  O   2.014        C   51 1.868
    53  H   0.974        N   49 0.959
    54  H   0.989        C   50 0.949
    55  H   0.993        C   50 0.933
    56  N   2.968        C   57 1.008    H  255 0.954    H   64 0.915
    57  C   3.987        N   56 1.008    C   60 1.004    H   65 0.949    C   58 0.937
    58  C   3.946        O   59 1.644    N   68 1.293    C   57 0.937
    59  O   1.953        C   58 1.644    N   68 0.195
    60  C   3.988        C   57 1.004    H   67 0.972    H   66 0.967    C   61 0.913
    61  C   3.932        O   63 1.515    O   62 1.479    C   60 0.913
    62  O   1.821        C   61 1.479    O   63 0.211
    63  O   1.803        C   61 1.515    O   62 0.211
    64  H   0.967        N   56 0.915
    65  H   1.000        C   57 0.949
    66  H   0.999        C   60 0.967
    67  H   1.000        C   60 0.972
    68  N   3.454        C   58 1.293    C   69 0.962    H   76 0.918    O   59 0.195
    69  C   3.949        C   72 0.974    N   68 0.962    H   77 0.954    C   70 0.934
    70  C   3.951        O   71 1.598    N   87 1.314    C   69 0.934
    71  O   1.964        C   70 1.598    N   87 0.198
    72  C   3.981        C   73 0.995    C   69 0.974    H   79 0.971    H   78 0.969
    73  C   3.993        C   74 1.009    C   75 1.006    C   72 0.995    H   80 0.961
    74  C   3.993        C   73 1.009    H   81 0.986    H   83 0.984    H   82 0.979
    75  C   3.993        C   73 1.006    H   86 0.987    H   84 0.985    H   85 0.985
    76  H   0.962        N   68 0.918
    77  H   0.996        C   69 0.954
    78  H   0.993        C   72 0.969
    79  H   0.996        C   72 0.971
    80  H   1.000        C   73 0.961
    81  H   0.998        C   74 0.986
    82  H   0.997        C   74 0.979
    83  H   0.997        C   74 0.984
    84  H   0.997        C   75 0.985
    85  H   0.996        C   75 0.985
    86  H   0.999        C   75 0.987
    87  N   3.529        C   70 1.314    C   93 0.974    C   88 0.959    O   71 0.198
    88  C   3.966        C   91 0.983    N   87 0.959    H   94 0.952    C   89 0.941
    89  C   3.955        O   90 1.611    N  101 1.308    C   88 0.941
    90  O   1.925        C   89 1.611    N  101 0.188
    91  C   3.990        C   92 1.003    C   88 0.983    H   96 0.978    H   95 0.969
    92  C   3.992        C   91 1.003    C   93 1.001    H   98 0.981    H   97 0.971
    93  C   3.963        C   92 1.001    N   87 0.974    H   99 0.965    H  100 0.964
    94  H   0.998        C   88 0.952
    95  H   0.993        C   91 0.969
    96  H   0.998        C   91 0.978
    97  H   0.994        C   92 0.971
    98  H   0.999        C   92 0.981
    99  H   0.994        C   93 0.965
   100  H   0.996        C   93 0.964
   101  N   3.456        C   89 1.308    C  102 0.974    H  109 0.886    O   90 0.188
   102  C   3.961        C  105 0.981    N  101 0.974    H  110 0.954    C  103 0.929
   103  C   3.950        O  104 1.635    N  120 1.309    C  102 0.929
   104  O   1.947        C  103 1.635    N  120 0.198
   105  C   3.987        C  106 0.994    C  102 0.981    H  112 0.974    H  111 0.967
   106  C   3.993        C  108 1.010    C  107 1.007    C  105 0.994    H  113 0.968
   107  C   3.994        C  106 1.007    H  115 0.987    H  116 0.987    H  114 0.985
   108  C   3.993        C  106 1.010    H  118 0.986    H  117 0.985    H  119 0.978
   109  H   0.954        N  101 0.886
   110  H   0.996        C  102 0.954
   111  H   0.997        C  105 0.967
   112  H   0.997        C  105 0.974
   113  H   0.999        C  106 0.968
   114  H   0.997        C  107 0.985
   115  H   0.999        C  107 0.987
   116  H   0.998        C  107 0.987
   117  H   0.997        C  108 0.985
   118  H   0.998        C  108 0.986
   119  H   0.998        C  108 0.978
   120  N   3.475        C  103 1.309    C  121 0.981    H  127 0.909    O  104 0.198
   121  C   3.956        N  120 0.981    C  124 0.952    H  128 0.944    C  122 0.941
   122  C   3.954        O  123 1.639    N  136 1.301    C  121 0.941
   123  O   1.975        C  122 1.639    N  136 0.198
   124  C   3.986        C  125 1.009    C  126 1.008    H  129 0.965    C  121 0.952
   125  C   3.993        C  124 1.009    H  131 0.984    H  132 0.983    H  130 0.976
   126  C   3.990        C  124 1.008    H  135 0.983    H  133 0.979    H  134 0.969
   127  H   0.956        N  120 0.909
   128  H   0.994        C  121 0.944
   129  H   0.997        C  124 0.965
   130  H   0.996        C  125 0.976
   131  H   0.998        C  125 0.984
   132  H   0.998        C  125 0.983
   133  H   0.996        C  126 0.979
   134  H   0.995        C  126 0.969
   135  H   0.998        C  126 0.983
   136  N   3.465        C  122 1.301    C  137 0.974    H  147 0.908    O  123 0.198
   137  C   3.954        C  140 0.978    N  136 0.974    H  148 0.950    C  138 0.933
   138  C   3.947        O  139 1.645    N  160 1.289    C  137 0.933
   139  O   1.980        C  138 1.645    N  160 0.196
   140  C   3.980        C  141 1.007    C  137 0.978    H  149 0.962    H  150 0.955
   141  C   3.989        C  142 1.009    C  140 1.007    H  151 0.969    H  152 0.967
   142  C   3.954        C  141 1.009    N  143 0.982    H  154 0.960    H  153 0.958
   143  N   3.482        C  144 1.343    C  142 0.982    H  155 0.881    N  146 0.107    N  145 0.100
   144  C   3.977        N  143 1.343    N  146 1.308    N  145 1.294
   145  N   3.368        C  144 1.294    H  157 0.923    H  156 0.916    N  143 0.100
   146  N   3.387        C  144 1.308    H  159 0.920    H  158 0.917    N  143 0.107
   147  H   0.953        N  136 0.908
   148  H   0.990        C  137 0.950
   149  H   0.992        C  140 0.962
   150  H   0.993        C  140 0.955
   151  H   0.993        C  141 0.969
   152  H   0.994        C  141 0.967
   153  H   0.992        C  142 0.958
   154  H   0.992        C  142 0.960
   155  H   0.938        N  143 0.881
   156  H   0.939        N  145 0.916
   157  H   0.942        N  145 0.923
   158  H   0.941        N  146 0.917
   159  H   0.940        N  146 0.920
   160  N   3.459        C  138 1.289    C  161 0.978    H  169 0.905    O  139 0.196
   161  C   3.968        N  160 0.978    C  164 0.968    H  170 0.954    C  162 0.945
   162  C   3.947        O  163 1.630    N  182 1.297    C  161 0.945
   163  O   1.984        C  162 1.630    N  182 0.198
   164  C   3.986        C  165 1.008    H  172 0.970    C  161 0.968    H  171 0.966
   165  C   3.993        C  164 1.008    C  166 1.003    H  173 0.976    H  174 0.973
   166  C   3.989        C  167 1.012    C  165 1.003    H  175 0.973    H  176 0.970
   167  C   3.910        C  166 1.012    H  178 0.962    H  177 0.962    N  168 0.955
   168  N   3.664        C  167 0.955    H  180 0.900    H  181 0.898    H  179 0.891
   169  H   0.951        N  160 0.905
   170  H   0.994        C  161 0.954
   171  H   0.993        C  164 0.966
   172  H   0.997        C  164 0.970
   173  H   0.998        C  165 0.976
   174  H   0.996        C  165 0.973
   175  H   0.996        C  166 0.973
   176  H   0.994        C  166 0.970
   177  H   0.983        C  167 0.962
   178  H   0.985        C  167 0.962
   179  H   0.904        N  168 0.891
   180  H   0.915        N  168 0.900
   181  H   0.913        N  168 0.898
   182  N   3.479        C  162 1.297    C  183 0.974    H  193 0.921    O  163 0.198
   183  C   3.962        N  182 0.974    C  184 0.966    C  186 0.965    H  194 0.955
   184  C   3.897        O  185 1.919    C  183 0.966    H  256 0.954
   185  O   2.052        C  184 1.919
   186  C   3.983        C  187 1.007    H  196 0.970    H  195 0.968    C  183 0.965
   187  C   3.992        C  186 1.007    C  188 0.993    H  198 0.972    H  197 0.969
   188  C   3.949        C  187 0.993    N  189 0.985    H  199 0.967    H  200 0.962
   189  N   3.478        C  190 1.316    C  188 0.985    H  201 0.919    N  192 0.105
   190  C   3.976        N  192 1.323    N  189 1.316    N  191 1.304
   191  N   3.384        C  190 1.304    H  203 0.920    H  202 0.913
   192  N   3.417        C  190 1.323    H  205 0.920    H  204 0.920    N  189 0.105
   193  H   0.953        N  182 0.921
   194  H   0.992        C  183 0.955
   195  H   0.994        C  186 0.968
   196  H   0.994        C  186 0.970
   197  H   0.995        C  187 0.969
   198  H   0.996        C  187 0.972
   199  H   0.991        C  188 0.967
   200  H   0.991        C  188 0.962
   201  H   0.949        N  189 0.919
   202  H   0.941        N  191 0.913
   203  H   0.944        N  191 0.920
   204  H   0.943        N  192 0.920
   205  H   0.946        N  192 0.920
   206  N   2.998        C  207 1.010    H  213 0.957    H  257 0.952
   207  C   3.979        N  206 1.010    H  214 0.961    C  210 0.961    C  208 0.940
   208  C   3.936        O  209 1.640    N  222 1.285    C  207 0.940
   209  O   1.952        C  208 1.640    N  222 0.189
   210  C   3.994        C  211 1.010    C  212 1.008    H  215 0.961    C  207 0.961
   211  C   3.995        C  210 1.010    H  216 0.983    H  217 0.983    H  218 0.982
   212  C   3.993        C  210 1.008    H  220 0.984    H  219 0.979    H  221 0.977
   213  H   0.978        N  206 0.957
   214  H   0.997        C  207 0.961
   215  H   0.998        C  210 0.961
   216  H   0.998        C  211 0.983
   217  H   0.999        C  211 0.983
   218  H   0.998        C  211 0.982
   219  H   0.997        C  212 0.979
   220  H   0.999        C  212 0.984
   221  H   0.997        C  212 0.977
   222  N   3.441        C  208 1.285    C  223 0.992    H  231 0.888    O  209 0.189
   223  C   3.973        N  222 0.992    C  226 0.956    H  232 0.951    C  224 0.947
   224  C   3.954        O  225 1.622    N  237 1.303    C  223 0.947
   225  O   1.968        C  224 1.622    N  237 0.195
   226  C   3.992        C  227 1.012    H  233 0.971    H  234 0.970    C  223 0.956
   227  C   3.987        C  226 1.012    H  236 0.973    H  235 0.966    C  228 0.907
   228  C   3.931        O  229 1.504    O  230 1.495    C  227 0.907
   229  O   1.796        C  228 1.504    O  230 0.214
   230  O   1.782        C  228 1.495    O  229 0.214
   231  H   0.945        N  222 0.888
   232  H   0.997        C  223 0.951
   233  H   0.997        C  226 0.971
   234  H   0.997        C  226 0.970
   235  H   1.000        C  227 0.966
   236  H   0.999        C  227 0.973
   237  N   3.473        C  224 1.303    C  238 0.990    H  245 0.905    O  225 0.195
   238  C   3.963        N  237 0.990    C  239 0.981    C  241 0.954    H  246 0.924
   239  C   3.889        O  240 1.899    C  238 0.981    H  258 0.950
   240  O   2.073        C  239 1.899
   241  C   3.984        C  242 0.974    H  248 0.966    C  238 0.954    H  247 0.935
   242  C   3.955        O  243 1.623    N  244 1.322    C  241 0.974
   243  O   1.966        C  242 1.623    N  244 0.200
   244  N   3.410        C  242 1.322    H  250 0.931    H  249 0.919    O  243 0.200
   245  H   0.958        N  237 0.905
   246  H   0.984        C  238 0.924
   247  H   0.987        C  241 0.935
   248  H   0.994        C  241 0.966
   249  H   0.941        N  244 0.919
   250  H   0.951        N  244 0.931
   251  H   0.963        N    1 0.946
   252  H   0.987        C   37 0.949
   253  H   0.969        N   49 0.957
   254  H   0.997        C   51 0.956
   255  H   0.969        N   56 0.954
   256  H   0.994        C  184 0.954
   257  H   0.965        N  206 0.952
   258  H   0.988        C  239 0.950
 
molecular dipole:
                 x           y           z       tot (Debye)
 q only:      -48.837      34.698      10.591
   full:      -47.929      33.699      10.110     151.124
molecular quadrupole (traceless):
                xx          xy          yy          xz          yz          zz
 q only:   -13157.162   -1698.238    9421.291   -6349.505    6649.319    3735.871
  q+dip:   -12836.835   -1688.603    9204.793   -6263.091    6429.201    3632.042
   full:   -12834.842   -1691.031    9203.191   -6264.520    6428.625    3631.651


           -------------------------------------------------
          | TOTAL ENERGY             -393.919450012673 Eh   |
          | GRADIENT NORM               0.453486781388 Eh/α |
          | HOMO-LUMO GAP               0.714177274896 eV   |
           -------------------------------------------------

------------------------------------------------------------------------
 * finished run on 2019/05/31 at 06:33:57.186     
------------------------------------------------------------------------
 total:
 * wall-time:     0 d,  0 h,  0 min,  3.253 sec
 *  cpu-time:     0 d,  0 h,  0 min,  5.923 sec
 * ratio c/w:     1.821 speedup
 SCF:
 * wall-time:     0 d,  0 h,  0 min,  3.006 sec
 *  cpu-time:     0 d,  0 h,  0 min,  5.558 sec
 * ratio c/w:     1.849 speedup

