      -----------------------------------------------------------      
     |                   =====================                   |     
     |                           x T B                           |     
     |                   =====================                   |     
     |                         S. Grimme                         |     
     |          Mulliken Center for Theoretical Chemistry        |     
     |                    University of Bonn                     |     
     |                 Version 6.0.1 (SAW181210)                 |     
      -----------------------------------------------------------      

   This program is distributed in the hope that it will be useful,
   but WITHOUT ANY WARRANTY; without even the implied warranty of
   MERCHANTABILITY or FITNESS FOR A PARTICULAR PURPOSE.
   
   FOR NON-COMMERCIAL, ACADEMIA USE ONLY.
   
   Cite this work as:
   S. Grimme, C. Bannwarth, P. Shushkov, J. Comput. Theory Chem., 2017,
   13, 1989-2009.
   C. Bannwarth, S. Ehlert and S. Grimme., ChemRxiv, 2018, preprint.
   http://doi.org/10.26434/chemrxiv.7246238.v1
   
   for sTDA-xTB:
   S. Grimme and C. Bannwarth, J. Chem. Phys., 2016, 145, 054103.
   
   in the mass-spec context:
   V. Asgeirsson, C. Bauer and S. Grimme, Chem. Sci., 2017, 8, 4879.
   
   if GBSA is used:
   P. Shushkov, F. März and S. Grimme, unpublished.
   
   for ANC optimizer:
   S. Grimme, unpublished.
   Rational Function algorithm used in ANCopt:
   F. Eckert, P. Pulay, H.-J. Werner, J. Comput. Chem., 1997, 18, 1473.
   
   with help from (in alphabetical order)
   C. Bannwarth, F. Bohle, G. Brandenburg, E. Caldeweyher, M. Checinski,
   S. Dohm, S. Ehlert, S. Ehrlich, F. März, H. Neugebauer, J. Pisarek,
   P. Pracht, P. Shushkov, and S. Spicher.
   
 * started run on 2019/03/07 at 11:37:45.677     
========================================================================
 # omp threads = 1
========================================================================
number of atoms            : 256
number of electrons        : 702
charge                     : 1
spin                       : .0
first test random number   : .4362
           ------------------------------------------------- 
          |                 G F N 2 - x T B                 |
          | Geometry, Frequencies, Noncovalent interactions |
          |            JCTC 2018 parametrisation            |
           ------------------------------------------------- 
 
      method parameters     
 k(s)        :  1.8500
 k(p)        :  2.2300
 k(d)        :  2.2300
 k(f)        :  2.0000
 kEN (H0ij)  : -2.0000
 D4 a1       :  0.5200
 D4 a2       :  5.0000
 D4 s6       :  1.0000
 D4 s8       :  2.7000
 D4 s9       :  5.0000
 alphaj      :  2.0000

 Solvent             : h2o
 Using internal parameter file: .param_gbsa2_h2o
 Gsolv ref. state (COSMO-RS): gsolv [1 M gas/solution]
 temperature (mdtemp)       :    298.150000000000     
 dielectric constant        :    80.2000000000000     
 rho                        :    1.00000000000000     
 mass                       :    18.0000000000000     
 surface tension            :    15.5689454083859     
 probe radius               :   0.975313790000000     
 vdW radii scaling          :    1.00000000000000     
 Gshift (Eh)                :   1.857443126794793E-003
 c1                         :    1.55243817000000     
 soset                      :   0.130326360000000     
 HB correction              :  T

            Z     q(EN)     CN     RAES       Cart. coordinates
     1  N   5.0   -0.24    3.26    1.97   236.03433   116.14823   266.84820
     2  C   4.0    0.02    4.42    4.41   236.04945   118.66156   265.59720
     3  C   4.0    0.15    3.48    3.11   238.52310   119.95602   266.35498
     4  O   6.0   -0.32    1.32    1.80   239.57946   121.37899   264.92824
     5  C   4.0   -0.03    4.40    4.38   233.78934   120.39444   266.41167
     6  C   4.0   -0.06    4.30    4.19   231.25332   119.14533   265.76539
     7  C   4.0   -0.08    4.24    4.07   233.98587   123.00604   265.15123
     8  C   4.0   -0.08    4.15    3.90   228.98565   120.79506   266.42301
     9  H   1.0    0.10    1.08    1.44   234.85136   115.98004   267.94991
    10  H   1.0    0.04    1.12    1.45   235.89071   118.40834   263.78873
    11  H   1.0    0.05    1.12    1.45   233.87437   120.62310   268.22770
    12  H   1.0    0.04    1.09    1.44   231.21364   118.75416   263.97582
    13  H   1.0    0.05    1.09    1.44   231.12104   117.55418   266.66490
    14  H   1.0    0.05    1.06    1.44   232.57235   124.04728   265.67846
    15  H   1.0    0.06    1.06    1.44   235.55623   123.80918   265.65012
    16  H   1.0    0.05    1.05    1.44   233.95374   122.80951   263.32953
    17  H   1.0    0.05    1.05    1.44   227.43986   119.91634   265.97704
    18  H   1.0    0.05    1.05    1.44   228.98754   121.15033   268.22203
    19  H   1.0    0.05    1.06    1.44   229.08392   122.36920   265.48949
    20  N   5.0   -0.17    3.58    2.14   239.32245   119.54028   268.71525
    21  C   4.0    0.03    4.49    4.53   241.68650   120.57585   269.69791
    22  C   4.0    0.16    3.52    3.12   243.79165   119.52328   268.05007
    23  O   6.0   -0.29    1.34    1.80   245.46406   120.93490   267.14867
    24  C   4.0   -0.05    4.43    4.42   242.04177   119.74626   272.39833
    25  C   4.0   -0.06    4.31    4.22   240.10102   120.71758   274.27482
    26  C   4.0   -0.05    4.30    4.20   240.40716   119.50627   276.86564
    27  C   4.0   -0.04    4.28    4.16   238.39082   120.49271   278.66466
    28  N   5.0   -0.16    4.13    3.22   238.83301   119.45147   281.24413
    29  H   1.0    0.09    1.14    1.45   238.50042   118.64455   269.79239
    30  H   1.0    0.06    1.12    1.45   241.68461   122.40889   269.66389
    31  H   1.0    0.05    1.10    1.44   242.02665   117.91323   272.44746
    32  H   1.0    0.06    1.10    1.44   243.70284   120.28295   272.95391
    33  H   1.0    0.05    1.09    1.44   240.25976   122.53739   274.42978
    34  H   1.0    0.04    1.09    1.44   238.41538   120.37932   273.63799
    35  H   1.0    0.05    1.09    1.44   240.27676   117.68268   276.72202
    36  H   1.0    0.05    1.09    1.44   242.07389   119.87477   277.53460
    37  H   1.0    0.05    1.08    1.44   238.43239   122.32385   278.71190
    38  H   1.0    0.05    1.08    1.44   236.72597   120.00894   278.06939
    39  H   1.0    0.08    1.09    1.44   237.65194   120.02972   282.29293
    40  H   1.0    0.08    1.09    1.44   238.76120   117.77150   281.19122
    41  H   1.0    0.08    1.09    1.44   240.35046   119.92957   281.79026
    42  N   5.0   -0.16    3.48    2.06   243.78032   117.03073   267.66078
    43  C   4.0    0.01    4.35    4.29   245.65681   115.81941   266.04696
    44  C   4.0    0.16    3.37    3.07   245.31666   116.67168   263.33142
    45  O   6.0   -0.31    1.29    1.80   247.13836   116.73782   261.87444
    46  H   1.0    0.09    1.13    1.45   242.69750   116.01217   268.31841
    47  H   1.0    0.07    1.09    1.44   247.34434   116.23893   266.62710
    48  H   1.0    0.05    1.09    1.44   245.49052   113.99772   266.15467
    49  N   5.0   -0.16    3.53    2.10   242.99230   117.36899   262.64923
    50  C   4.0    0.03    4.47    4.49   242.25531   118.29684   260.14156
    51  C   4.0    0.15    3.49    3.11   242.93183   121.05206   259.71449
    52  O   6.0   -0.32    1.32    1.80   243.07167   121.84008   257.51673
    53  C   4.0   -0.05    4.50    4.53   239.40182   118.05307   259.73905
    54  C   4.0   -0.03    4.30    4.20   238.22830   115.47548   259.27418
    55  C   4.0   -0.08    4.22    4.03   235.35025   115.74193   259.15702
    56  C   4.0   -0.07    4.23    4.07   239.29222   114.40779   256.82698
    57  H   1.0    0.10    1.15    1.45   241.74130   117.31230   263.68480
    58  H   1.0    0.05    1.14    1.45   243.18883   117.25561   258.95671
    59  H   1.0    0.05    1.11    1.45   238.58168   118.76739   261.21493
    60  H   1.0    0.06    1.11    1.45   238.95963   119.11699   258.31231
    61  H   1.0    0.05    1.12    1.45   238.63081   114.31897   260.63856
    62  H   1.0    0.05    1.05    1.44   234.59436   114.09787   258.86033
    63  H   1.0    0.04    1.06    1.44   234.73420   116.41846   260.74439
    64  H   1.0    0.05    1.06    1.44   234.89671   116.87766   257.79263
    65  H   1.0    0.06    1.06    1.44   238.55711   112.75995   256.50762
    66  H   1.0    0.06    1.06    1.44   238.88782   115.53595   255.43993
    67  H   1.0    0.05    1.06    1.44   241.11202   114.24716   256.97060
    68  N   5.0   -0.15    3.65    2.21   243.25875   122.50904   261.74972
    69  C   4.0    0.03    4.57    4.63   244.00519   125.14143   261.53807
    70  C   4.0    0.17    3.57    3.15   246.76797   124.86742   260.76706
    71  O   6.0   -0.32    1.27    1.80   247.67882   126.00315   258.95104
    72  C   4.0    0.05    4.37    4.33   243.78032   126.63998   263.99660
    73  O   6.0   -0.26    2.22    1.86   245.14659   125.40221   265.97704
    74  C   4.0   -0.07    4.23    4.05   241.11580   126.99336   264.80163
    75  H   1.0    0.12    1.16    1.46   243.05277   121.99126   263.27662
    76  H   1.0    0.05    1.12    1.45   242.93750   126.07874   260.37967
    77  H   1.0    0.05    1.12    1.45   244.49463   128.29538   263.66968
    78  H   1.0    0.17    1.15    1.45   244.51353   123.97169   266.24349
    79  H   1.0    0.06    1.06    1.44   241.07045   127.95145   266.36443
    80  H   1.0    0.05    1.06    1.44   240.19929   127.90421   263.50150
    81  H   1.0    0.07    1.08    1.44   240.33346   125.35686   265.06619
    82  N   5.0   -0.16    3.68    2.25   248.05488   123.23659   262.16168
    83  C   4.0    0.04    4.51    4.55   250.67404   122.64888   261.68358
    84  C   4.0    0.17    3.51    3.12   250.74585   121.35631   259.09844
    85  O   6.0   -0.30    1.30    1.80   252.44849   121.80040   257.59610
    86  C   4.0   -0.05    4.45    4.46   251.58677   120.85742   263.73771
    87  C   4.0   -0.03    4.36    4.32   251.47906   122.00260   266.36632
    88  C   4.0    0.17    3.32    3.06   251.08600   120.08453   268.37888
    89  O   6.0   -0.26    1.23    1.80   249.54209   120.45113   270.06263
    90  N   5.0   -0.24    3.26    1.97   252.44660   117.97370   268.23904
    91  H   1.0    0.12    1.17    1.46   247.41804   122.43534   263.42402
    92  H   1.0    0.05    1.13    1.45   251.71906   124.15499   261.72137
    93  H   1.0    0.07    1.10    1.44   250.56443   119.33430   263.70559
    94  H   1.0    0.05    1.09    1.44   253.31020   120.35287   263.37300
    95  H   1.0    0.05    1.10    1.44   253.03997   122.90778   266.69324
    96  H   1.0    0.07    1.11    1.44   250.12224   123.23281   266.43246
    97  H   1.0    0.11    1.09    1.44   253.51618   117.77528   267.02961
    98  H   1.0    0.13    1.09    1.44   252.25763   116.80774   269.35587
    99  N   5.0   -0.15    3.58    2.14   248.84667   119.81618   258.49372
   100  C   4.0    0.04    4.42    4.42   248.80321   118.61243   255.98228
   101  C   4.0    0.17    3.48    3.10   248.40826   120.67034   253.96405
   102  O   6.0   -0.31    1.30    1.80   249.52130   120.57018   251.93826
   103  C   4.0   -0.07    4.21    4.03   246.69805   116.62633   255.89157
   104  H   1.0    0.12    1.16    1.46   247.59945   119.44580   259.46693
   105  H   1.0    0.06    1.12    1.45   250.39247   117.76205   255.65158
   106  H   1.0    0.06    1.05    1.44   246.67349   115.83642   254.23806
   107  H   1.0    0.06    1.05    1.44   247.00419   115.35076   257.17280
   108  H   1.0    0.06    1.06    1.44   245.08234   117.43324   256.20715
   109  N   5.0   -0.15    3.60    2.16   246.83978   122.54684   254.58766
   110  C   4.0    0.05    4.46    4.48   246.32578   124.61798   252.83399
   111  C   4.0    0.18    3.50    3.11   248.88258   125.87465   252.26708
   112  O   6.0   -0.29    1.28    1.80   249.48162   126.36408   250.08633
   113  C   4.0    0.04    4.27    4.14   244.53432   126.54361   254.06043
   114  O   6.0   -0.26    2.09    1.84   243.44961   128.13665   252.23873
   115  H   1.0    0.13    1.18    1.46   246.05933   122.65266   256.01062
   116  H   1.0    0.07    1.12    1.45   245.52831   124.00193   251.30332
   117  H   1.0    0.06    1.08    1.44   243.21151   125.66111   254.97316
   118  H   1.0    0.06    1.08    1.44   245.45461   127.54705   255.28686
   119  H   1.0    0.15    1.08    1.44   242.47641   129.17033   252.94927
   120  N   5.0   -0.16    3.56    2.12   250.41514   126.15810   254.25318
   121  C   4.0    0.04    4.48    4.50   252.94927   127.24659   254.02452
   122  C   4.0    0.18    3.48    3.11   254.58010   125.59497   252.33322
   123  O   6.0   -0.29    1.34    1.80   255.69693   126.46991   250.51341
   124  C   4.0   -0.04    4.40    4.39   254.25696   127.41288   256.61723
   125  C   4.0   -0.05    4.32    4.23   252.90580   128.92088   258.62789
   126  C   4.0   -0.01    4.34    4.28   253.96027   128.46168   261.23194
   127  N   5.0   -0.16    3.43    2.04   252.53353   129.84307   263.15001
   128  C   4.0    0.12    3.47    3.10   253.40091   130.32117   265.49705
   129  N   5.0   -0.23    3.32    1.99   255.61567   129.52182   266.21703
   130  N   5.0   -0.23    3.28    1.98   251.94582   131.56839   267.17323
   131  H   1.0    0.12    1.16    1.45   250.01452   125.72536   255.76685
   132  H   1.0    0.06    1.12    1.45   252.76218   128.92655   253.31398
   133  H   1.0    0.07    1.11    1.44   254.50262   125.70835   257.24650
   134  H   1.0    0.06    1.10    1.44   255.92181   128.14043   256.37534
   135  H   1.0    0.05    1.09    1.44   253.03053   130.70667   258.23105
   136  H   1.0    0.07    1.11    1.44   251.12379   128.49003   258.61278
   137  H   1.0    0.05    1.10    1.44   253.91681   126.66833   261.60610
   138  H   1.0    0.05    1.09    1.44   255.71772   128.97758   261.28296
   139  H   1.0    0.10    1.13    1.45   251.05198   130.38353   262.75883
   140  H   1.0    0.11    1.10    1.44   256.54731   128.67522   265.18902
   141  H   1.0    0.12    1.10    1.44   256.14479   129.84118   267.71936
   142  H   1.0    0.12    1.08    1.44   250.45672   132.06350   266.74805
   143  H   1.0    0.12    1.09    1.44   252.50518   131.87075   268.66801
   144  N   5.0   -0.14    3.54    2.11   254.55364   123.13454   252.85856
   145  C   4.0    0.05    4.53    4.57   255.99173   121.25049   251.41103
   146  C   4.0    0.16    3.50    3.12   255.34544   121.39033   248.65392
   147  O   6.0   -0.30    1.31    1.80   256.99706   121.79095   247.05521
   148  C   4.0   -0.04    4.41    4.39   255.60433   118.56896   252.39936
   149  C   4.0    0.18    3.29    3.05   256.70037   118.20803   255.05820
   150  O   6.0   -0.26    1.23    1.80   257.94003   119.85587   256.06165
   151  N   5.0   -0.23    3.23    1.96   256.15235   116.04051   256.17881
   152  H   1.0    0.13    1.16    1.46   253.69193   122.49771   254.07932
   153  H   1.0    0.09    1.14    1.45   257.76618   121.65867   251.63024
   154  H   1.0    0.06    1.09    1.44   253.81287   118.18346   252.42392
   155  H   1.0    0.05    1.09    1.44   256.39235   117.37844   251.25040
   156  H   1.0    0.13    1.09    1.44   256.68148   115.74949   257.68681
   157  H   1.0    0.11    1.09    1.44   255.26796   114.92368   255.39835
   158  N   5.0   -0.16    3.53    2.10   252.93415   120.88010   248.05677
   159  C   4.0    0.03    4.39    4.36   251.94393   120.97648   245.46595
   160  C   4.0    0.17    3.49    3.11   252.67526   123.51816   244.26409
   161  O   6.0   -0.28    1.25    1.80   253.46138   123.60886   242.09468
   162  C   4.0   -0.07    4.20    4.00   249.04509   120.66089   245.48674
   163  H   1.0    0.12    1.17    1.46   251.81732   120.46436   249.16226
   164  H   1.0    0.05    1.12    1.45   252.66392   119.60831   244.48140
   165  H   1.0    0.06    1.05    1.44   248.41015   120.72703   243.76898
   166  H   1.0    0.05    1.05    1.44   248.61046   119.04518   246.23507
   167  H   1.0    0.07    1.05    1.44   248.28920   122.01205   246.46940
   168  N   5.0   -0.15    3.58    2.14   252.42392   125.54961   245.72107
   169  C   4.0    0.05    4.54    4.60   253.12879   128.05917   244.94250
   170  C   4.0    0.17    3.54    3.13   255.90858   128.02515   244.16960
   171  O   6.0   -0.24    1.24    1.80   256.58132   128.88498   242.11925
   172  C   4.0   -0.02    4.47    4.49   252.81510   129.96590   247.06088
   173  C   4.0    0.18    3.32    3.06   250.21105   131.06194   247.16671
   174  O   6.0   -0.25    1.23    1.80   248.99407   131.41721   245.23163
   175  N   5.0   -0.21    3.25    1.97   249.37202   131.69500   249.45894
   176  H   1.0    0.13    1.17    1.46   251.82110   125.48536   247.22907
   177  H   1.0    0.08    1.13    1.45   252.03842   128.55239   243.55355
   178  H   1.0    0.07    1.12    1.45   253.19682   129.15899   248.66148
   179  H   1.0    0.06    1.10    1.44   254.03208   131.31895   246.83978
   180  H   1.0    0.13    1.09    1.44   247.91126   132.38853   249.62713
   181  H   1.0    0.11    1.09    1.44   250.29231   131.40965   250.76852
   182  N   5.0   -0.15    3.63    2.19   257.47516   126.95179   245.82122
   183  C   4.0    0.05    4.51    4.55   260.16991   126.72313   245.37336
   184  C   4.0    0.18    3.54    3.13   260.45148   125.37198   242.85057
   185  O   6.0   -0.24    1.23    1.80   262.01995   126.08063   241.29344
   186  C   4.0   -0.02    4.39    4.35   261.49650   125.18679   247.40859
   187  C   4.0    0.27    3.15    3.03   261.18280   126.26393   250.07310
   188  O   6.0   -0.25    1.17    1.80   261.50973   128.59963   250.42270
   189  O   6.0   -0.25    1.20    1.80   260.70281   124.75593   251.78142
   190  H   1.0    0.14    1.18    1.46   256.98950   126.33385   247.24418
   191  H   1.0    0.08    1.12    1.45   260.93525   128.38798   245.38469
   192  H   1.0    0.07    1.11    1.44   260.84643   123.47280   247.37835
   193  H   1.0    0.07    1.09    1.44   263.28418   125.09041   247.01175
   194  N   5.0   -0.14    3.48    2.06   258.89812   123.39533   242.48207
   195  C   4.0    0.03    4.26    4.11   258.95104   121.94779   240.12748
   196  C   4.0    0.12    3.22    3.04   258.52774   123.70335   237.96563
   197  O   6.0   -0.23    1.12    1.80   259.96960   123.78461   236.16094
   198  H   1.0    0.13    1.15    1.45   257.81153   122.87376   243.57245
   199  H   1.0    0.07    1.09    1.44   260.56297   121.09364   239.94417
   200  H   1.0    0.05    1.09    1.44   257.65657   120.64955   240.15204
   201  N   5.0   -0.21    3.25    1.97   256.63045   107.85800   242.70317
   202  C   4.0    0.03    4.54    4.59   255.69882   109.90268   244.36802
   203  C   4.0    0.16    3.47    3.10   253.43304   108.85577   245.75697
   204  O   6.0   -0.28    1.23    1.80   251.58488   108.07343   244.58912
   205  C   4.0   -0.03    4.47    4.49   255.13946   112.32342   242.99608
   206  C   4.0   -0.05    4.33    4.25   257.49595   113.26450   241.56367
   207  C   4.0   -0.08    4.27    4.14   254.25129   114.32275   244.81967
   208  C   4.0   -0.08    4.16    3.93   259.88645   113.29474   243.16049
   209  H   1.0    0.12    1.07    1.44   255.82543   107.68225   241.30289
   210  H   1.0    0.04    1.15    1.45   257.01029   110.39212   245.55099
   211  H   1.0    0.06    1.13    1.45   253.80720   111.99272   241.78288
   212  H   1.0    0.05    1.09    1.44   257.76996   112.19492   240.10102
   213  H   1.0    0.05    1.09    1.44   257.17658   114.95770   240.93817
   214  H   1.0    0.05    1.06    1.44   253.89791   115.87233   243.90504
   215  H   1.0    0.05    1.06    1.44   252.72628   113.75016   245.66059
   216  H   1.0    0.05    1.06    1.44   255.55709   114.63456   246.06877
   217  H   1.0    0.06    1.05    1.44   261.29052   113.90323   242.14948
   218  H   1.0    0.05    1.06    1.44   259.64646   114.40212   244.60046
   219  H   1.0    0.05    1.06    1.44   260.24928   111.59777   243.75008
   220  N   5.0   -0.16    3.48    2.07   253.60311   108.80664   248.26275
   221  C   4.0    0.04    4.50    4.53   251.61512   107.90524   249.93515
   222  C   4.0    0.15    3.49    3.11   249.55343   109.88001   250.17704
   223  O   6.0   -0.30    1.24    1.80   250.00696   111.95681   251.11812
   224  C   4.0   -0.04    4.40    4.38   252.67526   107.35155   252.55998
   225  C   4.0   -0.04    4.30    4.20   250.73451   106.36889   254.49506
   226  C   4.0    0.16    3.29    3.05   249.82744   103.71572   253.96027
   227  O   6.0   -0.26    1.22    1.80   251.15592   102.21150   252.79431
   228  N   5.0   -0.23    3.22    1.96   247.51819   103.06754   254.78230
   229  H   1.0    0.09    1.14    1.45   254.92592   109.31498   249.06021
   230  H   1.0    0.06    1.13    1.45   250.92348   106.36700   249.21517
   231  H   1.0    0.06    1.09    1.44   254.01885   106.11378   252.39936
   232  H   1.0    0.05    1.09    1.44   253.43493   108.88412   253.21950
   233  H   1.0    0.05    1.09    1.44   251.48284   106.41803   256.16747
   234  H   1.0    0.05    1.10    1.44   249.29076   107.49895   254.51963
   235  H   1.0    0.11    1.09    1.44   246.61302   104.14469   255.59677
   236  H   1.0    0.13    1.08    1.44   246.94372   101.57466   254.49506
   237  N   5.0   -0.17    3.49    2.07   247.33678   109.24506   249.16604
   238  C   4.0    0.03    4.48    4.51   245.20328   110.96849   249.23407
   239  C   4.0    0.08    3.25    3.04   242.91293   109.86678   250.56632
   240  O   6.0   -0.29    1.13    1.80   241.31611   111.21415   251.47339
   241  C   4.0   -0.02    4.38    4.34   244.39070   111.79241   246.52987
   242  C   4.0   -0.08    4.22    4.04   246.59601   113.05285   245.12958
   243  C   4.0   -0.07    4.26    4.13   243.49308   109.50395   245.06911
   244  H   1.0    0.10    1.13    1.45   247.03820   107.82398   248.43471
   245  H   1.0    0.07    1.14    1.45   245.79099   112.41980   250.18649
   246  H   1.0    0.06    1.12    1.45   243.02821   113.00939   246.66971
   247  H   1.0    0.05    1.05    1.44   246.04988   113.55174   243.45150
   248  H   1.0    0.05    1.05    1.44   247.14403   114.53440   246.05933
   249  H   1.0    0.06    1.06    1.44   247.98874   111.86989   244.99163
   250  H   1.0    0.06    1.06    1.44   242.98663   110.01418   243.38347
   251  H   1.0    0.06    1.06    1.44   244.85368   108.27941   244.95384
   252  H   1.0    0.06    1.06    1.44   242.06445   108.74806   245.93271
   253  H   1.0    0.10    1.07    1.44   235.81670   114.93307   265.67833
   254  H   1.0    0.09    1.05    1.44   257.03150   124.85762   237.96479
   255  H   1.0    0.10    1.08    1.44   258.25372   108.15577   242.29222
   256  H   1.0    0.06    1.05    1.44   242.70983   107.99296   250.70275

  Z AO/shell   Hii/eV     exponent
  1     Wed Apr 25 08:07:45 CEST 2018   EN: 2.200 GM2: 0.406  GM3: 0.0800  RAES: 1.40
     1s    -10.707211    1.230000
  6     Wed Apr 25 08:07:45 CEST 2018   EN: 2.550 GM2: 0.538  GM3: 0.1500  RAES: 3.00
     2s    -13.970922    2.096432
     2p    -10.063292    1.800000
  7     Wed Apr 25 08:07:45 CEST 2018   EN: 3.040 GM2: 0.461  GM3:-0.0640  RAES: 1.90
     2s    -16.686243    2.339881
     2p    -12.523956    2.014332
  8     Wed Apr 25 08:07:45 CEST 2018   EN: 3.440 GM2: 0.452  GM3:-0.0517  RAES: 1.80
     2s    -20.229985    2.439742
     2p    -15.503117    2.137023
 no old-style atom pair restraining (fixing) potential

molecular fragmentation (1/2 indicates fragments):
111111111111111111111111111111111111111111111111111111111111111111111111
111111111111111111111111111111111111111111111111111111111111111111111111
111111111111111111111111111111111111111111111111111111112222222222222222
2222222222222222222222222222222222221122
# atoms in fragment 1/2:   202    54
 fragment masses (1/2) :     1429.57      342.44
CMA distance (Bohr)    :  16.384
constraining FC (au)   :  0.0500
           ------------------------------------------------- 
          |        Self-Consistent Charge Iterations        |
           ------------------------------------------------- 

 Ncao       : 628
 Nao        : 628
 Nshell     : 380
 Nel        : 702
 T(el)      :   500.0
 intcut     :    35.0
 scfconv/Eh :  0.100E-06
   qconv/e  :  0.100E-04
 intneglect :  0.100E-08
 broydamp   :      0.400
 iter      E             dE          RMSdq      gap      omega  full diag
   1   -406.1573644 -0.406157E+03  0.469E+00    3.14       0.0  T
   2   -407.1655473 -0.100818E+01  0.218E+00    2.29       1.0  T
   3   -407.2181709 -0.526236E-01  0.122E+00    2.48       1.0  T
   4   -407.2711102 -0.529393E-01  0.241E-01    1.59       1.0  T
   5   -407.2753560 -0.424582E-02  0.105E-01    1.68       1.0  T
   6   -407.2756714 -0.315384E-03  0.385E-02    1.69       1.0  T
   7   -407.2757404 -0.689951E-04  0.158E-02    1.71       1.0  T
   8   -407.2757469 -0.650643E-05  0.732E-03    1.72       1.0  T
   9   -407.2757496 -0.268380E-05  0.229E-03    1.72       2.7  T
  10   -407.2757498 -0.164907E-06  0.936E-04    1.72       6.7  T
  11   -407.2757498 -0.366934E-07  0.391E-04    1.72      16.0  T
  12   -407.2757498 -0.632224E-08  0.161E-04    1.72      38.8  T
  13   -407.2757498 -0.126317E-08  0.680E-05    1.72      91.9  T
  14   -407.2757498 -0.145690E-09  0.284E-05    1.72     220.1  T
speedup  1.00
cpu  time for SCC    2.95 s
wall time for SCC    2.95 s

   *** convergence criteria satisfied after 14 iterations ***

          eigenvalues
 #    :         339        340        341        342        343        344        345        346
 occ. :        2.000      2.000      2.000      2.000      2.000      2.000      2.000      2.000
 eps  :       -11.020    -11.005    -10.960    -10.952    -10.942    -10.887    -10.768    -10.713
 #    :         347        348        349        350        351        352        353        354
 occ. :        2.000      2.000      2.000      2.000      2.000      0.000      0.000      0.000
 eps  :       -10.495    -10.394    -10.023     -9.927     -9.629     -7.907     -7.619     -7.001
 #    :         355        356        357        358        359        360        361        362
 occ. :        0.000      0.000      0.000      0.000      0.000      0.000      0.000      0.000
 eps  :        -6.937     -6.798     -6.785     -6.649     -6.623     -6.526     -6.472     -6.466


   #   Z            q   n(s)   n(p)   n(d)      C6AA      α(0)
   1   7 N     -0.422  1.288  4.135  0.000    31.007     8.270
   2   6 C     -0.001  1.052  2.950  0.000    20.617     6.467
   3   6 C      0.261  1.048  2.691  0.000    22.610     7.786
   4   8 O     -0.495  1.738  4.758  0.000    23.680     6.524
   5   6 C     -0.042  1.050  2.992  0.000    21.282     6.561
   6   6 C     -0.083  1.003  3.080  0.000    22.073     6.687
   7   6 C     -0.151  0.978  3.173  0.000    23.462     6.903
   8   6 C     -0.149  0.976  3.173  0.000    23.411     6.896
   9   1 H      0.189  0.811  0.000  0.000     1.163     1.689
  10   1 H      0.058  0.942  0.000  0.000     2.217     2.328
  11   1 H      0.064  0.936  0.000  0.000     2.154     2.295
  12   1 H      0.044  0.956  0.000  0.000     2.401     2.423
  13   1 H      0.051  0.949  0.000  0.000     2.305     2.374
  14   1 H      0.064  0.936  0.000  0.000     2.157     2.297
  15   1 H      0.057  0.943  0.000  0.000     2.237     2.339
  16   1 H      0.050  0.950  0.000  0.000     2.313     2.378
  17   1 H      0.047  0.953  0.000  0.000     2.356     2.400
  18   1 H      0.057  0.943  0.000  0.000     2.234     2.337
  19   1 H      0.053  0.947  0.000  0.000     2.280     2.361
  20   7 N     -0.194  1.210  3.984  0.000    25.209     7.457
  21   6 C      0.003  1.041  2.956  0.000    20.525     6.450
  22   6 C      0.257  1.050  2.693  0.000    22.669     7.797
  23   8 O     -0.483  1.761  4.722  0.000    23.420     6.488
  24   6 C     -0.111  1.008  3.103  0.000    22.596     6.764
  25   6 C     -0.104  1.005  3.099  0.000    22.473     6.747
  26   6 C     -0.121  1.011  3.110  0.000    22.794     6.795
  27   6 C     -0.075  1.019  3.056  0.000    22.000     6.691
  28   7 N     -0.143  1.145  3.997  0.000    24.080     7.288
  29   1 H      0.233  0.767  0.000  0.000     0.953     1.529
  30   1 H      0.107  0.893  0.000  0.000     1.719     2.050
  31   1 H      0.081  0.919  0.000  0.000     1.967     2.193
  32   1 H      0.094  0.906  0.000  0.000     1.842     2.122
  33   1 H      0.082  0.918  0.000  0.000     1.962     2.190
  34   1 H      0.077  0.923  0.000  0.000     2.015     2.219
  35   1 H      0.095  0.905  0.000  0.000     1.833     2.117
  36   1 H      0.095  0.905  0.000  0.000     1.832     2.117
  37   1 H      0.131  0.869  0.000  0.000     1.526     1.932
  38   1 H      0.131  0.869  0.000  0.000     1.524     1.931
  39   1 H      0.291  0.709  0.000  0.000     0.740     1.347
  40   1 H      0.291  0.709  0.000  0.000     0.739     1.347
  41   1 H      0.291  0.709  0.000  0.000     0.740     1.348
  42   7 N     -0.185  1.202  3.982  0.000    25.000     7.426
  43   6 C     -0.052  1.011  3.041  0.000    21.562     6.621
  44   6 C      0.264  1.042  2.694  0.000    22.554     7.776
  45   8 O     -0.493  1.753  4.740  0.000    23.641     6.519
  46   1 H      0.235  0.765  0.000  0.000     0.942     1.520
  47   1 H      0.114  0.886  0.000  0.000     1.659     2.014
  48   1 H      0.124  0.876  0.000  0.000     1.584     1.968
  49   7 N     -0.194  1.207  3.986  0.000    25.202     7.456
  50   6 C      0.002  1.045  2.953  0.000    20.558     6.456
  51   6 C      0.257  1.046  2.697  0.000    22.671     7.797
  52   8 O     -0.507  1.761  4.746  0.000    23.935     6.559
  53   6 C     -0.101  1.012  3.089  0.000    22.397     6.733
  54   6 C     -0.033  1.034  2.999  0.000    21.117     6.536
  55   6 C     -0.151  0.979  3.172  0.000    23.458     6.902
  56   6 C     -0.158  0.979  3.179  0.000    23.592     6.921
  57   1 H      0.216  0.784  0.000  0.000     1.028     1.588
  58   1 H      0.099  0.901  0.000  0.000     1.792     2.093
  59   1 H      0.080  0.920  0.000  0.000     1.979     2.200
  60   1 H      0.077  0.923  0.000  0.000     2.011     2.218
  61   1 H      0.061  0.939  0.000  0.000     2.191     2.314
  62   1 H      0.062  0.938  0.000  0.000     2.172     2.304
  63   1 H      0.055  0.945  0.000  0.000     2.260     2.351
  64   1 H      0.053  0.947  0.000  0.000     2.277     2.359
  65   1 H      0.061  0.939  0.000  0.000     2.185     2.312
  66   1 H      0.054  0.946  0.000  0.000     2.266     2.354
  67   1 H      0.051  0.949  0.000  0.000     2.310     2.377
  68   7 N     -0.181  1.204  3.976  0.000    24.917     7.414
  69   6 C     -0.012  1.044  2.968  0.000    20.779     6.489
  70   6 C      0.261  1.043  2.696  0.000    22.608     7.788
  71   8 O     -0.503  1.750  4.753  0.000    23.850     6.548
  72   6 C      0.092  1.025  2.883  0.000    19.137     6.243
  73   8 O     -0.489  1.677  4.812  0.000    22.652     6.425
  74   6 C     -0.176  0.979  3.197  0.000    23.970     6.977
  75   1 H      0.234  0.766  0.000  0.000     0.947     1.525
  76   1 H      0.098  0.902  0.000  0.000     1.802     2.099
  77   1 H      0.080  0.920  0.000  0.000     1.973     2.197
  78   1 H      0.335  0.665  0.000  0.000     0.623     1.240
  79   1 H      0.090  0.910  0.000  0.000     1.874     2.141
  80   1 H      0.065  0.935  0.000  0.000     2.139     2.287
  81   1 H      0.085  0.915  0.000  0.000     1.925     2.170
  82   7 N     -0.179  1.204  3.976  0.000    24.882     7.408
  83   6 C     -0.000  1.042  2.958  0.000    20.581     6.458
  84   6 C      0.267  1.043  2.690  0.000    22.495     7.767
  85   8 O     -0.500  1.756  4.744  0.000    23.794     6.540
  86   6 C     -0.107  1.009  3.099  0.000    22.527     6.754
  87   6 C     -0.139  1.011  3.128  0.000    23.148     6.847
  88   6 C      0.287  1.029  2.684  0.000    22.135     7.704
  89   8 O     -0.483  1.746  4.737  0.000    23.417     6.488
  90   7 N     -0.311  1.196  4.115  0.000    28.005     7.859
  91   1 H      0.239  0.761  0.000  0.000     0.928     1.509
  92   1 H      0.107  0.893  0.000  0.000     1.725     2.054
  93   1 H      0.083  0.917  0.000  0.000     1.944     2.180
  94   1 H      0.085  0.915  0.000  0.000     1.931     2.173
  95   1 H      0.102  0.898  0.000  0.000     1.765     2.077
  96   1 H      0.113  0.887  0.000  0.000     1.670     2.020
  97   1 H      0.227  0.773  0.000  0.000     0.979     1.549
  98   1 H      0.235  0.765  0.000  0.000     0.944     1.522
  99   7 N     -0.192  1.213  3.980  0.000    25.171     7.451
 100   6 C      0.010  1.045  2.945  0.000    20.408     6.432
 101   6 C      0.270  1.044  2.686  0.000    22.447     7.758
 102   8 O     -0.501  1.749  4.752  0.000    23.802     6.541
 103   6 C     -0.163  0.983  3.180  0.000    23.702     6.938
 104   1 H      0.229  0.771  0.000  0.000     0.971     1.544
 105   1 H      0.093  0.907  0.000  0.000     1.853     2.129
 106   1 H      0.081  0.919  0.000  0.000     1.969     2.194
 107   1 H      0.101  0.899  0.000  0.000     1.773     2.082
 108   1 H      0.078  0.922  0.000  0.000     1.994     2.208
 109   7 N     -0.192  1.214  3.978  0.000    25.167     7.451
 110   6 C      0.007  1.046  2.947  0.000    20.468     6.442
 111   6 C      0.276  1.042  2.682  0.000    22.333     7.739
 112   8 O     -0.500  1.753  4.747  0.000    23.787     6.539
 113   6 C      0.054  0.994  2.951  0.000    19.841     6.374
 114   8 O     -0.511  1.687  4.823  0.000    23.117     6.491
 115   1 H      0.237  0.763  0.000  0.000     0.935     1.515
 116   1 H      0.102  0.898  0.000  0.000     1.762     2.076
 117   1 H      0.082  0.918  0.000  0.000     1.960     2.189
 118   1 H      0.072  0.928  0.000  0.000     2.067     2.248
 119   1 H      0.362  0.638  0.000  0.000     0.561     1.176
 120   7 N     -0.197  1.211  3.985  0.000    25.266     7.465
 121   6 C      0.013  1.041  2.946  0.000    20.364     6.425
 122   6 C      0.285  1.035  2.680  0.000    22.171     7.711
 123   8 O     -0.515  1.759  4.756  0.000    24.129     6.586
 124   6 C     -0.104  1.007  3.097  0.000    22.472     6.746
 125   6 C     -0.113  1.003  3.110  0.000    22.643     6.773
 126   6 C     -0.041  1.008  3.033  0.000    21.365     6.592
 127   7 N     -0.157  1.181  3.976  0.000    24.400     7.336
 128   6 C      0.220  1.021  2.759  0.000    23.364     7.914
 129   7 N     -0.242  1.165  4.077  0.000    26.328     7.621
 130   7 N     -0.268  1.176  4.092  0.000    26.949     7.710
 131   1 H      0.239  0.761  0.000  0.000     0.926     1.507
 132   1 H      0.078  0.922  0.000  0.000     2.002     2.212
 133   1 H      0.089  0.911  0.000  0.000     1.887     2.148
 134   1 H      0.073  0.927  0.000  0.000     2.051     2.239
 135   1 H      0.089  0.911  0.000  0.000     1.890     2.150
 136   1 H      0.096  0.904  0.000  0.000     1.824     2.112
 137   1 H      0.090  0.910  0.000  0.000     1.879     2.143
 138   1 H      0.099  0.901  0.000  0.000     1.797     2.096
 139   1 H      0.235  0.765  0.000  0.000     0.943     1.521
 140   1 H      0.247  0.753  0.000  0.000     0.895     1.482
 141   1 H      0.269  0.731  0.000  0.000     0.814     1.413
 142   1 H      0.255  0.745  0.000  0.000     0.864     1.456
 143   1 H      0.265  0.735  0.000  0.000     0.828     1.425
 144   7 N     -0.189  1.213  3.976  0.000    25.089     7.439
 145   6 C      0.027  1.030  2.943  0.000    20.122     6.386
 146   6 C      0.275  1.043  2.682  0.000    22.354     7.742
 147   8 O     -0.515  1.758  4.757  0.000    24.116     6.584
 148   6 C     -0.135  1.018  3.117  0.000    23.072     6.836
 149   6 C      0.289  1.029  2.682  0.000    22.098     7.697
 150   8 O     -0.480  1.752  4.728  0.000    23.340     6.477
 151   7 N     -0.302  1.193  4.109  0.000    27.782     7.828
 152   1 H      0.240  0.760  0.000  0.000     0.923     1.505
 153   1 H      0.104  0.896  0.000  0.000     1.744     2.065
 154   1 H      0.099  0.901  0.000  0.000     1.790     2.092
 155   1 H      0.092  0.908  0.000  0.000     1.862     2.134
 156   1 H      0.256  0.744  0.000  0.000     0.861     1.453
 157   1 H      0.236  0.764  0.000  0.000     0.940     1.519
 158   7 N     -0.204  1.221  3.983  0.000    25.437     7.491
 159   6 C      0.011  1.045  2.945  0.000    20.404     6.433
 160   6 C      0.274  1.040  2.685  0.000    22.361     7.743
 161   8 O     -0.503  1.750  4.754  0.000    23.852     6.548
 162   6 C     -0.163  0.984  3.178  0.000    23.693     6.937
 163   1 H      0.247  0.753  0.000  0.000     0.895     1.482
 164   1 H      0.090  0.910  0.000  0.000     1.875     2.141
 165   1 H      0.088  0.912  0.000  0.000     1.900     2.156
 166   1 H      0.095  0.905  0.000  0.000     1.831     2.116
 167   1 H      0.077  0.923  0.000  0.000     2.011     2.217
 168   7 N     -0.195  1.210  3.985  0.000    25.230     7.460
 169   6 C      0.031  1.030  2.939  0.000    20.050     6.374
 170   6 C      0.279  1.040  2.681  0.000    22.276     7.729
 171   8 O     -0.516  1.754  4.762  0.000    24.153     6.589
 172   6 C     -0.124  1.011  3.113  0.000    22.843     6.800
 173   6 C      0.295  1.030  2.675  0.000    22.003     7.681
 174   8 O     -0.498  1.750  4.748  0.000    23.739     6.532
 175   7 N     -0.293  1.192  4.100  0.000    27.549     7.795
 176   1 H      0.229  0.771  0.000  0.000     0.970     1.543
 177   1 H      0.097  0.903  0.000  0.000     1.810     2.104
 178   1 H      0.098  0.902  0.000  0.000     1.803     2.099
 179   1 H      0.087  0.913  0.000  0.000     1.910     2.161
 180   1 H      0.252  0.748  0.000  0.000     0.876     1.466
 181   1 H      0.225  0.775  0.000  0.000     0.987     1.556
 182   7 N     -0.200  1.218  3.983  0.000    25.350     7.478
 183   6 C      0.039  1.030  2.931  0.000    19.916     6.353
 184   6 C      0.280  1.046  2.674  0.000    22.255     7.726
 185   8 O     -0.504  1.750  4.754  0.000    23.873     6.551
 186   6 C     -0.119  1.018  3.101  0.000    22.756     6.789
 187   6 C      0.378  1.018  2.604  0.000    20.603     7.428
 188   8 O     -0.666  1.776  4.890  0.000    27.794     7.068
 189   8 O     -0.616  1.755  4.861  0.000    26.503     6.902
 190   1 H      0.236  0.764  0.000  0.000     0.940     1.519
 191   1 H      0.069  0.931  0.000  0.000     2.101     2.266
 192   1 H      0.066  0.934  0.000  0.000     2.135     2.285
 193   1 H      0.047  0.953  0.000  0.000     2.352     2.398
 194   7 N     -0.185  1.208  3.976  0.000    25.004     7.427
 195   6 C     -0.034  1.003  3.030  0.000    21.233     6.571
 196   6 C      0.220  1.074  2.707  0.000    23.370     7.917
 197   8 O     -0.364  1.746  4.618  0.000    20.979     6.141
 198   1 H      0.226  0.774  0.000  0.000     0.983     1.553
 199   1 H      0.113  0.887  0.000  0.000     1.671     2.021
 200   1 H      0.122  0.878  0.000  0.000     1.600     1.978
 201   7 N     -0.417  1.290  4.127  0.000    30.858     8.250
 202   6 C      0.015  1.034  2.952  0.000    20.328     6.419
 203   6 C      0.272  1.044  2.684  0.000    22.399     7.750
 204   8 O     -0.498  1.748  4.751  0.000    23.749     6.534
 205   6 C     -0.035  1.034  3.001  0.000    21.153     6.541
 206   6 C     -0.087  1.006  3.081  0.000    22.140     6.697
 207   6 C     -0.145  0.974  3.171  0.000    23.318     6.880
 208   6 C     -0.148  0.973  3.175  0.000    23.390     6.893
 209   1 H      0.181  0.819  0.000  0.000     1.208     1.722
 210   1 H      0.060  0.940  0.000  0.000     2.199     2.319
 211   1 H      0.052  0.948  0.000  0.000     2.296     2.369
 212   1 H      0.050  0.950  0.000  0.000     2.316     2.379
 213   1 H      0.044  0.956  0.000  0.000     2.394     2.419
 214   1 H      0.049  0.951  0.000  0.000     2.331     2.387
 215   1 H      0.051  0.949  0.000  0.000     2.301     2.372
 216   1 H      0.049  0.951  0.000  0.000     2.327     2.385
 217   1 H      0.050  0.950  0.000  0.000     2.317     2.380
 218   1 H      0.048  0.952  0.000  0.000     2.339     2.392
 219   1 H      0.056  0.944  0.000  0.000     2.242     2.341
 220   7 N     -0.193  1.213  3.980  0.000    25.178     7.452
 221   6 C      0.011  1.033  2.956  0.000    20.388     6.429
 222   6 C      0.265  1.042  2.693  0.000    22.524     7.772
 223   8 O     -0.479  1.745  4.733  0.000    23.323     6.475
 224   6 C     -0.093  1.008  3.085  0.000    22.261     6.715
 225   6 C     -0.127  1.013  3.114  0.000    22.925     6.815
 226   6 C      0.281  1.039  2.680  0.000    22.241     7.722
 227   8 O     -0.508  1.763  4.745  0.000    23.963     6.563
 228   7 N     -0.313  1.201  4.112  0.000    28.053     7.866
 229   1 H      0.218  0.782  0.000  0.000     1.018     1.580
 230   1 H      0.079  0.921  0.000  0.000     1.988     2.205
 231   1 H      0.086  0.914  0.000  0.000     1.919     2.166
 232   1 H      0.084  0.916  0.000  0.000     1.938     2.177
 233   1 H      0.113  0.887  0.000  0.000     1.672     2.022
 234   1 H      0.082  0.918  0.000  0.000     1.960     2.189
 235   1 H      0.238  0.762  0.000  0.000     0.932     1.512
 236   1 H      0.237  0.763  0.000  0.000     0.934     1.513
 237   7 N     -0.179  1.207  3.973  0.000    24.887     7.409
 238   6 C      0.001  1.044  2.955  0.000    20.565     6.456
 239   6 C      0.197  1.079  2.724  0.000    23.806     7.991
 240   8 O     -0.346  1.743  4.603  0.000    20.627     6.089
 241   6 C     -0.028  1.044  2.984  0.000    21.033     6.522
 242   6 C     -0.151  0.978  3.172  0.000    23.447     6.900
 243   6 C     -0.158  0.977  3.181  0.000    23.583     6.920
 244   1 H      0.214  0.786  0.000  0.000     1.038     1.596
 245   1 H      0.113  0.887  0.000  0.000     1.671     2.021
 246   1 H      0.076  0.924  0.000  0.000     2.021     2.223
 247   1 H      0.069  0.931  0.000  0.000     2.101     2.267
 248   1 H      0.053  0.947  0.000  0.000     2.287     2.365
 249   1 H      0.057  0.943  0.000  0.000     2.230     2.335
 250   1 H      0.069  0.931  0.000  0.000     2.091     2.261
 251   1 H      0.064  0.936  0.000  0.000     2.150     2.293
 252   1 H      0.060  0.940  0.000  0.000     2.200     2.319
 253   1 H      0.174  0.826  0.000  0.000     1.249     1.750
 254   1 H      0.069  0.931  0.000  0.000     2.100     2.266
 255   1 H      0.182  0.818  0.000  0.000     1.204     1.719
 256   1 H      0.079  0.921  0.000  0.000     1.992     2.207

 Mol. C6AA /au·bohr⁶  :     584817.077697
 Mol. C8AA /au·bohr⁸  :   12936410.232222
 Mol. α(0) /au        :       1136.456155

 
molecular dipole:
                 x           y           z       tot (Debye)
 q only:      219.293     113.016     315.342
   full:      217.894     111.870     316.729    1017.705
molecular quadrupole (traceless):
                xx          xy          yy          xz          yz          zz
 q only:    -7418.760   36772.546  -59072.361  106220.599   54356.992   66491.121
  q+dip:    -8309.948   36095.650  -59353.492  106199.630   54168.808   67663.440
   full:    -8309.548   36094.292  -59354.623  106199.887   54169.058   67664.171
speedup  1.00
cpu  time for grad    3.68 s
wall time for grad    3.68 s

SCC energy    :    -407.2861082
rep           :       8.5812784
ES            :       1.5421596
AES           :      -0.0374065
AXC           :       0.0418226
disp          :      -0.3393973
XB            :       0.0000000
fix           :       0.0000000
Gborn         :       0.0000000
Gsasa         :       0.0000000
Ghb           :       0.0000000
Gshift        :       0.0000000
Gsolv         :      -0.5053108     -317.09
Etot ala COSMO:    -407.2861082
grad norm     :       2.1159457
total E       :    -398.6780200
atomizationE  :      69.2334842    43444.67
(atE without considering molecular charge,
 total energy contains solvation terms)
H-L gap (eV)  :          1.7222

------------------------------------------------------------------------
 * finished run on 2019/03/07 at 11:37:49.944     
------------------------------------------------------------------------
 total:
 * wall-time:     0 d,  0 h,  0 min,  4.266 sec
 *  cpu-time:     0 d,  0 h,  0 min,  4.118 sec
 * ratio c/w:     0.965 speedup
 SCF:
 * wall-time:     0 d,  0 h,  0 min,  4.061 sec
 *  cpu-time:     0 d,  0 h,  0 min,  4.058 sec
 * ratio c/w:     0.999 speedup

