      -----------------------------------------------------------      
     |                   =====================                   |     
     |                           x T B                           |     
     |                   =====================                   |     
     |                         S. Grimme                         |     
     |          Mulliken Center for Theoretical Chemistry        |     
     |                    University of Bonn                     |     
     |                 Version 6.0.1 (SAW181210)                 |     
      -----------------------------------------------------------      

   This program is distributed in the hope that it will be useful,
   but WITHOUT ANY WARRANTY; without even the implied warranty of
   MERCHANTABILITY or FITNESS FOR A PARTICULAR PURPOSE.
   
   FOR NON-COMMERCIAL, ACADEMIA USE ONLY.
   
   Cite this work as:
   S. Grimme, C. Bannwarth, P. Shushkov, J. Comput. Theory Chem., 2017,
   13, 1989-2009.
   C. Bannwarth, S. Ehlert and S. Grimme., ChemRxiv, 2018, preprint.
   http://doi.org/10.26434/chemrxiv.7246238.v1
   
   for sTDA-xTB:
   S. Grimme and C. Bannwarth, J. Chem. Phys., 2016, 145, 054103.
   
   in the mass-spec context:
   V. Asgeirsson, C. Bauer and S. Grimme, Chem. Sci., 2017, 8, 4879.
   
   if GBSA is used:
   P. Shushkov, F. März and S. Grimme, unpublished.
   
   for ANC optimizer:
   S. Grimme, unpublished.
   Rational Function algorithm used in ANCopt:
   F. Eckert, P. Pulay, H.-J. Werner, J. Comput. Chem., 1997, 18, 1473.
   
   with help from (in alphabetical order)
   C. Bannwarth, F. Bohle, G. Brandenburg, E. Caldeweyher, M. Checinski,
   S. Dohm, S. Ehlert, S. Ehrlich, F. März, H. Neugebauer, J. Pisarek,
   P. Pracht, P. Shushkov, and S. Spicher.
   
 * started run on 2019/03/14 at 15:08:18.291     
========================================================================
 # omp threads = 1
========================================================================
number of atoms            : 434
number of electrons        : 1132
charge                     : 1
spin                       : .0
first test random number   : .2360
           ------------------------------------------------- 
          |                 G F N 2 - x T B                 |
          | Geometry, Frequencies, Noncovalent interactions |
          |            JCTC 2018 parametrisation            |
           ------------------------------------------------- 
 
      method parameters     
 k(s)        :  1.8500
 k(p)        :  2.2300
 k(d)        :  2.2300
 k(f)        :  2.0000
 kEN (H0ij)  : -2.0000
 D4 a1       :  0.5200
 D4 a2       :  5.0000
 D4 s6       :  1.0000
 D4 s8       :  2.7000
 D4 s9       :  5.0000
 alphaj      :  2.0000

 Solvent             : h2o
 Using internal parameter file: .param_gbsa2_h2o
 Gsolv ref. state (COSMO-RS): gsolv [1 M gas/solution]
 temperature (mdtemp)       :    298.150000000000     
 dielectric constant        :    80.2000000000000     
 rho                        :    1.00000000000000     
 mass                       :    18.0000000000000     
 surface tension            :    15.5689454083859     
 probe radius               :   0.975313790000000     
 vdW radii scaling          :    1.00000000000000     
 Gshift (Eh)                :   1.857443126794793E-003
 c1                         :    1.55243817000000     
 soset                      :   0.130326360000000     
 HB correction              :  T

            Z     q(EN)     CN     RAES       Cart. coordinates
     1  N   5.0   -0.21    3.24    1.96    73.94686   115.91054    67.36438
     2  C   4.0    0.03    4.31    4.22    71.76544   116.71608    65.94866
     3  C   4.0    0.08    3.21    3.04    72.45555   118.42159    63.72235
     4  O   6.0   -0.33    1.24    1.80    71.21747   118.27175    61.75918
     5  C   4.0   -0.04    4.12    3.84    69.90228   118.09954    67.64584
     6  S   6.0   -0.07    2.38    3.10    68.37240   115.89704    69.82262
     7  H   1.0    0.08    1.03    1.43    74.03679   116.38044    69.20826
     8  H   1.0    0.04    1.06    1.44    70.84121   115.03939    65.13001
     9  H   1.0    0.04    1.06    1.44    70.85490   119.55748    68.73607
    10  H   1.0    0.05    1.07    1.44    68.44200   118.96361    66.48196
    11  H   1.0    0.05    0.98    1.43    70.02310   116.22707    71.68387
    12  N   5.0   -0.20    3.26    1.97    76.19648   114.48219    58.90366
    13  C   4.0    0.03    4.34    4.27    74.28912   112.79369    57.90998
    14  C   4.0    0.16    3.52    3.12    72.51239   114.27956    56.21285
    15  O   6.0   -0.28    1.26    1.80    71.68220   113.40697    54.22551
    16  C   4.0   -0.03    4.36    4.30    72.82428   111.65731    60.12967
    17  C   4.0   -0.01    3.58    3.16    70.27401   110.61388    59.47396
    18  C   4.0   -0.04    3.47    3.10    68.26711   110.95976    61.12713
    19  C   4.0   -0.02    3.51    3.12    69.89675   109.17913    57.31669
    20  C   4.0   -0.03    3.40    3.08    65.99547   109.76325    60.69181
    21  C   4.0   -0.03    3.37    3.07    67.63175   107.93364    56.89973
    22  C   4.0   -0.03    3.41    3.08    65.69712   108.18137    58.62687
    23  H   1.0    0.09    1.03    1.43    76.09572   114.80531    60.79193
    24  H   1.0    0.05    1.05    1.44    75.17474   111.32713    56.74922
    25  H   1.0    0.04    1.03    1.43    73.97415   110.16608    60.98164
    26  H   1.0    0.05    1.04    1.43    72.56916   113.13362    61.53766
    27  H   1.0    0.05    1.03    1.43    68.48576   112.14306    62.77527
    28  H   1.0    0.07    1.03    1.43    71.40477   109.02795    55.95658
    29  H   1.0    0.06    1.04    1.43    64.43609   110.00963    61.97013
    30  H   1.0    0.07    1.03    1.43    67.41212   106.74685    55.25881
    31  H   1.0    0.07    1.04    1.43    63.95430   107.15376    58.42179
    32  N   5.0   -0.14    3.51    2.09    71.96535   116.61307    56.95430
    33  C   4.0    0.05    4.34    4.27    70.67203   118.24952    55.20334
    34  C   4.0    0.10    3.26    3.05    72.35565   118.63802    52.89501
    35  O   6.0   -0.25    1.12    1.80    71.40624   118.99542    50.80923
    36  C   4.0    0.04    4.15    3.89    69.95208   120.79614    56.37517
    37  O   6.0   -0.24    2.04    1.83    68.07366   120.60312    58.22242
    38  H   1.0    0.11    1.11    1.45    72.35557   117.25682    58.71690
    39  H   1.0    0.07    1.05    1.44    68.93080   117.33939    54.53062
    40  H   1.0    0.05    1.01    1.43    71.67602   121.68063    57.11258
    41  H   1.0    0.06    1.02    1.43    69.16055   121.96824    54.87140
    42  H   1.0    0.15    1.06    1.44    68.75608   119.69257    59.66417
    43  N   5.0   -0.21    3.19    1.95    71.02055   101.54606    86.33756
    44  C   4.0    0.03    4.30    4.20    69.14692   103.13060    87.54390
    45  C   4.0    0.08    3.21    3.04    67.43704   101.81967    89.47089
    46  O   6.0   -0.31    1.20    1.80    66.68425   103.13829    91.24053
    47  C   4.0   -0.02    4.31    4.23    67.56291   104.70437    85.66060
    48  C   4.0   -0.05    4.18    3.95    65.76402   103.13679    84.01816
    49  C   4.0   -0.08    4.12    3.84    69.32431   106.27179    83.99375
    50  C   4.0   -0.07    4.01    3.64    63.25035   102.50843    85.27307
    51  H   1.0    0.08    1.02    1.43    71.02517   101.41452    84.42447
    52  H   1.0    0.05    1.07    1.44    70.17397   104.50708    88.71810
    53  H   1.0    0.05    1.06    1.44    66.43213   105.98948    86.82415
    54  H   1.0    0.04    1.03    1.43    65.34036   104.23446    82.32216
    55  H   1.0    0.04    1.03    1.43    66.73642   101.42193    83.43011
    56  H   1.0    0.04    1.00    1.43    68.21454   107.49064    82.76939
    57  H   1.0    0.04    1.00    1.43    70.56557   107.45704    85.11643
    58  H   1.0    0.04    1.00    1.43    70.47982   105.04146    82.82276
    59  H   1.0    0.04    1.00    1.43    62.05342   101.46330    83.97182
    60  H   1.0    0.05    1.01    1.43    63.47903   101.36511    86.95297
    61  H   1.0    0.04    1.00    1.43    62.31098   104.25260    85.81112
    62  N   5.0   -0.20    3.20    1.96    66.62412   104.24441    96.40593
    63  C   4.0    0.03    4.19    3.97    64.27320   105.30836    97.35457
    64  C   4.0    0.09    3.20    3.04    63.09845   103.85485    99.56369
    65  O   6.0   -0.29    1.12    1.80    61.62114   104.86795   101.01849
    66  C   4.0    0.04    4.17    3.94    62.37020   105.38998    95.17449
    67  O   6.0   -0.24    2.05    1.83    61.59596   102.97463    94.37873
    68  H   1.0    0.12    1.08    1.44    66.65772   103.71480    94.55450
    69  H   1.0    0.05    1.05    1.44    64.58539   107.21966    98.10170
    70  H   1.0    0.05    1.01    1.43    60.66361   106.38733    95.77531
    71  H   1.0    0.05    1.01    1.43    63.25830   106.40299    93.59388
    72  H   1.0    0.13    1.03    1.43    62.97283   101.79676    94.64158
    73  N   5.0   -0.14    3.43    2.04    63.07196   109.06421   106.87735
    74  C   4.0    0.03    4.44    4.45    60.46260   109.50845   106.15589
    75  C   4.0    0.15    3.38    3.07    60.21759   112.15003   104.97779
    76  O   6.0   -0.29    1.23    1.80    61.55183   113.92486   105.60376
    77  C   4.0   -0.04    4.29    4.17    58.91583   109.25522   108.59336
    78  C   4.0   -0.04    4.21    4.03    60.82812   109.21146   110.77340
    79  C   4.0    0.00    4.23    4.06    63.44378   108.83917   109.58528
    80  H   1.0    0.05    1.05    1.44    59.92838   108.11610   104.71680
    81  H   1.0    0.05    1.03    1.43    57.62355   110.84308   108.80053
    82  H   1.0    0.05    1.02    1.43    57.81988   107.51624   108.54330
    83  H   1.0    0.05    1.02    1.43    60.77647   110.99074   111.80281
    84  H   1.0    0.04    1.02    1.43    60.40592   107.68146   112.07968
    85  H   1.0    0.05    1.02    1.43    64.75039   110.29845   110.24788
    86  H   1.0    0.04    1.02    1.43    64.23501   106.98516   110.05110
    87  N   5.0   -0.14    3.49    2.07    58.33880   112.35564   103.29063
    88  C   4.0    0.03    4.40    4.37    57.62893   114.69724   102.07458
    89  C   4.0    0.15    3.44    3.09    54.91487   114.33824   101.16562
    90  O   6.0   -0.29    1.26    1.80    53.87033   112.27315   101.10172
    91  C   4.0   -0.04    4.33    4.25    59.44714   115.31724    99.87726
    92  C   4.0   -0.03    4.16    3.93    59.35491   118.02287    98.83799
    93  C   4.0   -0.07    4.10    3.79    60.18736   119.98462   100.78270
    94  C   4.0   -0.07    4.11    3.82    61.03102   118.20540    96.49130
    95  H   1.0    0.10    1.09    1.44    57.26421   110.84783   102.81327
    96  H   1.0    0.05    1.05    1.44    57.75891   116.20691   103.48855
    97  H   1.0    0.06    1.03    1.43    61.34779   114.97064   100.60132
    98  H   1.0    0.05    1.03    1.43    59.07401   113.98341    98.34567
    99  H   1.0    0.04    1.06    1.44    57.43229   118.44852    98.21162
   100  H   1.0    0.04    1.00    1.43    60.05903   121.87028    99.97789
   101  H   1.0    0.04    1.00    1.43    59.04272   119.93580   102.48816
   102  H   1.0    0.05    1.00    1.43    62.14018   119.64837   101.32698
   103  H   1.0    0.04    1.00    1.43    60.97487   120.11481    95.73499
   104  H   1.0    0.04    1.00    1.43    62.98710   117.75867    96.93384
   105  H   1.0    0.04    1.00    1.43    60.37630   116.89636    95.04993
   106  N   5.0   -0.14    3.51    2.08    53.75758   116.46614   100.47264
   107  C   4.0    0.03    4.50    4.54    51.18990   116.51916    99.54854
   108  C   4.0    0.15    3.45    3.09    51.00437   115.32945    96.90719
   109  O   6.0   -0.30    1.23    1.80    52.43993   115.83487    95.18137
   110  C   4.0   -0.02    4.36    4.32    50.35103   119.29822    99.41357
   111  C   4.0   -0.05    4.20    4.00    50.49861   120.54737   102.02375
   112  C   4.0   -0.08    4.15    3.90    47.68348   119.48643    98.34889
   113  C   4.0   -0.08    4.01    3.65    50.19084   123.41154   101.91459
   114  H   1.0    0.07    1.08    1.44    54.76747   118.07960   100.39371
   115  H   1.0    0.05    1.05    1.44    50.03861   115.40597   100.86227
   116  H   1.0    0.05    1.06    1.44    51.68130   120.21953    98.11687
   117  H   1.0    0.04    1.03    1.43    49.03793   119.73719   103.23100
   118  H   1.0    0.04    1.03    1.43    52.31308   120.13601   102.90817
   119  H   1.0    0.04    1.01    1.43    47.19871   121.45563    98.12997
   120  H   1.0    0.04    1.02    1.43    47.62461   118.57531    96.51513
   121  H   1.0    0.04    1.00    1.43    46.34520   118.60185    99.63075
   122  H   1.0    0.05    1.00    1.43    50.72361   124.21120   103.72879
   123  H   1.0    0.04    1.00    1.43    51.41747   124.21137   100.47360
   124  H   1.0    0.04    1.00    1.43    48.24671   123.94547   101.55607
   125  N   5.0   -0.15    3.37    2.01    48.92570   113.87109    96.59107
   126  C   4.0    0.02    4.25    4.09    48.57088   112.43114    94.28993
   127  C   4.0    0.15    3.37    3.07    48.08594   114.06799    91.97581
   128  O   6.0   -0.32    1.35    1.80    48.87474   113.43195    89.88974
   129  H   1.0    0.08    1.07    1.44    48.07835   113.17847    98.15252
   130  H   1.0    0.06    1.02    1.43    50.23996   111.27269    93.87610
   131  H   1.0    0.04    1.03    1.43    46.94098   111.18961    94.52692
   132  N   5.0   -0.15    3.46    2.05    46.76459   116.20231    92.29537
   133  C   4.0    0.03    4.39    4.36    45.95624   117.64037    90.08100
   134  C   4.0    0.16    3.46    3.10    48.20239   118.15829    88.30907
   135  O   6.0   -0.31    1.25    1.80    47.97619   117.91202    86.02500
   136  C   4.0   -0.05    4.23    4.06    44.43219   119.99108    90.84629
   137  C   4.0   -0.05    4.17    3.94    45.94775   122.11848    92.08440
   138  C   4.0   -0.05    4.15    3.91    44.25862   124.32924    92.90403
   139  C   4.0   -0.04    4.10    3.80    42.90927   123.91000    95.42829
   140  N   5.0   -0.12    4.01    2.88    44.24757   125.22137    97.55417
   141  H   1.0    0.07    1.07    1.44    45.75472   116.43307    93.90393
   142  H   1.0    0.05    1.06    1.44    44.70123   116.44450    88.93264
   143  H   1.0    0.04    1.03    1.43    43.59234   120.74722    89.12154
   144  H   1.0    0.04    1.03    1.43    42.88770   119.34649    92.05316
   145  H   1.0    0.04    1.02    1.43    47.07374   121.42954    93.65898
   146  H   1.0    0.04    1.05    1.44    47.24575   122.82105    90.66457
   147  H   1.0    0.04    1.03    1.43    45.40785   126.03447    93.00741
   148  H   1.0    0.04    1.03    1.43    42.87637   124.65433    91.41673
   149  H   1.0    0.04    1.02    1.43    40.98010   124.61785    95.34124
   150  H   1.0    0.04    1.03    1.43    42.85157   121.90052    95.86491
   151  H   1.0    0.05    1.02    1.43    43.81118   124.37717    99.25652
   152  H   1.0    0.05    1.02    1.43    46.17800   125.14703    97.27783
   153  H   1.0    0.06    1.02    1.43    43.72780   127.09552    97.67580
   154  N   5.0   -0.14    3.52    2.09    50.39694   118.89726    89.35676
   155  C   4.0    0.04    4.45    4.46    52.55769   119.51203    87.77149
   156  C   4.0    0.16    3.43    3.09    53.52611   117.23463    86.26620
   157  O   6.0   -0.31    1.22    1.80    54.59814   117.47351    84.22802
   158  C   4.0   -0.04    4.31    4.22    54.69182   120.61043    89.39288
   159  C   4.0   -0.02    3.54    3.13    53.95031   122.93658    90.87821
   160  C   4.0   -0.05    3.46    3.10    55.57484   123.85062    92.74187
   161  C   4.0   -0.05    3.51    3.12    51.69540   124.21127    90.48181
   162  C   4.0   -0.04    3.43    3.09    54.90460   125.86948    94.25134
   163  C   4.0   -0.06    3.45    3.10    50.97445   126.19943    92.02398
   164  C   4.0    0.06    3.45    3.10    52.55664   127.01876    93.94693
   165  O   6.0   -0.25    2.11    1.84    51.86754   128.89492    95.55579
   166  H   1.0    0.09    1.06    1.44    50.66476   118.92635    91.24709
   167  H   1.0    0.06    1.06    1.44    51.96905   120.88017    86.32408
   168  H   1.0    0.05    1.03    1.43    55.33885   119.15114    90.70995
   169  H   1.0    0.05    1.03    1.43    56.28682   121.05162    88.15663
   170  H   1.0    0.05    1.03    1.43    57.40901   122.99197    92.99893
   171  H   1.0    0.05    1.04    1.43    50.47592   123.68838    88.93784
   172  H   1.0    0.06    1.03    1.43    56.17898   126.59618    95.66705
   173  H   1.0    0.04    1.03    1.43    49.20574   127.15822    91.68252
   174  H   1.0    0.11    1.04    1.43    50.34857   129.70484    94.93752
   175  N   5.0   -0.14    3.56    2.12    53.15466   114.98548    87.35777
   176  C   4.0    0.04    4.48    4.51    53.88236   112.64862    86.14707
   177  C   4.0    0.15    3.48    3.11    52.30871   112.18580    83.78206
   178  O   6.0   -0.33    1.35    1.80    53.26339   111.35213    81.82421
   179  C   4.0   -0.04    4.34    4.28    53.53870   110.43672    87.97832
   180  C   4.0   -0.03    4.07    3.74    55.10147   110.77247    90.37230
   181  S   6.0   -0.04    2.52    3.10    58.48127   111.10190    89.75887
   182  C   4.0   -0.07    3.88    3.44    59.23372   107.88334    88.86594
   183  H   1.0    0.11    1.12    1.45    51.95282   114.81971    88.83878
   184  H   1.0    0.05    1.07    1.44    55.86791   112.79049    85.55898
   185  H   1.0    0.06    1.03    1.43    51.54816   110.31003    88.50466
   186  H   1.0    0.04    1.03    1.43    54.06833   108.69084    87.01953
   187  H   1.0    0.06    1.07    1.44    54.57838   112.49569    91.37164
   188  H   1.0    0.05    1.07    1.44    54.86510   109.15195    91.62037
   189  H   1.0    0.04    1.05    1.44    61.25440   107.83128    88.52357
   190  H   1.0    0.05    1.04    1.43    58.75982   106.60799    90.40425
   191  H   1.0    0.04    1.04    1.43    58.22650   107.38198    87.14964
   192  N   5.0   -0.14    3.52    2.09    49.86674   112.73690    83.95194
   193  C   4.0    0.03    4.43    4.43    48.19655   112.37560    81.81692
   194  C   4.0    0.16    3.50    3.11    49.23434   113.69676    79.48213
   195  O   6.0   -0.33    1.32    1.80    48.81784   112.85231    77.36140
   196  C   4.0   -0.05    4.36    4.32    45.56045   113.45738    82.33206
   197  C   4.0   -0.02    4.18    3.96    44.20120   112.32176    84.62585
   198  C   4.0   -0.08    4.11    3.82    41.61654   113.58343    84.88366
   199  C   4.0   -0.07    4.11    3.83    43.86948   109.47041    84.41551
   200  H   1.0    0.10    1.08    1.44    49.12155   113.43759    85.56779
   201  H   1.0    0.05    1.06    1.44    48.08522   110.35127    81.35699
   202  H   1.0    0.06    1.03    1.43    45.74968   115.49146    82.62810
   203  H   1.0    0.04    1.03    1.43    44.42019   113.14214    80.64144
   204  H   1.0    0.05    1.05    1.44    45.31682   112.73499    86.31828
   205  H   1.0    0.04    1.00    1.43    40.63230   112.87755    86.54222
   206  H   1.0    0.04    1.00    1.43    41.81614   115.62187    85.02915
   207  H   1.0    0.04    1.00    1.43    40.46367   113.15770    83.23634
   208  H   1.0    0.04    1.00    1.43    42.90277   108.74920    86.07694
   209  H   1.0    0.04    1.00    1.43    42.73824   109.00156    82.76954
   210  H   1.0    0.04    1.00    1.43    45.67016   108.50181    84.24912
   211  N   5.0   -0.13    3.58    2.14    50.50677   115.84814    79.84627
   212  C   4.0    0.03    4.47    4.50    51.41621   117.31578    77.71349
   213  C   4.0    0.16    3.49    3.11    53.51043   115.86051    76.37633
   214  O   6.0   -0.32    1.30    1.80    53.64397   115.68289    74.07441
   215  C   4.0   -0.03    4.31    4.22    52.30639   119.94533    78.51553
   216  C   4.0   -0.01    3.57    3.15    50.43186   121.25433    80.22078
   217  C   4.0   -0.04    3.47    3.10    51.30282   123.14563    81.82307
   218  C   4.0   -0.03    3.51    3.12    47.88281   120.61504    80.29562
   219  C   4.0   -0.04    3.38    3.07    49.69337   124.29628    83.53147
   220  C   4.0   -0.03    3.38    3.07    46.27986   121.74071    82.02850
   221  C   4.0   -0.04    3.37    3.07    47.18674   123.55642    83.67353
   222  H   1.0    0.10    1.08    1.44    50.66568   116.62871    81.57897
   223  H   1.0    0.05    1.06    1.44    49.88017   117.52042    76.34326
   224  H   1.0    0.05    1.03    1.43    54.11939   119.82064    79.49844
   225  H   1.0    0.05    1.03    1.43    52.61754   121.04892    76.79422
   226  H   1.0    0.05    1.03    1.43    53.25874   123.72334    81.72337
   227  H   1.0    0.05    1.03    1.43    47.10958   119.23182    79.01094
   228  H   1.0    0.04    1.03    1.43    50.41928   125.76755    84.74249
   229  H   1.0    0.05    1.03    1.43    44.31795   121.18131    82.07934
   230  H   1.0    0.04    1.03    1.43    45.93787   124.40962    85.03859
   231  N   5.0   -0.14    3.54    2.11    55.19958   114.77684    77.91070
   232  C   4.0    0.04    4.48    4.51    57.16221   113.23018    76.80751
   233  C   4.0    0.17    3.51    3.12    55.92997   111.11841    75.27940
   234  O   6.0   -0.32    1.30    1.80    56.68783   110.57747    73.15877
   235  C   4.0    0.05    4.21    4.02    59.04882   112.17645    78.77908
   236  O   6.0   -0.25    2.11    1.84    58.06418   110.18687    80.22523
   237  C   4.0   -0.07    4.07    3.75    60.09288   114.31152    80.42498
   238  H   1.0    0.10    1.07    1.44    54.99139   114.84593    79.80637
   239  H   1.0    0.05    1.06    1.44    58.22328   114.37540    75.43871
   240  H   1.0    0.05    1.04    1.43    60.59879   111.31942    77.70157
   241  H   1.0    0.15    1.06    1.44    56.53518   110.73268    81.10632
   242  H   1.0    0.05    1.00    1.43    61.43974   113.51986    81.75682
   243  H   1.0    0.04    1.00    1.43    61.04858   115.69304    79.24932
   244  H   1.0    0.06    1.00    1.43    58.59924   115.24279    81.48823
   245  N   5.0   -0.13    3.50    2.08    53.97077   109.96009    76.37386
   246  C   4.0    0.04    4.42    4.41    52.83417   107.80766    75.12068
   247  C   4.0    0.16    3.51    3.12    51.59797   108.66336    72.64972
   248  O   6.0   -0.33    1.35    1.80    51.91990   107.42688    70.71750
   249  C   4.0   -0.04    4.30    4.19    51.01423   106.34385    76.85682
   250  C   4.0   -0.04    4.12    3.84    48.25324   106.98118    76.37996
   251  S   6.0   -0.05    2.47    3.10    46.16400   105.84070    78.87758
   252  C   4.0   -0.07    3.89    3.45    43.28595   107.26468    77.65160
   253  H   1.0    0.11    1.09    1.44    53.51953   110.31299    78.20232
   254  H   1.0    0.05    1.06    1.44    54.36424   106.53416    74.52308
   255  H   1.0    0.04    1.03    1.43    51.31720   104.32576    76.57001
   256  H   1.0    0.05    1.04    1.43    51.49101   106.78764    78.81587
   257  H   1.0    0.06    1.10    1.44    47.99697   109.01684    76.34714
   258  H   1.0    0.04    1.07    1.44    47.59365   106.15825    74.60820
   259  H   1.0    0.04    1.04    1.44    41.79721   106.87508    79.00307
   260  H   1.0    0.04    1.04    1.43    43.58467   109.28608    77.45544
   261  H   1.0    0.04    1.03    1.43    42.81819   106.42803    75.83561
   262  N   5.0   -0.14    3.52    2.09    50.17425   110.74238    72.69014
   263  C   4.0    0.03    4.53    4.57    48.80396   111.48571    70.43825
   264  C   4.0    0.16    3.53    3.13    50.61509   112.29810    68.37496
   265  O   6.0   -0.32    1.34    1.80    50.15889   111.78489    66.15891
   266  C   4.0   -0.02    4.33    4.25    46.83809   113.60571    70.83924
   267  C   4.0   -0.04    4.23    4.05    48.12845   115.99739    71.82460
   268  C   4.0   -0.08    4.11    3.82    44.72426   112.70041    72.56896
   269  C   4.0   -0.08    4.00    3.63    46.43407   118.31246    72.08314
   270  H   1.0    0.11    1.11    1.44    49.93233   111.73944    74.30876
   271  H   1.0    0.05    1.06    1.44    47.84448   109.80822    69.66545
   272  H   1.0    0.04    1.06    1.44    46.04004   113.99445    68.96838
   273  H   1.0    0.06    1.04    1.43    49.00480   115.54338    73.62322
   274  H   1.0    0.05    1.05    1.44    49.63124   116.50526    70.51706
   275  H   1.0    0.04    1.00    1.43    43.27627   114.14600    72.70760
   276  H   1.0    0.04    1.00    1.43    43.86835   110.99467    71.80794
   277  H   1.0    0.05    1.01    1.43    45.48411   112.32102    74.43552
   278  H   1.0    0.04    1.00    1.43    47.58043   119.92245    72.65387
   279  H   1.0    0.04    1.00    1.43    45.59889   118.74331    70.25924
   280  H   1.0    0.04    1.00    1.43    44.93047   118.06178    73.45741
   281  N   5.0   -0.14    3.54    2.11    52.61420   113.66680    69.07061
   282  C   4.0    0.04    4.45    4.46    54.44954   114.35789    67.15554
   283  C   4.0    0.16    3.60    3.17    55.61395   111.91620    66.20440
   284  O   6.0   -0.33    1.49    1.80    55.39992   111.34440    63.95313
   285  C   4.0   -0.03    4.31    4.22    56.33945   116.25660    68.22562
   286  C   4.0   -0.01    3.53    3.13    58.91004   116.46898    66.99871
   287  C   4.0   -0.04    3.48    3.11    60.71497   117.91640    68.25388
   288  C   4.0   -0.03    3.50    3.12    59.60046   115.30410    64.74990
   289  C   4.0   -0.04    3.42    3.08    63.16315   118.05776    67.36446
   290  C   4.0   -0.04    3.37    3.07    62.08204   115.35827    63.90734
   291  C   4.0   -0.04    3.40    3.08    63.87432   116.70351    65.24037
   292  H   1.0    0.11    1.09    1.44    53.03509   114.00127    70.91441
   293  H   1.0    0.06    1.06    1.44    53.41999   115.13915    65.52814
   294  H   1.0    0.05    1.03    1.43    55.41181   118.10016    68.19222
   295  H   1.0    0.06    1.04    1.43    56.66106   115.75662    70.20460
   296  H   1.0    0.05    1.03    1.43    60.19941   118.96376    69.92988
   297  H   1.0    0.07    1.06    1.44    58.19406   114.37596    63.61807
   298  H   1.0    0.05    1.04    1.44    64.50112   119.21018    68.38037
   299  H   1.0    0.05    1.03    1.43    62.65457   114.36288    62.21510
   300  H   1.0    0.05    1.03    1.43    65.79544   116.69332    64.56086
   301  N   5.0   -0.14    3.52    2.09    56.77786   110.44995    67.85356
   302  C   4.0    0.04    4.50    4.54    58.11784   108.22437    66.96724
   303  C   4.0    0.17    3.55    3.14    56.30523   106.73984    65.28127
   304  O   6.0   -0.30    1.33    1.80    56.92880   106.08890    63.13395
   305  C   4.0   -0.02    4.24    4.08    59.32480   106.77869    69.19821
   306  C   4.0   -0.07    4.13    3.86    57.67733   104.66668    70.25591
   307  C   4.0   -0.07    4.11    3.81    61.88723   105.70275    68.42293
   308  H   1.0    0.11    1.10    1.44    56.90692   110.86834    69.72211
   309  H   1.0    0.05    1.06    1.44    59.65364   108.86472    65.71810
   310  H   1.0    0.06    1.06    1.44    59.62211   108.17219    70.69776
   311  H   1.0    0.04    1.00    1.43    58.59507   103.86484    71.90984
   312  H   1.0    0.06    1.01    1.43    55.83649   105.36997    70.81656
   313  H   1.0    0.05    1.00    1.43    57.43846   103.17911    68.85978
   314  H   1.0    0.04    1.00    1.43    62.74396   104.72302    70.01341
   315  H   1.0    0.05    1.00    1.43    61.65699   104.35870    66.88562
   316  H   1.0    0.04    1.00    1.43    63.16203   107.19493    67.81773
   317  N   5.0   -0.14    3.55    2.11    54.01446   106.27028    66.18435
   318  C   4.0    0.04    4.53    4.58    52.20005   104.85461    64.71611
   319  C   4.0    0.16    3.53    3.13    51.61590   106.21033    62.25824
   320  O   6.0   -0.27    1.26    1.80    51.32717   104.93550    60.34051
   321  C   4.0   -0.02    4.35    4.29    49.78439   104.29971    66.22260
   322  C   4.0   -0.04    4.21    4.01    50.36129   102.40227    68.33093
   323  C   4.0   -0.07    4.15    3.91    47.72801   103.25474    64.49465
   324  C   4.0   -0.07    4.02    3.65    48.27168   102.32734    70.30697
   325  H   1.0    0.12    1.13    1.45    53.44023   106.90328    67.89950
   326  H   1.0    0.06    1.06    1.44    53.03457   103.03957    64.13916
   327  H   1.0    0.06    1.06    1.44    49.16417   106.08676    67.05130
   328  H   1.0    0.04    1.03    1.43    50.60581   100.53331    67.49459
   329  H   1.0    0.05    1.03    1.43    52.12253   102.93711    69.24847
   330  H   1.0    0.04    1.00    1.43    46.04038   102.82948    65.57797
   331  H   1.0    0.06    1.01    1.43    47.22829   104.59343    63.02178
   332  H   1.0    0.05    1.00    1.43    48.38572   101.52396    63.60218
   333  H   1.0    0.04    1.00    1.43    48.85009   101.18841    71.91328
   334  H   1.0    0.05    1.00    1.43    47.88832   104.23853    70.95404
   335  H   1.0    0.04    1.00    1.43    46.53847   101.53897    69.54152
   336  N   5.0   -0.13    3.53    2.10    51.45354   108.71614    62.23445
   337  C   4.0    0.04    4.42    4.41    50.94173   110.00884    59.87468
   338  C   4.0    0.17    3.50    3.12    53.14764   109.69442    58.06606
   339  O   6.0   -0.26    1.27    1.80    52.82724   109.08374    55.86084
   340  C   4.0    0.04    4.15    3.90    50.32690   112.81240    60.26194
   341  O   6.0   -0.25    2.06    1.83    52.42669   114.33502    60.78595
   342  H   1.0    0.13    1.13    1.45    51.38396   109.78159    63.82814
   343  H   1.0    0.06    1.06    1.44    49.31807   109.11372    58.96828
   344  H   1.0    0.05    1.02    1.43    49.51920   113.54825    58.50860
   345  H   1.0    0.06    1.01    1.43    48.92056   112.93510    61.78472
   346  H   1.0    0.15    1.08    1.44    53.49141   113.45050    62.00416
   347  N   5.0   -0.13    3.53    2.10    55.44385   110.10973    58.98926
   348  C   4.0    0.05    4.33    4.26    57.60605   109.78497    57.36603
   349  C   4.0    0.12    3.27    3.05    57.64208   107.13110    56.25453
   350  O   6.0   -0.26    1.12    1.80    58.43894   106.78663    54.10443
   351  C   4.0    0.04    4.16    3.92    59.99785   110.33592    58.88905
   352  O   6.0   -0.26    2.10    1.84    60.63931   108.47271    60.63740
   353  H   1.0    0.12    1.14    1.45    55.69874   110.46854    60.85052
   354  H   1.0    0.07    1.05    1.44    57.50192   111.08989    55.75357
   355  H   1.0    0.05    1.02    1.43    61.61975   110.47802    57.61601
   356  H   1.0    0.04    1.01    1.43    59.67650   112.17380    59.80160
   357  H   1.0    0.16    1.08    1.44    59.20359   107.86475    61.63369
   358  N   5.0   -0.21    3.22    1.96    49.66983   127.62976    59.34731
   359  C   4.0    0.03    4.31    4.21    49.69303   125.99260    61.54063
   360  C   4.0    0.08    3.24    3.04    51.83149   126.77627    63.30608
   361  O   6.0   -0.33    1.23    1.80    51.53074   126.82212    65.61227
   362  C   4.0   -0.02    4.33    4.26    49.99963   123.22592    60.71031
   363  C   4.0   -0.05    4.18    3.97    47.73567   122.29669    59.15206
   364  C   4.0   -0.07    4.13    3.86    50.47453   121.49347    62.96302
   365  C   4.0   -0.07    4.02    3.65    45.17144   122.49763    60.43995
   366  H   1.0    0.08    1.03    1.43    49.85905   126.81472    57.62080
   367  H   1.0    0.05    1.05    1.44    47.93305   126.26091    62.61149
   368  H   1.0    0.04    1.06    1.44    51.65832   123.17226    59.47364
   369  H   1.0    0.04    1.03    1.43    47.66852   123.36796    57.39892
   370  H   1.0    0.04    1.03    1.43    48.09331   120.32337    58.67015
   371  H   1.0    0.05    1.00    1.43    50.62326   119.55465    62.30138
   372  H   1.0    0.05    1.00    1.43    52.21686   121.99206    63.92794
   373  H   1.0    0.05    1.00    1.43    48.92962   121.64193    64.30403
   374  H   1.0    0.05    1.00    1.43    43.72825   121.80266    59.15571
   375  H   1.0    0.04    1.00    1.43    45.09290   121.38763    62.16382
   376  H   1.0    0.04    1.00    1.43    44.72888   124.45130    60.88825
   377  N   5.0   -0.20    3.22    1.96    51.42818   129.50999    70.02856
   378  C   4.0    0.03    4.18    3.96    52.73193   128.17353    72.03015
   379  C   4.0    0.08    3.21    3.04    54.54605   129.98093    73.36657
   380  O   6.0   -0.29    1.12    1.80    54.75098   129.99989    75.67733
   381  C   4.0    0.04    4.15    3.90    54.19422   125.89873    70.96499
   382  O   6.0   -0.26    2.04    1.83    52.61243   124.03867    69.96204
   383  H   1.0    0.12    1.07    1.44    51.82308   129.01066    68.21565
   384  H   1.0    0.05    1.05    1.44    51.35823   127.51538    73.43754
   385  H   1.0    0.05    1.01    1.43    55.54286   126.59581    69.54826
   386  H   1.0    0.05    1.02    1.43    55.25213   125.00793    72.49947
   387  H   1.0    0.15    1.06    1.44    51.80287   124.72219    68.45893
   388  N   5.0   -0.19    3.22    1.96    50.23842   133.94429    76.81707
   389  C   4.0    0.03    4.14    3.88    49.58107   132.69597    79.16234
   390  C   4.0    0.09    3.20    3.04    51.69725   133.25957    81.06082
   391  O   6.0   -0.32    1.17    1.80    51.26314   134.14892    83.15258
   392  C   4.0   -0.07    4.10    3.80    49.25173   129.88577    78.66108
   393  H   1.0    0.09    1.03    1.43    49.82978   132.99152    75.19632
   394  H   1.0    0.05    1.05    1.44    47.84098   133.55514    79.91599
   395  H   1.0    0.04    1.00    1.43    48.69087   128.90219    80.37016
   396  H   1.0    0.04    1.00    1.43    47.82756   129.58492    77.20865
   397  H   1.0    0.06    1.01    1.43    51.03604   129.11738    77.99755
   398  N   5.0   -0.20    3.25    1.97    50.75459   137.87906    87.08001
   399  C   4.0    0.03    4.33    4.26    51.61377   136.75110    89.40573
   400  C   4.0    0.09    3.21    3.04    53.81377   138.33075    90.43986
   401  O   6.0   -0.27    1.12    1.80    53.91668   138.77579    92.71984
   402  C   4.0   -0.02    4.33    4.25    52.12068   133.93437    88.95039
   403  C   4.0   -0.04    4.20    4.01    49.53666   132.63967    88.65106
   404  C   4.0   -0.06    4.12    3.84    53.70561   132.83464    91.08528
   405  C   4.0   -0.08    4.01    3.64    49.65349   130.06801    87.36459
   406  H   1.0    0.12    1.06    1.44    51.02079   136.86062    85.47481
   407  H   1.0    0.05    1.06    1.44    50.11739   136.93683    90.83992
   408  H   1.0    0.06    1.06    1.44    53.19170   133.77236    87.19285
   409  H   1.0    0.04    1.03    1.43    48.67964   132.48691    90.51903
   410  H   1.0    0.05    1.04    1.43    48.35233   133.86950    87.49816
   411  H   1.0    0.05    1.00    1.43    53.91700   130.80466    90.86878
   412  H   1.0    0.05    1.00    1.43    55.58650   133.67580    91.06800
   413  H   1.0    0.06    1.00    1.43    52.87030   133.25793    92.91388
   414  H   1.0    0.04    1.00    1.43    47.81520   129.15603    87.46154
   415  H   1.0    0.05    1.01    1.43    50.15293   130.32259    85.39411
   416  H   1.0    0.04    1.01    1.43    51.07269   128.87160    88.23090
   417  H   1.0    0.09    1.07    1.44    74.04768   114.21303    67.33489
   418  H   1.0    0.06    1.04    1.43    73.89489   119.63670    63.87361
   419  H   1.0    0.10    1.07    1.44    77.74009   113.83360    58.60505
   420  H   1.0    0.07    1.05    1.44    74.23594   118.60168    53.08007
   421  H   1.0    0.10    1.07    1.44    72.57709   102.10586    86.73299
   422  H   1.0    0.05    1.04    1.43    66.99170    99.99620    89.25256
   423  H   1.0    0.10    1.07    1.44    67.87379   105.38512    96.57816
   424  H   1.0    0.06    1.05    1.44    63.53681   102.03734    99.83857
   425  H   1.0    0.09    1.12    1.45    63.66897   107.70831   106.04207
   426  H   1.0    0.08    1.05    1.44    57.01651   105.67001    57.27675
   427  H   1.0    0.10    1.07    1.44    48.19308   128.47092    59.28233
   428  H   1.0    0.06    1.05    1.44    53.51295   127.26423    62.59500
   429  H   1.0    0.10    1.07    1.44    49.75042   129.28760    70.19653
   430  H   1.0    0.06    1.05    1.44    55.59810   131.18222    72.35606
   431  H   1.0    0.10    1.07    1.44    49.40697   135.42402    76.70911
   432  H   1.0    0.07    1.05    1.44    53.49573   132.90051    80.60516
   433  H   1.0    0.10    1.07    1.44    49.08034   138.16371    87.17166
   434  H   1.0    0.06    1.04    1.43    55.14147   138.98487    89.26497

  Z AO/shell   Hii/eV     exponent
  1     Wed Apr 25 08:07:45 CEST 2018   EN: 2.200 GM2: 0.406  GM3: 0.0800  RAES: 1.40
     1s    -10.707211    1.230000
  6     Wed Apr 25 08:07:45 CEST 2018   EN: 2.550 GM2: 0.538  GM3: 0.1500  RAES: 3.00
     2s    -13.970922    2.096432
     2p    -10.063292    1.800000
  7     Wed Apr 25 08:07:45 CEST 2018   EN: 3.040 GM2: 0.461  GM3:-0.0640  RAES: 1.90
     2s    -16.686243    2.339881
     2p    -12.523956    2.014332
  8     Wed Apr 25 08:07:45 CEST 2018   EN: 3.440 GM2: 0.452  GM3:-0.0517  RAES: 1.80
     2s    -20.229985    2.439742
     2p    -15.503117    2.137023
 16     Tue Apr 24 11:44:34 CEST 2018   EN: 2.580 GM2: 0.340  GM3:-0.0502  RAES: 3.10
     3s    -20.029654    1.981333
     3p    -11.377694    2.025643
     3d     -0.420282    1.702555
 no old-style atom pair restraining (fixing) potential

molecular fragmentation (1/2 indicates fragments):
111111111112222222222222222222222222222222222222222222222222222222222222
222222222222222222222222222222222222222222222222222222222222222222222222
222222222222222222222222222222222222222222222222222222222222222222222222
222222222222222222222222222222222222222222222222222222222222222222222222
222222222222222222222222222222222222222222222222222222222222222222222222
222222222222222222222222222222222222222222222222222222221122222222222222
22
# atoms in fragment 1/2:    13   421
 fragment masses (1/2) :      105.15     2778.54
CMA distance (Bohr)    :  19.912
constraining FC (au)   :  0.0500
           ------------------------------------------------- 
          |        Self-Consistent Charge Iterations        |
           ------------------------------------------------- 

 Ncao       : 1052
 Nao        : 1049
 Nshell     : 637
 Nel        : 1132
 T(el)      :   500.0
 intcut     :    35.0
 scfconv/Eh :  0.100E-06
   qconv/e  :  0.100E-04
 intneglect :  0.100E-08
 broydamp   :      0.400
 iter      E             dE          RMSdq      gap      omega  full diag
   1   -641.9019396 -0.641902E+03  0.444E+00    2.72       0.0  T
   2   -643.2030650 -0.130113E+01  0.213E+00    1.36       1.0  T
   3   -643.2685136 -0.654486E-01  0.117E+00    1.38       1.0  T
   4   -643.3755008 -0.106987E+00  0.244E-01    0.79       1.0  T
   5   -643.3803871 -0.488638E-02  0.114E-01    0.98       1.0  T
   6   -643.3813807 -0.993561E-03  0.498E-02    0.97       1.0  T
   7   -643.3816574 -0.276675E-03  0.228E-02    0.96       1.0  T
   8   -643.3816919 -0.344922E-04  0.105E-02    0.96       1.0  T
   9   -643.3817016 -0.973985E-05  0.492E-03    0.96       1.0  T
  10   -643.3817035 -0.186805E-05  0.212E-03    0.96       2.3  T
  11   -643.3817038 -0.292451E-06  0.104E-03    0.96       4.6  T
  12   -643.3817038 -0.691178E-07  0.475E-04    0.96      10.1  T
  13   -643.3817039 -0.286826E-07  0.232E-04    0.96      20.7  T
  14   -643.3817039 -0.393777E-08  0.104E-04    0.96      46.3  T
  15   -643.3817039 -0.857085E-09  0.478E-05    0.96     100.5  T
  16   -643.3817039 -0.178147E-09  0.226E-05    0.96     212.2  T
speedup  1.00
cpu  time for SCC    8.75 s
wall time for SCC    8.75 s

   *** convergence criteria satisfied after 16 iterations ***

          eigenvalues
 #    :         554        555        556        557        558        559        560        561
 occ. :        2.000      2.000      2.000      2.000      2.000      2.000      2.000      2.000
 eps  :       -10.533    -10.362    -10.240    -10.138    -10.118    -10.094    -10.045     -9.962
 #    :         562        563        564        565        566        567        568        569
 occ. :        2.000      2.000      2.000      2.000      2.000      0.000      0.000      0.000
 eps  :        -9.911     -9.887     -9.790     -9.641     -9.409     -8.449     -8.043     -7.950
 #    :         570        571        572        573        574        575        576        577
 occ. :        0.000      0.000      0.000      0.000      0.000      0.000      0.000      0.000
 eps  :        -7.911     -7.833     -7.736     -7.722     -7.704     -7.507     -6.897     -6.831


   #   Z            q   n(s)   n(p)   n(d)      C6AA      α(0)
   1   7 N     -0.386  1.305  4.081  0.000    29.976     8.131
   2   6 C      0.047  1.051  2.903  0.000    19.778     6.329
   3   6 C      0.189  1.099  2.711  0.000    23.948     8.014
   4   8 O     -0.374  1.747  4.627  0.000    21.165     6.168
   5   6 C     -0.014  1.068  2.946  0.000    20.833     6.498
   6  16 S     -0.290  1.948  4.297  0.045   153.596    20.859
   7   1 H      0.177  0.823  0.000  0.000     1.233     1.739
   8   1 H      0.053  0.947  0.000  0.000     2.277     2.360
   9   1 H      0.078  0.922  0.000  0.000     2.000     2.211
  10   1 H      0.061  0.939  0.000  0.000     2.189     2.314
  11   1 H      0.200  0.800  0.000  0.000     1.099     1.639
  12   7 N     -0.397  1.323  4.074  0.000    30.292     8.174
  13   6 C      0.035  1.054  2.912  0.000    20.005     6.370
  14   6 C      0.274  1.045  2.681  0.000    22.368     7.746
  15   8 O     -0.522  1.764  4.758  0.000    24.269     6.605
  16   6 C     -0.074  1.057  3.016  0.000    21.899     6.660
  17   6 C      0.004  1.080  2.916  0.000    27.927     8.668
  18   6 C     -0.043  1.078  2.965  0.000    29.074     8.843
  19   6 C     -0.036  1.079  2.958  0.000    28.908     8.817
  20   6 C     -0.035  1.081  2.953  0.000    28.860     8.810
  21   6 C     -0.033  1.079  2.954  0.000    28.819     8.803
  22   6 C     -0.038  1.082  2.956  0.000    28.941     8.822
  23   1 H      0.165  0.835  0.000  0.000     1.305     1.790
  24   1 H      0.039  0.961  0.000  0.000     2.468     2.457
  25   1 H      0.061  0.939  0.000  0.000     2.189     2.314
  26   1 H      0.052  0.948  0.000  0.000     2.293     2.368
  27   1 H      0.035  0.965  0.000  0.000     2.516     2.481
  28   1 H      0.030  0.970  0.000  0.000     2.592     2.518
  29   1 H      0.047  0.953  0.000  0.000     2.359     2.402
  30   1 H      0.021  0.979  0.000  0.000     2.724     2.581
  31   1 H      0.038  0.962  0.000  0.000     2.473     2.459
  32   7 N     -0.175  1.240  3.935  0.000    24.788     7.395
  33   6 C      0.018  1.060  2.922  0.000    20.271     6.410
  34   6 C      0.203  1.087  2.710  0.000    23.687     7.971
  35   8 O     -0.372  1.758  4.613  0.000    21.121     6.162
  36   6 C      0.075  1.035  2.890  0.000    19.539     6.332
  37   8 O     -0.461  1.716  4.744  0.000    22.060     6.340
  38   1 H      0.236  0.764  0.000  0.000     0.938     1.517
  39   1 H      0.092  0.908  0.000  0.000     1.862     2.134
  40   1 H      0.053  0.947  0.000  0.000     2.284     2.364
  41   1 H      0.069  0.931  0.000  0.000     2.100     2.266
  42   1 H      0.341  0.659  0.000  0.000     0.609     1.226
  43   7 N     -0.390  1.308  4.081  0.000    30.090     8.147
  44   6 C      0.038  1.059  2.903  0.000    19.954     6.363
  45   6 C      0.198  1.094  2.708  0.000    23.775     7.985
  46   8 O     -0.386  1.748  4.638  0.000    21.398     6.202
  47   6 C     -0.016  1.068  2.949  0.000    20.830     6.492
  48   6 C     -0.069  1.050  3.018  0.000    21.813     6.649
  49   6 C     -0.115  1.041  3.074  0.000    22.755     6.801
  50   6 C     -0.109  1.036  3.073  0.000    22.651     6.787
  51   1 H      0.163  0.837  0.000  0.000     1.314     1.796
  52   1 H      0.054  0.946  0.000  0.000     2.277     2.360
  53   1 H      0.038  0.962  0.000  0.000     2.472     2.459
  54   1 H      0.051  0.949  0.000  0.000     2.311     2.377
  55   1 H      0.044  0.956  0.000  0.000     2.394     2.420
  56   1 H      0.051  0.949  0.000  0.000     2.310     2.377
  57   1 H      0.045  0.955  0.000  0.000     2.386     2.416
  58   1 H      0.045  0.955  0.000  0.000     2.383     2.414
  59   1 H      0.046  0.954  0.000  0.000     2.368     2.406
  60   1 H      0.033  0.967  0.000  0.000     2.548     2.496
  61   1 H      0.038  0.962  0.000  0.000     2.473     2.459
  62   7 N     -0.412  1.319  4.093  0.000    30.705     8.230
  63   6 C      0.027  1.057  2.915  0.000    20.137     6.393
  64   6 C      0.203  1.090  2.707  0.000    23.685     7.970
  65   8 O     -0.381  1.753  4.628  0.000    21.306     6.189
  66   6 C      0.085  1.038  2.877  0.000    19.366     6.302
  67   8 O     -0.477  1.718  4.759  0.000    22.400     6.389
  68   1 H      0.196  0.804  0.000  0.000     1.125     1.661
  69   1 H      0.058  0.942  0.000  0.000     2.228     2.334
  70   1 H      0.047  0.953  0.000  0.000     2.363     2.404
  71   1 H      0.049  0.951  0.000  0.000     2.330     2.387
  72   1 H      0.332  0.668  0.000  0.000     0.632     1.248
  73   7 N     -0.286  1.284  4.002  0.000    27.372     7.770
  74   6 C      0.026  1.065  2.909  0.000    20.143     6.390
  75   6 C      0.272  1.048  2.681  0.000    22.408     7.751
  76   8 O     -0.481  1.746  4.735  0.000    23.371     6.482
  77   6 C     -0.059  1.054  3.005  0.000    21.621     6.618
  78   6 C     -0.063  1.053  3.009  0.000    21.690     6.629
  79   6 C      0.017  1.046  2.937  0.000    20.357     6.435
  80   1 H      0.026  0.974  0.000  0.000     2.650     2.546
  81   1 H      0.037  0.963  0.000  0.000     2.486     2.466
  82   1 H      0.044  0.956  0.000  0.000     2.395     2.420
  83   1 H      0.042  0.958  0.000  0.000     2.422     2.433
  84   1 H      0.042  0.958  0.000  0.000     2.422     2.434
  85   1 H      0.035  0.965  0.000  0.000     2.521     2.483
  86   1 H      0.018  0.982  0.000  0.000     2.760     2.598
  87   7 N     -0.190  1.243  3.947  0.000    25.110     7.442
  88   6 C      0.019  1.062  2.919  0.000    20.257     6.409
  89   6 C      0.270  1.041  2.689  0.000    22.441     7.758
  90   8 O     -0.499  1.751  4.748  0.000    23.752     6.534
  91   6 C     -0.071  1.058  3.013  0.000    21.849     6.654
  92   6 C     -0.014  1.059  2.955  0.000    20.786     6.485
  93   6 C     -0.117  1.040  3.077  0.000    22.795     6.808
  94   6 C     -0.115  1.041  3.073  0.000    22.744     6.799
  95   1 H      0.202  0.798  0.000  0.000     1.098     1.642
  96   1 H      0.069  0.931  0.000  0.000     2.094     2.263
  97   1 H      0.054  0.946  0.000  0.000     2.265     2.353
  98   1 H      0.041  0.959  0.000  0.000     2.431     2.438
  99   1 H      0.045  0.955  0.000  0.000     2.379     2.412
 100   1 H      0.055  0.945  0.000  0.000     2.258     2.350
 101   1 H      0.035  0.965  0.000  0.000     2.512     2.479
 102   1 H      0.039  0.961  0.000  0.000     2.460     2.453
 103   1 H      0.051  0.949  0.000  0.000     2.307     2.375
 104   1 H      0.036  0.964  0.000  0.000     2.504     2.475
 105   1 H      0.042  0.958  0.000  0.000     2.421     2.433
 106   7 N     -0.168  1.240  3.928  0.000    24.635     7.372
 107   6 C      0.011  1.068  2.922  0.000    20.395     6.430
 108   6 C      0.275  1.047  2.679  0.000    22.357     7.743
 109   8 O     -0.462  1.745  4.717  0.000    22.959     6.424
 110   6 C     -0.035  1.069  2.966  0.000    21.163     6.542
 111   6 C     -0.071  1.051  3.020  0.000    21.858     6.656
 112   6 C     -0.149  1.044  3.105  0.000    23.423     6.900
 113   6 C     -0.126  1.040  3.086  0.000    22.971     6.835
 114   1 H      0.211  0.789  0.000  0.000     1.052     1.606
 115   1 H      0.069  0.931  0.000  0.000     2.094     2.263
 116   1 H      0.061  0.939  0.000  0.000     2.187     2.312
 117   1 H      0.053  0.947  0.000  0.000     2.279     2.361
 118   1 H      0.027  0.973  0.000  0.000     2.629     2.535
 119   1 H      0.089  0.911  0.000  0.000     1.891     2.151
 120   1 H      0.051  0.949  0.000  0.000     2.306     2.375
 121   1 H      0.072  0.928  0.000  0.000     2.069     2.249
 122   1 H      0.040  0.960  0.000  0.000     2.448     2.447
 123   1 H      0.054  0.946  0.000  0.000     2.273     2.358
 124   1 H      0.064  0.936  0.000  0.000     2.151     2.293
 125   7 N     -0.185  1.253  3.932  0.000    25.011     7.428
 126   6 C     -0.032  1.048  2.983  0.000    21.211     6.570
 127   6 C      0.274  1.042  2.684  0.000    22.360     7.743
 128   8 O     -0.496  1.746  4.750  0.000    23.688     6.525
 129   1 H      0.221  0.779  0.000  0.000     1.006     1.571
 130   1 H      0.075  0.925  0.000  0.000     2.032     2.229
 131   1 H      0.104  0.896  0.000  0.000     1.745     2.066
 132   7 N     -0.178  1.259  3.920  0.000    24.860     7.405
 133   6 C      0.009  1.069  2.923  0.000    20.440     6.438
 134   6 C      0.276  1.042  2.682  0.000    22.325     7.737
 135   8 O     -0.484  1.750  4.734  0.000    23.429     6.490
 136   6 C     -0.091  1.060  3.031  0.000    22.231     6.713
 137   6 C     -0.100  1.053  3.046  0.000    22.403     6.739
 138   6 C     -0.099  1.054  3.045  0.000    22.383     6.736
 139   6 C     -0.059  1.063  2.996  0.000    21.735     6.656
 140   7 N     -0.138  1.229  3.909  0.000    23.972     7.272
 141   1 H      0.235  0.765  0.000  0.000     0.945     1.523
 142   1 H      0.080  0.920  0.000  0.000     1.979     2.200
 143   1 H      0.074  0.926  0.000  0.000     2.044     2.236
 144   1 H      0.085  0.915  0.000  0.000     1.924     2.169
 145   1 H      0.071  0.929  0.000  0.000     2.072     2.251
 146   1 H      0.065  0.935  0.000  0.000     2.137     2.286
 147   1 H      0.088  0.912  0.000  0.000     1.901     2.156
 148   1 H      0.088  0.912  0.000  0.000     1.896     2.153
 149   1 H      0.125  0.875  0.000  0.000     1.577     1.964
 150   1 H      0.125  0.875  0.000  0.000     1.575     1.962
 151   1 H      0.291  0.709  0.000  0.000     0.739     1.347
 152   1 H      0.278  0.722  0.000  0.000     0.783     1.386
 153   1 H      0.300  0.700  0.000  0.000     0.713     1.323
 154   7 N     -0.177  1.240  3.936  0.000    24.825     7.400
 155   6 C      0.018  1.061  2.921  0.000    20.281     6.413
 156   6 C      0.272  1.045  2.683  0.000    22.396     7.750
 157   8 O     -0.503  1.749  4.755  0.000    23.860     6.549
 158   6 C     -0.074  1.053  3.021  0.000    21.905     6.662
 159   6 C     -0.001  1.078  2.923  0.000    28.046     8.687
 160   6 C     -0.039  1.082  2.957  0.000    28.966     8.826
 161   6 C     -0.050  1.080  2.970  0.000    29.240     8.868
 162   6 C     -0.059  1.075  2.984  0.000    29.456     8.900
 163   6 C     -0.084  1.079  3.006  0.000    30.115     8.999
 164   6 C      0.144  1.043  2.814  0.000    24.868     8.173
 165   8 O     -0.424  1.722  4.702  0.000    21.324     6.234
 166   1 H      0.215  0.785  0.000  0.000     1.035     1.593
 167   1 H      0.083  0.917  0.000  0.000     1.949     2.183
 168   1 H      0.062  0.938  0.000  0.000     2.179     2.308
 169   1 H      0.062  0.938  0.000  0.000     2.170     2.304
 170   1 H      0.031  0.969  0.000  0.000     2.569     2.506
 171   1 H      0.055  0.945  0.000  0.000     2.262     2.352
 172   1 H      0.043  0.957  0.000  0.000     2.404     2.425
 173   1 H      0.077  0.923  0.000  0.000     2.012     2.218
 174   1 H      0.346  0.654  0.000  0.000     0.598     1.215
 175   7 N     -0.187  1.250  3.937  0.000    25.044     7.432
 176   6 C      0.027  1.056  2.917  0.000    20.122     6.387
 177   6 C      0.268  1.046  2.686  0.000    22.481     7.765
 178   8 O     -0.511  1.740  4.771  0.000    24.026     6.572
 179   6 C     -0.074  1.053  3.020  0.000    21.886     6.656
 180   6 C     -0.014  1.064  2.950  0.000    20.835     6.500
 181  16 S     -0.220  1.917  4.255  0.048   150.448    20.644
 182   6 C     -0.053  1.051  3.002  0.000    21.595     6.629
 183   1 H      0.224  0.776  0.000  0.000     0.991     1.560
 184   1 H      0.080  0.920  0.000  0.000     1.979     2.200
 185   1 H      0.081  0.919  0.000  0.000     1.969     2.194
 186   1 H      0.057  0.943  0.000  0.000     2.232     2.336
 187   1 H      0.072  0.928  0.000  0.000     2.062     2.245
 188   1 H      0.055  0.945  0.000  0.000     2.255     2.348
 189   1 H      0.053  0.947  0.000  0.000     2.282     2.362
 190   1 H      0.054  0.946  0.000  0.000     2.275     2.358
 191   1 H      0.054  0.946  0.000  0.000     2.267     2.354
 192   7 N     -0.163  1.242  3.921  0.000    24.536     7.357
 193   6 C      0.022  1.060  2.919  0.000    20.210     6.401
 194   6 C      0.277  1.044  2.679  0.000    22.306     7.735
 195   8 O     -0.493  1.733  4.759  0.000    23.619     6.516
 196   6 C     -0.077  1.058  3.018  0.000    21.952     6.669
 197   6 C     -0.011  1.057  2.954  0.000    20.732     6.476
 198   6 C     -0.121  1.043  3.078  0.000    22.867     6.818
 199   6 C     -0.122  1.040  3.082  0.000    22.887     6.821
 200   1 H      0.231  0.769  0.000  0.000     0.962     1.537
 201   1 H      0.085  0.915  0.000  0.000     1.931     2.173
 202   1 H      0.070  0.930  0.000  0.000     2.082     2.257
 203   1 H      0.059  0.941  0.000  0.000     2.211     2.325
 204   1 H      0.039  0.961  0.000  0.000     2.456     2.451
 205   1 H      0.052  0.948  0.000  0.000     2.293     2.368
 206   1 H      0.050  0.950  0.000  0.000     2.320     2.382
 207   1 H      0.043  0.957  0.000  0.000     2.412     2.429
 208   1 H      0.047  0.953  0.000  0.000     2.364     2.404
 209   1 H      0.044  0.956  0.000  0.000     2.393     2.419
 210   1 H      0.038  0.962  0.000  0.000     2.482     2.464
 211   7 N     -0.171  1.239  3.932  0.000    24.709     7.383
 212   6 C      0.022  1.058  2.920  0.000    20.199     6.399
 213   6 C      0.272  1.042  2.685  0.000    22.398     7.751
 214   8 O     -0.485  1.740  4.746  0.000    23.461     6.494
 215   6 C     -0.078  1.053  3.024  0.000    21.973     6.672
 216   6 C      0.010  1.081  2.909  0.000    27.780     8.645
 217   6 C     -0.041  1.081  2.960  0.000    29.023     8.835
 218   6 C     -0.041  1.078  2.964  0.000    29.024     8.835
 219   6 C     -0.040  1.080  2.960  0.000    28.982     8.828
 220   6 C     -0.027  1.081  2.946  0.000    28.682     8.782
 221   6 C     -0.036  1.079  2.957  0.000    28.895     8.815
 222   1 H      0.210  0.790  0.000  0.000     1.057     1.610
 223   1 H      0.085  0.915  0.000  0.000     1.925     2.169
 224   1 H      0.065  0.935  0.000  0.000     2.143     2.289
 225   1 H      0.069  0.931  0.000  0.000     2.101     2.267
 226   1 H      0.034  0.966  0.000  0.000     2.534     2.489
 227   1 H      0.029  0.971  0.000  0.000     2.602     2.523
 228   1 H      0.054  0.946  0.000  0.000     2.268     2.355
 229   1 H      0.045  0.955  0.000  0.000     2.386     2.416
 230   1 H      0.055  0.945  0.000  0.000     2.257     2.349
 231   7 N     -0.175  1.240  3.935  0.000    24.790     7.395
 232   6 C      0.008  1.067  2.925  0.000    20.446     6.437
 233   6 C      0.280  1.041  2.679  0.000    22.260     7.727
 234   8 O     -0.496  1.736  4.759  0.000    23.685     6.525
 235   6 C      0.114  1.045  2.842  0.000    18.818     6.194
 236   8 O     -0.486  1.722  4.764  0.000    22.585     6.415
 237   6 C     -0.140  1.045  3.095  0.000    23.255     6.877
 238   1 H      0.214  0.786  0.000  0.000     1.035     1.594
 239   1 H      0.075  0.925  0.000  0.000     2.028     2.227
 240   1 H      0.052  0.948  0.000  0.000     2.301     2.372
 241   1 H      0.328  0.672  0.000  0.000     0.643     1.259
 242   1 H      0.072  0.928  0.000  0.000     2.064     2.247
 243   1 H      0.060  0.940  0.000  0.000     2.197     2.318
 244   1 H      0.060  0.940  0.000  0.000     2.196     2.317
 245   7 N     -0.183  1.253  3.930  0.000    24.968     7.421
 246   6 C      0.023  1.062  2.915  0.000    20.184     6.397
 247   6 C      0.276  1.043  2.681  0.000    22.325     7.738
 248   8 O     -0.493  1.737  4.756  0.000    23.619     6.516
 249   6 C     -0.071  1.053  3.017  0.000    21.832     6.649
 250   6 C     -0.019  1.067  2.952  0.000    20.920     6.513
 251  16 S     -0.217  1.917  4.251  0.048   150.292    20.634
 252   6 C     -0.061  1.056  3.005  0.000    21.747     6.652
 253   1 H      0.229  0.771  0.000  0.000     0.970     1.543
 254   1 H      0.075  0.925  0.000  0.000     2.037     2.232
 255   1 H      0.066  0.934  0.000  0.000     2.126     2.280
 256   1 H      0.073  0.927  0.000  0.000     2.049     2.238
 257   1 H      0.073  0.927  0.000  0.000     2.052     2.240
 258   1 H      0.032  0.968  0.000  0.000     2.563     2.504
 259   1 H      0.075  0.925  0.000  0.000     2.027     2.226
 260   1 H      0.063  0.937  0.000  0.000     2.164     2.300
 261   1 H      0.051  0.949  0.000  0.000     2.312     2.378
 262   7 N     -0.188  1.251  3.936  0.000    25.076     7.437
 263   6 C      0.026  1.061  2.913  0.000    20.135     6.388
 264   6 C      0.275  1.042  2.683  0.000    22.348     7.742
 265   8 O     -0.503  1.742  4.761  0.000    23.841     6.546
 266   6 C     -0.021  1.065  2.956  0.000    20.913     6.504
 267   6 C     -0.075  1.048  3.027  0.000    21.936     6.668
 268   6 C     -0.122  1.040  3.083  0.000    22.896     6.823
 269   6 C     -0.112  1.036  3.075  0.000    22.696     6.794
 270   1 H      0.239  0.761  0.000  0.000     0.928     1.509
 271   1 H      0.062  0.938  0.000  0.000     2.179     2.309
 272   1 H      0.044  0.956  0.000  0.000     2.392     2.419
 273   1 H      0.054  0.946  0.000  0.000     2.273     2.358
 274   1 H      0.037  0.963  0.000  0.000     2.484     2.465
 275   1 H      0.066  0.934  0.000  0.000     2.129     2.282
 276   1 H      0.040  0.960  0.000  0.000     2.447     2.446
 277   1 H      0.060  0.940  0.000  0.000     2.202     2.321
 278   1 H      0.049  0.951  0.000  0.000     2.331     2.388
 279   1 H      0.040  0.960  0.000  0.000     2.450     2.448
 280   1 H      0.049  0.951  0.000  0.000     2.329     2.387
 281   7 N     -0.185  1.255  3.930  0.000    25.003     7.426
 282   6 C      0.025  1.058  2.917  0.000    20.159     6.392
 283   6 C      0.282  1.040  2.679  0.000    22.234     7.722
 284   8 O     -0.511  1.740  4.771  0.000    24.034     6.573
 285   6 C     -0.086  1.056  3.030  0.000    22.126     6.695
 286   6 C      0.010  1.081  2.909  0.000    27.795     8.648
 287   6 C     -0.044  1.081  2.963  0.000    29.091     8.845
 288   6 C     -0.047  1.077  2.970  0.000    29.167     8.857
 289   6 C     -0.030  1.079  2.951  0.000    28.744     8.792
 290   6 C     -0.032  1.081  2.951  0.000    28.798     8.800
 291   6 C     -0.031  1.077  2.954  0.000    28.779     8.797
 292   1 H      0.233  0.767  0.000  0.000     0.954     1.530
 293   1 H      0.082  0.918  0.000  0.000     1.955     2.186
 294   1 H      0.086  0.914  0.000  0.000     1.922     2.168
 295   1 H      0.078  0.922  0.000  0.000     2.004     2.214
 296   1 H      0.047  0.953  0.000  0.000     2.355     2.400
 297   1 H      0.025  0.975  0.000  0.000     2.659     2.550
 298   1 H      0.049  0.951  0.000  0.000     2.329     2.387
 299   1 H      0.031  0.969  0.000  0.000     2.575     2.509
 300   1 H      0.035  0.965  0.000  0.000     2.521     2.483
 301   7 N     -0.178  1.255  3.923  0.000    24.851     7.404
 302   6 C      0.019  1.069  2.913  0.000    20.260     6.408
 303   6 C      0.289  1.037  2.674  0.000    22.100     7.699
 304   8 O     -0.516  1.755  4.761  0.000    24.146     6.588
 305   6 C     -0.023  1.064  2.959  0.000    20.950     6.510
 306   6 C     -0.121  1.040  3.082  0.000    22.882     6.820
 307   6 C     -0.122  1.043  3.079  0.000    22.885     6.821
 308   1 H      0.243  0.757  0.000  0.000     0.910     1.494
 309   1 H      0.073  0.927  0.000  0.000     2.058     2.244
 310   1 H      0.070  0.930  0.000  0.000     2.086     2.259
 311   1 H      0.060  0.940  0.000  0.000     2.203     2.321
 312   1 H      0.052  0.948  0.000  0.000     2.297     2.370
 313   1 H      0.035  0.965  0.000  0.000     2.521     2.483
 314   1 H      0.063  0.937  0.000  0.000     2.166     2.302
 315   1 H      0.041  0.959  0.000  0.000     2.429     2.437
 316   1 H      0.049  0.951  0.000  0.000     2.327     2.385
 317   7 N     -0.190  1.251  3.939  0.000    25.119     7.444
 318   6 C      0.030  1.060  2.910  0.000    20.063     6.376
 319   6 C      0.287  1.038  2.675  0.000    22.138     7.705
 320   8 O     -0.525  1.757  4.767  0.000    24.335     6.614
 321   6 C     -0.018  1.064  2.954  0.000    20.854     6.495
 322   6 C     -0.065  1.051  3.014  0.000    21.739     6.637
 323   6 C     -0.111  1.038  3.074  0.000    22.684     6.791
 324   6 C     -0.104  1.036  3.067  0.000    22.540     6.770
 325   1 H      0.241  0.759  0.000  0.000     0.918     1.501
 326   1 H      0.058  0.942  0.000  0.000     2.225     2.333
 327   1 H      0.045  0.955  0.000  0.000     2.388     2.417
 328   1 H      0.040  0.960  0.000  0.000     2.455     2.450
 329   1 H      0.049  0.951  0.000  0.000     2.337     2.391
 330   1 H      0.062  0.938  0.000  0.000     2.172     2.305
 331   1 H      0.027  0.973  0.000  0.000     2.628     2.535
 332   1 H      0.043  0.957  0.000  0.000     2.409     2.427
 333   1 H      0.049  0.951  0.000  0.000     2.337     2.391
 334   1 H      0.033  0.967  0.000  0.000     2.541     2.493
 335   1 H      0.044  0.956  0.000  0.000     2.400     2.423
 336   7 N     -0.197  1.252  3.945  0.000    25.283     7.468
 337   6 C      0.020  1.058  2.922  0.000    20.235     6.404
 338   6 C      0.288  1.036  2.676  0.000    22.113     7.701
 339   8 O     -0.514  1.754  4.761  0.000    24.099     6.582
 340   6 C      0.072  1.038  2.891  0.000    19.594     6.341
 341   8 O     -0.476  1.712  4.765  0.000    22.390     6.388
 342   1 H      0.237  0.763  0.000  0.000     0.935     1.515
 343   1 H      0.061  0.939  0.000  0.000     2.191     2.315
 344   1 H      0.056  0.944  0.000  0.000     2.242     2.342
 345   1 H      0.058  0.942  0.000  0.000     2.222     2.331
 346   1 H      0.326  0.674  0.000  0.000     0.648     1.265
 347   7 N     -0.190  1.249  3.941  0.000    25.129     7.445
 348   6 C      0.025  1.058  2.917  0.000    20.149     6.391
 349   6 C      0.222  1.079  2.700  0.000    23.331     7.910
 350   8 O     -0.375  1.752  4.623  0.000    21.181     6.170
 351   6 C      0.082  1.034  2.884  0.000    19.408     6.309
 352   8 O     -0.470  1.701  4.769  0.000    22.250     6.368
 353   1 H      0.245  0.755  0.000  0.000     0.902     1.487
 354   1 H      0.082  0.918  0.000  0.000     1.959     2.189
 355   1 H      0.065  0.935  0.000  0.000     2.137     2.286
 356   1 H      0.049  0.951  0.000  0.000     2.330     2.387
 357   1 H      0.325  0.675  0.000  0.000     0.651     1.267
 358   7 N     -0.389  1.312  4.077  0.000    30.080     8.146
 359   6 C      0.038  1.058  2.904  0.000    19.956     6.363
 360   6 C      0.199  1.099  2.702  0.000    23.751     7.981
 361   8 O     -0.380  1.738  4.642  0.000    21.296     6.187
 362   6 C     -0.019  1.067  2.952  0.000    20.876     6.498
 363   6 C     -0.059  1.049  3.010  0.000    21.635     6.622
 364   6 C     -0.116  1.038  3.078  0.000    22.768     6.804
 365   6 C     -0.111  1.035  3.076  0.000    22.678     6.791
 366   1 H      0.162  0.838  0.000  0.000     1.324     1.803
 367   1 H      0.060  0.940  0.000  0.000     2.204     2.322
 368   1 H      0.040  0.960  0.000  0.000     2.450     2.448
 369   1 H      0.035  0.965  0.000  0.000     2.510     2.478
 370   1 H      0.040  0.960  0.000  0.000     2.454     2.450
 371   1 H      0.047  0.953  0.000  0.000     2.355     2.400
 372   1 H      0.034  0.966  0.000  0.000     2.525     2.485
 373   1 H      0.053  0.947  0.000  0.000     2.277     2.360
 374   1 H      0.040  0.960  0.000  0.000     2.449     2.447
 375   1 H      0.044  0.956  0.000  0.000     2.390     2.418
 376   1 H      0.041  0.959  0.000  0.000     2.430     2.438
 377   7 N     -0.402  1.316  4.085  0.000    30.421     8.192
 378   6 C      0.027  1.060  2.913  0.000    20.147     6.394
 379   6 C      0.191  1.095  2.714  0.000    23.917     8.009
 380   8 O     -0.361  1.751  4.611  0.000    20.926     6.133
 381   6 C      0.080  1.035  2.885  0.000    19.453     6.318
 382   8 O     -0.463  1.714  4.749  0.000    22.103     6.347
 383   1 H      0.186  0.814  0.000  0.000     1.180     1.702
 384   1 H      0.063  0.937  0.000  0.000     2.169     2.303
 385   1 H      0.029  0.971  0.000  0.000     2.600     2.521
 386   1 H      0.044  0.956  0.000  0.000     2.394     2.420
 387   1 H      0.329  0.671  0.000  0.000     0.640     1.257
 388   7 N     -0.388  1.316  4.071  0.000    30.034     8.139
 389   6 C      0.048  1.053  2.899  0.000    19.784     6.336
 390   6 C      0.201  1.096  2.704  0.000    23.729     7.978
 391   8 O     -0.363  1.742  4.622  0.000    20.965     6.139
 392   6 C     -0.121  1.041  3.080  0.000    22.869     6.818
 393   1 H      0.158  0.842  0.000  0.000     1.347     1.818
 394   1 H      0.040  0.960  0.000  0.000     2.452     2.449
 395   1 H      0.058  0.942  0.000  0.000     2.218     2.329
 396   1 H      0.057  0.943  0.000  0.000     2.239     2.340
 397   1 H      0.067  0.933  0.000  0.000     2.117     2.275
 398   7 N     -0.409  1.322  4.086  0.000    30.616     8.218
 399   6 C      0.038  1.061  2.901  0.000    19.952     6.362
 400   6 C      0.202  1.093  2.705  0.000    23.702     7.973
 401   8 O     -0.392  1.761  4.631  0.000    21.516     6.219
 402   6 C     -0.023  1.068  2.954  0.000    20.939     6.508
 403   6 C     -0.063  1.052  3.010  0.000    21.697     6.631
 404   6 C     -0.112  1.038  3.074  0.000    22.695     6.793
 405   6 C     -0.115  1.036  3.079  0.000    22.754     6.803
 406   1 H      0.185  0.815  0.000  0.000     1.187     1.707
 407   1 H      0.050  0.950  0.000  0.000     2.318     2.381
 408   1 H      0.048  0.952  0.000  0.000     2.346     2.395
 409   1 H      0.045  0.955  0.000  0.000     2.382     2.413
 410   1 H      0.039  0.961  0.000  0.000     2.456     2.451
 411   1 H      0.055  0.945  0.000  0.000     2.258     2.350
 412   1 H      0.015  0.985  0.000  0.000     2.807     2.620
 413   1 H      0.050  0.950  0.000  0.000     2.314     2.379
 414   1 H      0.055  0.945  0.000  0.000     2.260     2.351
 415   1 H      0.027  0.973  0.000  0.000     2.630     2.536
 416   1 H      0.051  0.949  0.000  0.000     2.310     2.377
 417   1 H      0.188  0.812  0.000  0.000     1.171     1.695
 418   1 H      0.095  0.905  0.000  0.000     1.828     2.114
 419   1 H      0.189  0.811  0.000  0.000     1.164     1.690
 420   1 H      0.082  0.918  0.000  0.000     1.963     2.191
 421   1 H      0.182  0.818  0.000  0.000     1.200     1.716
 422   1 H      0.073  0.927  0.000  0.000     2.047     2.237
 423   1 H      0.182  0.818  0.000  0.000     1.204     1.719
 424   1 H      0.076  0.924  0.000  0.000     2.023     2.224
 425   1 H      0.164  0.836  0.000  0.000     1.310     1.793
 426   1 H      0.064  0.936  0.000  0.000     2.149     2.292
 427   1 H      0.185  0.815  0.000  0.000     1.185     1.705
 428   1 H      0.075  0.925  0.000  0.000     2.028     2.227
 429   1 H      0.183  0.817  0.000  0.000     1.197     1.713
 430   1 H      0.076  0.924  0.000  0.000     2.022     2.224
 431   1 H      0.179  0.821  0.000  0.000     1.220     1.730
 432   1 H      0.072  0.928  0.000  0.000     2.065     2.247
 433   1 H      0.178  0.822  0.000  0.000     1.226     1.734
 434   1 H      0.061  0.939  0.000  0.000     2.186     2.312

 Mol. C6AA /au·bohr⁶  :    1723788.489117
 Mol. C8AA /au·bohr⁸  :   39226806.708500
 Mol. α(0) /au        :       1980.300165

 
molecular dipole:
                 x           y           z       tot (Debye)
 q only:       37.976     133.173     117.787
   full:       37.991     131.592     118.759     460.785
molecular quadrupole (traceless):
                xx          xy          yy          xz          yz          zz
 q only:   -13332.029    7812.682   10611.223    7292.961   22461.973    2720.806
  q+dip:   -13185.480    7672.637   10154.677    7400.310   22411.847    3030.803
   full:   -13185.669    7667.482   10159.578    7401.941   22403.476    3026.091
speedup  1.00
cpu  time for grad   10.69 s
wall time for grad   10.70 s

SCC energy    :    -643.4089228
rep           :       8.1235206
ES            :       1.5363866
AES           :      -0.0373444
AXC           :       0.2471284
disp          :      -0.5535630
XB            :       0.0000000
fix           :       0.0000000
Gborn         :       0.0000000
Gsasa         :       0.0000000
Ghb           :       0.0000000
Gshift        :       0.0000000
Gsolv         :      -0.3664663     -229.96
Etot ala COSMO:    -643.4089228
grad norm     :       0.6653898
total E       :    -635.2416612
atomizationE  :     118.7988537    74547.41
(atE without considering molecular charge,
 total energy contains solvation terms)
H-L gap (eV)  :          0.9606

------------------------------------------------------------------------
 * finished run on 2019/03/14 at 15:08:29.806     
------------------------------------------------------------------------
 total:
 * wall-time:     0 d,  0 h,  0 min, 11.514 sec
 *  cpu-time:     0 d,  0 h,  0 min, 11.335 sec
 * ratio c/w:     0.984 speedup
 SCF:
 * wall-time:     0 d,  0 h,  0 min, 11.189 sec
 *  cpu-time:     0 d,  0 h,  0 min, 11.183 sec
 * ratio c/w:     0.999 speedup

