      -----------------------------------------------------------      
     |                   =====================                   |     
     |                           x T B                           |     
     |                   =====================                   |     
     |                         S. Grimme                         |     
     |          Mulliken Center for Theoretical Chemistry        |     
     |                    University of Bonn                     |     
     |                 Version 6.0.1 (SAW181210)                 |     
      -----------------------------------------------------------      

   This program is distributed in the hope that it will be useful,
   but WITHOUT ANY WARRANTY; without even the implied warranty of
   MERCHANTABILITY or FITNESS FOR A PARTICULAR PURPOSE.
   
   FOR NON-COMMERCIAL, ACADEMIA USE ONLY.
   
   Cite this work as:
   S. Grimme, C. Bannwarth, P. Shushkov, J. Comput. Theory Chem., 2017,
   13, 1989-2009.
   C. Bannwarth, S. Ehlert and S. Grimme., ChemRxiv, 2018, preprint.
   http://doi.org/10.26434/chemrxiv.7246238.v1
   
   for sTDA-xTB:
   S. Grimme and C. Bannwarth, J. Chem. Phys., 2016, 145, 054103.
   
   in the mass-spec context:
   V. Asgeirsson, C. Bauer and S. Grimme, Chem. Sci., 2017, 8, 4879.
   
   if GBSA is used:
   P. Shushkov, F. März and S. Grimme, unpublished.
   
   for ANC optimizer:
   S. Grimme, unpublished.
   Rational Function algorithm used in ANCopt:
   F. Eckert, P. Pulay, H.-J. Werner, J. Comput. Chem., 1997, 18, 1473.
   
   with help from (in alphabetical order)
   C. Bannwarth, F. Bohle, G. Brandenburg, E. Caldeweyher, M. Checinski,
   S. Dohm, S. Ehlert, S. Ehrlich, F. März, H. Neugebauer, J. Pisarek,
   P. Pracht, P. Shushkov, and S. Spicher.
   
 * started run on 2019/03/15 at 00:15:18.725     
========================================================================
 # omp threads = 1
========================================================================
number of atoms            : 588
number of electrons        : 1602
charge                     : -2
spin                       : .0
first test random number   : .5105
           ------------------------------------------------- 
          |                 G F N 2 - x T B                 |
          | Geometry, Frequencies, Noncovalent interactions |
          |            JCTC 2018 parametrisation            |
           ------------------------------------------------- 
 
      method parameters     
 k(s)        :  1.8500
 k(p)        :  2.2300
 k(d)        :  2.2300
 k(f)        :  2.0000
 kEN (H0ij)  : -2.0000
 D4 a1       :  0.5200
 D4 a2       :  5.0000
 D4 s6       :  1.0000
 D4 s8       :  2.7000
 D4 s9       :  5.0000
 alphaj      :  2.0000

 Solvent             : h2o
 Using internal parameter file: .param_gbsa2_h2o
 Gsolv ref. state (COSMO-RS): gsolv [1 M gas/solution]
 temperature (mdtemp)       :    298.150000000000     
 dielectric constant        :    80.2000000000000     
 rho                        :    1.00000000000000     
 mass                       :    18.0000000000000     
 surface tension            :    15.5689454083859     
 probe radius               :   0.975313790000000     
 vdW radii scaling          :    1.00000000000000     
 Gshift (Eh)                :   1.857443126794793E-003
 c1                         :    1.55243817000000     
 soset                      :   0.130326360000000     
 HB correction              :  T

            Z     q(EN)     CN     RAES       Cart. coordinates
     1  N   5.0   -0.20    3.34    2.00    39.26208    41.97055    35.97001
     2  C   4.0    0.03    4.50    4.54    37.18533    43.70671    35.77240
     3  C   4.0    0.15    3.45    3.09    37.31861    45.83660    37.67490
     4  O   6.0   -0.27    1.28    1.80    37.90961    45.38699    39.81189
     5  C   4.0   -0.04    4.49    4.52    34.74625    42.34683    36.11129
     6  C   4.0   -0.03    3.97    3.56    34.73297    40.26892    34.37476
     7  C   4.0   -0.02    3.84    3.39    35.81920    38.03386    34.66647
     8  C   4.0    0.00    4.08    3.76    34.08556    40.44806    31.79376
     9  N   5.0   -0.13    3.62    2.18    35.92877    36.81417    32.55341
    10  C   4.0    0.03    4.06    3.73    34.88942    38.18612    30.68188
    11  C   4.0   -0.05    3.54    3.13    32.94491    42.21631    30.25760
    12  C   4.0   -0.05    3.53    3.13    34.52529    37.78389    28.14333
    13  C   4.0   -0.05    3.52    3.12    32.63520    41.75117    27.83223
    14  C   4.0   -0.05    3.53    3.13    33.42131    39.54537    26.78367
    15  H   1.0    0.09    1.12    1.45    38.78721    40.28383    36.13404
    16  H   1.0    0.04    1.11    1.45    37.32841    44.48256    34.00199
    17  H   1.0    0.05    1.08    1.44    34.56097    41.72257    37.92337
    18  H   1.0    0.04    1.08    1.44    33.23392    43.49576    35.80670
    19  H   1.0    0.04    1.06    1.44    36.46237    37.39087    36.34945
    20  H   1.0    0.07    1.09    1.44    36.63042    35.19619    32.30047
    21  H   1.0    0.05    1.08    1.44    32.36343    43.85372    31.04105
    22  H   1.0    0.05    1.08    1.44    35.11710    36.14039    27.38599
    23  H   1.0    0.05    1.08    1.44    31.79468    43.05859    26.71680
    24  H   1.0    0.05    1.08    1.44    33.15077    39.25111    24.91382
    25  N   5.0   -0.15    3.50    2.08    36.71901    48.15577    36.88673
    26  C   4.0    0.03    4.44    4.45    36.76551    50.36318    38.44874
    27  C   4.0    0.15    3.43    3.09    34.25751    51.77675    38.40787
    28  O   6.0   -0.32    1.41    1.80    32.28228    50.70066    38.16732
    29  C   4.0   -0.08    4.31    4.22    38.90828    52.04344    37.80632
    30  H   1.0    0.08    1.11    1.45    36.25127    48.49152    35.22638
    31  H   1.0    0.07    1.12    1.45    37.01591    49.71756    40.26533
    32  H   1.0    0.04    1.05    1.44    38.97774    53.57827    38.95634
    33  H   1.0    0.05    1.08    1.44    40.58852    51.13352    37.96472
    34  H   1.0    0.04    1.05    1.44    38.74909    52.67131    36.00019
    35  N   5.0   -0.15    3.58    2.14    34.40327    54.26950    38.61651
    36  C   4.0    0.04    4.52    4.56    32.30114    55.96069    38.57298
    37  C   4.0    0.13    3.53    3.13    32.61935    57.89112    36.48300
    38  O   6.0   -0.32    1.29    1.80    34.52818    59.19953    36.41024
    39  C   4.0   -0.03    4.40    4.38    31.93481    57.24934    41.07394
    40  C   4.0    0.24    3.13    3.03    29.37758    56.82387    42.30630
    41  O   6.0   -0.28    1.18    1.80    28.71562    54.60692    42.67843
    42  O   6.0   -0.30    1.17    1.80    28.07528    58.71442    42.84033
    43  H   1.0    0.08    1.14    1.45    35.93722    55.10366    38.82950
    44  H   1.0    0.06    1.13    1.45    30.71098    54.90846    38.22994
    45  H   1.0    0.05    1.08    1.44    33.31683    56.67528    42.29591
    46  H   1.0    0.05    1.10    1.44    32.22491    59.14260    40.86113
    47  N   5.0   -0.11    3.72    2.30    30.78148    58.08561    34.75565
    48  C   4.0    0.03    4.74    4.80    31.04122    59.87236    32.67393
    49  C   4.0    0.16    3.47    3.10    31.29781    62.59524    33.54811
    50  O   6.0   -0.31    1.24    1.80    32.92046    63.98268    32.75446
    51  C   4.0   -0.05    4.52    4.57    28.72309    59.43554    31.15978
    52  C   4.0   -0.05    4.49    4.52    26.82139    58.99266    33.14005
    53  C   4.0   -0.02    4.49    4.52    28.15041    57.33301    34.97459
    54  H   1.0    0.05    1.10    1.44    32.68587    59.58709    31.67532
    55  H   1.0    0.04    1.07    1.44    28.30400    60.92266    29.99124
    56  H   1.0    0.04    1.07    1.44    28.88809    57.92228    29.95636
    57  H   1.0    0.03    1.09    1.44    26.24339    60.65717    33.95275
    58  H   1.0    0.03    1.06    1.44    25.18052    58.21949    32.45881
    59  H   1.0    0.05    1.06    1.44    27.49167    57.51042    36.79252
    60  H   1.0    0.04    1.06    1.44    27.90001    55.44967    34.57383
    61  N   5.0   -0.16    3.60    2.16    29.58866    63.31527    35.23930
    62  C   4.0    0.03    4.62    4.68    29.42211    65.78473    36.33470
    63  C   4.0    0.16    3.52    3.12    31.61456    66.36152    38.09901
    64  O   6.0   -0.29    1.24    1.80    32.88961    68.25984    37.89084
    65  C   4.0   -0.03    4.48    4.51    26.93252    66.23462    37.72626
    66  C   4.0   -0.05    4.36    4.31    26.90393    68.83069    38.88838
    67  C   4.0   -0.08    4.30    4.20    26.47710    64.19415    39.57630
    68  C   4.0   -0.09    4.15    3.90    27.08421    70.93395    37.10388
    69  H   1.0    0.08    1.15    1.45    28.36737    62.21248    35.85814
    70  H   1.0    0.05    1.11    1.45    29.56247    67.01840    34.84110
    71  H   1.0    0.03    1.11    1.45    25.47154    66.17500    36.45028
    72  H   1.0    0.03    1.08    1.44    25.30336    69.03273    39.96327
    73  H   1.0    0.05    1.09    1.44    28.35081    68.93885    40.16741
    74  H   1.0    0.04    1.04    1.43    24.81824    64.44135    40.51170
    75  H   1.0    0.04    1.05    1.44    26.41343    62.47088    38.73359
    76  H   1.0    0.05    1.06    1.44    27.87688    64.15108    40.88670
    77  H   1.0    0.04    1.04    1.43    27.08180    72.63964    37.99355
    78  H   1.0    0.05    1.05    1.44    28.70602    70.81996    36.08028
    79  H   1.0    0.03    1.04    1.43    25.60949    70.91602    35.87486
    80  N   5.0   -0.15    3.57    2.13    32.03069    64.63448    39.86161
    81  C   4.0    0.04    4.49    4.53    33.95555    64.69451    41.75890
    82  C   4.0    0.17    3.47    3.10    36.53723    65.15723    40.54579
    83  O   6.0   -0.28    1.26    1.80    37.95909    66.78629    41.36269
    84  C   4.0   -0.05    4.39    4.36    33.54094    62.67025    43.74015
    85  C   4.0   -0.03    4.30    4.19    35.49644    62.43460    45.70934
    86  C   4.0    0.25    3.18    3.03    36.27424    64.93865    46.83574
    87  O   6.0   -0.29    1.19    1.80    34.57551    66.26726    47.79446
    88  O   6.0   -0.28    1.18    1.80    38.53624    65.56111    46.71693
    89  H   1.0    0.08    1.14    1.45    31.03984    63.18511    39.95851
    90  H   1.0    0.07    1.15    1.45    33.89565    66.26059    42.89975
    91  H   1.0    0.06    1.08    1.44    31.83239    62.97735    44.60224
    92  H   1.0    0.04    1.11    1.45    33.32476    60.98130    42.84204
    93  H   1.0    0.05    1.07    1.44    34.90123    61.26233    47.12884
    94  H   1.0    0.05    1.08    1.44    37.05454    61.56099    44.97456
    95  N   5.0   -0.15    3.52    2.09    37.16690    63.79899    38.57330
    96  C   4.0    0.03    4.61    4.67    39.53367    64.14049    37.28832
    97  C   4.0    0.15    3.55    3.14    40.42268    66.52890    35.99737
    98  O   6.0   -0.32    1.33    1.80    42.46782    67.46532    36.51252
    99  C   4.0   -0.05    4.58    4.64    39.90291    62.10266    35.40245
   100  C   4.0   -0.03    4.35    4.30    42.35085    60.74744    35.82701
   101  C   4.0   -0.09    4.25    4.09    42.71372    58.65889    33.99985
   102  C   4.0   -0.08    4.32    4.23    44.49405    62.55083    35.77563
   103  H   1.0    0.11    1.13    1.45    36.17564    62.50448    37.90526
   104  H   1.0    0.06    1.16    1.46    40.63603    64.21613    38.88397
   105  H   1.0    0.06    1.09    1.44    38.40255    60.87718    35.44425
   106  H   1.0    0.04    1.09    1.44    39.85500    62.83839    33.61120
   107  H   1.0    0.04    1.12    1.45    42.28458    59.97980    37.61160
   108  H   1.0    0.04    1.04    1.43    44.36008    57.72472    34.31338
   109  H   1.0    0.04    1.05    1.44    41.29088    57.37535    34.10555
   110  H   1.0    0.04    1.04    1.44    42.75687    59.34237    32.20685
   111  H   1.0    0.04    1.04    1.43    46.16381    61.67221    36.12143
   112  H   1.0    0.05    1.04    1.44    44.61649    63.39172    34.05489
   113  H   1.0    0.06    1.07    1.44    44.28706    63.93855    37.08656
   114  N   5.0   -0.15    3.62    2.18    38.95834    67.50604    34.26436
   115  C   4.0    0.03    4.53    4.58    39.56105    69.77235    32.93091
   116  C   4.0    0.09    3.42    3.09    39.71679    71.82891    34.92775
   117  O   6.0   -0.29    1.12    1.80    41.20830    73.55698    34.84493
   118  C   4.0   -0.03    4.50    4.54    37.55480    70.42931    30.99291
   119  C   4.0   -0.05    4.46    4.47    35.55737    72.07330    32.13339
   120  C   4.0   -0.08    4.39    4.36    36.26465    68.13368    30.09203
   121  C   4.0   -0.09    4.16    3.93    33.66777    73.06271    30.39453
   122  H   1.0    0.09    1.16    1.45    37.39705    66.82096    33.83516
   123  H   1.0    0.05    1.10    1.44    41.24565    69.56801    31.97885
   124  H   1.0    0.04    1.10    1.44    38.44223    71.35501    29.52981
   125  H   1.0    0.05    1.09    1.44    34.67659    71.04919    33.52323
   126  H   1.0    0.05    1.11    1.44    36.39368    73.54080    33.07696
   127  H   1.0    0.04    1.05    1.44    34.90743    68.55124    28.80077
   128  H   1.0    0.04    1.04    1.43    37.48338    66.89303    29.28557
   129  H   1.0    0.06    1.07    1.44    35.40041    67.23905    31.55674
   130  H   1.0    0.04    1.04    1.43    32.35079    74.13299    31.29888
   131  H   1.0    0.04    1.04    1.44    34.48939    74.16181    29.05212
   132  H   1.0    0.04    1.05    1.44    32.74357    71.63535    29.50373
   133  N   5.0   -0.20    3.29    1.98    41.87261    71.65342    40.10698
   134  C   4.0    0.04    4.28    4.17    44.24256    71.54954    41.39468
   135  C   4.0    0.08    3.21    3.04    46.25908    73.11877    40.08467
   136  O   6.0   -0.29    1.13    1.80    47.65606    74.51195    41.29272
   137  C   4.0   -0.04    4.50    4.54    44.49284    68.90135    42.42071
   138  C   4.0   -0.02    4.30    4.19    46.81967    67.78169    43.57601
   139  C   4.0   -0.07    4.25    4.11    46.10216    65.95884    45.58765
   140  C   4.0   -0.08    4.25    4.10    48.41432    66.56306    41.61476
   141  H   1.0    0.13    1.10    1.44    41.62516    70.29210    39.01440
   142  H   1.0    0.06    1.18    1.46    44.46448    72.56101    43.02486
   143  H   1.0    0.06    1.10    1.44    43.07599    68.69204    43.72586
   144  H   1.0    0.06    1.10    1.44    43.99821    67.73061    40.97585
   145  H   1.0    0.06    1.11    1.45    47.86293    69.21100    44.37344
   146  H   1.0    0.06    1.04    1.43    47.64734    65.19283    46.43016
   147  H   1.0    0.06    1.04    1.43    45.04489    66.79133    46.95949
   148  H   1.0    0.05    1.04    1.44    45.06549    64.52192    44.84874
   149  H   1.0    0.05    1.04    1.43    50.02543    65.83814    42.36681
   150  H   1.0    0.04    1.04    1.43    47.46063    65.12311    40.77684
   151  H   1.0    0.05    1.04    1.43    48.91753    67.80773    40.24165
   152  N   5.0   -0.24    3.33    1.99    56.97294    60.84615    50.74513
   153  C   4.0    0.02    4.45    4.46    54.32143    60.93357    50.40518
   154  C   4.0    0.14    3.55    3.14    53.57785    60.63753    47.65013
   155  O   6.0   -0.32    1.28    1.80    51.37314    60.69725    47.00204
   156  C   4.0   -0.05    4.49    4.52    53.23350    63.33743    51.36830
   157  C   4.0   -0.03    4.48    4.51    53.63248    65.45751    49.65606
   158  C   4.0    0.15    3.30    3.05    52.62168    67.92700    50.60846
   159  O   6.0   -0.30    1.24    1.80    50.88399    68.94857    49.44068
   160  N   5.0   -0.21    3.31    1.99    53.58883    68.75407    52.52898
   161  H   1.0    0.08    1.07    1.44    57.69354    62.40338    51.11993
   162  H   1.0    0.04    1.11    1.45    53.59496    59.42997    51.39843
   163  H   1.0    0.05    1.08    1.44    51.34116    63.13912    51.69660
   164  H   1.0    0.04    1.09    1.44    53.99305    63.76606    53.08857
   165  H   1.0    0.04    1.08    1.44    55.52046    65.63367    49.30581
   166  H   1.0    0.06    1.10    1.44    52.85097    65.03159    47.94035
   167  H   1.0    0.07    1.07    1.44    54.94146    67.97298    53.43172
   168  H   1.0    0.09    1.07    1.44    53.10764    70.29279    53.32338
   169  N   5.0   -0.16    3.55    2.11    55.38653    60.38276    45.96434
   170  C   4.0    0.03    4.48    4.50    54.80939    60.14732    43.34956
   171  C   4.0    0.08    3.28    3.05    54.56135    57.43824    42.57222
   172  O   6.0   -0.31    1.14    1.80    53.58840    56.83704    40.59159
   173  C   4.0   -0.04    4.46    4.47    56.63890    61.45887    41.62667
   174  C   4.0   -0.02    3.66    3.21    55.47480    63.02667    39.62758
   175  C   4.0   -0.04    3.60    3.17    54.02810    61.95388    37.76346
   176  C   4.0   -0.05    3.60    3.17    55.65604    65.61388    39.63323
   177  C   4.0   -0.05    3.50    3.11    52.83458    63.39302    36.05038
   178  C   4.0   -0.05    3.49    3.11    54.46708    67.04200    37.91755
   179  C   4.0   -0.05    3.51    3.12    53.05225    65.92647    36.12742
   180  H   1.0    0.08    1.12    1.45    57.10272    60.32988    46.34609
   181  H   1.0    0.06    1.14    1.45    53.08942    61.01633    43.11915
   182  H   1.0    0.04    1.09    1.44    57.81456    62.55749    42.69034
   183  H   1.0    0.04    1.09    1.44    57.78992    60.13796    40.82084
   184  H   1.0    0.07    1.08    1.44    53.88478    60.05205    37.72541
   185  H   1.0    0.05    1.08    1.44    56.71874    66.43569    40.98223
   186  H   1.0    0.05    1.07    1.44    51.76936    62.54539    34.70096
   187  H   1.0    0.05    1.07    1.44    54.64591    68.94811    37.99158
   188  H   1.0    0.05    1.07    1.44    52.14837    67.01177    34.83108
   189  N   5.0   -0.23    3.29    1.98    52.38245    53.57285    47.10336
   190  C   4.0    0.04    4.43    4.43    50.85161    53.02803    49.23974
   191  C   4.0    0.15    3.45    3.09    48.06308    52.73925    48.56596
   192  O   6.0   -0.28    1.23    1.80    46.69058    51.30011    49.70206
   193  C   4.0   -0.05    4.42    4.42    51.19188    55.00112    51.26297
   194  C   4.0   -0.03    4.31    4.22    49.79620    54.63901    53.63996
   195  C   4.0    0.25    3.16    3.03    50.65466    52.36014    55.11482
   196  O   6.0   -0.28    1.21    1.80    50.54641    50.27488    54.03880
   197  O   6.0   -0.30    1.17    1.80    51.44774    52.68913    57.31644
   198  H   1.0    0.10    1.07    1.44    52.06275    55.16549    46.43219
   199  H   1.0    0.07    1.12    1.45    51.42706    51.30915    49.94234
   200  H   1.0    0.04    1.08    1.44    53.07460    55.15371    51.68182
   201  H   1.0    0.05    1.08    1.44    50.72292    56.71389    50.49659
   202  H   1.0    0.04    1.08    1.44    49.93335    56.20756    54.76028
   203  H   1.0    0.06    1.08    1.44    47.91298    54.47025    53.25675
   204  N   5.0   -0.16    3.56    2.12    47.22123    54.16483    46.66485
   205  C   4.0    0.03    4.56    4.62    44.67053    54.23366    45.71527
   206  C   4.0    0.15    3.46    3.10    43.80860    51.79524    44.44322
   207  O   6.0   -0.32    1.29    1.80    41.61462    51.48164    43.80604
   208  C   4.0   -0.03    4.41    4.39    44.22514    56.49087    43.94589
   209  C   4.0   -0.07    4.30    4.19    41.58928    56.64413    43.04295
   210  C   4.0   -0.08    4.28    4.16    44.94435    58.87677    45.17666
   211  H   1.0    0.09    1.13    1.45    48.29295    55.24627    45.78668
   212  H   1.0    0.05    1.11    1.45    43.55771    54.42962    47.29567
   213  H   1.0    0.05    1.11    1.45    45.36290    56.20616    42.39577
   214  H   1.0    0.04    1.04    1.43    41.34369    58.11782    41.83775
   215  H   1.0    0.06    1.06    1.44    41.06656    55.04173    42.12847
   216  H   1.0    0.05    1.05    1.44    40.39686    56.89420    44.52538
   217  H   1.0    0.04    1.04    1.43    44.70420    60.37742    44.00103
   218  H   1.0    0.05    1.05    1.44    43.85783    59.17687    46.73057
   219  H   1.0    0.06    1.05    1.44    46.77948    58.86454    45.73649
   220  N   5.0   -0.14    3.56    2.12    45.51033    50.03186    44.05803
   221  C   4.0    0.04    4.53    4.58    45.02671    47.66190    42.83720
   222  C   4.0    0.16    3.45    3.10    44.12916    45.53228    44.53032
   223  O   6.0   -0.30    1.29    1.80    45.66175    44.01503    45.33264
   224  C   4.0   -0.03    4.46    4.48    47.32301    46.81019    41.43762
   225  C   4.0   -0.02    3.80    3.34    48.37489    48.65690    39.64596
   226  C   4.0   -0.01    3.73    3.26    50.76027    49.44862    39.40459
   227  C   4.0    0.01    4.05    3.70    47.01481    49.90017    37.68979
   228  N   5.0   -0.12    3.59    2.15    51.01221    51.01835    37.52018
   229  C   4.0    0.04    4.03    3.68    48.76577    51.38967    36.36544
   230  C   4.0   -0.05    3.56    3.14    44.54496    49.94119    36.87290
   231  C   4.0   -0.05    3.52    3.12    48.01988    52.82040    34.32574
   232  C   4.0   -0.04    3.54    3.13    43.91123    51.33363    34.90242
   233  C   4.0   -0.04    3.52    3.12    45.61784    52.75658    33.63997
   234  H   1.0    0.10    1.13    1.45    47.18097    50.21480    44.57349
   235  H   1.0    0.06    1.13    1.45    43.55020    48.04989    41.64468
   236  H   1.0    0.06    1.09    1.44    48.68131    46.32430    42.72682
   237  H   1.0    0.05    1.08    1.44    46.93890    45.15974    40.50407
   238  H   1.0    0.05    1.06    1.44    52.17364    48.88048    40.55567
   239  H   1.0    0.08    1.09    1.44    52.51523    51.81231    37.00174
   240  H   1.0    0.06    1.08    1.44    43.26611    48.88667    37.81323
   241  H   1.0    0.05    1.07    1.44    49.30666    53.87798    33.40325
   242  H   1.0    0.05    1.09    1.44    42.09105    51.33267    34.31838
   243  H   1.0    0.05    1.08    1.44    45.06185    53.79932    32.13758
   244  N   5.0   -0.13    3.53    2.10    41.71122    45.31969    45.06558
   245  C   4.0    0.04    4.42    4.42    40.70032    43.36453    46.64421
   246  C   4.0    0.08    3.22    3.04    39.04883    41.50582    45.16256
   247  O   6.0   -0.28    1.15    1.80    37.45448    42.30615    43.72315
   248  C   4.0   -0.05    4.43    4.44    39.26508    44.52190    48.79740
   249  C   4.0   -0.04    4.36    4.31    37.33461    46.40788    48.08622
   250  C   4.0   -0.06    4.32    4.23    36.64593    48.14097    50.18034
   251  C   4.0   -0.03    4.30    4.21    38.79101    49.74256    51.07120
   252  N   5.0   -0.14    4.13    3.25    38.20270    51.55427    52.91516
   253  H   1.0    0.10    1.12    1.45    40.49074    46.42964    44.45238
   254  H   1.0    0.05    1.12    1.45    42.20683    42.35637    47.33765
   255  H   1.0    0.04    1.08    1.44    38.42738    43.12195    49.83142
   256  H   1.0    0.04    1.09    1.44    40.50847    45.35114    50.02249
   257  H   1.0    0.06    1.09    1.44    37.98320    47.43948    46.58668
   258  H   1.0    0.05    1.07    1.44    35.77158    45.49638    47.40230
   259  H   1.0    0.04    1.07    1.44    35.17649    49.28435    49.65608
   260  H   1.0    0.04    1.08    1.44    35.95418    47.10786    51.66147
   261  H   1.0    0.05    1.08    1.44    40.19870    48.57196    51.72018
   262  H   1.0    0.05    1.08    1.44    39.58848    50.60536    49.52331
   263  H   1.0    0.06    1.06    1.44    39.62407    52.55014    53.44690
   264  H   1.0    0.06    1.07    1.44    36.95550    52.74183    52.35113
   265  H   1.0    0.05    1.07    1.44    37.53498    50.81546    54.42852
   266  N   5.0   -0.22    3.24    1.97    33.62851    36.90344    42.58353
   267  C   4.0    0.04    4.30    4.20    30.95675    37.20358    42.60151
   268  C   4.0    0.09    3.26    3.05    29.58767    34.85345    41.71263
   269  O   6.0   -0.29    1.12    1.80    28.69881    33.35138    43.23744
   270  C   4.0    0.02    4.27    4.14    30.07970    39.45864    41.12520
   271  O   6.0   -0.27    2.12    1.84    27.47601    39.43476    40.86787
   272  H   1.0    0.09    1.07    1.44    34.25049    36.19655    41.09953
   273  H   1.0    0.06    1.11    1.45    30.47957    37.49268    44.46222
   274  H   1.0    0.04    1.05    1.44    30.66637    41.09046    41.98009
   275  H   1.0    0.03    1.06    1.44    30.95995    39.46788    39.40596
   276  H   1.0    0.12    1.06    1.44    27.04383    40.39617    39.52401
   277  N   5.0   -0.22    3.25    1.97    19.59602    32.09734    35.67878
   278  C   4.0    0.03    4.42    4.42    20.53063    34.60402    35.19415
   279  C   4.0    0.15    3.56    3.14    18.63607    36.61712    35.99535
   280  O   6.0   -0.27    1.35    1.80    16.46930    36.44317    35.18447
   281  C   4.0   -0.04    4.46    4.47    21.15806    34.96739    32.46775
   282  C   4.0   -0.01    3.67    3.21    22.58179    37.29106    31.80830
   283  C   4.0   -0.04    3.63    3.19    24.92093    37.80302    32.80136
   284  C   4.0   -0.03    3.62    3.18    21.74753    38.96910    30.02689
   285  C   4.0   -0.04    3.52    3.12    26.29015    39.77416    32.05909
   286  C   4.0   -0.02    3.54    3.13    23.12842    40.93561    29.29084
   287  C   4.0   -0.03    3.53    3.13    25.41016    41.35276    30.29231
   288  H   1.0    0.09    1.07    1.44    18.90144    31.31905    34.26357
   289  H   1.0    0.04    1.11    1.45    22.13137    34.82333    36.26073
   290  H   1.0    0.04    1.08    1.44    22.14551    33.43261    31.83348
   291  H   1.0    0.05    1.09    1.44    19.51132    34.93303    31.46017
   292  H   1.0    0.05    1.08    1.44    25.57734    36.61179    34.13413
   293  H   1.0    0.06    1.08    1.44    20.02509    38.65214    29.28620
   294  H   1.0    0.05    1.08    1.44    28.01526    40.08187    32.83048
   295  H   1.0    0.09    1.10    1.44    22.44784    42.13006    27.95672
   296  H   1.0    0.07    1.08    1.44    26.45964    42.84950    29.72395
   297  N   5.0   -0.09    3.70    2.26    19.37416    38.50619    37.52214
   298  C   4.0    0.03    4.62    4.68    17.61701    40.50026    38.29578
   299  C   4.0    0.10    3.30    3.05    15.60082    41.01203    36.30851
   300  O   6.0   -0.26    1.21    1.80    16.07906    40.80342    34.08940
   301  C   4.0   -0.04    4.52    4.57    19.32736    42.66467    38.85305
   302  C   4.0   -0.04    4.46    4.48    21.51129    41.42588    39.97168
   303  C   4.0   -0.02    4.50    4.53    21.90831    39.20268    38.32684
   304  H   1.0    0.04    1.10    1.44    16.58846    40.00954    39.87097
   305  H   1.0    0.07    1.07    1.44    19.79031    43.63506    37.24031
   306  H   1.0    0.05    1.07    1.44    18.52091    44.00263    39.99711
   307  H   1.0    0.04    1.08    1.44    23.05263    42.58591    40.08039
   308  H   1.0    0.04    1.07    1.44    21.16711    40.92081    41.81119
   309  H   1.0    0.04    1.07    1.44    23.05617    39.60946    36.81480
   310  H   1.0    0.04    1.06    1.44    22.81225    37.74023    39.22354
   311  N   5.0   -0.19    3.27    1.97    15.47676    51.35453    34.63961
   312  C   4.0    0.03    4.41    4.40    17.84169    52.54469    34.03158
   313  C   4.0    0.16    3.46    3.10    19.32777    51.21171    31.95032
   314  O   6.0   -0.28    1.26    1.80    18.52855    49.42079    30.84018
   315  C   4.0   -0.04    4.41    4.39    19.46634    52.84025    36.33185
   316  C   4.0    0.26    3.16    3.03    20.23584    50.33145    37.51726
   317  O   6.0   -0.30    1.19    1.80    18.53036    48.99624    38.44372
   318  O   6.0   -0.30    1.20    1.80    22.50586    49.73919    37.47925
   319  H   1.0    0.10    1.08    1.44    15.20912    51.23718    36.37374
   320  H   1.0    0.03    1.11    1.45    17.31845    54.26246    33.28795
   321  H   1.0    0.04    1.08    1.44    21.05937    53.84176    35.90091
   322  H   1.0    0.04    1.07    1.44    18.55934    53.91143    37.65739
   323  N   5.0   -0.15    3.58    2.14    21.61452    52.18551    31.47249
   324  C   4.0    0.04    4.52    4.56    23.31788    51.20438    29.63818
   325  C   4.0    0.16    3.44    3.09    25.72541    50.04120    30.76455
   326  O   6.0   -0.29    1.36    1.80    25.75929    47.90076    31.45764
   327  C   4.0   -0.05    4.44    4.45    23.80987    53.13285    27.62726
   328  C   4.0   -0.02    3.61    3.17    21.59252    53.79410    25.99809
   329  C   4.0   -0.04    3.59    3.16    19.31620    54.55422    27.03626
   330  C   4.0   -0.05    3.56    3.14    21.66267    53.63391    23.37938
   331  C   4.0   -0.05    3.47    3.10    17.29332    55.08910    25.57473
   332  C   4.0   -0.05    3.46    3.10    19.63864    54.17505    21.91838
   333  C   4.0   -0.05    3.47    3.10    17.43858    54.90645    23.01293
   334  H   1.0    0.08    1.11    1.45    22.24539    53.59239    32.31766
   335  H   1.0    0.08    1.13    1.45    22.41525    49.68534    28.83366
   336  H   1.0    0.04    1.08    1.44    24.48180    54.73241    28.47629
   337  H   1.0    0.04    1.08    1.44    25.26318    52.52701    26.50778
   338  H   1.0    0.05    1.10    1.44    19.21736    54.69031    28.93696
   339  H   1.0    0.05    1.07    1.44    23.30946    53.08858    22.58067
   340  H   1.0    0.04    1.07    1.44    15.65257    55.63045    26.40757
   341  H   1.0    0.04    1.07    1.44    19.76880    54.03205    20.00883
   342  H   1.0    0.04    1.07    1.44    15.91227    55.31706    21.92468
   343  N   5.0   -0.15    3.51    2.09    27.73418    51.56871    30.91306
   344  C   4.0    0.03    4.48    4.50    30.18552    50.83459    31.88821
   345  C   4.0    0.14    3.45    3.09    32.16644    50.71741    29.82635
   346  O   6.0   -0.30    1.28    1.80    31.70121    49.71585    27.82495
   347  C   4.0   -0.03    4.49    4.52    30.06895    48.36616    33.32270
   348  C   4.0   -0.03    4.40    4.38    28.66844    48.44003    35.77220
   349  C   4.0   -0.04    4.32    4.24    27.66732    45.97369    36.64676
   350  C   4.0   -0.03    4.30    4.19    26.45086    46.04492    39.18408
   351  N   5.0   -0.13    4.16    3.34    28.09158    46.67791    41.15220
   352  H   1.0    0.08    1.11    1.45    27.66230    53.23811    30.36585
   353  H   1.0    0.04    1.11    1.45    30.70454    52.20579    33.16070
   354  H   1.0    0.07    1.12    1.45    29.24354    47.03863    32.18725
   355  H   1.0    0.04    1.08    1.44    31.85760    47.70104    33.62443
   356  H   1.0    0.09    1.18    1.46    29.81311    49.17099    37.14043
   357  H   1.0    0.07    1.08    1.44    27.21789    49.71048    35.63703
   358  H   1.0    0.06    1.08    1.44    26.44111    45.29313    35.30777
   359  H   1.0    0.04    1.08    1.44    29.10853    44.68346    36.67100
   360  H   1.0    0.08    1.10    1.44    24.96184    47.29703    39.12399
   361  H   1.0    0.04    1.08    1.44    25.59784    44.34059    39.55907
   362  H   1.0    0.06    1.07    1.44    27.39423    46.41712    42.80702
   363  H   1.0    0.06    1.07    1.44    29.62515    45.71982    41.10259
   364  H   1.0    0.08    1.07    1.44    28.59270    48.41866    41.10251
   365  N   5.0   -0.16    3.56    2.12    34.40470    51.70715    30.29861
   366  C   4.0    0.04    4.65    4.71    36.40980    51.75190    28.49659
   367  C   4.0    0.16    3.46    3.10    38.21441    49.49576    28.47999
   368  O   6.0   -0.30    1.34    1.80    40.33250    49.75510    29.34556
   369  C   4.0   -0.02    4.47    4.49    37.91256    54.17756    28.69991
   370  C   4.0   -0.08    4.28    4.15    36.69245    56.27242    27.35604
   371  C   4.0   -0.08    4.37    4.33    38.24226    54.84262    31.37133
   372  H   1.0    0.08    1.14    1.45    34.81975    52.44963    31.83570
   373  H   1.0    0.08    1.16    1.46    35.44797    51.64241    26.81725
   374  H   1.0    0.06    1.13    1.45    39.65555    53.86266    27.89983
   375  H   1.0    0.04    1.06    1.44    37.72073    57.88400    27.49505
   376  H   1.0    0.05    1.04    1.43    36.46937    55.87825    25.49186
   377  H   1.0    0.05    1.05    1.44    34.95980    56.61646    28.10193
   378  H   1.0    0.04    1.05    1.44    39.27620    56.44420    31.56634
   379  H   1.0    0.04    1.06    1.44    36.53544    55.14896    32.19117
   380  H   1.0    0.05    1.05    1.44    39.12846    53.44473    32.33812
   381  N   5.0   -0.14    3.48    2.06    37.45346    47.32194    27.52276
   382  C   4.0    0.04    4.45    4.46    38.99495    45.07072    27.32335
   383  C   4.0    0.10    3.38    3.07    41.77563    45.67363    27.15595
   384  O   6.0   -0.29    1.16    1.80    42.57149    46.84872    25.35144
   385  C   4.0   -0.03    4.49    4.52    38.33559    43.53661    25.06015
   386  C   4.0   -0.02    3.71    3.24    39.92491    41.26923    24.66104
   387  C   4.0   -0.05    3.63    3.19    40.53673    39.70413    26.62826
   388  C   4.0   -0.04    3.60    3.17    40.69287    40.48789    22.31556
   389  C   4.0   -0.04    3.56    3.15    41.74914    37.55903    26.29129
   390  C   4.0   -0.05    3.56    3.14    41.90411    38.34336    21.94558
   391  C   4.0    0.07    3.58    3.15    42.45796    36.78114    23.92715
   392  O   6.0   -0.26    2.15    1.85    43.53099    34.48479    23.61567
   393  H   1.0    0.10    1.11    1.45    35.83053    47.10531    26.87462
   394  H   1.0    0.04    1.11    1.44    38.68191    44.05569    28.94462
   395  H   1.0    0.04    1.09    1.44    36.48230    42.99857    25.15643
   396  H   1.0    0.06    1.09    1.44    38.43721    44.67018    23.50109
   397  H   1.0    0.05    1.09    1.44    40.02248    40.23669    28.38114
   398  H   1.0    0.05    1.08    1.44    40.29506    41.61845    20.83280
   399  H   1.0    0.06    1.08    1.44    42.17682    36.43483    27.76675
   400  H   1.0    0.05    1.08    1.44    42.44616    37.79346    20.20040
   401  H   1.0    0.12    1.09    1.44    43.87376    34.27466    21.95926
   402  N   5.0   -0.22    3.26    1.97    45.83162    43.69079    20.32321
   403  C   4.0    0.03    4.36    4.31    44.48285    44.19076    18.05168
   404  C   4.0    0.08    3.29    3.05    46.10494    45.20842    15.94168
   405  O   6.0   -0.29    1.22    1.80    46.21800    47.47205    15.61313
   406  C   4.0   -0.02    4.52    4.56    42.35183    45.97651    18.53201
   407  C   4.0    0.17    3.36    3.07    41.15823    47.04243    16.18167
   408  O   6.0   -0.27    1.26    1.80    41.28516    49.29583    15.74426
   409  N   5.0   -0.20    3.31    1.99    40.11348    45.48442    14.78806
   410  H   1.0    0.11    1.08    1.44    45.30117    44.70173    21.66212
   411  H   1.0    0.03    1.11    1.45    43.85093    42.46592    17.43823
   412  H   1.0    0.04    1.08    1.44    40.99229    45.11461    19.59733
   413  H   1.0    0.07    1.08    1.44    42.99082    47.42735    19.64285
   414  H   1.0    0.10    1.07    1.44    39.32515    45.92012    13.24092
   415  H   1.0    0.09    1.07    1.44    40.00378    43.72837    15.12372
   416  N   5.0   -0.22    3.24    1.97    49.20429    52.11735    15.74270
   417  C   4.0    0.03    4.28    4.17    49.68093    53.16843    18.18633
   418  C   4.0    0.08    3.25    3.04    51.48134    51.65593    19.83416
   419  O   6.0   -0.31    1.17    1.80    52.43405    52.58981    21.71194
   420  C   4.0   -0.04    4.50    4.54    47.23949    53.72276    19.55001
   421  C   4.0   -0.02    4.32    4.24    47.05111    54.67245    22.22427
   422  C   4.0   -0.08    4.27    4.14    44.48873    55.65351    22.71498
   423  C   4.0   -0.07    4.30    4.19    47.65590    52.65743    24.05564
   424  H   1.0    0.12    1.08    1.44    47.69118    51.22110    15.65406
   425  H   1.0    0.04    1.11    1.45    50.64044    54.82545    17.86184
   426  H   1.0    0.05    1.09    1.44    46.23855    54.95196    18.44541
   427  H   1.0    0.06    1.09    1.44    46.22168    52.08386    19.50216
   428  H   1.0    0.04    1.11    1.45    48.34339    56.10486    22.43780
   429  H   1.0    0.04    1.04    1.43    44.33017    56.33233    24.50148
   430  H   1.0    0.05    1.04    1.43    44.02685    57.06836    21.50324
   431  H   1.0    0.05    1.05    1.44    43.19251    54.25414    22.50216
   432  H   1.0    0.04    1.04    1.43    47.58030    53.30313    25.86032
   433  H   1.0    0.06    1.05    1.44    46.40663    51.21201    23.89122
   434  H   1.0    0.07    1.08    1.44    49.41242    51.95030    23.75965
   435  N   5.0   -0.23    3.28    1.98    41.84105    65.12156    20.31474
   436  C   4.0    0.03    4.32    4.23    39.62264    64.77432    21.79636
   437  C   4.0    0.07    3.22    3.04    37.59165    66.60929    20.90027
   438  O   6.0   -0.30    1.12    1.80    35.36822    66.02804    20.84805
   439  C   4.0   -0.05    4.50    4.53    40.21242    65.02987    24.56808
   440  C   4.0   -0.03    4.33    4.25    42.10482    63.16980    25.60884
   441  C   4.0   -0.09    4.22    4.03    43.11047    63.88934    28.14756
   442  C   4.0   -0.09    4.28    4.16    40.91428    60.64524    25.62202
   443  H   1.0    0.08    1.08    1.44    43.21324    65.70362    21.24752
   444  H   1.0    0.05    1.11    1.45    38.94354    62.97267    21.52561
   445  H   1.0    0.04    1.08    1.44    40.82216    66.83204    24.89564
   446  H   1.0    0.04    1.08    1.44    38.57947    64.87450    25.59304
   447  H   1.0    0.04    1.12    1.45    43.65587    63.15472    24.43990
   448  H   1.0    0.04    1.04    1.43    44.41035    62.61994    28.77378
   449  H   1.0    0.04    1.04    1.43    43.95810    65.61323    28.11181
   450  H   1.0    0.04    1.04    1.43    41.69275    63.95800    29.43597
   451  H   1.0    0.03    1.04    1.43    42.11982    59.29473    26.25756
   452  H   1.0    0.04    1.05    1.44    39.37463    60.64517    26.76761
   453  H   1.0    0.04    1.04    1.43    40.33280    60.12736    23.86548
   454  N   5.0   -0.22    3.24    1.97    35.54738    59.84254    15.87804
   455  C   4.0    0.03    4.47    4.49    36.37216    57.40673    15.00246
   456  C   4.0    0.17    3.48    3.11    37.63038    55.73398    16.97515
   457  O   6.0   -0.31    1.27    1.80    39.59048    56.31278    17.96929
   458  C   4.0    0.05    4.35    4.30    38.14034    57.55073    12.71891
   459  O   6.0   -0.25    2.18    1.85    38.98328    55.09437    12.11286
   460  C   4.0   -0.08    4.25    4.10    40.26596    59.25609    13.21765
   461  H   1.0    0.10    1.06    1.44    36.76363    60.70702    16.80910
   462  H   1.0    0.04    1.12    1.45    34.69896    56.56564    14.50424
   463  H   1.0    0.03    1.09    1.44    37.13414    58.28429    11.22528
   464  H   1.0    0.12    1.06    1.44    40.02275    55.19513    10.76335
   465  H   1.0    0.04    1.04    1.43    41.43790    59.38193    11.70091
   466  H   1.0    0.04    1.05    1.44    39.66960    61.02924    13.64478
   467  H   1.0    0.06    1.05    1.44    41.29719    58.61085    14.70297
   468  N   5.0   -0.15    3.50    2.08    36.43912    53.58822    17.49946
   469  C   4.0    0.02    4.38    4.34    37.26433    51.85346    19.32037
   470  C   4.0    0.15    3.37    3.07    35.24674    51.30034    21.23345
   471  O   6.0   -0.30    1.29    1.80    35.73291    50.40241    23.27420
   472  H   1.0    0.08    1.13    1.45    34.94939    53.10430    16.69614
   473  H   1.0    0.06    1.07    1.44    37.87653    50.20834    18.49743
   474  H   1.0    0.07    1.08    1.44    38.84667    52.54387    20.20660
   475  N   5.0   -0.13    3.59    2.15    32.89881    51.89083    20.55892
   476  C   4.0    0.04    4.47    4.50    30.69917    51.50823    22.08809
   477  C   4.0    0.15    3.45    3.10    29.30747    49.07590    21.37124
   478  O   6.0   -0.29    1.37    1.80    30.04527    47.77502    19.67015
   479  C   4.0    0.03    4.28    4.15    29.00224    53.77181    22.02353
   480  O   6.0   -0.26    2.10    1.84    30.21535    55.88253    22.98347
   481  H   1.0    0.08    1.13    1.45    32.52980    52.61110    18.99950
   482  H   1.0    0.08    1.13    1.45    31.33817    51.28788    23.90773
   483  H   1.0    0.04    1.06    1.44    28.41628    54.07459    20.20399
   484  H   1.0    0.03    1.06    1.44    27.37122    53.41173    23.00192
   485  H   1.0    0.12    1.06    1.44    29.16148    57.22349    22.89756
   486  N   5.0   -0.16    3.51    2.08    27.22625    48.50377    22.65395
   487  C   4.0    0.04    4.51    4.55    25.79576    46.25010    22.19994
   488  C   4.0    0.15    3.55    3.14    23.39096    46.01339    23.75919
   489  O   6.0   -0.30    1.37    1.80    23.50618    45.12324    25.83950
   490  C   4.0   -0.02    4.54    4.59    27.35189    43.96650    22.79313
   491  C   4.0    0.00    3.72    3.26    29.35360    43.20512    21.00374
   492  C   4.0   -0.03    3.64    3.19    31.86412    43.39938    21.59950
   493  C   4.0   -0.03    3.61    3.17    28.80972    42.22990    18.67014
   494  C   4.0   -0.03    3.56    3.14    33.66568    42.69488    20.03090
   495  C   4.0   -0.04    3.56    3.15    30.59527    41.50703    17.07372
   496  C   4.0    0.07    3.56    3.15    33.09755    41.71502    17.70630
   497  O   6.0   -0.26    2.14    1.85    35.01735    40.98199    16.15036
   498  H   1.0    0.09    1.11    1.45    26.58594    49.50493    23.94544
   499  H   1.0    0.05    1.11    1.45    25.35517    46.34759    20.31633
   500  H   1.0    0.06    1.09    1.44    28.15053    44.24789    24.52909
   501  H   1.0    0.05    1.09    1.44    26.15785    42.47021    23.04504
   502  H   1.0    0.06    1.09    1.44    32.31623    44.11915    23.30312
   503  H   1.0    0.06    1.09    1.44    26.97435    42.07046    18.17978
   504  H   1.0    0.06    1.08    1.44    35.50128    42.86132    20.51023
   505  H   1.0    0.05    1.08    1.44    30.14910    40.79256    15.36241
   506  H   1.0    0.13    1.08    1.44    34.33456    40.38281    14.70873
   507  N   5.0   -0.13    3.60    2.16    21.19394    46.79315    22.80773
   508  C   4.0    0.04    4.42    4.42    18.90301    46.43746    24.20629
   509  C   4.0    0.11    3.34    3.06    18.78106    43.53748    24.35579
   510  O   6.0   -0.29    1.23    1.80    20.06181    42.25722    22.92557
   511  C   4.0   -0.04    4.42    4.42    16.65214    47.59532    22.91072
   512  C   4.0    0.16    3.31    3.06    16.39635    46.96016    20.13306
   513  O   6.0   -0.30    1.27    1.80    16.51242    44.73379    19.47558
   514  N   5.0   -0.22    3.28    1.98    16.09419    48.73767    18.67711
   515  H   1.0    0.08    1.11    1.45    21.00402    47.51585    21.21569
   516  H   1.0    0.06    1.09    1.44    18.91901    47.29784    25.95729
   517  H   1.0    0.04    1.07    1.44    15.03956    47.06673    23.84260
   518  H   1.0    0.04    1.08    1.44    16.70613    49.51677    23.10869
   519  H   1.0    0.09    1.07    1.44    15.91718    48.55643    16.89869
   520  H   1.0    0.08    1.07    1.44    15.99893    50.46414    19.16600
   521  N   5.0   -0.22    3.26    1.97    18.53154    39.44874    18.09506
   522  C   4.0    0.04    4.38    4.34    20.73133    39.36430    16.53027
   523  C   4.0    0.16    3.47    3.10    22.75913    37.61315    17.59442
   524  O   6.0   -0.30    1.26    1.80    23.89535    36.11643    16.27524
   525  C   4.0    0.03    4.26    4.11    21.85116    41.93916    16.03007
   526  O   6.0   -0.27    2.10    1.84    24.11075    41.81432    14.69524
   527  H   1.0    0.13    1.08    1.44    18.51324    40.81444    19.20601
   528  H   1.0    0.05    1.11    1.45    20.15427    38.61241    14.83398
   529  H   1.0    0.04    1.05    1.44    20.56804    43.04222    15.08924
   530  H   1.0    0.05    1.06    1.44    22.11046    42.83588    17.72551
   531  H   1.0    0.12    1.06    1.44    24.71245    43.39617    14.46203
   532  N   5.0   -0.16    3.51    2.08    23.22305    37.81799    20.03758
   533  C   4.0    0.04    4.43    4.44    25.07550    36.31615    21.31813
   534  C   4.0    0.10    3.35    3.06    24.71273    33.48633    21.07267
   535  O   6.0   -0.28    1.16    1.80    26.46631    32.01787    21.22478
   536  C   4.0   -0.04    4.46    4.48    25.30779    36.90349    24.07670
   537  C   4.0   -0.00    3.77    3.31    26.37998    34.82890    25.62063
   538  C   4.0   -0.04    3.63    3.19    24.86425    33.16510    26.87445
   539  C   4.0   -0.02    3.64    3.19    28.91894    34.37949    25.70379
   540  C   4.0   -0.04    3.53    3.13    25.84918    31.19439    28.10521
   541  C   4.0   -0.04    3.52    3.12    29.88093    32.40799    26.93466
   542  C   4.0   -0.04    3.54    3.13    28.33599    30.81548    28.13302
   543  H   1.0    0.10    1.12    1.45    22.36698    38.94020    21.08864
   544  H   1.0    0.06    1.12    1.45    26.72476    36.75350    20.39548
   545  H   1.0    0.04    1.08    1.44    26.37304    38.49217    24.32561
   546  H   1.0    0.05    1.08    1.44    23.56092    37.36730    24.75506
   547  H   1.0    0.05    1.08    1.44    22.98194    33.45293    26.84727
   548  H   1.0    0.05    1.08    1.44    30.06702    35.59356    24.79237
   549  H   1.0    0.04    1.08    1.44    24.65833    29.99643    29.01131
   550  H   1.0    0.05    1.08    1.44    31.77422    32.12997    26.95162
   551  H   1.0    0.05    1.08    1.44    29.07282    29.31260    29.06731
   552  N   5.0   -0.22    3.24    1.96    27.11754    32.06058    13.19187
   553  C   4.0    0.04    4.27    4.14    29.64703    32.38307    12.30086
   554  C   4.0    0.09    3.21    3.04    31.50194    30.43125    13.35806
   555  O   6.0   -0.30    1.13    1.80    33.67977    30.36842    12.66817
   556  C   4.0    0.04    4.25    4.10    30.62049    35.03930    12.74061
   557  O   6.0   -0.25    2.10    1.84    30.72073    35.64070    15.29372
   558  H   1.0    0.13    1.07    1.44    26.64475    33.22785    14.41957
   559  H   1.0    0.04    1.11    1.45    29.56028    32.04863    10.38533
   560  H   1.0    0.05    1.05    1.44    32.37725    35.23599    11.94730
   561  H   1.0    0.04    1.05    1.44    29.51686    36.31047    11.78451
   562  H   1.0    0.13    1.08    1.44    30.78527    37.33730    15.46568
   563  H   1.0    0.09    1.08    1.44    40.22798    42.07960    34.57441
   564  H   1.0    0.06    1.06    1.44    38.54514    71.79728    36.41008
   565  H   1.0    0.11    1.08    1.44    40.60775    71.64103    41.24388
   566  H   1.0    0.06    1.05    1.44    46.46020    73.02269    38.20813
   567  H   1.0    0.09    1.08    1.44    57.34624    59.79665    52.03033
   568  H   1.0    0.05    1.05    1.44    55.20869    56.06818    43.70136
   569  H   1.0    0.09    1.08    1.44    54.02239    53.51428    47.55026
   570  H   1.0    0.05    1.04    1.43    39.28828    39.64455    45.38481
   571  H   1.0    0.11    1.09    1.44    34.37165    38.42178    42.77046
   572  H   1.0    0.05    1.05    1.44    29.39996    34.51175    39.86355
   573  H   1.0    0.09    1.08    1.44    20.87013    31.11219    36.22528
   574  H   1.0    0.05    1.05    1.44    13.86124    41.52635    36.83804
   575  H   1.0    0.09    1.08    1.44    14.19891    52.25713    33.97255
   576  H   1.0    0.05    1.05    1.44    42.94938    45.10687    28.52423
   577  H   1.0    0.09    1.08    1.44    45.60287    42.06677    20.77357
   578  H   1.0    0.05    1.05    1.44    47.07028    44.01960    14.83448
   579  H   1.0    0.09    1.08    1.44    49.12719    53.36749    14.59215
   580  H   1.0    0.06    1.05    1.44    51.89919    49.86887    19.38374
   581  H   1.0    0.09    1.08    1.44    42.29086    63.64035    19.61029
   582  H   1.0    0.05    1.05    1.44    38.07175    68.34691    20.33347
   583  H   1.0    0.09    1.08    1.44    35.14252    60.81786    14.54485
   584  H   1.0    0.05    1.04    1.43    17.65420    42.70323    25.62279
   585  H   1.0    0.10    1.08    1.44    17.14433    39.56829    17.11837
   586  H   1.0    0.06    1.05    1.44    22.98641    32.77728    20.77579
   587  H   1.0    0.09    1.08    1.44    26.03252    32.22650    11.89273
   588  H   1.0    0.06    1.05    1.44    30.92057    29.17539    14.64488

  Z AO/shell   Hii/eV     exponent
  1     Wed Apr 25 08:07:45 CEST 2018   EN: 2.200 GM2: 0.406  GM3: 0.0800  RAES: 1.40
     1s    -10.707211    1.230000
  6     Wed Apr 25 08:07:45 CEST 2018   EN: 2.550 GM2: 0.538  GM3: 0.1500  RAES: 3.00
     2s    -13.970922    2.096432
     2p    -10.063292    1.800000
  7     Wed Apr 25 08:07:45 CEST 2018   EN: 3.040 GM2: 0.461  GM3:-0.0640  RAES: 1.90
     2s    -16.686243    2.339881
     2p    -12.523956    2.014332
  8     Wed Apr 25 08:07:45 CEST 2018   EN: 3.440 GM2: 0.452  GM3:-0.0517  RAES: 1.80
     2s    -20.229985    2.439742
     2p    -15.503117    2.137023
 no old-style atom pair restraining (fixing) potential

molecular fragmentation (1/2 indicates fragments):
111111111111111111111111111111111111111111111111111111111111111111111111
111111111111111111111111111111111111111111111111111111111111222222222222
222222222222222222222222222222222222222222222222222222222222222222222222
222222222222222222222222222222222222222222222222222222222222222222222222
222222222222222222222222222222222222222222222222222222222222222222222222
222222222222222222222222222222222222222222222222222222222222222222222222
222222222222222222222222222222222222222222222222222222222222222222222222
222222222222222222222222222222222222222222222222222222222211222222222222
222222222222
# atoms in fragment 1/2:   134   454
 fragment masses (1/2) :      938.09     3123.67
CMA distance (Bohr)    :  10.647
constraining FC (au)   :  0.0500
           ------------------------------------------------- 
          |        Self-Consistent Charge Iterations        |
           ------------------------------------------------- 

 Ncao       : 1455
 Nao        : 1455
 Nshell     : 877
 Nel        : 1602
 T(el)      :   500.0
 intcut     :    35.0
 scfconv/Eh :  0.100E-06
   qconv/e  :  0.100E-04
 intneglect :  0.100E-08
 broydamp   :      0.400
 iter      E             dE          RMSdq      gap      omega  full diag
   1   -916.5560159 -0.916556E+03  0.459E+00    2.86       0.0  T
   2   -918.6733109 -0.211729E+01  0.219E+00    1.69       1.0  T
   3   -918.7865032 -0.113192E+00  0.121E+00    2.12       1.0  T
   4   -918.9087261 -0.122223E+00  0.250E-01    1.44       1.0  T
   5   -918.9185910 -0.986483E-02  0.120E-01    1.54       1.0  T
   6   -918.9200210 -0.143004E-02  0.538E-02    1.56       1.0  T
   7   -918.9204958 -0.474736E-03  0.224E-02    1.58       1.0  T
   8   -918.9205532 -0.574518E-04  0.107E-02    1.59       1.0  T
   9   -918.9205680 -0.147750E-04  0.443E-03    1.60       1.0  T
  10   -918.9205707 -0.266863E-05  0.192E-03    1.60       2.1  T
  11   -918.9205710 -0.359792E-06  0.799E-04    1.60       5.2  T
  12   -918.9205711 -0.854698E-07  0.388E-04    1.60      10.6  T
  13   -918.9205711 -0.249584E-07  0.181E-04    1.60      22.8  T
  14   -918.9205711 -0.349291E-08  0.860E-05    1.60      47.9  T
  15   -918.9205711 -0.960085E-09  0.339E-05    1.60     121.8  T
speedup  1.00
cpu  time for SCC   15.69 s
wall time for SCC   15.69 s

   *** convergence criteria satisfied after 15 iterations ***

          eigenvalues
 #    :         789        790        791        792        793        794        795        796
 occ. :        2.000      2.000      2.000      2.000      2.000      2.000      2.000      2.000
 eps  :        -9.929     -9.926     -9.910     -9.872     -9.828     -9.799     -9.725     -9.695
 #    :         797        798        799        800        801        802        803        804
 occ. :        2.000      2.000      2.000      2.000      2.000      0.000      0.000      0.000
 eps  :        -9.674     -9.664     -9.658     -9.630     -9.542     -7.940     -7.865     -7.664
 #    :         805        806        807        808        809        810        811        812
 occ. :        0.000      0.000      0.000      0.000      0.000      0.000      0.000      0.000
 eps  :        -7.639     -7.591     -7.547     -7.523     -7.519     -7.452     -7.414     -7.375


   #   Z            q   n(s)   n(p)   n(d)      C6AA      α(0)
   1   7 N     -0.406  1.292  4.114  0.000    30.533     8.207
   2   6 C      0.041  1.030  2.929  0.000    19.864     6.342
   3   6 C      0.267  1.041  2.692  0.000    22.499     7.768
   4   8 O     -0.441  1.727  4.713  0.000    22.508     6.361
   5   6 C     -0.075  1.008  3.066  0.000    21.894     6.656
   6   6 C     -0.052  1.044  3.007  0.000    28.857     8.772
   7   6 C     -0.008  1.031  2.977  0.000    27.844     8.622
   8   6 C     -0.036  1.067  2.969  0.000    28.002     8.587
   9   7 N     -0.088  1.192  3.895  0.000    22.949     7.115
  10   6 C      0.031  1.050  2.919  0.000    26.627     8.393
  11   6 C     -0.049  1.051  2.997  0.000    29.207     8.864
  12   6 C     -0.054  1.048  3.007  0.000    29.347     8.885
  13   6 C     -0.052  1.048  3.004  0.000    29.287     8.877
  14   6 C     -0.043  1.047  2.996  0.000    29.070     8.844
  15   1 H      0.188  0.812  0.000  0.000     1.171     1.695
  16   1 H      0.017  0.983  0.000  0.000     2.777     2.606
  17   1 H      0.062  0.938  0.000  0.000     2.174     2.306
  18   1 H      0.050  0.950  0.000  0.000     2.317     2.380
  19   1 H      0.048  0.952  0.000  0.000     2.343     2.394
  20   1 H      0.199  0.801  0.000  0.000     1.109     1.650
  21   1 H      0.027  0.973  0.000  0.000     2.627     2.534
  22   1 H      0.043  0.957  0.000  0.000     2.407     2.426
  23   1 H      0.025  0.975  0.000  0.000     2.659     2.550
  24   1 H      0.033  0.967  0.000  0.000     2.541     2.492
  25   7 N     -0.181  1.208  3.973  0.000    24.918     7.414
  26   6 C      0.011  1.034  2.955  0.000    20.396     6.429
  27   6 C      0.264  1.042  2.694  0.000    22.543     7.775
  28   8 O     -0.453  1.715  4.739  0.000    22.774     6.398
  29   6 C     -0.158  1.000  3.158  0.000    23.598     6.921
  30   1 H      0.179  0.821  0.000  0.000     1.222     1.731
  31   1 H      0.111  0.889  0.000  0.000     1.691     2.034
  32   1 H      0.057  0.943  0.000  0.000     2.232     2.336
  33   1 H      0.090  0.910  0.000  0.000     1.876     2.142
  34   1 H      0.057  0.943  0.000  0.000     2.239     2.340
  35   7 N     -0.189  1.219  3.970  0.000    25.098     7.441
  36   6 C      0.033  1.030  2.937  0.000    20.017     6.369
  37   6 C      0.250  1.049  2.701  0.000    22.812     7.822
  38   8 O     -0.499  1.746  4.753  0.000    23.758     6.535
  39   6 C     -0.103  1.035  3.068  0.000    22.453     6.743
  40   6 C      0.365  1.016  2.618  0.000    20.807     7.465
  41   8 O     -0.620  1.757  4.863  0.000    26.610     6.916
  42   8 O     -0.654  1.777  4.877  0.000    27.497     7.030
  43   1 H      0.206  0.794  0.000  0.000     1.076     1.625
  44   1 H      0.074  0.926  0.000  0.000     2.039     2.233
  45   1 H      0.049  0.951  0.000  0.000     2.335     2.389
  46   1 H      0.023  0.977  0.000  0.000     2.684     2.562
  47   7 N     -0.113  1.246  3.867  0.000    23.473     7.196
  48   6 C      0.010  1.047  2.943  0.000    20.354     6.414
  49   6 C      0.277  1.034  2.689  0.000    22.316     7.736
  50   8 O     -0.466  1.736  4.730  0.000    23.037     6.435
  51   6 C     -0.087  1.018  3.070  0.000    22.114     6.686
  52   6 C     -0.086  1.015  3.071  0.000    22.088     6.681
  53   6 C     -0.008  1.017  2.992  0.000    20.719     6.479
  54   1 H      0.098  0.902  0.000  0.000     1.801     2.099
  55   1 H      0.095  0.905  0.000  0.000     1.834     2.118
  56   1 H      0.083  0.917  0.000  0.000     1.947     2.182
  57   1 H      0.065  0.935  0.000  0.000     2.142     2.289
  58   1 H      0.082  0.918  0.000  0.000     1.961     2.190
  59   1 H      0.048  0.952  0.000  0.000     2.340     2.392
  60   1 H      0.073  0.927  0.000  0.000     2.055     2.242
  61   7 N     -0.202  1.222  3.979  0.000    25.383     7.483
  62   6 C      0.010  1.045  2.944  0.000    20.398     6.428
  63   6 C      0.287  1.034  2.680  0.000    22.145     7.706
  64   8 O     -0.493  1.749  4.744  0.000    23.619     6.516
  65   6 C     -0.037  1.044  2.993  0.000    21.182     6.544
  66   6 C     -0.069  1.011  3.058  0.000    21.797     6.644
  67   6 C     -0.136  0.994  3.141  0.000    23.132     6.852
  68   6 C     -0.135  0.993  3.142  0.000    23.129     6.854
  69   1 H      0.205  0.795  0.000  0.000     1.082     1.629
  70   1 H      0.095  0.905  0.000  0.000     1.827     2.114
  71   1 H      0.078  0.922  0.000  0.000     1.995     2.209
  72   1 H      0.059  0.941  0.000  0.000     2.204     2.322
  73   1 H      0.022  0.978  0.000  0.000     2.702     2.570
  74   1 H      0.072  0.928  0.000  0.000     2.066     2.248
  75   1 H      0.043  0.957  0.000  0.000     2.414     2.430
  76   1 H      0.039  0.961  0.000  0.000     2.457     2.451
  77   1 H      0.056  0.944  0.000  0.000     2.247     2.344
  78   1 H      0.046  0.954  0.000  0.000     2.371     2.408
  79   1 H      0.066  0.934  0.000  0.000     2.132     2.283
  80   7 N     -0.203  1.229  3.974  0.000    25.407     7.486
  81   6 C      0.028  1.030  2.942  0.000    20.103     6.384
  82   6 C      0.284  1.033  2.683  0.000    22.188     7.714
  83   8 O     -0.515  1.760  4.755  0.000    24.121     6.585
  84   6 C     -0.060  1.016  3.044  0.000    21.638     6.620
  85   6 C     -0.095  1.024  3.071  0.000    22.288     6.719
  86   6 C      0.374  1.017  2.609  0.000    20.663     7.439
  87   8 O     -0.670  1.772  4.898  0.000    27.912     7.083
  88   8 O     -0.646  1.774  4.872  0.000    27.279     7.003
  89   1 H      0.203  0.797  0.000  0.000     1.091     1.636
  90   1 H      0.059  0.941  0.000  0.000     2.206     2.322
  91   1 H      0.044  0.956  0.000  0.000     2.396     2.420
  92   1 H      0.053  0.947  0.000  0.000     2.281     2.361
  93   1 H      0.041  0.959  0.000  0.000     2.430     2.437
  94   1 H      0.026  0.974  0.000  0.000     2.648     2.544
  95   7 N     -0.197  1.233  3.964  0.000    25.274     7.467
  96   6 C      0.027  1.026  2.947  0.000    20.103     6.381
  97   6 C      0.280  1.034  2.686  0.000    22.263     7.728
  98   8 O     -0.494  1.746  4.748  0.000    23.650     6.520
  99   6 C     -0.090  1.026  3.065  0.000    22.178     6.698
 100   6 C     -0.012  1.027  2.985  0.000    20.739     6.476
 101   6 C     -0.144  1.000  3.144  0.000    23.291     6.875
 102   6 C     -0.137  0.997  3.140  0.000    23.145     6.853
 103   1 H      0.217  0.783  0.000  0.000     1.025     1.586
 104   1 H      0.074  0.926  0.000  0.000     2.041     2.234
 105   1 H      0.076  0.924  0.000  0.000     2.018     2.221
 106   1 H      0.059  0.941  0.000  0.000     2.215     2.327
 107   1 H      0.031  0.969  0.000  0.000     2.567     2.505
 108   1 H      0.063  0.937  0.000  0.000     2.158     2.297
 109   1 H      0.055  0.945  0.000  0.000     2.262     2.352
 110   1 H      0.056  0.944  0.000  0.000     2.245     2.343
 111   1 H      0.051  0.949  0.000  0.000     2.306     2.375
 112   1 H      0.050  0.950  0.000  0.000     2.316     2.380
 113   1 H      0.041  0.959  0.000  0.000     2.434     2.439
 114   7 N     -0.182  1.217  3.965  0.000    24.937     7.417
 115   6 C      0.021  1.043  2.936  0.000    20.210     6.398
 116   6 C      0.215  1.078  2.707  0.000    23.454     7.932
 117   8 O     -0.362  1.741  4.621  0.000    20.943     6.136
 118   6 C     -0.029  1.040  2.989  0.000    21.037     6.522
 119   6 C     -0.071  1.011  3.060  0.000    21.825     6.646
 120   6 C     -0.149  0.998  3.152  0.000    23.390     6.887
 121   6 C     -0.134  0.992  3.142  0.000    23.116     6.852
 122   1 H      0.219  0.781  0.000  0.000     1.014     1.577
 123   1 H      0.096  0.904  0.000  0.000     1.819     2.109
 124   1 H      0.076  0.924  0.000  0.000     2.023     2.224
 125   1 H      0.040  0.960  0.000  0.000     2.450     2.448
 126   1 H      0.034  0.966  0.000  0.000     2.529     2.486
 127   1 H      0.083  0.917  0.000  0.000     1.949     2.183
 128   1 H      0.059  0.941  0.000  0.000     2.208     2.324
 129   1 H      0.065  0.935  0.000  0.000     2.136     2.285
 130   1 H      0.053  0.947  0.000  0.000     2.279     2.361
 131   1 H      0.058  0.942  0.000  0.000     2.216     2.328
 132   1 H      0.060  0.940  0.000  0.000     2.196     2.317
 133   7 N     -0.389  1.288  4.101  0.000    30.056     8.142
 134   6 C      0.028  1.025  2.947  0.000    20.115     6.387
 135   6 C      0.205  1.086  2.708  0.000    23.641     7.963
 136   8 O     -0.384  1.751  4.633  0.000    21.361     6.197
 137   6 C     -0.072  1.028  3.045  0.000    21.851     6.650
 138   6 C     -0.008  1.025  2.983  0.000    20.674     6.466
 139   6 C     -0.116  0.996  3.121  0.000    22.747     6.794
 140   6 C     -0.122  0.997  3.125  0.000    22.856     6.811
 141   1 H      0.170  0.830  0.000  0.000     1.274     1.768
 142   1 H      0.072  0.928  0.000  0.000     2.059     2.244
 143   1 H      0.040  0.960  0.000  0.000     2.445     2.445
 144   1 H      0.051  0.949  0.000  0.000     2.307     2.375
 145   1 H      0.038  0.962  0.000  0.000     2.477     2.461
 146   1 H      0.053  0.947  0.000  0.000     2.286     2.364
 147   1 H      0.029  0.971  0.000  0.000     2.599     2.521
 148   1 H      0.033  0.967  0.000  0.000     2.537     2.490
 149   1 H      0.046  0.954  0.000  0.000     2.367     2.406
 150   1 H      0.041  0.959  0.000  0.000     2.430     2.437
 151   1 H      0.042  0.958  0.000  0.000     2.422     2.434
 152   7 N     -0.410  1.290  4.120  0.000    30.642     8.221
 153   6 C      0.032  1.028  2.940  0.000    20.028     6.371
 154   6 C      0.269  1.043  2.689  0.000    22.467     7.763
 155   8 O     -0.519  1.752  4.766  0.000    24.200     6.596
 156   6 C     -0.067  1.011  3.056  0.000    21.760     6.637
 157   6 C     -0.106  1.018  3.088  0.000    22.483     6.745
 158   6 C      0.300  1.009  2.692  0.000    21.915     7.665
 159   8 O     -0.562  1.767  4.795  0.000    25.191     6.730
 160   7 N     -0.251  1.215  4.036  0.000    26.532     7.650
 161   1 H      0.187  0.813  0.000  0.000     1.176     1.698
 162   1 H      0.046  0.954  0.000  0.000     2.372     2.408
 163   1 H      0.043  0.957  0.000  0.000     2.409     2.427
 164   1 H      0.055  0.945  0.000  0.000     2.254     2.348
 165   1 H      0.068  0.932  0.000  0.000     2.103     2.268
 166   1 H      0.058  0.942  0.000  0.000     2.227     2.333
 167   1 H      0.241  0.759  0.000  0.000     0.917     1.500
 168   1 H      0.241  0.759  0.000  0.000     0.918     1.501
 169   7 N     -0.181  1.217  3.964  0.000    24.922     7.414
 170   6 C      0.024  1.030  2.946  0.000    20.160     6.390
 171   6 C      0.196  1.078  2.726  0.000    23.821     7.994
 172   8 O     -0.352  1.743  4.609  0.000    20.753     6.108
 173   6 C     -0.087  1.020  3.067  0.000    22.126     6.692
 174   6 C      0.003  1.068  2.929  0.000    27.941     8.671
 175   6 C     -0.051  1.062  2.988  0.000    29.254     8.872
 176   6 C     -0.049  1.059  2.990  0.000    29.222     8.867
 177   6 C     -0.037  1.056  2.980  0.000    28.907     8.819
 178   6 C     -0.037  1.055  2.982  0.000    28.919     8.820
 179   6 C     -0.039  1.057  2.982  0.000    28.952     8.826
 180   1 H      0.230  0.770  0.000  0.000     0.964     1.538
 181   1 H      0.106  0.894  0.000  0.000     1.727     2.055
 182   1 H      0.084  0.916  0.000  0.000     1.939     2.178
 183   1 H      0.078  0.922  0.000  0.000     1.999     2.211
 184   1 H      0.060  0.940  0.000  0.000     2.201     2.320
 185   1 H      0.046  0.954  0.000  0.000     2.369     2.407
 186   1 H      0.045  0.955  0.000  0.000     2.383     2.414
 187   1 H      0.041  0.959  0.000  0.000     2.437     2.441
 188   1 H      0.038  0.962  0.000  0.000     2.473     2.459
 189   7 N     -0.404  1.299  4.105  0.000    30.490     8.201
 190   6 C      0.032  1.033  2.935  0.000    20.039     6.374
 191   6 C      0.273  1.044  2.683  0.000    22.385     7.748
 192   8 O     -0.486  1.740  4.746  0.000    23.483     6.497
 193   6 C     -0.049  1.015  3.034  0.000    21.425     6.586
 194   6 C     -0.094  1.022  3.072  0.000    22.269     6.716
 195   6 C      0.372  1.018  2.610  0.000    20.698     7.446
 196   8 O     -0.644  1.771  4.874  0.000    27.232     6.996
 197   8 O     -0.671  1.775  4.896  0.000    27.939     7.087
 198   1 H      0.155  0.845  0.000  0.000     1.369     1.832
 199   1 H      0.068  0.932  0.000  0.000     2.103     2.267
 200   1 H      0.024  0.976  0.000  0.000     2.676     2.558
 201   1 H      0.026  0.974  0.000  0.000     2.645     2.543
 202   1 H      0.022  0.978  0.000  0.000     2.698     2.569
 203   1 H      0.027  0.973  0.000  0.000     2.627     2.534
 204   7 N     -0.194  1.220  3.975  0.000    25.221     7.459
 205   6 C      0.009  1.050  2.941  0.000    20.419     6.433
 206   6 C      0.267  1.038  2.695  0.000    22.485     7.765
 207   8 O     -0.484  1.728  4.756  0.000    23.432     6.490
 208   6 C     -0.012  1.032  2.980  0.000    20.751     6.478
 209   6 C     -0.133  0.994  3.139  0.000    23.070     6.842
 210   6 C     -0.129  0.994  3.135  0.000    23.000     6.831
 211   1 H      0.198  0.802  0.000  0.000     1.114     1.654
 212   1 H      0.081  0.919  0.000  0.000     1.968     2.194
 213   1 H      0.051  0.949  0.000  0.000     2.310     2.377
 214   1 H      0.040  0.960  0.000  0.000     2.445     2.445
 215   1 H      0.075  0.925  0.000  0.000     2.026     2.226
 216   1 H      0.047  0.953  0.000  0.000     2.363     2.404
 217   1 H      0.048  0.952  0.000  0.000     2.350     2.397
 218   1 H      0.044  0.956  0.000  0.000     2.391     2.418
 219   1 H      0.052  0.948  0.000  0.000     2.290     2.366
 220   7 N     -0.161  1.213  3.948  0.000    24.483     7.349
 221   6 C      0.020  1.037  2.943  0.000    20.239     6.404
 222   6 C      0.269  1.038  2.693  0.000    22.453     7.760
 223   8 O     -0.497  1.744  4.753  0.000    23.708     6.528
 224   6 C     -0.079  1.013  3.066  0.000    21.989     6.672
 225   6 C     -0.053  1.053  2.999  0.000    29.159     8.847
 226   6 C     -0.008  1.038  2.970  0.000    27.984     8.658
 227   6 C     -0.033  1.070  2.963  0.000    28.082     8.616
 228   7 N     -0.091  1.195  3.896  0.000    23.007     7.124
 229   6 C      0.031  1.054  2.914  0.000    26.886     8.466
 230   6 C     -0.051  1.052  3.000  0.000    29.278     8.875
 231   6 C     -0.060  1.049  3.011  0.000    29.500     8.908
 232   6 C     -0.053  1.049  3.004  0.000    29.325     8.883
 233   6 C     -0.045  1.049  2.995  0.000    29.108     8.850
 234   1 H      0.194  0.806  0.000  0.000     1.138     1.671
 235   1 H      0.082  0.918  0.000  0.000     1.958     2.188
 236   1 H      0.063  0.937  0.000  0.000     2.159     2.297
 237   1 H      0.074  0.926  0.000  0.000     2.046     2.237
 238   1 H      0.048  0.952  0.000  0.000     2.339     2.392
 239   1 H      0.195  0.805  0.000  0.000     1.130     1.665
 240   1 H      0.029  0.971  0.000  0.000     2.598     2.520
 241   1 H      0.041  0.959  0.000  0.000     2.439     2.442
 242   1 H      0.038  0.962  0.000  0.000     2.468     2.457
 243   1 H      0.041  0.959  0.000  0.000     2.428     2.437
 244   7 N     -0.155  1.210  3.945  0.000    24.349     7.329
 245   6 C      0.014  1.038  2.948  0.000    20.332     6.419
 246   6 C      0.190  1.085  2.725  0.000    23.937     8.013
 247   8 O     -0.321  1.743  4.577  0.000    20.158     6.020
 248   6 C     -0.096  1.020  3.077  0.000    22.313     6.721
 249   6 C     -0.090  1.010  3.080  0.000    22.207     6.706
 250   6 C     -0.108  1.018  3.090  0.000    22.536     6.756
 251   6 C     -0.058  1.004  3.054  0.000    21.686     6.642
 252   7 N     -0.127  1.171  3.956  0.000    23.738     7.236
 253   1 H      0.217  0.783  0.000  0.000     1.025     1.585
 254   1 H      0.093  0.907  0.000  0.000     1.849     2.126
 255   1 H      0.086  0.914  0.000  0.000     1.917     2.165
 256   1 H      0.074  0.926  0.000  0.000     2.039     2.233
 257   1 H      0.062  0.938  0.000  0.000     2.177     2.307
 258   1 H      0.085  0.915  0.000  0.000     1.931     2.173
 259   1 H      0.085  0.915  0.000  0.000     1.924     2.169
 260   1 H      0.095  0.905  0.000  0.000     1.835     2.118
 261   1 H      0.112  0.888  0.000  0.000     1.677     2.025
 262   1 H      0.101  0.899  0.000  0.000     1.777     2.085
 263   1 H      0.285  0.715  0.000  0.000     0.759     1.365
 264   1 H      0.289  0.711  0.000  0.000     0.746     1.353
 265   1 H      0.302  0.698  0.000  0.000     0.707     1.317
 266   7 N     -0.389  1.300  4.089  0.000    30.077     8.145
 267   6 C      0.024  1.032  2.943  0.000    20.177     6.397
 268   6 C      0.208  1.084  2.707  0.000    23.580     7.953
 269   8 O     -0.365  1.762  4.603  0.000    21.004     6.145
 270   6 C      0.058  1.007  2.935  0.000    19.768     6.360
 271   8 O     -0.478  1.693  4.784  0.000    22.414     6.391
 272   1 H      0.172  0.828  0.000  0.000     1.262     1.760
 273   1 H      0.087  0.913  0.000  0.000     1.905     2.158
 274   1 H      0.047  0.953  0.000  0.000     2.359     2.402
 275   1 H      0.041  0.959  0.000  0.000     2.431     2.438
 276   1 H      0.324  0.676  0.000  0.000     0.654     1.270
 277   7 N     -0.409  1.306  4.104  0.000    30.634     8.220
 278   6 C      0.041  1.031  2.928  0.000    19.890     6.351
 279   6 C      0.264  1.048  2.688  0.000    22.540     7.775
 280   8 O     -0.513  1.760  4.753  0.000    24.066     6.577
 281   6 C     -0.077  1.019  3.059  0.000    21.950     6.666
 282   6 C     -0.001  1.076  2.925  0.000    28.038     8.686
 283   6 C     -0.058  1.055  3.003  0.000    29.432     8.899
 284   6 C     -0.043  1.054  2.988  0.000    29.053     8.842
 285   6 C     -0.043  1.052  2.991  0.000    29.058     8.842
 286   6 C     -0.035  1.056  2.980  0.000    28.879     8.815
 287   6 C     -0.034  1.054  2.980  0.000    28.831     8.808
 288   1 H      0.173  0.827  0.000  0.000     1.252     1.753
 289   1 H      0.044  0.956  0.000  0.000     2.395     2.420
 290   1 H      0.062  0.938  0.000  0.000     2.180     2.309
 291   1 H      0.043  0.957  0.000  0.000     2.410     2.427
 292   1 H      0.048  0.952  0.000  0.000     2.344     2.394
 293   1 H      0.020  0.980  0.000  0.000     2.737     2.587
 294   1 H      0.051  0.949  0.000  0.000     2.302     2.373
 295   1 H      0.045  0.955  0.000  0.000     2.377     2.411
 296   1 H      0.042  0.958  0.000  0.000     2.422     2.434
 297   7 N     -0.087  1.233  3.854  0.000    22.929     7.112
 298   6 C      0.023  1.046  2.932  0.000    20.148     6.382
 299   6 C      0.213  1.072  2.714  0.000    23.491     7.937
 300   8 O     -0.364  1.747  4.617  0.000    20.977     6.141
 301   6 C     -0.061  1.010  3.051  0.000    21.622     6.610
 302   6 C     -0.086  1.014  3.072  0.000    22.090     6.681
 303   6 C     -0.022  1.021  3.001  0.000    20.951     6.514
 304   1 H      0.076  0.924  0.000  0.000     2.019     2.222
 305   1 H      0.057  0.943  0.000  0.000     2.231     2.336
 306   1 H      0.069  0.931  0.000  0.000     2.101     2.266
 307   1 H      0.078  0.922  0.000  0.000     2.003     2.213
 308   1 H      0.082  0.918  0.000  0.000     1.963     2.191
 309   1 H      0.068  0.932  0.000  0.000     2.104     2.268
 310   1 H      0.086  0.914  0.000  0.000     1.921     2.168
 311   7 N     -0.411  1.301  4.110  0.000    30.679     8.226
 312   6 C      0.050  1.032  2.919  0.000    19.749     6.328
 313   6 C      0.284  1.041  2.675  0.000    22.194     7.715
 314   8 O     -0.465  1.730  4.735  0.000    23.024     6.433
 315   6 C     -0.101  1.032  3.070  0.000    22.418     6.738
 316   6 C      0.364  1.020  2.616  0.000    20.823     7.468
 317   8 O     -0.640  1.771  4.869  0.000    27.117     6.982
 318   8 O     -0.625  1.754  4.871  0.000    26.748     6.934
 319   1 H      0.174  0.826  0.000  0.000     1.249     1.750
 320   1 H      0.025  0.975  0.000  0.000     2.652     2.547
 321   1 H      0.018  0.982  0.000  0.000     2.759     2.597
 322   1 H      0.026  0.974  0.000  0.000     2.638     2.540
 323   7 N     -0.190  1.213  3.977  0.000    25.115     7.443
 324   6 C      0.015  1.037  2.948  0.000    20.314     6.416
 325   6 C      0.277  1.034  2.690  0.000    22.320     7.736
 326   8 O     -0.417  1.729  4.688  0.000    22.031     6.293
 327   6 C     -0.092  1.022  3.070  0.000    22.228     6.709
 328   6 C     -0.002  1.079  2.922  0.000    28.060     8.689
 329   6 C     -0.044  1.062  2.982  0.000    29.087     8.846
 330   6 C     -0.054  1.063  2.992  0.000    29.345     8.885
 331   6 C     -0.037  1.061  2.976  0.000    28.918     8.820
 332   6 C     -0.047  1.061  2.986  0.000    29.155     8.856
 333   6 C     -0.047  1.062  2.984  0.000    29.160     8.857
 334   1 H      0.181  0.819  0.000  0.000     1.207     1.721
 335   1 H      0.087  0.913  0.000  0.000     1.912     2.162
 336   1 H      0.062  0.938  0.000  0.000     2.174     2.305
 337   1 H      0.052  0.948  0.000  0.000     2.294     2.369
 338   1 H      0.027  0.973  0.000  0.000     2.624     2.533
 339   1 H      0.044  0.956  0.000  0.000     2.390     2.418
 340   1 H      0.047  0.953  0.000  0.000     2.360     2.402
 341   1 H      0.068  0.932  0.000  0.000     2.103     2.268
 342   1 H      0.061  0.939  0.000  0.000     2.190     2.314
 343   7 N     -0.190  1.213  3.977  0.000    25.130     7.445
 344   6 C      0.019  1.042  2.939  0.000    20.256     6.408
 345   6 C      0.263  1.036  2.701  0.000    22.561     7.779
 346   8 O     -0.475  1.733  4.742  0.000    23.232     6.462
 347   6 C     -0.073  1.016  3.057  0.000    21.877     6.656
 348   6 C     -0.113  1.015  3.098  0.000    22.641     6.772
 349   6 C     -0.093  1.015  3.078  0.000    22.257     6.714
 350   6 C     -0.064  1.008  3.056  0.000    21.788     6.657
 351   7 N     -0.118  1.168  3.950  0.000    23.551     7.208
 352   1 H      0.192  0.808  0.000  0.000     1.147     1.677
 353   1 H      0.044  0.956  0.000  0.000     2.390     2.417
 354   1 H      0.094  0.906  0.000  0.000     1.838     2.120
 355   1 H      0.039  0.961  0.000  0.000     2.460     2.453
 356   1 H      0.112  0.888  0.000  0.000     1.677     2.025
 357   1 H      0.045  0.955  0.000  0.000     2.384     2.414
 358   1 H      0.085  0.915  0.000  0.000     1.927     2.170
 359   1 H      0.068  0.932  0.000  0.000     2.103     2.267
 360   1 H      0.129  0.871  0.000  0.000     1.542     1.942
 361   1 H      0.102  0.898  0.000  0.000     1.770     2.080
 362   1 H      0.299  0.701  0.000  0.000     0.716     1.326
 363   1 H      0.285  0.715  0.000  0.000     0.758     1.364
 364   1 H      0.276  0.724  0.000  0.000     0.790     1.392
 365   7 N     -0.184  1.219  3.965  0.000    24.986     7.424
 366   6 C      0.001  1.045  2.954  0.000    20.553     6.452
 367   6 C      0.273  1.039  2.688  0.000    22.391     7.749
 368   8 O     -0.473  1.743  4.729  0.000    23.185     6.456
 369   6 C     -0.015  1.025  2.990  0.000    20.800     6.485
 370   6 C     -0.146  0.998  3.148  0.000    23.336     6.880
 371   6 C     -0.136  0.994  3.142  0.000    23.117     6.847
 372   1 H      0.194  0.806  0.000  0.000     1.139     1.671
 373   1 H      0.116  0.884  0.000  0.000     1.648     2.008
 374   1 H      0.066  0.934  0.000  0.000     2.129     2.282
 375   1 H      0.070  0.930  0.000  0.000     2.090     2.261
 376   1 H      0.052  0.948  0.000  0.000     2.300     2.371
 377   1 H      0.045  0.955  0.000  0.000     2.379     2.412
 378   1 H      0.071  0.929  0.000  0.000     2.073     2.252
 379   1 H      0.032  0.968  0.000  0.000     2.560     2.502
 380   1 H      0.050  0.950  0.000  0.000     2.314     2.379
 381   7 N     -0.165  1.220  3.946  0.000    24.572     7.362
 382   6 C      0.036  1.032  2.932  0.000    19.970     6.362
 383   6 C      0.217  1.072  2.711  0.000    23.426     7.927
 384   8 O     -0.365  1.745  4.620  0.000    20.986     6.142
 385   6 C     -0.080  1.015  3.065  0.000    22.002     6.673
 386   6 C     -0.013  1.067  2.946  0.000    28.320     8.730
 387   6 C     -0.048  1.054  2.993  0.000    29.177     8.860
 388   6 C     -0.045  1.052  2.993  0.000    29.111     8.850
 389   6 C     -0.064  1.049  3.015  0.000    29.590     8.922
 390   6 C     -0.081  1.051  3.031  0.000    30.029     8.988
 391   6 C      0.142  1.036  2.822  0.000    24.900     8.181
 392   8 O     -0.435  1.699  4.736  0.000    21.532     6.264
 393   1 H      0.215  0.785  0.000  0.000     1.032     1.591
 394   1 H      0.064  0.936  0.000  0.000     2.150     2.293
 395   1 H      0.081  0.919  0.000  0.000     1.973     2.196
 396   1 H      0.068  0.932  0.000  0.000     2.108     2.271
 397   1 H      0.046  0.954  0.000  0.000     2.375     2.410
 398   1 H      0.047  0.953  0.000  0.000     2.357     2.401
 399   1 H      0.065  0.935  0.000  0.000     2.136     2.285
 400   1 H      0.056  0.944  0.000  0.000     2.247     2.344
 401   1 H      0.353  0.647  0.000  0.000     0.581     1.197
 402   7 N     -0.390  1.290  4.100  0.000    30.096     8.148
 403   6 C      0.042  1.025  2.932  0.000    19.867     6.347
 404   6 C      0.192  1.085  2.723  0.000    23.898     8.006
 405   8 O     -0.346  1.753  4.593  0.000    20.633     6.090
 406   6 C     -0.109  1.027  3.083  0.000    22.554     6.755
 407   6 C      0.298  1.010  2.691  0.000    21.942     7.670
 408   8 O     -0.524  1.749  4.775  0.000    24.319     6.612
 409   7 N     -0.265  1.217  4.048  0.000    26.868     7.698
 410   1 H      0.176  0.824  0.000  0.000     1.236     1.742
 411   1 H      0.057  0.943  0.000  0.000     2.230     2.335
 412   1 H      0.061  0.939  0.000  0.000     2.186     2.312
 413   1 H      0.072  0.928  0.000  0.000     2.060     2.244
 414   1 H      0.241  0.759  0.000  0.000     0.918     1.500
 415   1 H      0.230  0.770  0.000  0.000     0.963     1.537
 416   7 N     -0.407  1.299  4.108  0.000    30.574     8.212
 417   6 C      0.037  1.033  2.930  0.000    19.968     6.364
 418   6 C      0.201  1.087  2.712  0.000    23.721     7.976
 419   8 O     -0.385  1.754  4.631  0.000    21.392     6.201
 420   6 C     -0.080  1.025  3.054  0.000    21.991     6.672
 421   6 C     -0.008  1.024  2.984  0.000    20.682     6.467
 422   6 C     -0.127  0.997  3.130  0.000    22.955     6.824
 423   6 C     -0.133  0.995  3.138  0.000    23.063     6.840
 424   1 H      0.182  0.818  0.000  0.000     1.203     1.718
 425   1 H      0.070  0.930  0.000  0.000     2.084     2.257
 426   1 H      0.054  0.946  0.000  0.000     2.275     2.359
 427   1 H      0.048  0.952  0.000  0.000     2.343     2.394
 428   1 H      0.039  0.961  0.000  0.000     2.468     2.456
 429   1 H      0.047  0.953  0.000  0.000     2.358     2.401
 430   1 H      0.047  0.953  0.000  0.000     2.351     2.398
 431   1 H      0.038  0.962  0.000  0.000     2.475     2.460
 432   1 H      0.039  0.961  0.000  0.000     2.459     2.452
 433   1 H      0.036  0.964  0.000  0.000     2.500     2.472
 434   1 H      0.050  0.950  0.000  0.000     2.318     2.381
 435   7 N     -0.401  1.293  4.108  0.000    30.405     8.189
 436   6 C      0.036  1.033  2.931  0.000    19.979     6.365
 437   6 C      0.196  1.092  2.712  0.000    23.817     7.993
 438   8 O     -0.379  1.753  4.625  0.000    21.257     6.181
 439   6 C     -0.084  1.026  3.058  0.000    22.075     6.684
 440   6 C     -0.014  1.028  2.986  0.000    20.785     6.483
 441   6 C     -0.129  0.997  3.132  0.000    23.012     6.835
 442   6 C     -0.134  0.997  3.136  0.000    23.087     6.844
 443   1 H      0.182  0.818  0.000  0.000     1.202     1.717
 444   1 H      0.061  0.939  0.000  0.000     2.184     2.311
 445   1 H      0.050  0.950  0.000  0.000     2.313     2.378
 446   1 H      0.050  0.950  0.000  0.000     2.323     2.383
 447   1 H      0.047  0.953  0.000  0.000     2.352     2.398
 448   1 H      0.052  0.948  0.000  0.000     2.299     2.371
 449   1 H      0.043  0.957  0.000  0.000     2.406     2.425
 450   1 H      0.034  0.966  0.000  0.000     2.531     2.488
 451   1 H      0.048  0.952  0.000  0.000     2.345     2.395
 452   1 H      0.047  0.953  0.000  0.000     2.363     2.404
 453   1 H      0.050  0.950  0.000  0.000     2.316     2.380
 454   7 N     -0.398  1.306  4.092  0.000    30.309     8.176
 455   6 C      0.016  1.043  2.941  0.000    20.315     6.417
 456   6 C      0.286  1.034  2.680  0.000    22.153     7.708
 457   8 O     -0.469  1.731  4.738  0.000    23.106     6.445
 458   6 C      0.118  1.024  2.858  0.000    18.718     6.173
 459   8 O     -0.510  1.714  4.796  0.000    23.114     6.490
 460   6 C     -0.143  0.994  3.149  0.000    23.283     6.876
 461   1 H      0.164  0.836  0.000  0.000     1.310     1.793
 462   1 H      0.051  0.949  0.000  0.000     2.311     2.377
 463   1 H      0.026  0.974  0.000  0.000     2.645     2.543
 464   1 H      0.341  0.659  0.000  0.000     0.608     1.225
 465   1 H      0.053  0.947  0.000  0.000     2.280     2.361
 466   1 H      0.055  0.945  0.000  0.000     2.263     2.352
 467   1 H      0.064  0.936  0.000  0.000     2.150     2.293
 468   7 N     -0.179  1.210  3.969  0.000    24.881     7.408
 469   6 C     -0.032  1.012  3.021  0.000    21.192     6.561
 470   6 C      0.276  1.033  2.691  0.000    22.328     7.738
 471   8 O     -0.478  1.732  4.745  0.000    23.299     6.472
 472   1 H      0.203  0.797  0.000  0.000     1.092     1.637
 473   1 H      0.095  0.905  0.000  0.000     1.835     2.118
 474   1 H      0.102  0.898  0.000  0.000     1.762     2.076
 475   7 N     -0.166  1.206  3.960  0.000    24.585     7.364
 476   6 C     -0.001  1.040  2.962  0.000    20.603     6.462
 477   6 C      0.272  1.036  2.693  0.000    22.405     7.751
 478   8 O     -0.441  1.728  4.713  0.000    22.524     6.363
 479   6 C      0.070  1.002  2.929  0.000    19.579     6.330
 480   8 O     -0.485  1.697  4.788  0.000    22.570     6.413
 481   1 H      0.207  0.793  0.000  0.000     1.072     1.622
 482   1 H      0.112  0.888  0.000  0.000     1.681     2.028
 483   1 H      0.049  0.951  0.000  0.000     2.334     2.389
 484   1 H      0.039  0.961  0.000  0.000     2.462     2.454
 485   1 H      0.358  0.642  0.000  0.000     0.570     1.185
 486   7 N     -0.182  1.209  3.973  0.000    24.938     7.417
 487   6 C      0.025  1.037  2.938  0.000    20.150     6.390
 488   6 C      0.272  1.033  2.694  0.000    22.399     7.751
 489   8 O     -0.450  1.739  4.712  0.000    22.712     6.390
 490   6 C     -0.072  1.012  3.059  0.000    21.836     6.647
 491   6 C      0.007  1.067  2.926  0.000    27.851     8.657
 492   6 C     -0.037  1.056  2.980  0.000    28.906     8.819
 493   6 C     -0.046  1.055  2.990  0.000    29.130     8.853
 494   6 C     -0.064  1.047  3.016  0.000    29.580     8.921
 495   6 C     -0.080  1.051  3.029  0.000    30.004     8.984
 496   6 C      0.134  1.038  2.828  0.000    25.077     8.210
 497   8 O     -0.434  1.694  4.740  0.000    21.518     6.262
 498   1 H      0.183  0.817  0.000  0.000     1.195     1.712
 499   1 H      0.072  0.928  0.000  0.000     2.068     2.249
 500   1 H      0.066  0.934  0.000  0.000     2.128     2.281
 501   1 H      0.063  0.937  0.000  0.000     2.161     2.299
 502   1 H      0.042  0.958  0.000  0.000     2.421     2.433
 503   1 H      0.052  0.948  0.000  0.000     2.290     2.366
 504   1 H      0.055  0.945  0.000  0.000     2.263     2.353
 505   1 H      0.046  0.954  0.000  0.000     2.373     2.409
 506   1 H      0.339  0.661  0.000  0.000     0.614     1.231
 507   7 N     -0.171  1.209  3.962  0.000    24.699     7.381
 508   6 C      0.036  1.037  2.927  0.000    19.964     6.360
 509   6 C      0.218  1.081  2.701  0.000    23.406     7.925
 510   8 O     -0.352  1.740  4.612  0.000    20.744     6.106
 511   6 C     -0.122  1.032  3.090  0.000    22.815     6.796
 512   6 C      0.294  1.009  2.697  0.000    22.011     7.682
 513   8 O     -0.536  1.753  4.783  0.000    24.587     6.648
 514   7 N     -0.244  1.214  4.030  0.000    26.354     7.624
 515   1 H      0.207  0.793  0.000  0.000     1.072     1.621
 516   1 H      0.096  0.904  0.000  0.000     1.822     2.111
 517   1 H      0.101  0.899  0.000  0.000     1.774     2.083
 518   1 H      0.083  0.917  0.000  0.000     1.945     2.181
 519   1 H      0.255  0.745  0.000  0.000     0.863     1.455
 520   1 H      0.237  0.763  0.000  0.000     0.934     1.514
 521   7 N     -0.407  1.303  4.105  0.000    30.580     8.213
 522   6 C      0.023  1.037  2.941  0.000    20.201     6.400
 523   6 C      0.278  1.040  2.681  0.000    22.291     7.732
 524   8 O     -0.493  1.740  4.754  0.000    23.633     6.518
 525   6 C      0.079  1.004  2.917  0.000    19.436     6.307
 526   8 O     -0.492  1.700  4.792  0.000    22.726     6.436
 527   1 H      0.180  0.820  0.000  0.000     1.214     1.726
 528   1 H      0.064  0.936  0.000  0.000     2.156     2.296
 529   1 H      0.038  0.962  0.000  0.000     2.480     2.462
 530   1 H      0.025  0.975  0.000  0.000     2.661     2.551
 531   1 H      0.343  0.657  0.000  0.000     0.603     1.220
 532   7 N     -0.178  1.217  3.960  0.000    24.844     7.403
 533   6 C      0.031  1.032  2.937  0.000    20.044     6.373
 534   6 C      0.215  1.075  2.711  0.000    23.465     7.934
 535   8 O     -0.358  1.748  4.610  0.000    20.860     6.123
 536   6 C     -0.079  1.017  3.062  0.000    21.986     6.671
 537   6 C      0.008  1.069  2.923  0.000    27.818     8.652
 538   6 C     -0.048  1.056  2.992  0.000    29.191     8.863
 539   6 C     -0.039  1.056  2.982  0.000    28.948     8.826
 540   6 C     -0.037  1.051  2.986  0.000    28.908     8.819
 541   6 C     -0.034  1.052  2.981  0.000    28.836     8.808
 542   6 C     -0.039  1.052  2.987  0.000    28.965     8.828
 543   1 H      0.215  0.785  0.000  0.000     1.031     1.590
 544   1 H      0.095  0.905  0.000  0.000     1.828     2.114
 545   1 H      0.068  0.932  0.000  0.000     2.104     2.268
 546   1 H      0.064  0.936  0.000  0.000     2.157     2.297
 547   1 H      0.033  0.967  0.000  0.000     2.541     2.492
 548   1 H      0.046  0.954  0.000  0.000     2.365     2.404
 549   1 H      0.042  0.958  0.000  0.000     2.425     2.435
 550   1 H      0.051  0.949  0.000  0.000     2.302     2.373
 551   1 H      0.049  0.951  0.000  0.000     2.336     2.390
 552   7 N     -0.400  1.293  4.108  0.000    30.383     8.186
 553   6 C      0.029  1.037  2.933  0.000    20.097     6.385
 554   6 C      0.207  1.089  2.705  0.000    23.617     7.959
 555   8 O     -0.372  1.743  4.629  0.000    21.132     6.163
 556   6 C      0.083  1.001  2.915  0.000    19.367     6.297
 557   8 O     -0.481  1.694  4.787  0.000    22.478     6.400
 558   1 H      0.180  0.820  0.000  0.000     1.216     1.728
 559   1 H      0.080  0.920  0.000  0.000     1.976     2.198
 560   1 H      0.041  0.959  0.000  0.000     2.431     2.438
 561   1 H      0.038  0.962  0.000  0.000     2.470     2.457
 562   1 H      0.319  0.681  0.000  0.000     0.667     1.282
 563   1 H      0.168  0.832  0.000  0.000     1.284     1.775
 564   1 H      0.051  0.949  0.000  0.000     2.303     2.373
 565   1 H      0.167  0.833  0.000  0.000     1.290     1.779
 566   1 H      0.065  0.935  0.000  0.000     2.140     2.288
 567   1 H      0.184  0.816  0.000  0.000     1.192     1.710
 568   1 H      0.071  0.929  0.000  0.000     2.075     2.253
 569   1 H      0.187  0.813  0.000  0.000     1.176     1.698
 570   1 H      0.083  0.917  0.000  0.000     1.947     2.182
 571   1 H      0.191  0.809  0.000  0.000     1.152     1.681
 572   1 H      0.078  0.922  0.000  0.000     1.997     2.210
 573   1 H      0.193  0.807  0.000  0.000     1.142     1.674
 574   1 H      0.055  0.945  0.000  0.000     2.258     2.349
 575   1 H      0.187  0.813  0.000  0.000     1.175     1.698
 576   1 H      0.068  0.932  0.000  0.000     2.112     2.272
 577   1 H      0.190  0.810  0.000  0.000     1.156     1.684
 578   1 H      0.077  0.923  0.000  0.000     2.009     2.216
 579   1 H      0.185  0.815  0.000  0.000     1.184     1.704
 580   1 H      0.064  0.936  0.000  0.000     2.147     2.291
 581   1 H      0.178  0.822  0.000  0.000     1.228     1.735
 582   1 H      0.074  0.926  0.000  0.000     2.039     2.233
 583   1 H      0.193  0.807  0.000  0.000     1.144     1.675
 584   1 H      0.067  0.933  0.000  0.000     2.113     2.273
 585   1 H      0.191  0.809  0.000  0.000     1.154     1.683
 586   1 H      0.065  0.935  0.000  0.000     2.140     2.287
 587   1 H      0.189  0.811  0.000  0.000     1.164     1.690
 588   1 H      0.075  0.925  0.000  0.000     2.035     2.231

 Mol. C6AA /au·bohr⁶  :    3317061.720610
 Mol. C8AA /au·bohr⁸  :   74732252.779227
 Mol. α(0) /au        :       2751.621471

 
molecular dipole:
                 x           y           z       tot (Debye)
 q only:      -76.120    -120.619     -91.580
   full:      -77.644    -117.127     -90.803     425.266
molecular quadrupole (traceless):
                xx          xy          yy          xz          yz          zz
 q only:     2707.295   -7086.907   -3961.923   -5281.018   -8484.850    1254.629
  q+dip:     2431.450   -7062.953   -3693.124   -5247.803   -8203.888    1261.674
   full:     2432.038   -7062.904   -3693.032   -5252.255   -8198.790    1260.994
speedup  1.00
cpu  time for grad   19.83 s
wall time for grad   19.83 s

SCC energy    :    -918.9453860
rep           :      16.3286685
ES            :       2.8384160
AES           :      -0.0268571
AXC           :       0.1918501
disp          :      -0.7901250
XB            :       0.0000000
fix           :       0.0000000
Gborn         :       0.0000000
Gsasa         :       0.0000000
Ghb           :       0.0000000
Gshift        :       0.0000000
Gsolv         :      -0.7405601     -464.71
Etot ala COSMO:    -918.9453860
grad norm     :       1.4135235
total E       :    -902.5330615
atomizationE  :     167.2183810   104931.12
(atE without considering molecular charge,
 total energy contains solvation terms)
H-L gap (eV)  :          1.6021

------------------------------------------------------------------------
 * finished run on 2019/03/15 at 00:15:39.718     
------------------------------------------------------------------------
 total:
 * wall-time:     0 d,  0 h,  0 min, 20.992 sec
 *  cpu-time:     0 d,  0 h,  0 min, 20.914 sec
 * ratio c/w:     0.996 speedup
 SCF:
 * wall-time:     0 d,  0 h,  0 min, 20.621 sec
 *  cpu-time:     0 d,  0 h,  0 min, 20.620 sec
 * ratio c/w:     1.000 speedup

