      -----------------------------------------------------------      
     |                   =====================                   |     
     |                           x T B                           |     
     |                   =====================                   |     
     |                         S. Grimme                         |     
     |          Mulliken Center for Theoretical Chemistry        |     
     |                    University of Bonn                     |     
     |                 Version 6.0.1 (SAW181210)                 |     
      -----------------------------------------------------------      

   This program is distributed in the hope that it will be useful,
   but WITHOUT ANY WARRANTY; without even the implied warranty of
   MERCHANTABILITY or FITNESS FOR A PARTICULAR PURPOSE.
   
   FOR NON-COMMERCIAL, ACADEMIA USE ONLY.
   
   Cite this work as:
   S. Grimme, C. Bannwarth, P. Shushkov, J. Comput. Theory Chem., 2017,
   13, 1989-2009.
   C. Bannwarth, S. Ehlert and S. Grimme., ChemRxiv, 2018, preprint.
   http://doi.org/10.26434/chemrxiv.7246238.v1
   
   for sTDA-xTB:
   S. Grimme and C. Bannwarth, J. Chem. Phys., 2016, 145, 054103.
   
   in the mass-spec context:
   V. Asgeirsson, C. Bauer and S. Grimme, Chem. Sci., 2017, 8, 4879.
   
   if GBSA is used:
   P. Shushkov, F. März and S. Grimme, unpublished.
   
   for ANC optimizer:
   S. Grimme, unpublished.
   Rational Function algorithm used in ANCopt:
   F. Eckert, P. Pulay, H.-J. Werner, J. Comput. Chem., 1997, 18, 1473.
   
   with help from (in alphabetical order)
   C. Bannwarth, F. Bohle, G. Brandenburg, E. Caldeweyher, M. Checinski,
   S. Dohm, S. Ehlert, S. Ehrlich, F. März, H. Neugebauer, J. Pisarek,
   P. Pracht, P. Shushkov, and S. Spicher.
   
 * started run on 2019/03/07 at 11:37:45.860     
========================================================================
 # omp threads = 1
========================================================================
number of atoms            : 503
number of electrons        : 1412
charge                     : -4
spin                       : .0
first test random number   : .9996
           ------------------------------------------------- 
          |                 G F N 2 - x T B                 |
          | Geometry, Frequencies, Noncovalent interactions |
          |            JCTC 2018 parametrisation            |
           ------------------------------------------------- 
 
      method parameters     
 k(s)        :  1.8500
 k(p)        :  2.2300
 k(d)        :  2.2300
 k(f)        :  2.0000
 kEN (H0ij)  : -2.0000
 D4 a1       :  0.5200
 D4 a2       :  5.0000
 D4 s6       :  1.0000
 D4 s8       :  2.7000
 D4 s9       :  5.0000
 alphaj      :  2.0000

 Solvent             : h2o
 Using internal parameter file: .param_gbsa2_h2o
 Gsolv ref. state (COSMO-RS): gsolv [1 M gas/solution]
 temperature (mdtemp)       :    298.150000000000     
 dielectric constant        :    80.2000000000000     
 rho                        :    1.00000000000000     
 mass                       :    18.0000000000000     
 surface tension            :    15.5689454083859     
 probe radius               :   0.975313790000000     
 vdW radii scaling          :    1.00000000000000     
 Gshift (Eh)                :   1.857443126794793E-003
 c1                         :    1.55243817000000     
 soset                      :   0.130326360000000     
 HB correction              :  T

            Z     q(EN)     CN     RAES       Cart. coordinates
     1  N   5.0   -0.24    3.27    1.97   380.10137   140.31593   204.82362
     2  C   4.0    0.02    4.28    4.17   381.11048   138.52069   206.63775
     3  C   4.0    0.06    3.20    3.04   379.58169   138.71533   209.10951
     4  O   6.0   -0.31    1.12    1.80   378.55746   140.73356   209.74068
     5  C   4.0   -0.05    4.38    4.34   383.92050   139.04793   207.14798
     6  C   4.0   -0.02    3.55    3.14   385.64582   138.42432   204.95590
     7  C   4.0   -0.06    3.49    3.11   385.62693   139.88129   202.73736
     8  C   4.0   -0.06    3.49    3.11   387.40705   136.43254   205.13542
     9  C   4.0   -0.04    3.46    3.10   387.35225   139.36162   200.78905
    10  C   4.0   -0.06    3.46    3.10   389.11536   135.91665   203.18900
    11  C   4.0    0.07    3.49    3.11   389.03599   137.36796   201.01393
    12  O   6.0   -0.27    2.14    1.84   390.74052   136.90309   199.07696
    13  H   1.0    0.11    1.08    1.44   380.06735   141.84283   205.38109
    14  H   1.0    0.03    1.12    1.45   380.96875   136.82561   205.95556
    15  H   1.0    0.05    1.09    1.44   384.12270   140.81860   207.57506
    16  H   1.0    0.04    1.10    1.44   384.44963   138.07850   208.61252
    17  H   1.0    0.05    1.09    1.44   384.47041   141.19276   202.55783
    18  H   1.0    0.05    1.09    1.44   387.43161   135.43855   206.58484
    19  H   1.0    0.06    1.09    1.44   387.36547   140.35939   199.34152
    20  H   1.0    0.05    1.09    1.44   390.28888   134.61841   203.35152
    21  H   1.0    0.14    1.10    1.44   391.64381   135.65398   199.45490
    22  N   5.0   -0.23    3.29    1.98   416.39166   143.36406   233.43218
    23  C   4.0    0.03    4.32    4.24   415.48838   145.26323   235.17828
    24  C   4.0    0.07    3.23    3.04   412.70103   145.81503   234.67940
    25  O   6.0   -0.29    1.14    1.80   412.06797   146.83549   232.69896
    26  C   4.0   -0.04    4.39    4.37   417.00394   147.68964   234.87593
    27  C   4.0    0.23    3.18    3.03   419.81585   147.21910   234.73420
    28  O   6.0   -0.33    1.17    1.80   421.03094   147.30981   236.78077
    29  O   6.0   -0.30    1.18    1.80   420.81173   146.61439   232.66873
    30  H   1.0    0.14    1.10    1.44   416.84898   143.94043   231.98276
    31  H   1.0    0.03    1.12    1.45   415.69058   144.63018   236.88660
    32  H   1.0    0.05    1.10    1.44   416.45969   148.55703   233.35659
    33  H   1.0    0.03    1.09    1.44   416.64867   148.80458   236.28755
    34  N   5.0   -0.22    3.24    1.96   406.03975   145.01757   232.46275
    35  C   4.0    0.03    4.44    4.45   404.49206   143.56248   230.67696
    36  C   4.0    0.15    3.43    3.09   405.42369   143.49067   227.99166
    37  O   6.0   -0.30    1.24    1.80   406.67658   145.21032   227.10349
    38  C   4.0   -0.03    4.39    4.36   401.74440   144.44876   230.73743
    39  C   4.0    0.25    3.18    3.03   400.60300   144.18609   233.31501
    40  O   6.0   -0.30    1.19    1.80   400.67670   142.07338   234.34680
    41  O   6.0   -0.30    1.18    1.80   399.66759   146.09660   234.33547
    42  H   1.0    0.12    1.08    1.44   406.32887   146.54636   231.99032
    43  H   1.0    0.05    1.14    1.45   404.63379   141.83527   231.27600
    44  H   1.0    0.06    1.10    1.44   401.65747   146.20054   230.20830
    45  H   1.0    0.06    1.10    1.44   400.76363   143.47555   229.53367
    46  N   5.0   -0.16    3.52    2.09   404.58655   141.49890   226.68586
    47  C   4.0    0.04    4.48    4.51   405.25551   141.01324   224.03268
    48  C   4.0    0.15    3.46    3.10   403.54153   142.46266   222.27335
    49  O   6.0   -0.29    1.22    1.80   401.18693   142.61006   222.65507
    50  C   4.0   -0.05    4.48    4.50   405.07032   138.19566   223.50923
    51  C   4.0   -0.03    4.28    4.17   407.08287   136.36451   224.46921
    52  C   4.0   -0.09    4.24    4.08   407.60444   136.75758   227.27356
    53  C   4.0   -0.10    4.21    4.03   406.15124   133.63386   224.06292
    54  H   1.0    0.09    1.14    1.45   403.60011   140.37451   227.32269
    55  H   1.0    0.06    1.14    1.45   406.97327   141.57827   223.73788
    56  H   1.0    0.05    1.11    1.45   403.46405   137.62874   224.18575
    57  H   1.0    0.05    1.11    1.44   404.98528   137.99346   221.68942
    58  H   1.0    0.04    1.12    1.45   408.63245   136.67254   223.53946
    59  H   1.0    0.03    1.06    1.44   408.88756   135.57083   227.82914
    60  H   1.0    0.05    1.06    1.44   408.19592   138.46967   227.55135
    61  H   1.0    0.04    1.06    1.44   406.06431   136.48168   228.22787
    62  H   1.0    0.03    1.05    1.44   407.42114   132.45845   224.66763
    63  H   1.0    0.04    1.06    1.44   404.59033   133.37686   224.98699
    64  H   1.0    0.04    1.05    1.44   405.85644   133.34662   222.27713
    65  N   5.0   -0.16    3.55    2.12   404.64324   143.53980   220.31181
    66  C   4.0    0.04    4.52    4.56   403.30909   145.00056   218.43720
    67  C   4.0    0.16    3.46    3.10   402.54942   143.37351   216.20733
    68  O   6.0   -0.30    1.26    1.80   404.12545   142.56848   214.71255
    69  C   4.0   -0.05    4.40    4.38   404.88512   147.29280   217.65108
    70  C   4.0   -0.05    4.31    4.21   405.41803   149.12961   219.78269
    71  C   4.0   -0.05    4.32    4.24   407.63656   148.11861   221.36061
    72  C   4.0   -0.03    4.27    4.13   408.10144   149.80802   223.63017
    73  N   5.0   -0.16    4.11    3.18   410.37667   148.98032   225.12116
    74  H   1.0    0.11    1.16    1.46   406.24006   143.43398   220.03024
    75  H   1.0    0.07    1.15    1.45   401.75196   145.62984   219.17231
    76  H   1.0    0.05    1.10    1.44   406.47816   146.70887   216.95944
    77  H   1.0    0.07    1.11    1.44   404.01018   148.18097   216.30748
    78  H   1.0    0.05    1.09    1.44   405.82243   150.78501   219.10805
    79  H   1.0    0.07    1.09    1.44   403.93081   149.32992   220.83526
    80  H   1.0    0.06    1.11    1.45   407.27563   146.41030   221.91997
    81  H   1.0    0.04    1.09    1.44   409.14834   148.03546   220.32693
    82  H   1.0    0.04    1.08    1.44   408.33765   151.53712   223.06703
    83  H   1.0    0.07    1.08    1.44   406.62367   149.79480   224.71487
    84  H   1.0    0.07    1.08    1.44   410.98705   150.28802   225.98477
    85  H   1.0    0.10    1.09    1.44   409.93447   147.75956   226.19075
    86  H   1.0    0.06    1.09    1.44   411.55586   148.40207   224.07047
    87  N   5.0   -0.15    3.55    2.11   400.12301   142.77635   216.03536
    88  C   4.0    0.04    4.51    4.55   399.12146   141.25324   213.99446
    89  C   4.0    0.16    3.52    3.12   399.04209   142.96533   211.69655
    90  O   6.0   -0.30    1.27    1.80   398.47895   145.21032   211.93277
    91  C   4.0   -0.04    4.44    4.45   396.42860   140.33672   214.60295
    92  C   4.0   -0.02    3.64    3.19   395.25508   138.75124   212.59228
    93  C   4.0   -0.04    3.53    3.13   395.69917   136.16420   212.40520
    94  C   4.0   -0.04    3.56    3.14   393.67338   139.86240   210.88964
    95  C   4.0   -0.03    3.46    3.10   394.57667   134.77148   210.50980
    96  C   4.0   -0.04    3.46    3.10   392.52254   138.45644   208.98857
    97  C   4.0   -0.05    3.45    3.09   392.96473   135.89775   208.78637
    98  H   1.0    0.12    1.17    1.46   399.00430   143.25257   217.11439
    99  H   1.0    0.06    1.12    1.45   400.16081   139.76791   213.72234
   100  H   1.0    0.04    1.10    1.44   396.47017   139.37485   216.16386
   101  H   1.0    0.05    1.11    1.44   395.36090   141.79748   214.90152
   102  H   1.0    0.06    1.10    1.44   396.75741   135.37241   213.56360
   103  H   1.0    0.06    1.10    1.44   393.35779   141.58772   211.00113
   104  H   1.0    0.07    1.10    1.44   394.90737   133.04993   210.38886
   105  H   1.0    0.05    1.10    1.44   391.44728   139.24824   207.84718
   106  H   1.0    0.05    1.10    1.44   392.19750   134.95100   207.52026
   107  N   5.0   -0.16    3.51    2.09   399.56365   141.93354   209.48368
   108  C   4.0    0.04    4.51    4.55   399.52208   143.35272   207.17066
   109  C   4.0    0.16    3.48    3.11   397.15992   142.60061   205.68155
   110  O   6.0   -0.31    1.30    1.80   397.05221   140.53703   204.60630
   111  C   4.0   -0.03    4.37    4.33   401.95416   142.81982   205.66643
   112  C   4.0    0.25    3.15    3.03   402.29431   144.62073   203.47057
   113  O   6.0   -0.29    1.18    1.80   401.10378   144.17097   201.47880
   114  O   6.0   -0.32    1.23    1.80   403.68704   146.52179   203.79183
   115  H   1.0    0.12    1.15    1.45   399.95483   140.36884   209.29282
   116  H   1.0    0.06    1.14    1.45   399.45783   145.15363   207.50514
   117  H   1.0    0.05    1.09    1.44   403.39980   142.94832   206.78515
   118  H   1.0    0.07    1.09    1.44   401.91447   141.09828   205.03904
   119  N   5.0   -0.16    3.50    2.08   395.25697   144.24278   205.63242
   120  C   4.0    0.04    4.51    4.56   392.87969   143.71555   204.35118
   121  C   4.0    0.17    3.44    3.09   392.96284   143.60027   201.47313
   122  O   6.0   -0.30    1.26    1.80   391.03721   143.92720   200.22969
   123  C   4.0   -0.04    4.35    4.30   390.81233   145.51268   205.24503
   124  C   4.0    0.25    3.16    3.03   391.71751   148.29813   205.26581
   125  O   6.0   -0.26    1.19    1.80   393.23685   149.00678   203.57451
   126  O   6.0   -0.27    1.17    1.80   391.02587   149.71921   206.98357
   127  H   1.0    0.12    1.15    1.45   395.31366   145.70165   206.34674
   128  H   1.0    0.05    1.15    1.45   392.49041   141.99401   204.84629
   129  H   1.0    0.06    1.09    1.44   389.35158   145.35394   204.15087
   130  H   1.0    0.05    1.09    1.44   390.27376   145.03269   206.93066
   131  N   5.0   -0.14    3.56    2.12   395.16626   143.02391   200.43189
   132  C   4.0    0.04    4.52    4.56   395.47240   142.94076   197.67100
   133  C   4.0    0.15    3.45    3.09   396.85190   140.54081   196.88110
   134  O   6.0   -0.33    1.25    1.80   396.67237   139.71878   194.74004
   135  C   4.0    0.05    4.27    4.13   396.82355   145.29914   196.54284
   136  O   6.0   -0.26    2.11    1.84   395.77475   147.60649   197.64833
   137  C   4.0   -0.09    4.19    3.97   396.39647   145.39740   193.68368
   138  H   1.0    0.12    1.17    1.46   396.51175   142.67431   201.27471
   139  H   1.0    0.07    1.14    1.45   393.77353   142.94643   196.98314
   140  H   1.0    0.05    1.10    1.44   398.61501   145.17820   196.91511
   141  H   1.0    0.13    1.07    1.44   396.51364   148.87072   197.03417
   142  H   1.0    0.03    1.05    1.44   397.24118   146.86950   192.98826
   143  H   1.0    0.05    1.06    1.44   397.07678   143.88184   192.91078
   144  H   1.0    0.04    1.05    1.44   394.59934   145.50512   193.33597
   145  N   5.0   -0.15    3.57    2.13   398.22006   139.41075   198.64799
   146  C   4.0    0.04    4.51    4.55   399.61090   137.08072   198.14532
   147  C   4.0    0.15    3.44    3.09   399.26130   135.10029   200.27127
   148  O   6.0   -0.32    1.24    1.80   400.22884   133.00458   200.11064
   149  C   4.0    0.05    4.32    4.24   402.45683   137.59095   197.82974
   150  O   6.0   -0.27    2.16    1.85   403.31287   139.09517   199.90655
   151  C   4.0   -0.09    4.18    3.95   402.99351   138.97423   195.32963
   152  H   1.0    0.12    1.15    1.45   398.37124   139.96633   200.16733
   153  H   1.0    0.05    1.14    1.45   398.91926   136.41176   196.58441
   154  H   1.0    0.04    1.11    1.44   403.34878   135.99035   197.79762
   155  H   1.0    0.14    1.08    1.44   404.79253   139.59595   199.62309
   156  H   1.0    0.03    1.05    1.44   404.79442   139.27469   195.17090
   157  H   1.0    0.03    1.05    1.44   402.42092   137.94433   193.92557
   158  H   1.0    0.05    1.05    1.44   402.10345   140.57671   195.31452
   159  N   5.0   -0.16    3.46    2.05   397.85723   135.77870   202.28571
   160  C   4.0    0.02    4.36    4.32   397.44905   134.03259   204.37953
   161  C   4.0    0.16    3.39    3.07   399.79231   133.37686   205.85163
   162  O   6.0   -0.30    1.21    1.80   399.73373   131.81594   207.60340
   163  H   1.0    0.12    1.14    1.45   397.14103   137.22812   202.45768
   164  H   1.0    0.05    1.10    1.44   396.22073   134.76392   205.52470
   165  H   1.0    0.05    1.09    1.44   396.71584   132.48680   203.72191
   166  N   5.0   -0.14    3.58    2.14   401.83511   134.72612   205.23558
   167  C   4.0    0.03    4.50    4.53   404.21427   134.33495   206.53193
   168  C   4.0    0.16    3.47    3.10   404.10089   135.60106   209.13786
   169  O   6.0   -0.29    1.27    1.80   402.53430   137.25835   209.60462
   170  C   4.0   -0.05    4.42    4.41   406.36478   135.56138   205.04093
   171  C   4.0   -0.05    4.35    4.30   406.74650   134.62219   202.36886
   172  C   4.0   -0.05    4.35    4.29   408.89323   136.01303   201.13676
   173  C   4.0   -0.05    4.30    4.19   409.36377   135.10974   198.47792
   174  N   5.0   -0.17    4.16    3.33   409.76817   132.33751   198.45713
   175  H   1.0    0.11    1.15    1.45   401.86723   135.86563   204.07717
   176  H   1.0    0.05    1.12    1.45   404.50907   132.53215   206.69444
   177  H   1.0    0.05    1.10    1.44   406.06431   137.36796   204.97857
   178  H   1.0    0.05    1.10    1.44   407.92569   135.30816   205.96879
   179  H   1.0    0.05    1.10    1.44   407.09610   132.82317   202.38398
   180  H   1.0    0.05    1.10    1.44   405.21016   134.86029   201.39754
   181  H   1.0    0.05    1.10    1.44   408.52285   137.80826   201.11408
   182  H   1.0    0.06    1.10    1.44   410.41446   135.79193   202.13454
   183  H   1.0    0.03    1.09    1.44   407.93703   135.54059   197.41022
   184  H   1.0    0.03    1.08    1.44   410.83020   135.96011   197.78061
   185  H   1.0    0.05    1.09    1.44   410.92280   131.94633   197.29684
   186  H   1.0    0.07    1.10    1.44   410.30297   131.83673   199.97080
   187  H   1.0    0.06    1.09    1.44   408.32064   131.56272   198.09052
   188  N   5.0   -0.16    3.53    2.10   405.62023   134.60140   210.87074
   189  C   4.0    0.04    4.52    4.57   405.77896   135.67098   213.37085
   190  C   4.0    0.15    3.45    3.09   408.38490   136.90876   213.66186
   191  O   6.0   -0.31    1.27    1.80   410.27273   135.90720   212.75102
   192  C   4.0   -0.04    4.42    4.41   405.44448   133.61496   215.35506
   193  C   4.0   -0.01    3.59    3.16   402.76674   132.64175   215.49112
   194  C   4.0   -0.04    3.52    3.12   401.83700   130.96935   213.67698
   195  C   4.0   -0.06    3.50    3.12   401.13591   133.41654   217.42053
   196  C   4.0   -0.04    3.46    3.10   399.36523   130.12464   213.71856
   197  C   4.0   -0.06    3.47    3.10   398.65092   132.60774   217.49612
   198  C   4.0    0.06    3.51    3.12   397.77597   130.95801   215.63096
   199  O   6.0   -0.27    2.14    1.84   395.27965   130.18700   215.60072
   200  H   1.0    0.10    1.13    1.45   406.56887   133.30505   210.62319
   201  H   1.0    0.06    1.14    1.45   404.45427   136.91631   213.60517
   202  H   1.0    0.07    1.10    1.44   406.57454   132.22223   214.97900
   203  H   1.0    0.04    1.10    1.44   405.93203   134.27259   216.99534
   204  H   1.0    0.06    1.10    1.44   402.91036   130.40621   212.40331
   205  H   1.0    0.05    1.10    1.44   401.73117   134.49369   218.67531
   206  H   1.0    0.07    1.09    1.44   398.77753   129.01726   212.48645
   207  H   1.0    0.05    1.09    1.44   397.57566   133.15576   218.77357
   208  H   1.0    0.13    1.10    1.44   394.51809   130.81061   216.84605
   209  N   5.0   -0.15    3.49    2.07   408.49828   139.04415   214.96389
   210  C   4.0    0.03    4.46    4.48   410.90012   140.34995   215.40419
   211  C   4.0    0.14    3.44    3.09   411.12878   141.01324   218.21610
   212  O   6.0   -0.32    1.29    1.80   409.25795   140.93576   219.59938
   213  C   4.0   -0.04    4.38    4.34   411.02673   142.80848   213.83005
   214  C   4.0   -0.01    3.56    3.15   411.13445   142.40597   210.98979
   215  C   4.0   -0.04    3.50    3.12   408.98205   142.76691   209.52147
   216  C   4.0   -0.05    3.49    3.11   413.36432   141.57071   209.75769
   217  C   4.0   -0.04    3.48    3.11   409.05197   142.37762   206.97034
   218  C   4.0   -0.06    3.46    3.10   413.42857   141.14174   207.16121
   219  C   4.0    0.07    3.50    3.12   411.26484   141.54992   205.77982
   220  O   6.0   -0.28    2.13    1.84   411.27996   141.10017   203.19278
   221  H   1.0    0.12    1.14    1.45   407.20382   139.77925   215.61584
   222  H   1.0    0.05    1.13    1.45   412.27395   139.24635   214.90152
   223  H   1.0    0.05    1.10    1.44   409.56030   143.83649   214.22311
   224  H   1.0    0.04    1.09    1.44   412.50450   143.76279   214.34595
   225  H   1.0    0.06    1.10    1.44   407.48350   143.27713   210.28303
   226  H   1.0    0.05    1.09    1.44   414.81941   141.30237   210.70633
   227  H   1.0    0.06    1.10    1.44   407.60822   142.66675   206.01036
   228  H   1.0    0.05    1.09    1.44   414.90256   140.59183   206.37886
   229  H   1.0    0.13    1.10    1.44   412.72560   140.61829   202.74681
   230  N   5.0   -0.17    3.47    2.06   413.39834   141.62551   219.10805
   231  C   4.0    0.03    4.45    4.46   413.76306   142.28881   221.76501
   232  C   4.0    0.14    3.46    3.10   416.25749   143.61161   222.22988
   233  O   6.0   -0.31    1.23    1.80   418.05084   143.38296   220.70298
   234  C   4.0   -0.08    4.24    4.08   413.60054   139.92665   223.39017
   235  H   1.0    0.10    1.13    1.45   414.75138   141.66897   218.20855
   236  H   1.0    0.05    1.14    1.45   412.42891   143.46044   222.22043
   237  H   1.0    0.05    1.06    1.44   413.84431   140.37640   225.14951
   238  H   1.0    0.05    1.06    1.44   411.95270   139.15186   223.18041
   239  H   1.0    0.05    1.06    1.44   414.90067   138.74179   222.87806
   240  N   5.0   -0.16    3.53    2.10   416.40111   145.00812   224.30669
   241  C   4.0    0.03    4.47    4.50   418.67634   146.32526   225.04935
   242  C   4.0    0.08    3.33    3.06   420.16545   144.58860   226.68019
   243  O   6.0   -0.29    1.18    1.80   419.15822   143.67397   228.57936
   244  C   4.0   -0.05    4.49    4.52   418.10943   148.62884   226.60082
   245  C   4.0   -0.06    4.34    4.28   420.28261   150.37683   226.82192
   246  C   4.0   -0.06    4.28    4.16   419.49837   152.88261   228.07480
   247  C   4.0   -0.05    4.25    4.11   419.54373   152.67474   230.94152
   248  N   5.0   -0.18    4.09    3.13   420.23915   155.16351   232.18496
   249  H   1.0    0.09    1.14    1.45   415.15767   145.21410   225.33281
   250  H   1.0    0.05    1.14    1.45   419.56829   146.83549   223.53190
   251  H   1.0    0.04    1.11    1.44   416.69591   149.52268   225.85249
   252  H   1.0    0.06    1.11    1.45   417.58597   148.10727   228.27889
   253  H   1.0    0.05    1.10    1.44   421.61109   149.58504   227.80646
   254  H   1.0    0.04    1.09    1.44   420.97614   150.71131   225.15896
   255  H   1.0    0.03    1.09    1.44   420.63032   154.22053   227.53623
   256  H   1.0    0.04    1.09    1.44   417.81463   153.34937   227.51734
   257  H   1.0    0.04    1.08    1.44   417.89778   152.13239   231.54056
   258  H   1.0    0.05    1.09    1.44   420.74748   151.38595   231.44041
   259  H   1.0    0.05    1.08    1.44   420.24671   154.97265   233.85548
   260  H   1.0    0.05    1.08    1.44   421.76604   155.64161   231.66906
   261  H   1.0    0.05    1.08    1.44   419.11098   156.33703   231.76166
   262  N   5.0   -0.24    3.27    1.97   424.35497   148.21121   217.78336
   263  C   4.0    0.04    4.34    4.27   422.27438   146.52179   217.30337
   264  C   4.0    0.08    3.25    3.04   423.01893   144.25601   215.80292
   265  O   6.0   -0.31    1.14    1.80   424.47780   144.42420   214.00957
   266  C   4.0   -0.04    4.42    4.41   420.10309   147.91263   216.02780
   267  C   4.0   -0.02    3.57    3.15   418.67067   149.66630   217.78714
   268  C   4.0   -0.06    3.48    3.11   419.64388   152.03601   218.43531
   269  C   4.0   -0.05    3.51    3.12   416.33497   148.96899   218.74712
   270  C   4.0   -0.06    3.43    3.09   418.29084   153.68574   220.06237
   271  C   4.0   -0.06    3.48    3.11   414.96303   150.53746   220.34205
   272  C   4.0    0.06    3.49    3.11   415.93624   152.89584   220.98644
   273  O   6.0   -0.29    2.15    1.85   414.62666   154.41707   222.60216
   274  H   1.0    0.10    1.08    1.44   424.84252   149.09749   216.51157
   275  H   1.0    0.05    1.14    1.45   421.71502   145.90952   218.93798
   276  H   1.0    0.06    1.10    1.44   420.76260   148.88584   214.62185
   277  H   1.0    0.05    1.10    1.44   418.93524   146.68431   215.32860
   278  H   1.0    0.05    1.09    1.44   421.19913   152.53868   217.79092
   279  H   1.0    0.06    1.10    1.44   415.66601   147.40429   218.31059
   280  H   1.0    0.05    1.09    1.44   418.95035   155.25421   220.50456
   281  H   1.0    0.05    1.10    1.44   413.40779   150.01778   220.97510
   282  H   1.0    0.13    1.11    1.45   413.26039   153.71598   222.99900
   283  N   5.0   -0.23    3.26    1.97   419.63443   136.81049   212.79637
   284  C   4.0    0.03    4.42    4.41   417.18724   135.66721   212.25591
   285  C   4.0    0.15    3.48    3.11   416.88866   133.30883   213.84328
   286  O   6.0   -0.32    1.27    1.80   418.68768   131.94256   214.24390
   287  C   4.0   -0.05    4.38    4.34   416.94535   135.03415   209.45911
   288  C   4.0   -0.03    4.30    4.19   414.23360   134.25936   208.76181
   289  C   4.0    0.24    3.14    3.03   414.07108   132.81372   206.29193
   290  O   6.0   -0.30    1.18    1.80   413.03929   130.71045   206.35807
   291  O   6.0   -0.32    1.17    1.80   414.90634   133.81338   204.31150
   292  H   1.0    0.10    1.08    1.44   420.86843   136.31349   211.86285
   293  H   1.0    0.04    1.13    1.45   415.86065   136.86151   212.67354
   294  H   1.0    0.04    1.09    1.44   417.44235   136.48735   208.45756
   295  H   1.0    0.05    1.09    1.44   418.09809   133.67165   209.03771
   296  H   1.0    0.07    1.10    1.44   413.54007   133.22757   210.10729
   297  H   1.0    0.06    1.09    1.44   413.19047   135.76169   208.64653
   298  N   5.0   -0.16    3.53    2.10   414.58887   132.78915   214.68043
   299  C   4.0    0.03    4.46    4.48   414.05785   130.54605   216.19410
   300  C   4.0    0.06    3.23    3.04   412.00561   128.80939   215.20388
   301  O   6.0   -0.30    1.14    1.80   409.95904   129.64654   214.45744
   302  C   4.0   -0.03    4.34    4.28   413.50227   131.35296   218.94932
   303  C   4.0   -0.09    4.23    4.06   415.56963   133.18600   219.85072
   304  C   4.0   -0.08    4.21    4.01   410.84721   132.62097   219.16097
   305  H   1.0    0.12    1.14    1.45   413.29062   133.72268   214.39130
   306  H   1.0    0.05    1.15    1.45   415.57341   129.51993   216.09205
   307  H   1.0    0.03    1.12    1.45   413.50038   129.86197   220.01512
   308  H   1.0    0.03    1.05    1.44   415.22570   133.69433   221.57793
   309  H   1.0    0.04    1.05    1.44   417.20047   132.35452   219.77324
   310  H   1.0    0.05    1.06    1.44   415.58853   134.66754   218.76979
   311  H   1.0    0.03    1.05    1.44   410.53918   133.11041   220.90140
   312  H   1.0    0.06    1.05    1.44   410.79241   134.10818   218.08949
   313  H   1.0    0.05    1.06    1.44   409.55842   131.43422   218.62428
   314  N   5.0   -0.23    3.25    1.97   428.70323   145.68275   209.12274
   315  C   4.0    0.02    4.32    4.24   427.70923   146.49911   206.71712
   316  C   4.0    0.05    3.22    3.04   428.33851   149.21087   205.99714
   317  O   6.0   -0.32    1.15    1.80   428.35930   150.90596   207.61474
   318  C   4.0   -0.05    4.48    4.51   424.81228   146.20810   206.65854
   319  C   4.0   -0.03    4.31    4.22   423.85041   143.54547   207.20278
   320  C   4.0   -0.09    4.22    4.04   420.98937   143.46421   206.88531
   321  C   4.0   -0.10    4.25    4.09   425.13732   141.77858   205.29038
   322  H   1.0    0.11    1.09    1.44   427.56372   145.32182   210.22445
   323  H   1.0    0.02    1.13    1.45   428.53315   145.41063   205.49447
   324  H   1.0    0.06    1.09    1.44   424.08285   147.35894   207.88497
   325  H   1.0    0.03    1.10    1.44   424.20379   146.72588   205.00881
   326  H   1.0    0.05    1.12    1.45   424.23970   143.03147   208.91865
   327  H   1.0    0.04    1.05    1.44   420.38277   141.76913   207.23302
   328  H   1.0    0.05    1.06    1.44   420.21080   144.64151   208.05316
   329  H   1.0    0.04    1.06    1.44   420.55095   143.92909   205.16755
   330  H   1.0    0.03    1.05    1.44   424.57418   140.05704   205.57195
   331  H   1.0    0.03    1.06    1.44   424.69512   142.29447   203.58774
   332  H   1.0    0.03    1.06    1.44   426.95523   141.86740   205.50203
   333  N   5.0   -0.26    3.22    1.96   426.69634   155.20886   204.43055
   334  C   4.0   -0.01    4.25    4.11   424.34930   156.62427   204.72724
   335  C   4.0    0.14    3.38    3.07   423.19279   156.07814   207.27837
   336  O   6.0   -0.31    1.21    1.80   421.71691   157.63905   208.27426
   337  H   1.0    0.10    1.08    1.44   427.88120   155.65673   205.44912
   338  H   1.0    0.03    1.09    1.44   424.67811   158.41951   204.56094
   339  H   1.0    0.03    1.09    1.44   423.17200   156.16884   203.39687
   340  N   5.0   -0.16    3.46    2.05   423.79561   153.86905   208.29315
   341  C   4.0    0.01    4.38    4.34   422.81862   153.07158   210.70633
   342  C   4.0    0.15    3.39    3.07   420.23159   151.89617   210.61185
   343  O   6.0   -0.31    1.25    1.80   419.97458   149.61716   210.28492
   344  H   1.0    0.11    1.16    1.46   424.78961   152.79379   207.58829
   345  H   1.0    0.05    1.10    1.44   423.98647   151.86594   211.44333
   346  H   1.0    0.04    1.10    1.44   422.76571   154.52100   211.82694
   347  N   5.0   -0.16    3.48    2.06   418.29462   153.41740   210.98790
   348  C   4.0    0.03    4.53    4.57   415.71514   152.44797   210.96900
   349  C   4.0    0.14    3.51    3.12   414.16179   153.48921   208.80527
   350  O   6.0   -0.30    1.24    1.80   413.78384   155.78901   208.59173
   351  C   4.0   -0.05    4.44    4.44   414.35832   153.08103   213.47289
   352  C   4.0   -0.02    4.31    4.21   411.68058   151.95664   213.76391
   353  C   4.0   -0.09    4.24    4.08   411.80908   149.09182   213.56549
   354  C   4.0   -0.09    4.21    4.02   410.47304   152.74844   216.25457
   355  H   1.0    0.10    1.13    1.45   418.42123   155.01422   211.25813
   356  H   1.0    0.05    1.16    1.46   415.85498   150.63195   210.75736
   357  H   1.0    0.05    1.09    1.44   415.39389   152.48577   214.86373
   358  H   1.0    0.05    1.09    1.44   414.24494   154.90462   213.62974
   359  H   1.0    0.06    1.13    1.45   410.62800   152.60860   212.41276
   360  H   1.0    0.04    1.06    1.44   410.12533   148.38884   213.74879
   361  H   1.0    0.04    1.07    1.44   412.49127   148.62128   211.93088
   362  H   1.0    0.04    1.06    1.44   412.89189   148.43419   214.89019
   363  H   1.0    0.05    1.06    1.44   408.79875   152.01522   216.38307
   364  H   1.0    0.04    1.06    1.44   411.50483   152.15884   217.64919
   365  H   1.0    0.05    1.06    1.44   410.34643   154.57580   216.31882
   366  N   5.0   -0.09    3.71    2.28   413.13756   151.79980   207.20656
   367  C   4.0    0.03    4.66    4.73   411.59932   152.70308   205.06361
   368  C   4.0    0.16    3.46    3.10   409.16913   153.93519   206.05383
   369  O   6.0   -0.29    1.26    1.80   407.94648   152.94308   207.70167
   370  C   4.0   -0.05    4.48    4.51   411.07398   150.30124   203.56695
   371  C   4.0   -0.04    4.47    4.49   411.25917   148.29624   205.49825
   372  C   4.0   -0.02    4.46    4.48   413.41913   149.04835   207.18199
   373  H   1.0    0.04    1.12    1.45   412.41757   153.98054   204.03560
   374  H   1.0    0.05    1.09    1.44   409.41669   150.33904   202.78649
   375  H   1.0    0.03    1.09    1.44   412.29474   150.06125   202.22146
   376  H   1.0    0.05    1.10    1.44   409.70014   148.15451   206.45067
   377  H   1.0    0.04    1.09    1.44   411.56530   146.66352   204.72535
   378  H   1.0    0.04    1.09    1.44   413.27740   148.32270   208.85818
   379  H   1.0    0.04    1.08    1.44   415.04051   148.52301   206.50736
   380  N   5.0   -0.17    3.49    2.07   408.69292   156.21798   205.08062
   381  C   4.0    0.03    4.45    4.46   406.53674   157.76377   205.80249
   382  C   4.0    0.16    3.47    3.10   404.04797   156.35970   205.99714
   383  O   6.0   -0.29    1.22    1.80   402.71572   156.55813   207.92277
   384  C   4.0   -0.10    4.25    4.10   406.24384   159.97097   204.03182
   385  H   1.0    0.08    1.14    1.45   409.64156   156.91528   203.96001
   386  H   1.0    0.06    1.14    1.45   406.92603   158.33825   207.49947
   387  H   1.0    0.03    1.06    1.44   404.80009   160.97819   204.54205
   388  H   1.0    0.03    1.06    1.44   407.75751   161.00465   204.08662
   389  H   1.0    0.03    1.06    1.44   405.98494   159.35492   202.32540
   390  N   5.0   -0.16    3.51    2.08   403.47728   154.88572   204.04505
   391  C   4.0    0.04    4.48    4.51   401.19449   153.31914   203.82017
   392  C   4.0    0.17    3.46    3.10   400.64080   151.65429   206.12942
   393  O   6.0   -0.28    1.26    1.80   398.44305   151.12327   206.74736
   394  C   4.0    0.06    4.33    4.25   401.30787   151.62783   201.45235
   395  O   6.0   -0.29    2.17    1.85   403.82877   150.74911   201.06306
   396  C   4.0   -0.09    4.16    3.92   400.30632   152.96954   199.08830
   397  H   1.0    0.10    1.15    1.45   404.45049   154.75911   202.74870
   398  H   1.0    0.05    1.13    1.45   399.82255   154.52856   203.68978
   399  H   1.0    0.07    1.12    1.45   400.20805   150.19164   201.74714
   400  H   1.0    0.18    1.12    1.45   404.02719   149.36016   201.80572
   401  H   1.0    0.04    1.05    1.44   400.41403   151.83759   197.65022
   402  H   1.0    0.04    1.05    1.44   398.55832   153.45331   199.35475
   403  H   1.0    0.04    1.05    1.44   401.31165   154.46620   198.76327
   404  N   5.0   -0.14    3.51    2.09   402.62123   150.76234   207.36719
   405  C   4.0    0.05    4.43    4.42   402.33966   149.21087   209.60840
   406  C   4.0    0.17    3.42    3.08   401.49118   150.77934   211.91198
   407  O   6.0   -0.30    1.25    1.80   402.91792   151.14784   213.72800
   408  C   4.0   -0.07    4.24    4.07   404.84733   147.87295   210.16776
   409  H   1.0    0.12    1.15    1.45   404.16325   151.03824   206.93255
   410  H   1.0    0.07    1.13    1.45   401.03008   147.96932   209.28715
   411  H   1.0    0.06    1.05    1.44   404.66591   146.83360   211.66631
   412  H   1.0    0.05    1.05    1.44   405.30653   146.81470   208.74291
   413  H   1.0    0.06    1.06    1.44   406.15880   149.12205   210.44744
   414  N   5.0   -0.15    3.51    2.09   399.11957   151.63350   211.87229
   415  C   4.0    0.04    4.53    4.58   398.06888   153.22087   213.88485
   416  C   4.0    0.16    3.46    3.10   396.68938   151.76200   215.98245
   417  O   6.0   -0.28    1.26    1.80   396.60056   152.59726   218.16130
   418  C   4.0    0.05    4.35    4.29   396.15648   155.13516   212.82472
   419  O   6.0   -0.26    2.16    1.85   394.46139   153.85582   211.10695
   420  C   4.0   -0.07    4.22    4.04   397.52275   157.14394   211.37719
   421  H   1.0    0.13    1.15    1.45   398.07077   151.30847   210.67421
   422  H   1.0    0.07    1.14    1.45   399.54287   154.03534   214.60673
   423  H   1.0    0.05    1.11    1.45   395.22295   155.88160   214.21555
   424  H   1.0    0.17    1.09    1.44   393.24063   153.24922   211.92143
   425  H   1.0    0.04    1.06    1.44   396.31144   158.34770   210.71011
   426  H   1.0    0.04    1.06    1.44   398.69627   158.00944   212.48834
   427  H   1.0    0.07    1.06    1.44   398.44683   156.37860   209.99202
   428  N   5.0   -0.15    3.51    2.09   395.57066   149.63984   215.33994
   429  C   4.0    0.04    4.54    4.59   394.09668   148.22254   217.16353
   430  C   4.0    0.16    3.48    3.11   395.56499   147.11705   219.41797
   431  O   6.0   -0.31    1.32    1.80   396.64403   145.05914   219.25356
   432  C   4.0   -0.05    4.40    4.38   392.65293   146.14385   215.84828
   433  C   4.0   -0.04    4.28    4.16   390.99564   147.02635   213.62785
   434  C   4.0    0.25    3.16    3.03   389.36669   149.30725   214.28358
   435  O   6.0   -0.29    1.17    1.80   387.59602   149.09749   215.82182
   436  O   6.0   -0.29    1.20    1.80   389.87692   151.34626   213.25368
   437  H   1.0    0.11    1.14    1.45   395.63680   148.98032   213.85651
   438  H   1.0    0.06    1.15    1.45   392.97040   149.46598   217.90241
   439  H   1.0    0.05    1.10    1.44   393.84723   144.89852   215.23034
   440  H   1.0    0.05    1.09    1.44   391.58712   145.30103   217.07849
   441  H   1.0    0.06    1.09    1.44   392.07089   147.44398   212.20300
   442  H   1.0    0.05    1.09    1.44   389.91282   145.64496   213.09684
   443  N   5.0   -0.14    3.52    2.09   395.74641   148.57592   221.42297
   444  C   4.0    0.04    4.51    4.55   396.98985   147.56303   223.70198
   445  C   4.0    0.16    3.51    3.12   395.09445   145.62417   224.70164
   446  O   6.0   -0.30    1.26    1.80   393.22740   146.27046   225.89784
   447  C   4.0   -0.03    4.37    4.33   397.44905   149.60960   225.69375
   448  C   4.0    0.25    3.15    3.03   399.26697   151.63728   224.80936
   449  O   6.0   -0.29    1.18    1.80   401.54787   151.51256   225.33092
   450  O   6.0   -0.28    1.19    1.80   398.36179   153.45331   223.61694
   451  H   1.0    0.12    1.13    1.45   395.19650   150.10093   221.53446
   452  H   1.0    0.07    1.12    1.45   398.64147   146.86194   223.32214
   453  H   1.0    0.06    1.09    1.44   395.85034   150.38628   226.13972
   454  H   1.0    0.06    1.09    1.44   398.10857   148.83104   227.21687
   455  N   5.0   -0.14    3.55    2.11   395.49696   143.24501   224.07047
   456  C   4.0    0.04    4.47    4.49   393.81700   141.22678   224.84148
   457  C   4.0    0.07    3.24    3.04   394.49352   139.97578   227.33214
   458  O   6.0   -0.28    1.13    1.80   396.68749   140.14208   228.16740
   459  C   4.0   -0.03    4.38    4.34   393.76598   139.12351   222.76656
   460  C   4.0   -0.08    4.21    4.03   392.85135   140.26869   220.23055
   461  C   4.0   -0.08    4.26    4.13   396.33789   137.96511   222.43586
   462  H   1.0    0.12    1.15    1.45   396.76119   142.75179   223.17663
   463  H   1.0    0.05    1.14    1.45   392.18616   142.03180   225.06825
   464  H   1.0    0.04    1.12    1.45   392.60757   137.80638   223.29758
   465  H   1.0    0.04    1.05    1.44   392.82111   138.96289   218.94554
   466  H   1.0    0.06    1.05    1.44   391.16571   140.95655   220.44220
   467  H   1.0    0.06    1.06    1.44   393.99463   141.60472   219.71466
   468  H   1.0    0.04    1.06    1.44   396.26230   136.66876   221.14329
   469  H   1.0    0.06    1.06    1.44   397.53220   139.26146   221.93131
   470  H   1.0    0.05    1.06    1.44   396.88024   137.21678   224.01945
   471  N   5.0   -0.22    3.26    1.97   389.20040   131.88019   217.01613
   472  C   4.0    0.03    4.33    4.25   387.55823   132.89498   215.04325
   473  C   4.0    0.06    3.25    3.04   387.14627   130.87675   213.08739
   474  O   6.0   -0.30    1.15    1.80   388.91127   129.46512   212.53370
   475  C   4.0   -0.06    4.43    4.43   388.62403   135.24391   213.72045
   476  C   4.0   -0.05    4.34    4.27   388.94151   137.54937   215.28514
   477  C   4.0    0.15    3.32    3.06   386.60202   138.26936   216.73267
   478  O   6.0   -0.31    1.18    1.80   386.66816   138.70022   219.06837
   479  N   5.0   -0.25    3.24    1.96   384.45530   138.43187   215.40230
   480  H   1.0    0.10    1.08    1.44   390.77265   132.22412   216.79692
   481  H   1.0    0.03    1.13    1.45   385.98597   133.40709   215.83505
   482  H   1.0    0.05    1.11    1.44   390.25675   134.80738   213.01180
   483  H   1.0    0.04    1.10    1.44   387.52232   135.65587   212.31449
   484  H   1.0    0.05    1.10    1.44   390.31723   137.28481   216.46811
   485  H   1.0    0.04    1.10    1.44   389.42528   138.94588   214.20233
   486  H   1.0    0.10    1.09    1.44   384.46285   138.12763   213.80548
   487  H   1.0    0.11    1.08    1.44   383.06824   138.84194   216.14496
   488  H   1.0    0.08    1.09    1.44   381.06140   140.30486   203.41977
   489  H   1.0    0.03    1.04    1.43   379.40267   137.20508   210.23119
   490  H   1.0    0.10    1.08    1.44   417.74439   142.57759   234.09864
   491  H   1.0    0.04    1.04    1.43   411.39958   145.34415   235.96608
   492  H   1.0    0.10    1.08    1.44   405.24844   145.09698   233.96611
   493  H   1.0    0.04    1.05    1.44   421.95483   144.17574   226.23439
   494  H   1.0    0.09    1.08    1.44   423.91943   149.31688   219.00005
   495  H   1.0    0.05    1.05    1.44   422.32599   142.55614   216.25163
   496  H   1.0    0.09    1.08    1.44   419.53175   138.49558   212.59026
   497  H   1.0    0.04    1.04    1.44   412.29444   126.94279   215.14517
   498  H   1.0    0.08    1.08    1.44   429.64589   144.28438   208.90248
   499  H   1.0    0.03    1.04    1.43   428.74150   149.64264   204.20208
   500  H   1.0    0.10    1.10    1.44   426.40179   153.55676   204.70687
   501  H   1.0    0.04    1.04    1.43   393.17918   139.02124   228.29776
   502  H   1.0    0.09    1.08    1.44   388.74582   132.52751   218.52175
   503  H   1.0    0.03    1.04    1.43   385.45827   130.69593   212.25730

  Z AO/shell   Hii/eV     exponent
  1     Wed Apr 25 08:07:45 CEST 2018   EN: 2.200 GM2: 0.406  GM3: 0.0800  RAES: 1.40
     1s    -10.707211    1.230000
  6     Wed Apr 25 08:07:45 CEST 2018   EN: 2.550 GM2: 0.538  GM3: 0.1500  RAES: 3.00
     2s    -13.970922    2.096432
     2p    -10.063292    1.800000
  7     Wed Apr 25 08:07:45 CEST 2018   EN: 3.040 GM2: 0.461  GM3:-0.0640  RAES: 1.90
     2s    -16.686243    2.339881
     2p    -12.523956    2.014332
  8     Wed Apr 25 08:07:45 CEST 2018   EN: 3.440 GM2: 0.452  GM3:-0.0517  RAES: 1.80
     2s    -20.229985    2.439742
     2p    -15.503117    2.137023
 no old-style atom pair restraining (fixing) potential

molecular fragmentation (1/2 indicates fragments):
111111111111111111111222222222222222222222222222222222222222222222222222
222222222222222222222222222222222222222222222222222222222222222222222222
222222222222222222222222222222222222222222222222222222222222222222222222
222222222222222222222222222222222222222222222222222222222222222222222222
222222222222222222222222222222222222222222222222222222222222222222222222
222222222222222222222222222222222222222222222222222222222222222222222222
22222222222222222222222222222222222222222222222222222221122222222222222
# atoms in fragment 1/2:    23   480
 fragment masses (1/2) :      165.19     3416.77
CMA distance (Bohr)    :  23.732
constraining FC (au)   :  0.0500
           ------------------------------------------------- 
          |        Self-Consistent Charge Iterations        |
           ------------------------------------------------- 

 Ncao       : 1262
 Nao        : 1262
 Nshell     : 756
 Nel        : 1412
 T(el)      :   500.0
 intcut     :    35.0
 scfconv/Eh :  0.100E-06
   qconv/e  :  0.100E-04
 intneglect :  0.100E-08
 broydamp   :      0.400
 iter      E             dE          RMSdq      gap      omega  full diag
   1   -815.7139085 -0.815714E+03  0.482E+00    3.17       0.0  T
   2   -817.9340446 -0.222014E+01  0.226E+00    1.73       1.0  T
   3   -818.0698876 -0.135843E+00  0.133E+00    2.05       1.0  T
   4   -818.2005506 -0.130663E+00  0.281E-01    1.17       1.0  T
   5   -818.2117034 -0.111528E-01  0.139E-01    1.25       1.0  T
   6   -818.2132377 -0.153431E-02  0.670E-02    1.20       1.0  T
   7   -818.2137224 -0.484682E-03  0.277E-02    1.19       1.0  T
   8   -818.2138107 -0.882300E-04  0.145E-02    1.18       1.0  T
   9   -818.2138343 -0.236670E-04  0.678E-03    1.17       1.0  T
  10   -818.2138398 -0.552013E-05  0.283E-03    1.17       1.6  T
  11   -818.2138408 -0.950811E-06  0.127E-03    1.17       3.5  T
  12   -818.2138410 -0.167837E-06  0.638E-04    1.17       7.0  T
  13   -818.2138410 -0.570132E-07  0.284E-04    1.16      15.7  T
  14   -818.2138410 -0.872160E-08  0.131E-04    1.16      34.1  T
  15   -818.2138410 -0.215937E-08  0.560E-05    1.16      79.6  T
  16   -818.2138410 -0.368573E-09  0.270E-05    1.16     164.8  T
speedup  1.00
cpu  time for SCC   12.67 s
wall time for SCC   12.67 s

   *** convergence criteria satisfied after 16 iterations ***

          eigenvalues
 #    :         694        695        696        697        698        699        700        701
 occ. :        2.000      2.000      2.000      2.000      2.000      2.000      2.000      2.000
 eps  :       -10.093    -10.088    -10.063    -10.009     -9.928     -9.882     -9.861     -9.810
 #    :         702        703        704        705        706        707        708        709
 occ. :        2.000      2.000      2.000      2.000      2.000      0.000      0.000      0.000
 eps  :        -9.786     -9.772     -9.750     -9.557     -9.425     -8.261     -8.082     -7.975
 #    :         710        711        712        713        714        715        716        717
 occ. :        0.000      0.000      0.000      0.000      0.000      0.000      0.000      0.000
 eps  :        -7.910     -7.785     -7.781     -7.624     -7.472     -7.109     -6.905     -6.825


   #   Z            q   n(s)   n(p)   n(d)      C6AA      α(0)
   1   7 N     -0.402  1.278  4.124  0.000    30.415     8.191
   2   6 C      0.027  1.039  2.934  0.000    20.128     6.390
   3   6 C      0.187  1.094  2.719  0.000    24.000     8.023
   4   8 O     -0.382  1.775  4.607  0.000    21.323     6.191
   5   6 C     -0.087  1.008  3.080  0.000    22.147     6.697
   6   6 C     -0.014  1.089  2.926  0.000    28.368     8.736
   7   6 C     -0.061  1.063  2.997  0.000    29.513     8.909
   8   6 C     -0.067  1.064  3.003  0.000    29.658     8.931
   9   6 C     -0.070  1.058  3.012  0.000    29.742     8.943
  10   6 C     -0.093  1.054  3.039  0.000    30.333     9.031
  11   6 C      0.133  1.051  2.815  0.000    25.078     8.207
  12   8 O     -0.456  1.688  4.769  0.000    21.966     6.327
  13   1 H      0.177  0.823  0.000  0.000     1.231     1.738
  14   1 H      0.098  0.902  0.000  0.000     1.807     2.102
  15   1 H      0.050  0.950  0.000  0.000     2.318     2.380
  16   1 H      0.059  0.941  0.000  0.000     2.208     2.324
  17   1 H      0.062  0.938  0.000  0.000     2.173     2.305
  18   1 H      0.079  0.921  0.000  0.000     1.987     2.204
  19   1 H      0.071  0.929  0.000  0.000     2.076     2.253
  20   1 H      0.078  0.922  0.000  0.000     2.000     2.211
  21   1 H      0.341  0.659  0.000  0.000     0.609     1.225
  22   7 N     -0.406  1.274  4.132  0.000    30.544     8.208
  23   6 C      0.045  1.025  2.930  0.000    19.835     6.343
  24   6 C      0.193  1.093  2.714  0.000    23.870     8.002
  25   8 O     -0.356  1.742  4.614  0.000    20.816     6.117
  26   6 C     -0.117  1.016  3.101  0.000    22.713     6.782
  27   6 C      0.366  1.020  2.614  0.000    20.787     7.462
  28   8 O     -0.671  1.787  4.884  0.000    27.927     7.085
  29   8 O     -0.626  1.771  4.856  0.000    26.777     6.938
  30   1 H      0.202  0.798  0.000  0.000     1.097     1.641
  31   1 H      0.044  0.956  0.000  0.000     2.398     2.421
  32   1 H      0.061  0.939  0.000  0.000     2.190     2.314
  33   1 H      0.041  0.959  0.000  0.000     2.430     2.437
  34   7 N     -0.399  1.272  4.127  0.000    30.358     8.183
  35   6 C      0.034  1.029  2.937  0.000    20.004     6.368
  36   6 C      0.261  1.047  2.692  0.000    22.593     7.783
  37   8 O     -0.478  1.711  4.768  0.000    23.313     6.474
  38   6 C     -0.097  1.009  3.088  0.000    22.341     6.726
  39   6 C      0.375  1.017  2.607  0.000    20.640     7.435
  40   8 O     -0.647  1.763  4.884  0.000    27.306     7.006
  41   8 O     -0.672  1.777  4.895  0.000    27.955     7.089
  42   1 H      0.189  0.811  0.000  0.000     1.161     1.688
  43   1 H      0.061  0.939  0.000  0.000     2.183     2.310
  44   1 H      0.019  0.981  0.000  0.000     2.752     2.594
  45   1 H      0.025  0.975  0.000  0.000     2.653     2.547
  46   7 N     -0.187  1.210  3.977  0.000    25.047     7.433
  47   6 C      0.014  1.038  2.948  0.000    20.338     6.421
  48   6 C      0.263  1.048  2.690  0.000    22.570     7.780
  49   8 O     -0.542  1.779  4.762  0.000    24.725     6.667
  50   6 C     -0.096  1.008  3.088  0.000    22.304     6.720
  51   6 C     -0.032  1.038  2.994  0.000    21.106     6.534
  52   6 C     -0.160  0.979  3.181  0.000    23.641     6.928
  53   6 C     -0.159  0.983  3.176  0.000    23.615     6.925
  54   1 H      0.205  0.795  0.000  0.000     1.083     1.630
  55   1 H      0.108  0.892  0.000  0.000     1.716     2.048
  56   1 H      0.064  0.936  0.000  0.000     2.157     2.297
  57   1 H      0.066  0.934  0.000  0.000     2.133     2.284
  58   1 H      0.066  0.934  0.000  0.000     2.133     2.284
  59   1 H      0.077  0.923  0.000  0.000     2.014     2.219
  60   1 H      0.051  0.949  0.000  0.000     2.302     2.372
  61   1 H      0.046  0.954  0.000  0.000     2.365     2.405
  62   1 H      0.078  0.922  0.000  0.000     2.004     2.214
  63   1 H      0.057  0.943  0.000  0.000     2.233     2.337
  64   1 H      0.055  0.945  0.000  0.000     2.258     2.350
  65   7 N     -0.173  1.208  3.965  0.000    24.742     7.388
  66   6 C      0.019  1.028  2.952  0.000    20.244     6.405
  67   6 C      0.266  1.045  2.689  0.000    22.515     7.770
  68   8 O     -0.489  1.728  4.761  0.000    23.534     6.504
  69   6 C     -0.093  1.006  3.087  0.000    22.258     6.714
  70   6 C     -0.086  1.005  3.081  0.000    22.126     6.695
  71   6 C     -0.121  1.012  3.108  0.000    22.794     6.795
  72   6 C     -0.070  1.024  3.046  0.000    21.908     6.678
  73   7 N     -0.124  1.139  3.985  0.000    23.691     7.229
  74   1 H      0.245  0.755  0.000  0.000     0.901     1.487
  75   1 H      0.054  0.946  0.000  0.000     2.275     2.358
  76   1 H      0.087  0.913  0.000  0.000     1.904     2.158
  77   1 H      0.061  0.939  0.000  0.000     2.185     2.311
  78   1 H      0.084  0.916  0.000  0.000     1.936     2.176
  79   1 H      0.042  0.958  0.000  0.000     2.417     2.431
  80   1 H      0.081  0.919  0.000  0.000     1.967     2.193
  81   1 H      0.103  0.897  0.000  0.000     1.756     2.072
  82   1 H      0.135  0.865  0.000  0.000     1.494     1.911
  83   1 H      0.120  0.880  0.000  0.000     1.615     1.987
  84   1 H      0.301  0.699  0.000  0.000     0.711     1.321
  85   1 H      0.285  0.715  0.000  0.000     0.759     1.365
  86   1 H      0.274  0.726  0.000  0.000     0.796     1.397
  87   7 N     -0.189  1.215  3.974  0.000    25.091     7.439
  88   6 C      0.031  1.031  2.938  0.000    20.057     6.376
  89   6 C      0.288  1.036  2.676  0.000    22.123     7.703
  90   8 O     -0.544  1.765  4.778  0.000    24.777     6.674
  91   6 C     -0.095  1.007  3.088  0.000    22.293     6.718
  92   6 C     -0.004  1.076  2.928  0.000    28.113     8.697
  93   6 C     -0.056  1.056  3.000  0.000    29.400     8.892
  94   6 C     -0.059  1.048  3.011  0.000    29.474     8.904
  95   6 C     -0.046  1.059  2.987  0.000    29.138     8.852
  96   6 C     -0.053  1.053  3.001  0.000    29.319     8.880
  97   6 C     -0.060  1.056  3.004  0.000    29.490     8.905
  98   1 H      0.222  0.778  0.000  0.000     1.002     1.568
  99   1 H      0.091  0.909  0.000  0.000     1.864     2.135
 100   1 H      0.093  0.907  0.000  0.000     1.851     2.127
 101   1 H      0.051  0.949  0.000  0.000     2.308     2.376
 102   1 H      0.076  0.924  0.000  0.000     2.019     2.222
 103   1 H      0.012  0.988  0.000  0.000     2.857     2.643
 104   1 H      0.095  0.905  0.000  0.000     1.828     2.114
 105   1 H      0.045  0.955  0.000  0.000     2.386     2.415
 106   1 H      0.088  0.912  0.000  0.000     1.897     2.154
 107   7 N     -0.193  1.216  3.977  0.000    25.176     7.452
 108   6 C      0.053  1.021  2.926  0.000    19.690     6.317
 109   6 C      0.271  1.048  2.680  0.000    22.414     7.753
 110   8 O     -0.490  1.717  4.773  0.000    23.557     6.507
 111   6 C     -0.107  1.013  3.095  0.000    22.532     6.756
 112   6 C      0.360  1.021  2.619  0.000    20.889     7.480
 113   8 O     -0.623  1.765  4.858  0.000    26.701     6.928
 114   8 O     -0.633  1.765  4.868  0.000    26.944     6.959
 115   1 H      0.240  0.760  0.000  0.000     0.925     1.506
 116   1 H      0.034  0.966  0.000  0.000     2.524     2.484
 117   1 H      0.056  0.944  0.000  0.000     2.241     2.341
 118   1 H      0.068  0.932  0.000  0.000     2.110     2.271
 119   7 N     -0.194  1.216  3.978  0.000    25.218     7.458
 120   6 C      0.046  1.028  2.925  0.000    19.796     6.334
 121   6 C      0.286  1.037  2.677  0.000    22.153     7.707
 122   8 O     -0.479  1.734  4.745  0.000    23.322     6.475
 123   6 C     -0.112  1.015  3.097  0.000    22.629     6.771
 124   6 C      0.370  1.021  2.609  0.000    20.733     7.452
 125   8 O     -0.654  1.778  4.876  0.000    27.486     7.029
 126   8 O     -0.646  1.781  4.865  0.000    27.271     7.002
 127   1 H      0.176  0.824  0.000  0.000     1.238     1.743
 128   1 H      0.081  0.919  0.000  0.000     1.971     2.195
 129   1 H      0.076  0.924  0.000  0.000     2.019     2.222
 130   1 H      0.035  0.965  0.000  0.000     2.512     2.478
 131   7 N     -0.196  1.210  3.986  0.000    25.263     7.465
 132   6 C      0.005  1.047  2.948  0.000    20.496     6.446
 133   6 C      0.270  1.038  2.692  0.000    22.433     7.756
 134   8 O     -0.450  1.720  4.730  0.000    22.707     6.389
 135   6 C      0.113  1.029  2.858  0.000    18.832     6.197
 136   8 O     -0.523  1.715  4.808  0.000    23.402     6.530
 137   6 C     -0.171  0.985  3.186  0.000    23.867     6.963
 138   1 H      0.208  0.792  0.000  0.000     1.066     1.617
 139   1 H      0.112  0.888  0.000  0.000     1.682     2.028
 140   1 H      0.049  0.951  0.000  0.000     2.336     2.390
 141   1 H      0.325  0.675  0.000  0.000     0.648     1.265
 142   1 H      0.087  0.913  0.000  0.000     1.911     2.162
 143   1 H      0.093  0.907  0.000  0.000     1.852     2.128
 144   1 H      0.079  0.921  0.000  0.000     1.985     2.203
 145   7 N     -0.179  1.200  3.979  0.000    24.880     7.408
 146   6 C     -0.007  1.050  2.957  0.000    20.698     6.478
 147   6 C      0.258  1.049  2.693  0.000    22.655     7.794
 148   8 O     -0.448  1.729  4.719  0.000    22.662     6.383
 149   6 C      0.100  1.030  2.870  0.000    19.014     6.224
 150   8 O     -0.512  1.700  4.812  0.000    23.140     6.494
 151   6 C     -0.176  0.986  3.190  0.000    23.971     6.978
 152   1 H      0.200  0.800  0.000  0.000     1.107     1.648
 153   1 H      0.130  0.870  0.000  0.000     1.536     1.938
 154   1 H      0.085  0.915  0.000  0.000     1.928     2.171
 155   1 H      0.333  0.667  0.000  0.000     0.628     1.244
 156   1 H      0.093  0.907  0.000  0.000     1.852     2.128
 157   1 H      0.093  0.907  0.000  0.000     1.854     2.129
 158   1 H      0.055  0.945  0.000  0.000     2.253     2.347
 159   7 N     -0.195  1.207  3.988  0.000    25.232     7.460
 160   6 C     -0.047  1.007  3.040  0.000    21.464     6.605
 161   6 C      0.274  1.037  2.689  0.000    22.372     7.745
 162   8 O     -0.484  1.751  4.733  0.000    23.435     6.490
 163   1 H      0.204  0.796  0.000  0.000     1.085     1.631
 164   1 H      0.095  0.905  0.000  0.000     1.831     2.116
 165   1 H      0.126  0.874  0.000  0.000     1.567     1.957
 166   7 N     -0.171  1.197  3.974  0.000    24.706     7.382
 167   6 C      0.009  1.039  2.952  0.000    20.426     6.434
 168   6 C      0.273  1.043  2.685  0.000    22.394     7.750
 169   8 O     -0.518  1.758  4.760  0.000    24.176     6.592
 170   6 C     -0.089  1.002  3.086  0.000    22.170     6.700
 171   6 C     -0.106  1.002  3.104  0.000    22.508     6.752
 172   6 C     -0.112  1.003  3.109  0.000    22.616     6.768
 173   6 C     -0.073  1.014  3.059  0.000    21.968     6.686
 174   7 N     -0.139  1.143  3.996  0.000    24.002     7.276
 175   1 H      0.208  0.792  0.000  0.000     1.067     1.618
 176   1 H      0.096  0.904  0.000  0.000     1.825     2.112
 177   1 H      0.055  0.945  0.000  0.000     2.258     2.350
 178   1 H      0.066  0.934  0.000  0.000     2.127     2.281
 179   1 H      0.078  0.922  0.000  0.000     1.998     2.210
 180   1 H      0.074  0.926  0.000  0.000     2.044     2.235
 181   1 H      0.092  0.908  0.000  0.000     1.857     2.131
 182   1 H      0.088  0.912  0.000  0.000     1.896     2.153
 183   1 H      0.128  0.872  0.000  0.000     1.551     1.948
 184   1 H      0.144  0.856  0.000  0.000     1.429     1.869
 185   1 H      0.307  0.693  0.000  0.000     0.692     1.303
 186   1 H      0.278  0.722  0.000  0.000     0.783     1.386
 187   1 H      0.295  0.705  0.000  0.000     0.728     1.336
 188   7 N     -0.171  1.203  3.968  0.000    24.704     7.382
 189   6 C      0.020  1.032  2.948  0.000    20.230     6.403
 190   6 C      0.264  1.046  2.691  0.000    22.555     7.777
 191   8 O     -0.483  1.737  4.746  0.000    23.412     6.487
 192   6 C     -0.100  1.009  3.092  0.000    22.397     6.734
 193   6 C     -0.014  1.083  2.931  0.000    28.371     8.737
 194   6 C     -0.053  1.060  2.993  0.000    29.318     8.880
 195   6 C     -0.066  1.058  3.007  0.000    29.632     8.927
 196   6 C     -0.068  1.054  3.014  0.000    29.697     8.936
 197   6 C     -0.096  1.051  3.045  0.000    30.409     9.043
 198   6 C      0.133  1.053  2.815  0.000    25.095     8.210
 199   8 O     -0.430  1.676  4.755  0.000    21.443     6.251
 200   1 H      0.225  0.775  0.000  0.000     0.987     1.556
 201   1 H      0.069  0.931  0.000  0.000     2.097     2.265
 202   1 H      0.101  0.899  0.000  0.000     1.778     2.085
 203   1 H      0.074  0.926  0.000  0.000     2.046     2.237
 204   1 H      0.069  0.931  0.000  0.000     2.093     2.262
 205   1 H      0.061  0.939  0.000  0.000     2.188     2.313
 206   1 H      0.086  0.914  0.000  0.000     1.917     2.165
 207   1 H      0.063  0.937  0.000  0.000     2.160     2.298
 208   1 H      0.327  0.673  0.000  0.000     0.644     1.260
 209   7 N     -0.168  1.203  3.965  0.000    24.646     7.373
 210   6 C      0.008  1.043  2.949  0.000    20.442     6.438
 211   6 C      0.256  1.046  2.698  0.000    22.688     7.800
 212   8 O     -0.489  1.747  4.742  0.000    23.547     6.506
 213   6 C     -0.103  1.014  3.089  0.000    22.449     6.743
 214   6 C     -0.012  1.087  2.924  0.000    28.300     8.726
 215   6 C     -0.055  1.057  2.998  0.000    29.371     8.888
 216   6 C     -0.062  1.062  2.999  0.000    29.537     8.913
 217   6 C     -0.073  1.047  3.026  0.000    29.827     8.956
 218   6 C     -0.085  1.053  3.033  0.000    30.130     9.001
 219   6 C      0.131  1.052  2.817  0.000    25.135     8.217
 220   8 O     -0.449  1.681  4.768  0.000    21.817     6.305
 221   1 H      0.210  0.790  0.000  0.000     1.057     1.611
 222   1 H      0.099  0.901  0.000  0.000     1.791     2.093
 223   1 H      0.069  0.931  0.000  0.000     2.095     2.263
 224   1 H      0.094  0.906  0.000  0.000     1.838     2.120
 225   1 H      0.045  0.955  0.000  0.000     2.385     2.415
 226   1 H      0.082  0.918  0.000  0.000     1.958     2.188
 227   1 H      0.045  0.955  0.000  0.000     2.385     2.415
 228   1 H      0.085  0.915  0.000  0.000     1.925     2.170
 229   1 H      0.355  0.645  0.000  0.000     0.576     1.192
 230   7 N     -0.165  1.198  3.967  0.000    24.569     7.362
 231   6 C      0.005  1.035  2.960  0.000    20.497     6.445
 232   6 C      0.251  1.043  2.706  0.000    22.782     7.816
 233   8 O     -0.479  1.757  4.722  0.000    23.330     6.476
 234   6 C     -0.161  0.981  3.180  0.000    23.644     6.929
 235   1 H      0.225  0.775  0.000  0.000     0.986     1.555
 236   1 H      0.086  0.914  0.000  0.000     1.915     2.164
 237   1 H      0.085  0.915  0.000  0.000     1.925     2.170
 238   1 H      0.085  0.915  0.000  0.000     1.930     2.172
 239   1 H      0.084  0.916  0.000  0.000     1.936     2.176
 240   7 N     -0.165  1.196  3.969  0.000    24.572     7.362
 241   6 C      0.013  1.027  2.961  0.000    20.359     6.423
 242   6 C      0.203  1.076  2.722  0.000    23.696     7.974
 243   8 O     -0.355  1.770  4.585  0.000    20.797     6.114
 244   6 C     -0.106  1.004  3.101  0.000    22.486     6.746
 245   6 C     -0.100  1.003  3.098  0.000    22.398     6.735
 246   6 C     -0.123  1.014  3.110  0.000    22.852     6.804
 247   6 C     -0.063  1.022  3.041  0.000    21.787     6.660
 248   7 N     -0.151  1.152  3.999  0.000    24.261     7.316
 249   1 H      0.218  0.782  0.000  0.000     1.017     1.579
 250   1 H      0.108  0.892  0.000  0.000     1.715     2.048
 251   1 H      0.087  0.913  0.000  0.000     1.912     2.162
 252   1 H      0.081  0.919  0.000  0.000     1.967     2.193
 253   1 H      0.074  0.926  0.000  0.000     2.039     2.233
 254   1 H      0.087  0.913  0.000  0.000     1.910     2.161
 255   1 H      0.113  0.887  0.000  0.000     1.672     2.022
 256   1 H      0.102  0.898  0.000  0.000     1.764     2.077
 257   1 H      0.111  0.889  0.000  0.000     1.686     2.030
 258   1 H      0.117  0.883  0.000  0.000     1.635     1.999
 259   1 H      0.285  0.715  0.000  0.000     0.760     1.365
 260   1 H      0.298  0.702  0.000  0.000     0.720     1.329
 261   1 H      0.299  0.701  0.000  0.000     0.716     1.326
 262   7 N     -0.406  1.278  4.128  0.000    30.538     8.207
 263   6 C      0.032  1.023  2.944  0.000    20.041     6.375
 264   6 C      0.198  1.084  2.718  0.000    23.787     7.988
 265   8 O     -0.376  1.751  4.626  0.000    21.215     6.175
 266   6 C     -0.089  1.008  3.081  0.000    22.178     6.701
 267   6 C     -0.014  1.087  2.927  0.000    28.362     8.735
 268   6 C     -0.063  1.066  2.997  0.000    29.575     8.918
 269   6 C     -0.063  1.059  3.004  0.000    29.570     8.918
 270   6 C     -0.080  1.063  3.017  0.000    29.993     8.980
 271   6 C     -0.114  1.052  3.062  0.000    30.889     9.114
 272   6 C      0.133  1.049  2.817  0.000    25.079     8.207
 273   8 O     -0.421  1.669  4.753  0.000    21.260     6.225
 274   1 H      0.180  0.820  0.000  0.000     1.212     1.725
 275   1 H      0.084  0.916  0.000  0.000     1.934     2.174
 276   1 H      0.068  0.932  0.000  0.000     2.105     2.269
 277   1 H      0.057  0.943  0.000  0.000     2.237     2.339
 278   1 H      0.075  0.925  0.000  0.000     2.034     2.230
 279   1 H      0.058  0.942  0.000  0.000     2.219     2.329
 280   1 H      0.096  0.904  0.000  0.000     1.823     2.111
 281   1 H      0.065  0.935  0.000  0.000     2.141     2.288
 282   1 H      0.335  0.665  0.000  0.000     0.623     1.239
 283   7 N     -0.408  1.280  4.128  0.000    30.591     8.214
 284   6 C      0.025  1.031  2.944  0.000    20.158     6.393
 285   6 C      0.276  1.041  2.682  0.000    22.328     7.738
 286   8 O     -0.491  1.737  4.754  0.000    23.585     6.511
 287   6 C     -0.069  1.005  3.064  0.000    21.805     6.646
 288   6 C     -0.118  1.014  3.104  0.000    22.753     6.789
 289   6 C      0.365  1.024  2.611  0.000    20.810     7.466
 290   8 O     -0.658  1.772  4.886  0.000    27.591     7.043
 291   8 O     -0.652  1.762  4.891  0.000    27.443     7.024
 292   1 H      0.186  0.814  0.000  0.000     1.177     1.700
 293   1 H      0.046  0.954  0.000  0.000     2.364     2.404
 294   1 H      0.054  0.946  0.000  0.000     2.268     2.355
 295   1 H      0.034  0.966  0.000  0.000     2.529     2.487
 296   1 H      0.033  0.967  0.000  0.000     2.542     2.493
 297   1 H      0.040  0.960  0.000  0.000     2.447     2.446
 298   7 N     -0.184  1.205  3.979  0.000    24.980     7.423
 299   6 C      0.013  1.035  2.953  0.000    20.366     6.425
 300   6 C      0.192  1.090  2.719  0.000    23.905     8.007
 301   8 O     -0.373  1.761  4.612  0.000    21.145     6.165
 302   6 C     -0.032  1.049  2.983  0.000    21.103     6.534
 303   6 C     -0.155  0.980  3.175  0.000    23.534     6.914
 304   6 C     -0.156  0.981  3.175  0.000    23.554     6.918
 305   1 H      0.208  0.792  0.000  0.000     1.064     1.616
 306   1 H      0.099  0.901  0.000  0.000     1.790     2.092
 307   1 H      0.077  0.923  0.000  0.000     2.010     2.217
 308   1 H      0.078  0.922  0.000  0.000     1.996     2.209
 309   1 H      0.069  0.931  0.000  0.000     2.097     2.264
 310   1 H      0.056  0.944  0.000  0.000     2.248     2.344
 311   1 H      0.076  0.924  0.000  0.000     2.018     2.221
 312   1 H      0.047  0.953  0.000  0.000     2.354     2.399
 313   1 H      0.056  0.944  0.000  0.000     2.240     2.340
 314   7 N     -0.405  1.272  4.133  0.000    30.517     8.204
 315   6 C      0.031  1.029  2.940  0.000    20.061     6.379
 316   6 C      0.183  1.098  2.719  0.000    24.080     8.037
 317   8 O     -0.384  1.759  4.625  0.000    21.360     6.196
 318   6 C     -0.089  1.014  3.075  0.000    22.172     6.700
 319   6 C     -0.021  1.033  2.988  0.000    20.915     6.504
 320   6 C     -0.150  0.977  3.173  0.000    23.425     6.897
 321   6 C     -0.155  0.979  3.175  0.000    23.522     6.911
 322   1 H      0.188  0.812  0.000  0.000     1.170     1.694
 323   1 H      0.068  0.932  0.000  0.000     2.106     2.269
 324   1 H      0.061  0.939  0.000  0.000     2.190     2.314
 325   1 H      0.056  0.944  0.000  0.000     2.244     2.342
 326   1 H      0.053  0.947  0.000  0.000     2.276     2.359
 327   1 H      0.047  0.953  0.000  0.000     2.360     2.402
 328   1 H      0.054  0.946  0.000  0.000     2.271     2.356
 329   1 H      0.054  0.946  0.000  0.000     2.266     2.354
 330   1 H      0.050  0.950  0.000  0.000     2.323     2.383
 331   1 H      0.058  0.942  0.000  0.000     2.226     2.333
 332   1 H      0.055  0.945  0.000  0.000     2.259     2.350
 333   7 N     -0.412  1.282  4.130  0.000    30.696     8.228
 334   6 C     -0.038  1.006  3.032  0.000    21.319     6.585
 335   6 C      0.257  1.049  2.694  0.000    22.671     7.797
 336   8 O     -0.533  1.772  4.761  0.000    24.530     6.640
 337   1 H      0.193  0.807  0.000  0.000     1.143     1.674
 338   1 H      0.091  0.909  0.000  0.000     1.871     2.139
 339   1 H      0.087  0.913  0.000  0.000     1.907     2.159
 340   7 N     -0.173  1.198  3.976  0.000    24.747     7.388
 341   6 C     -0.041  0.998  3.043  0.000    21.344     6.585
 342   6 C      0.268  1.034  2.698  0.000    22.472     7.763
 343   8 O     -0.483  1.742  4.740  0.000    23.399     6.486
 344   1 H      0.221  0.779  0.000  0.000     1.006     1.571
 345   1 H      0.103  0.897  0.000  0.000     1.759     2.074
 346   1 H      0.094  0.906  0.000  0.000     1.842     2.122
 347   7 N     -0.172  1.209  3.963  0.000    24.717     7.384
 348   6 C      0.008  1.036  2.956  0.000    20.442     6.437
 349   6 C      0.256  1.047  2.697  0.000    22.693     7.801
 350   8 O     -0.513  1.759  4.754  0.000    24.076     6.579
 351   6 C     -0.102  1.016  3.086  0.000    22.428     6.740
 352   6 C     -0.026  1.032  2.994  0.000    20.992     6.516
 353   6 C     -0.161  0.979  3.182  0.000    23.644     6.929
 354   6 C     -0.161  0.980  3.182  0.000    23.661     6.932
 355   1 H      0.219  0.781  0.000  0.000     1.012     1.575
 356   1 H      0.092  0.908  0.000  0.000     1.856     2.130
 357   1 H      0.085  0.915  0.000  0.000     1.926     2.170
 358   1 H      0.069  0.931  0.000  0.000     2.099     2.266
 359   1 H      0.031  0.969  0.000  0.000     2.569     2.506
 360   1 H      0.044  0.956  0.000  0.000     2.396     2.421
 361   1 H      0.046  0.954  0.000  0.000     2.367     2.406
 362   1 H      0.074  0.926  0.000  0.000     2.040     2.233
 363   1 H      0.048  0.952  0.000  0.000     2.342     2.393
 364   1 H      0.080  0.920  0.000  0.000     1.975     2.198
 365   1 H      0.054  0.946  0.000  0.000     2.274     2.358
 366   7 N     -0.092  1.241  3.851  0.000    23.029     7.127
 367   6 C      0.007  1.045  2.949  0.000    20.437     6.431
 368   6 C      0.278  1.038  2.684  0.000    22.295     7.732
 369   8 O     -0.493  1.751  4.741  0.000    23.624     6.517
 370   6 C     -0.089  1.003  3.086  0.000    22.151     6.694
 371   6 C     -0.080  0.995  3.085  0.000    21.987     6.667
 372   6 C     -0.025  1.008  3.017  0.000    21.041     6.535
 373   1 H      0.084  0.916  0.000  0.000     1.939     2.177
 374   1 H      0.063  0.937  0.000  0.000     2.160     2.298
 375   1 H      0.093  0.907  0.000  0.000     1.846     2.125
 376   1 H      0.055  0.945  0.000  0.000     2.258     2.350
 377   1 H      0.077  0.923  0.000  0.000     2.007     2.215
 378   1 H      0.074  0.926  0.000  0.000     2.036     2.231
 379   1 H      0.091  0.909  0.000  0.000     1.868     2.137
 380   7 N     -0.210  1.219  3.991  0.000    25.570     7.510
 381   6 C      0.015  1.031  2.954  0.000    20.322     6.418
 382   6 C      0.275  1.040  2.684  0.000    22.343     7.740
 383   8 O     -0.521  1.775  4.746  0.000    24.255     6.603
 384   6 C     -0.173  0.982  3.191  0.000    23.895     6.965
 385   1 H      0.238  0.762  0.000  0.000     0.929     1.510
 386   1 H      0.097  0.903  0.000  0.000     1.808     2.102
 387   1 H      0.086  0.914  0.000  0.000     1.913     2.163
 388   1 H      0.107  0.893  0.000  0.000     1.720     2.051
 389   1 H      0.087  0.913  0.000  0.000     1.904     2.158
 390   7 N     -0.194  1.209  3.984  0.000    25.200     7.456
 391   6 C      0.006  1.047  2.948  0.000    20.491     6.446
 392   6 C      0.285  1.039  2.676  0.000    22.168     7.710
 393   8 O     -0.553  1.782  4.771  0.000    24.991     6.703
 394   6 C      0.119  1.017  2.863  0.000    18.719     6.176
 395   8 O     -0.469  1.648  4.822  0.000    22.238     6.366
 396   6 C     -0.166  0.984  3.182  0.000    23.761     6.947
 397   1 H      0.239  0.761  0.000  0.000     0.926     1.507
 398   1 H      0.082  0.918  0.000  0.000     1.953     2.185
 399   1 H      0.021  0.979  0.000  0.000     2.714     2.576
 400   1 H      0.322  0.678  0.000  0.000     0.657     1.273
 401   1 H      0.087  0.913  0.000  0.000     1.904     2.158
 402   1 H      0.061  0.939  0.000  0.000     2.187     2.312
 403   1 H      0.099  0.901  0.000  0.000     1.794     2.094
 404   7 N     -0.180  1.211  3.969  0.000    24.900     7.411
 405   6 C      0.046  1.026  2.928  0.000    19.800     6.335
 406   6 C      0.270  1.052  2.678  0.000    22.442     7.757
 407   8 O     -0.478  1.734  4.743  0.000    23.300     6.472
 408   6 C     -0.144  0.975  3.169  0.000    23.312     6.881
 409   1 H      0.237  0.763  0.000  0.000     0.935     1.515
 410   1 H      0.050  0.950  0.000  0.000     2.313     2.378
 411   1 H      0.065  0.935  0.000  0.000     2.139     2.287
 412   1 H      0.077  0.923  0.000  0.000     2.006     2.215
 413   1 H      0.098  0.902  0.000  0.000     1.801     2.099
 414   7 N     -0.193  1.216  3.978  0.000    25.196     7.455
 415   6 C      0.011  1.044  2.945  0.000    20.397     6.430
 416   6 C      0.271  1.042  2.688  0.000    22.426     7.755
 417   8 O     -0.506  1.755  4.751  0.000    23.924     6.558
 418   6 C      0.120  1.021  2.860  0.000    18.706     6.172
 419   8 O     -0.487  1.683  4.804  0.000    22.615     6.420
 420   6 C     -0.161  0.980  3.182  0.000    23.661     6.931
 421   1 H      0.206  0.794  0.000  0.000     1.074     1.623
 422   1 H      0.106  0.894  0.000  0.000     1.730     2.056
 423   1 H      0.047  0.953  0.000  0.000     2.359     2.402
 424   1 H      0.298  0.702  0.000  0.000     0.726     1.338
 425   1 H      0.092  0.908  0.000  0.000     1.862     2.134
 426   1 H      0.089  0.911  0.000  0.000     1.888     2.148
 427   1 H      0.077  0.923  0.000  0.000     2.008     2.216
 428   7 N     -0.187  1.208  3.978  0.000    25.044     7.433
 429   6 C      0.043  1.023  2.934  0.000    19.847     6.342
 430   6 C      0.268  1.045  2.687  0.000    22.473     7.763
 431   8 O     -0.490  1.723  4.768  0.000    23.565     6.508
 432   6 C     -0.066  1.000  3.065  0.000    21.744     6.636
 433   6 C     -0.102  1.010  3.092  0.000    22.440     6.743
 434   6 C      0.372  1.020  2.607  0.000    20.688     7.444
 435   8 O     -0.649  1.762  4.887  0.000    27.351     7.012
 436   8 O     -0.658  1.774  4.884  0.000    27.587     7.042
 437   1 H      0.207  0.793  0.000  0.000     1.071     1.621
 438   1 H      0.048  0.952  0.000  0.000     2.344     2.394
 439   1 H      0.061  0.939  0.000  0.000     2.190     2.314
 440   1 H      0.063  0.937  0.000  0.000     2.163     2.300
 441   1 H      0.017  0.983  0.000  0.000     2.782     2.608
 442   1 H      0.046  0.954  0.000  0.000     2.375     2.410
 443   7 N     -0.176  1.222  3.955  0.000    24.818     7.399
 444   6 C      0.043  1.033  2.924  0.000    19.849     6.342
 445   6 C      0.273  1.042  2.684  0.000    22.378     7.747
 446   8 O     -0.511  1.743  4.768  0.000    24.031     6.573
 447   6 C     -0.107  1.011  3.096  0.000    22.529     6.755
 448   6 C      0.366  1.018  2.616  0.000    20.791     7.462
 449   8 O     -0.623  1.745  4.878  0.000    26.686     6.926
 450   8 O     -0.647  1.777  4.870  0.000    27.311     7.007
 451   1 H      0.216  0.784  0.000  0.000     1.027     1.588
 452   1 H      0.069  0.931  0.000  0.000     2.092     2.262
 453   1 H      0.046  0.954  0.000  0.000     2.372     2.408
 454   1 H      0.043  0.957  0.000  0.000     2.404     2.424
 455   7 N     -0.164  1.204  3.961  0.000    24.559     7.360
 456   6 C      0.015  1.038  2.947  0.000    20.321     6.418
 457   6 C      0.192  1.090  2.718  0.000    23.890     8.005
 458   8 O     -0.380  1.771  4.609  0.000    21.295     6.187
 459   6 C     -0.031  1.046  2.985  0.000    21.086     6.531
 460   6 C     -0.152  0.981  3.171  0.000    23.478     6.905
 461   6 C     -0.153  0.974  3.179  0.000    23.481     6.905
 462   1 H      0.232  0.768  0.000  0.000     0.957     1.532
 463   1 H      0.100  0.900  0.000  0.000     1.784     2.088
 464   1 H      0.091  0.909  0.000  0.000     1.873     2.140
 465   1 H      0.075  0.925  0.000  0.000     2.029     2.228
 466   1 H      0.054  0.946  0.000  0.000     2.267     2.354
 467   1 H      0.049  0.951  0.000  0.000     2.334     2.389
 468   1 H      0.081  0.919  0.000  0.000     1.969     2.194
 469   1 H      0.058  0.942  0.000  0.000     2.219     2.330
 470   1 H      0.068  0.932  0.000  0.000     2.110     2.271
 471   7 N     -0.394  1.276  4.118  0.000    30.207     8.163
 472   6 C      0.023  1.029  2.948  0.000    20.190     6.399
 473   6 C      0.191  1.085  2.725  0.000    23.926     8.011
 474   8 O     -0.344  1.758  4.586  0.000    20.599     6.085
 475   6 C     -0.089  1.003  3.086  0.000    22.182     6.702
 476   6 C     -0.109  1.002  3.107  0.000    22.557     6.759
 477   6 C      0.276  1.045  2.679  0.000    22.336     7.738
 478   8 O     -0.518  1.774  4.744  0.000    24.185     6.594
 479   7 N     -0.293  1.192  4.101  0.000    27.566     7.798
 480   1 H      0.179  0.821  0.000  0.000     1.222     1.731
 481   1 H      0.071  0.929  0.000  0.000     2.073     2.251
 482   1 H      0.076  0.924  0.000  0.000     2.017     2.221
 483   1 H      0.059  0.941  0.000  0.000     2.208     2.324
 484   1 H      0.078  0.922  0.000  0.000     1.994     2.208
 485   1 H      0.065  0.935  0.000  0.000     2.140     2.287
 486   1 H      0.223  0.777  0.000  0.000     0.994     1.561
 487   1 H      0.239  0.761  0.000  0.000     0.925     1.507
 488   1 H      0.185  0.815  0.000  0.000     1.186     1.705
 489   1 H      0.085  0.915  0.000  0.000     1.923     2.169
 490   1 H      0.171  0.829  0.000  0.000     1.265     1.761
 491   1 H      0.055  0.945  0.000  0.000     2.260     2.351
 492   1 H      0.160  0.840  0.000  0.000     1.334     1.809
 493   1 H      0.079  0.921  0.000  0.000     1.988     2.205
 494   1 H      0.191  0.809  0.000  0.000     1.151     1.681
 495   1 H      0.062  0.938  0.000  0.000     2.180     2.309
 496   1 H      0.177  0.823  0.000  0.000     1.229     1.737
 497   1 H      0.083  0.917  0.000  0.000     1.952     2.185
 498   1 H      0.180  0.820  0.000  0.000     1.215     1.726
 499   1 H      0.073  0.927  0.000  0.000     2.053     2.240
 500   1 H      0.169  0.831  0.000  0.000     1.276     1.770
 501   1 H      0.099  0.901  0.000  0.000     1.791     2.092
 502   1 H      0.181  0.819  0.000  0.000     1.206     1.720
 503   1 H      0.081  0.919  0.000  0.000     1.966     2.192

 Mol. C6AA /au·bohr⁶  :    2434063.958349
 Mol. C8AA /au·bohr⁸  :   54727236.334974
 Mol. α(0) /au        :       2338.380058

 
molecular dipole:
                 x           y           z       tot (Debye)
 q only:    -1572.585    -587.577    -871.213
   full:    -1575.094    -585.842    -870.349    4810.413
molecular quadrupole (traceless):
                xx          xy          yy          xz          yz          zz
 q only:  -480004.978 -346042.793  317862.773 -514000.497 -191649.909  162142.205
  q+dip:  -482466.992 -345582.467  319178.381 -514325.843 -190909.403  163288.611
   full:  -482468.740 -345579.852  319179.373 -514322.133 -190909.784  163289.367
speedup  1.00
cpu  time for grad   15.75 s
wall time for grad   15.76 s

SCC energy    :    -818.2230487
rep           :      16.6315887
ES            :       3.7696542
AES           :      -0.1593699
AXC           :       0.0854464
disp          :      -0.7042319
XB            :       0.0000000
fix           :       0.0000000
Gborn         :       0.0000000
Gsasa         :       0.0000000
Ghb           :       0.0000000
Gshift        :       0.0000000
Gsolv         :      -1.3719161     -860.89
Etot ala COSMO:    -818.2230487
grad norm     :       2.8640461
total E       :    -801.5067629
atomizationE  :     142.0066433    89110.51
(atE without considering molecular charge,
 total energy contains solvation terms)
H-L gap (eV)  :          1.1644

------------------------------------------------------------------------
 * finished run on 2019/03/07 at 11:38:03.043     
------------------------------------------------------------------------
 total:
 * wall-time:     0 d,  0 h,  0 min, 17.182 sec
 *  cpu-time:     0 d,  0 h,  0 min, 17.065 sec
 * ratio c/w:     0.993 speedup
 SCF:
 * wall-time:     0 d,  0 h,  0 min, 16.768 sec
 *  cpu-time:     0 d,  0 h,  0 min, 16.765 sec
 * ratio c/w:     1.000 speedup

