      -----------------------------------------------------------      
     |                   =====================                   |     
     |                           x T B                           |     
     |                   =====================                   |     
     |                         S. Grimme                         |     
     |          Mulliken Center for Theoretical Chemistry        |     
     |                    University of Bonn                     |     
     |                Version 6.1 RC1 (SAW190329)                |     
      -----------------------------------------------------------      

   This program is distributed in the hope that it will be useful,
   but WITHOUT ANY WARRANTY; without even the implied warranty of
   MERCHANTABILITY or FITNESS FOR A PARTICULAR PURPOSE.
   
   FOR NON-COMMERCIAL, ACADEMIA USE ONLY.
   
   Cite this work as:
   S. Grimme, C. Bannwarth, P. Shushkov, J. Comput. Theory Chem., 2017,
   13, 1989-2009. DOI: 10.1021/acs.jctc.7b00118
   C. Bannwarth, S. Ehlert and S. Grimme., J. Comput. Theory Chem., 2019,
   just accepted. DOI: 10.1021/acs.jctc.8b01176
   
   for sTDA-xTB:
   S. Grimme and C. Bannwarth, J. Chem. Phys., 2016, 145, 054103.
   DOI: 10.1063/1.4959605
   
   in the mass-spec context:
   V. Asgeirsson, C. Bauer and S. Grimme, Chem. Sci., 2017, 8, 4879.
   DOI: 10.1039/c7sc00601b
   
   for metadynamics refer to:
   S. Grimme, ChemRxiv, Preprint. DOI: 10.26434/chemrxiv.7660532.v1
   
   with help from (in alphabetical order)
   C. Bannwarth, F. Bohle, G. Brandenburg, E. Caldeweyher, M. Checinski,
   S. Dohm, S. Ehlert, S. Ehrlich, F. März, H. Neugebauer, J. Pisarek,
   P. Pracht, P. Shushkov, and S. Spicher.
   
 * started run on 2019/05/31 at 05:35:26.589     

           -------------------------------------------------
          |                Calculation Setup                |
           -------------------------------------------------

          program call               : /home/lum/install/xtb/xtb-190329/bin/xtb xtb_tmp.xyz --chrg 0 --grad --gfn 2 --etemp 500 --acc 0.1 --gbsa h2o --parallel 2
          hostname                   : cpu02
          coordinate file            : xtb_tmp.xyz
          omp threads                :                     2
          number of atoms            :                   124
          number of electrons        :                   334
          charge                     :                     0
          spin                       :                   0.0
          first test random number   :      0.36495663738871


molecular fragmentation (1/2 indicates fragments):
111111111111111111122222222222222222222222222222222222222222222222222222
2222222222222222222222222222222222222222222222112222
# atoms in fragment 1/2:    21   103
 fragment masses (1/2) :      115.17      724.81
CMA distance (Bohr)    :  12.763
constraining FC (au)   :  0.0500

########################################################################
# WARNING! Please study the warnings concerning your input carefully
#  - XTBPATH is not set, using XTBHOME instead
#  - Process number higher than OMP_NUM_THREADS, I hope you know what you are doing.
########################################################################

           ------------------------------------------------- 
          |                 G F N 2 - x T B                 |
          | Geometry, Frequencies, Noncovalent interactions |
          |            JCTC 2018 parametrisation            |
           ------------------------------------------------- 
 
             k(s)              :                1.8500
             k(p)              :                2.2300
             k(d)              :                2.2300
             k(f)              :                2.0000
             kEN (H0ij)        :               -2.0000
             D4 a1             :                0.5200
             D4 a2             :                5.0000
             D4 s6             :                1.0000
             D4 s8             :                2.7000
             D4 s9             :                5.0000
             alphaj            :                2.0000

  Z AO/shell   Hii/eV     exponent
  1     Wed Apr 25 08:07:45 CEST 2018   EN: 2.200 GM2: 0.406  GM3: 0.0800  RAES: 1.40
     1s    -10.707211    1.230000
  6     Wed Apr 25 08:07:45 CEST 2018   EN: 2.550 GM2: 0.538  GM3: 0.1500  RAES: 3.00
     2s    -13.970922    2.096432
     2p    -10.063292    1.800000
  7     Wed Apr 25 08:07:45 CEST 2018   EN: 3.040 GM2: 0.461  GM3:-0.0640  RAES: 1.90
     2s    -16.686243    2.339881
     2p    -12.523956    2.014332
  8     Wed Apr 25 08:07:45 CEST 2018   EN: 3.440 GM2: 0.452  GM3:-0.0517  RAES: 1.80
     2s    -20.229985    2.439742
     2p    -15.503117    2.137023

 Solvent             : h2o
 Using internal parameter file: .param_gbsa2_h2o
 Gsolv ref. state (COSMO-RS): gsolv [1 M gas/solution]
 temperature (mdtemp)       :    298.150000000000     
 dielectric constant        :    80.2000000000000     
 rho                        :    1.00000000000000     
 mass                       :    18.0000000000000     
 surface tension            :    15.5689454083859     
 probe radius               :   0.975313790000000     
 vdW radii scaling          :    1.00000000000000     
 Gshift (Eh)                :   1.857443126794793E-003
 c1                         :    1.55243817000000     
 soset                      :   0.130326360000000     
 HB correction              :  T
 Number of grid points      :          230

            Z     q(EN)     CN     RAES       Cart. coordinates
     1  N   5.0   -0.72    3.00    1.93   437.75628   127.84437   223.13664
     2  C   4.0    0.07    3.98    3.59   438.78757   130.37258   223.14132
     3  C   4.0    0.07    3.00    3.02   441.05617   130.76774   224.89851
     4  O   6.0   -0.40    1.00    1.80   442.27096   132.73184   224.78509
     5  C   4.0   -0.13    3.99    3.60   436.72397   132.28891   223.80865
     6  C   4.0   -0.11    3.98    3.58   434.57004   132.33157   221.87355
     7  C   4.0   -0.22    3.98    3.59   432.43704   134.06560   222.74838
     8  C   4.0   -0.20    3.99    3.60   435.52240   133.19425   219.30240
     9  H   1.0    0.25    1.00    1.43   436.25000   127.52281   224.28019
    10  H   1.0    0.12    0.99    1.43   439.52587   130.74155   221.24094
    11  H   1.0    0.11    0.99    1.43   435.97943   131.81664   225.67330
    12  H   1.0    0.13    0.99    1.43   437.59506   134.15366   223.93173
    13  H   1.0    0.11    0.99    1.43   433.80751   130.41567   221.70388
    14  H   1.0    0.11    0.99    1.43   430.88805   134.00384   221.39964
    15  H   1.0    0.10    0.99    1.43   431.73299   133.49728   224.59427
    16  H   1.0    0.12    0.99    1.43   433.07179   136.01721   222.87913
    17  H   1.0    0.15    0.99    1.43   433.96415   133.28640   217.97582
    18  H   1.0    0.13    0.99    1.43   436.34919   135.06728   219.46315
    19  H   1.0    0.11    0.99    1.43   436.93359   131.89390   218.57031
    20  N   5.0   -0.67    3.00    1.93   421.64749   142.22007   215.93704
    21  C   4.0    0.06    3.98    3.59   422.00096   139.84796   214.64946
    22  C   4.0    0.06    3.00    3.02   419.40686   138.76146   213.99776
    23  O   6.0   -0.39    1.00    1.80   417.51388   139.38386   215.16222
    24  C   4.0   -0.14    3.99    3.60   423.37447   137.97046   216.41428
    25  C   4.0   -0.05    3.03    3.02   426.09398   138.69424   216.80865
    26  C   4.0   -0.11    3.04    3.02   426.95172   139.75125   219.05094
    27  C   4.0   -0.10    3.04    3.02   427.83495   138.25357   214.89978
    28  C   4.0   -0.08    3.03    3.02   429.49281   140.22358   219.44173
    29  C   4.0   -0.07    3.03    3.02   430.37710   138.67907   215.27256
    30  C   4.0    0.10    3.03    3.02   431.23323   139.61855   217.56908
    31  O   6.0   -0.47    1.99    1.83   433.74393   139.98530   218.01438
    32  H   1.0    0.29    1.00    1.43   420.29206   142.22058   217.29866
    33  H   1.0    0.12    0.99    1.43   423.11653   140.18694   212.94231
    34  H   1.0    0.11    0.99    1.43   422.37692   137.94452   218.21820
    35  H   1.0    0.09    0.99    1.43   423.28086   136.08084   215.59150
    36  H   1.0    0.11    1.00    1.43   425.61985   140.18990   220.52866
    37  H   1.0    0.11    1.00    1.43   427.20192   137.55132   213.09450
    38  H   1.0    0.13    1.00    1.43   430.17190   141.00113   221.20246
    39  H   1.0    0.16    1.00    1.43   431.70149   138.23245   213.79051
    40  H   1.0    0.27    0.99    1.43   434.70219   139.14938   216.70205
    41  N   5.0   -0.69    3.00    1.93   419.68961   124.71965   220.11231
    42  C   4.0    0.07    3.98    3.59   421.11890   126.36449   218.43111
    43  C   4.0    0.29    3.02    3.02   421.09796   125.20489   215.78148
    44  O   6.0   -0.40    1.00    1.80   421.91013   123.07218   215.37816
    45  C   4.0   -0.14    3.99    3.60   423.81585   126.57589   219.44081
    46  C   4.0   -0.10    3.98    3.58   425.58878   128.16700   217.79371
    47  C   4.0   -0.22    3.98    3.59   424.75683   130.92070   217.59535
    48  C   4.0   -0.23    3.99    3.59   428.25642   128.04893   218.90065
    49  H   1.0    0.26    1.00    1.43   420.74329   123.58851   221.26139
    50  H   1.0    0.10    0.99    1.43   420.17945   128.20444   218.36161
    51  H   1.0    0.10    0.99    1.43   423.73712   127.36067   221.34444
    52  H   1.0    0.12    0.99    1.43   424.57399   124.66027   219.57138
    53  H   1.0    0.14    0.99    1.43   425.59360   127.35163   215.89013
    54  H   1.0    0.11    0.99    1.43   426.23531   132.00923   216.67364
    55  H   1.0    0.10    0.99    1.43   423.03594   131.10689   216.48912
    56  H   1.0    0.10    0.99    1.43   424.45338   131.71119   219.46554
    57  H   1.0    0.12    0.99    1.43   429.61048   128.94176   217.63882
    58  H   1.0    0.10    0.99    1.43   428.30822   129.03574   220.69925
    59  H   1.0    0.10    0.99    1.43   428.84510   126.09983   219.20915
    60  N   5.0   -0.48    3.01    1.93   420.03202   126.62122   213.97711
    61  C   4.0    0.07    4.00    3.62   420.00728   125.71506   211.39583
    62  C   4.0    0.28    3.01    3.02   422.66638   126.07093   210.30159
    63  O   6.0   -0.42    1.00    1.80   424.03581   127.82223   210.91786
    64  C   4.0   -0.21    3.98    3.59   418.00894   127.11166   209.86673
    65  H   1.0    0.23    1.00    1.43   419.68970   128.49729   214.21954
    66  H   1.0    0.13    0.99    1.43   419.58877   123.68905   211.47313
    67  H   1.0    0.10    0.99    1.43   417.95246   126.42277   207.93546
    68  H   1.0    0.11    0.99    1.43   416.16848   126.83581   210.73968
    69  H   1.0    0.11    0.99    1.43   418.43013   129.12146   209.84775
    70  N   5.0   -0.50    3.00    1.93   423.42510   124.24372   208.70895
    71  C   4.0    0.02    3.99    3.61   425.89461   124.36368   207.53912
    72  C   4.0    0.30    3.01    3.02   427.94833   125.13161   209.41635
    73  O   6.0   -0.40    1.01    1.80   429.66795   126.55844   208.79984
    74  H   1.0    0.23    1.00    1.43   422.21943   122.87684   208.15183
    75  H   1.0    0.10    0.99    1.43   426.36510   122.51499   206.75790
    76  H   1.0    0.12    0.99    1.43   425.93021   125.76574   206.01489
    77  N   5.0   -0.48    3.00    1.93   427.86920   124.09379   211.71761
    78  C   4.0    0.01    4.00    3.61   429.86968   124.64214   213.50816
    79  C   4.0    0.30    3.01    3.02   431.21895   127.12018   212.82895
    80  O   6.0   -0.42    1.00    1.80   433.51332   127.19519   212.60432
    81  H   1.0    0.26    1.00    1.43   426.45224   122.93835   212.26081
    82  H   1.0    0.10    0.99    1.43   429.07263   124.77452   215.39823
    83  H   1.0    0.12    0.99    1.43   431.29136   123.13691   213.46587
    84  N   5.0   -0.46    3.01    1.93   429.74115   129.21182   212.72461
    85  C   4.0    0.08    4.00    3.62   430.56947   131.25653   211.06290
    86  C   4.0    0.29    3.01    3.02   432.77383   132.56681   212.37624
    87  O   6.0   -0.44    1.00    1.80   432.52841   133.58159   214.42937
    88  C   4.0   -0.21    3.98    3.59   428.35570   133.01193   210.56733
    89  H   1.0    0.27    1.00    1.43   427.84840   128.92946   212.67710
    90  H   1.0    0.15    0.99    1.43   431.23710   130.42804   209.28286
    91  H   1.0    0.11    0.99    1.43   428.94345   134.58192   209.38166
    92  H   1.0    0.13    0.99    1.43   426.86108   131.96539   209.62170
    93  H   1.0    0.11    0.99    1.43   427.65717   133.72539   212.35889
    94  N   5.0   -0.48    3.01    1.93   434.97686   132.52559   211.11086
    95  C   4.0    0.10    3.99    3.61   437.36664   133.03498   212.33243
    96  C   4.0    0.28    3.01    3.02   437.93948   135.84090   212.65019
    97  O   6.0   -0.41    1.00    1.80   439.40121   136.55351   214.29779
    98  C   4.0    0.04    3.98    3.59   439.50644   131.78045   210.79543
    99  O   6.0   -0.46    1.99    1.82   439.07887   132.45849   208.24792
   100  C   4.0   -0.21    3.98    3.59   439.53580   128.92349   211.20219
   101  H   1.0    0.26    1.00    1.43   435.11739   131.64165   209.42466
   102  H   1.0    0.12    0.99    1.43   437.33794   132.22515   214.23914
   103  H   1.0    0.13    0.99    1.43   441.31755   132.57358   211.43661
   104  H   1.0    0.26    0.99    1.43   440.31778   131.63464   207.19738
   105  H   1.0    0.11    0.99    1.43   440.89664   128.03267   209.94589
   106  H   1.0    0.11    0.99    1.43   440.06520   128.49244   213.13835
   107  H   1.0    0.15    0.99    1.43   437.68072   128.10914   210.86074
   108  N   5.0   -0.44    3.01    1.93   436.82340   137.41722   211.04272
   109  C   4.0    0.08    3.99    3.60   437.03132   140.13659   211.23561
   110  C   4.0    0.04    3.00    3.02   434.37259   141.25277   210.99273
   111  O   6.0   -0.41    1.00    1.80   432.78053   140.14442   209.70742
   112  C   4.0   -0.01    3.98    3.58   438.73629   141.21870   209.15121
   113  O   6.0   -0.44    1.99    1.83   441.23975   140.55322   209.72402
   114  H   1.0    0.28    1.00    1.43   435.57862   136.76728   209.74521
   115  H   1.0    0.15    0.99    1.43   437.89735   140.56239   213.06263
   116  H   1.0    0.13    0.99    1.43   438.13621   140.44616   207.32170
   117  H   1.0    0.10    0.99    1.43   438.48779   143.27820   209.10352
   118  H   1.0    0.25    0.99    1.43   442.35198   141.18310   208.42338
   119  H   1.0    0.29    1.00    1.43   437.23512   127.44672   221.56730
   120  H   1.0    0.14    1.00    1.43   441.54020   129.42205   226.13378
   121  H   1.0    0.30    1.00    1.43   423.09816   142.67341   216.70033
   122  H   1.0    0.12    1.00    1.43   419.23208   137.51205   212.59081
   123  H   1.0    0.29    1.00    1.43   418.71313   125.66410   221.13556
   124  H   1.0    0.13    1.00    1.43   433.94189   142.86813   211.87372

           ------------------------------------------------- 
          |        Self-Consistent Charge Iterations        |
           ------------------------------------------------- 

          ...................................................
          :                      SETUP                      :
          :.................................................:
          :  # basis functions                 301          :
          :  # atomic orbitals                 301          :
          :  # shells                          183          :
          :  # electrons                       334          :
          :  max. iterations                   250          :
          :  Hamiltonian                  GFN2-xTB          :
          :  restarted?                      false          :
          :  GBSA solvation                   true          :
          :  PC potential                    false          :
          :  electronic temp.          500.0000000     K    :
          :  accuracy                    0.1000000          :
          :  -> integral cutoff          0.3500000E+02      :
          :  -> integral neglect         0.1000000E-08      :
          :  -> SCF convergence          0.1000000E-06 Eh   :
          :  -> wf. convergence          0.1000000E-04 e    :
          :  Broyden damping             0.4000000          :
          ...................................................

 iter      E             dE          RMSdq      gap      omega  full diag
   1   -191.4870785 -0.191487E+03  0.426E+00    2.29       0.0  T
   2   -191.9312423 -0.444164E+00  0.221E+00    1.41       1.0  T
   3   -191.9470191 -0.157768E-01  0.118E+00    1.92       1.0  T
   4   -191.9587149 -0.116959E-01  0.262E-01    1.44       1.0  T
   5   -191.9633058 -0.459088E-02  0.967E-02    1.57       1.0  T
   6   -191.9633948 -0.889281E-04  0.434E-02    1.55       1.0  T
   7   -191.9634230 -0.282143E-04  0.193E-02    1.56       1.0  T
   8   -191.9634343 -0.113779E-04  0.622E-03    1.56       1.4  T
   9   -191.9634352 -0.836629E-06  0.289E-03    1.56       3.1  T
  10   -191.9634353 -0.135938E-06  0.129E-03    1.56       7.0  T
  11   -191.9634353 -0.256900E-07  0.452E-04    1.56      19.9  T
  12   -191.9634354 -0.745356E-08  0.174E-04    1.56      51.5  T
  13   -191.9634354 -0.721968E-09  0.854E-05    1.56     105.2  T
  14   -191.9634354 -0.159673E-09  0.426E-05    1.56     210.7  T

   *** convergence criteria satisfied after 14 iterations ***

         #    Occupation            Energy/Eh            Energy/eV
      -------------------------------------------------------------
         1        2.0000           -0.7443210             -20.2540
       ...           ...                  ...                  ...
       161        2.0000           -0.4034796             -10.9792
       162        2.0000           -0.3948955             -10.7457
       163        2.0000           -0.3889193             -10.5830
       164        2.0000           -0.3824853             -10.4080
       165        2.0000           -0.3671101              -9.9896
       166        2.0000           -0.3666642              -9.9774
       167        2.0000           -0.3635664              -9.8931 (HOMO)
       168                         -0.3061160              -8.3298 (LUMO)
       169                         -0.2815813              -7.6622
       170                         -0.2780505              -7.5661
       171                         -0.2408277              -6.5533
       172                         -0.2310777              -6.2879
       ...                                ...                  ...
       301                          0.6656019              18.1119
      -------------------------------------------------------------
                  HL-Gap            0.0574504 Eh            1.5633 eV
             Fermi-level           -0.3346658 Eh           -9.1067 eV

 SCC (total)                   0 d,  0 h,  0 min,  0.425 sec
 SCC setup                      ...        0 min,  0.012 sec (  2.873%)
 Dispersion                     ...        0 min,  0.004 sec (  0.861%)
 integral evaluation            ...        0 min,  0.036 sec (  8.450%)
 zeroth order Hamiltonian       ...        0 min,  0.001 sec (  0.153%)
 iterations                     ...        0 min,  0.271 sec ( 63.939%)
 molecular gradient             ...        0 min,  0.098 sec ( 22.988%)
 printout                       ...        0 min,  0.003 sec (  0.723%)

         :::::::::::::::::::::::::::::::::::::::::::::::::::::
         ::                     SUMMARY                     ::
         :::::::::::::::::::::::::::::::::::::::::::::::::::::
         :: total energy             -189.606057966523 Eh   ::
         :: total w/o Gsasa/hb       -189.578250651207 Eh   ::
         :: gradient norm               0.388704141586 Eh/α ::
         :: HOMO-LUMO gap               1.563304468259 eV   ::
         ::.................................................::
         :: SCC energy               -191.968995243054 Eh   ::
         :: -> isotropic ES             0.483681581514 Eh   ::
         :: -> anisotropic ES           0.011964849532 Eh   ::
         :: -> anisotropic XC           0.062719645439 Eh   ::
         :: -> dispersion              -0.140741981493 Eh   ::
         :: -> Gsolv                   -0.079186439340 Eh   ::
         ::    -> Gborn                -0.051379124025 Eh   ::
         ::    -> Gsasa                -0.007417331516 Eh   ::
         ::    -> Ghb                  -0.022247426926 Eh   ::
         ::    -> Gshift                0.001857443127 Eh   ::
         :: repulsion energy            2.354863264515 Eh   ::
         :: add. restraining            0.000000000000 Eh   ::
         :::::::::::::::::::::::::::::::::::::::::::::::::::::

           -------------------------------------------------
          |                Property Printout                |
           -------------------------------------------------

    * Orbital Energies and Occupations

         #    Occupation            Energy/Eh            Energy/eV
      -------------------------------------------------------------
         1        2.0000           -0.7443210             -20.2540
       ...           ...                  ...                  ...
       155        2.0000           -0.4135416             -11.2530
       156        2.0000           -0.4116822             -11.2024
       157        2.0000           -0.4113457             -11.1933
       158        2.0000           -0.4107404             -11.1768
       159        2.0000           -0.4080897             -11.1047
       160        2.0000           -0.4050522             -11.0220
       161        2.0000           -0.4034796             -10.9792
       162        2.0000           -0.3948955             -10.7457
       163        2.0000           -0.3889193             -10.5830
       164        2.0000           -0.3824853             -10.4080
       165        2.0000           -0.3671101              -9.9896
       166        2.0000           -0.3666642              -9.9774
       167        2.0000           -0.3635664              -9.8931 (HOMO)
       168                         -0.3061160              -8.3298 (LUMO)
       169                         -0.2815813              -7.6622
       170                         -0.2780505              -7.5661
       171                         -0.2408277              -6.5533
       172                         -0.2310777              -6.2879
       173                         -0.2251423              -6.1264
       174                         -0.2233163              -6.0767
       175                         -0.2215680              -6.0292
       176                         -0.2206107              -6.0031
       177                         -0.2197570              -5.9799
       178                         -0.2127718              -5.7898
       ...                                ...                  ...
       301                          0.6656019              18.1119
      -------------------------------------------------------------
                  HL-Gap            0.0574504 Eh            1.5633 eV
             Fermi-level           -0.3346658 Eh           -9.1067 eV

   #   Z        covCN         q      C6AA      α(0)
   1   7 N      2.634    -0.391    30.120     8.151
   2   6 C      3.783     0.039    19.944     6.362
   3   6 C      2.764     0.198    23.785     7.987
   4   8 O      0.856    -0.388    21.452     6.210
   5   6 C      3.811    -0.065    21.739     6.637
   6   6 C      3.850    -0.005    20.641     6.462
   7   6 C      3.757    -0.110    22.663     6.787
   8   6 C      3.758    -0.111    22.669     6.788
   9   1 H      0.860     0.166     1.298     1.785
  10   1 H      0.924     0.064     2.152     2.294
  11   1 H      0.924     0.040     2.452     2.449
  12   1 H      0.924     0.043     2.406     2.426
  13   1 H      0.924     0.030     2.583     2.513
  14   1 H      0.925     0.042     2.425     2.435
  15   1 H      0.925     0.038     2.471     2.458
  16   1 H      0.925     0.038     2.476     2.461
  17   1 H      0.925     0.062     2.171     2.304
  18   1 H      0.925     0.033     2.539     2.492
  19   1 H      0.925     0.017     2.775     2.605
  20   7 N      2.638    -0.383    29.903     8.121
  21   6 C      3.783     0.038    19.951     6.363
  22   6 C      2.769     0.199    23.765     7.984
  23   8 O      0.856    -0.375    21.185     6.171
  24   6 C      3.812    -0.070    21.821     6.649
  25   6 C      2.969     0.001    27.991     8.678
  26   6 C      2.927    -0.043    29.073     8.842
  27   6 C      2.929    -0.041    29.011     8.833
  28   6 C      2.918    -0.059    29.459     8.900
  29   6 C      2.919    -0.061    29.512     8.909
  30   6 C      2.848     0.145    24.843     8.169
  31   8 O      1.659    -0.418    21.195     6.215
  32   1 H      0.860     0.165     1.304     1.789
  33   1 H      0.924     0.068     2.109     2.271
  34   1 H      0.924     0.053     2.288     2.365
  35   1 H      0.924     0.050     2.316     2.380
  36   1 H      0.926     0.045     2.377     2.411
  37   1 H      0.926     0.046     2.364     2.404
  38   1 H      0.926     0.049     2.330     2.387
  39   1 H      0.926     0.027     2.625     2.533
  40   1 H      0.805     0.310     0.691     1.306
  41   7 N      2.638    -0.393    30.187     8.160
  42   6 C      3.786     0.032    20.050     6.378
  43   6 C      2.763     0.274    22.373     7.746
  44   8 O      0.859    -0.494    23.642     6.519
  45   6 C      3.812    -0.069    21.815     6.648
  46   6 C      3.849    -0.011    20.734     6.477
  47   6 C      3.756    -0.112    22.691     6.792
  48   6 C      3.758    -0.113    22.719     6.796
  49   1 H      0.860     0.162     1.324     1.802
  50   1 H      0.924     0.032     2.554     2.499
  51   1 H      0.924     0.046     2.375     2.410
  52   1 H      0.924     0.043     2.410     2.428
  53   1 H      0.924     0.017     2.776     2.605
  54   1 H      0.925     0.044     2.400     2.423
  55   1 H      0.925     0.031     2.569     2.506
  56   1 H      0.925     0.046     2.366     2.405
  57   1 H      0.925     0.037     2.493     2.469
  58   1 H      0.925     0.050     2.322     2.383
  59   1 H      0.925     0.031     2.579     2.511
  60   7 N      2.693    -0.174    24.758     7.390
  61   6 C      3.800     0.020    20.239     6.405
  62   6 C      2.759     0.270    22.431     7.756
  63   8 O      0.859    -0.478    23.297     6.471
  64   6 C      3.756    -0.133    23.118     6.856
  65   1 H      0.860     0.203     1.090     1.636
  66   1 H      0.924     0.079     1.993     2.208
  67   1 H      0.925     0.073     2.051     2.239
  68   1 H      0.925     0.079     1.990     2.206
  69   1 H      0.925     0.065     2.140     2.288
  70   7 N      2.687    -0.179    24.883     7.409
  71   6 C      3.746    -0.033    21.233     6.573
  72   6 C      2.758     0.287    22.137     7.705
  73   8 O      0.863    -0.476    23.266     6.467
  74   1 H      0.860     0.226     0.983     1.553
  75   1 H      0.924     0.103     1.760     2.075
  76   1 H      0.924     0.095     1.830     2.115
  77   7 N      2.687    -0.167    24.615     7.369
  78   6 C      3.748    -0.032    21.213     6.569
  79   6 C      2.761     0.303    21.852     7.655
  80   8 O      0.858    -0.491    23.576     6.510
  81   1 H      0.860     0.213     1.043     1.600
  82   1 H      0.925     0.086     1.915     2.164
  83   1 H      0.924     0.081     1.965     2.192
  84   7 N      2.692    -0.195    25.234     7.461
  85   6 C      3.801     0.035    19.985     6.365
  86   6 C      2.758     0.280    22.268     7.728
  87   8 O      0.859    -0.468    23.077     6.441
  88   6 C      3.757    -0.122    22.891     6.822
  89   1 H      0.860     0.207     1.069     1.619
  90   1 H      0.924     0.054     2.271     2.357
  91   1 H      0.925     0.060     2.200     2.320
  92   1 H      0.925     0.069     2.100     2.266
  93   1 H      0.925     0.067     2.117     2.275
  94   7 N      2.689    -0.183    24.961     7.420
  95   6 C      3.797     0.024    20.173     6.395
  96   6 C      2.755     0.279    22.276     7.729
  97   8 O      0.859    -0.492    23.607     6.514
  98   6 C      3.728     0.117    18.754     6.182
  99   8 O      1.656    -0.484    22.558     6.412
 100   6 C      3.752    -0.138    23.226     6.873
 101   1 H      0.860     0.216     1.029     1.589
 102   1 H      0.924     0.070     2.086     2.259
 103   1 H      0.923     0.030     2.583     2.513
 104   1 H      0.805     0.349     0.591     1.207
 105   1 H      0.925     0.063     2.169     2.303
 106   1 H      0.925     0.050     2.318     2.381
 107   1 H      0.925     0.070     2.088     2.260
 108   7 N      2.692    -0.155    24.358     7.330
 109   6 C      3.791     0.022    20.213     6.403
 110   6 C      2.768     0.190    23.935     8.012
 111   8 O      0.856    -0.344    20.589     6.084
 112   6 C      3.677     0.082    19.428     6.314
 113   8 O      1.656    -0.477    22.395     6.388
 114   1 H      0.860     0.213     1.043     1.600
 115   1 H      0.924     0.106     1.731     2.058
 116   1 H      0.924     0.053     2.285     2.364
 117   1 H      0.923     0.049     2.328     2.386
 118   1 H      0.805     0.355     0.577     1.193
 119   1 H      0.862     0.181     1.210     1.723
 120   1 H      0.930     0.075     2.028     2.227
 121   1 H      0.862     0.181     1.206     1.720
 122   1 H      0.930     0.066     2.130     2.282
 123   1 H      0.862     0.187     1.176     1.699
 124   1 H      0.930     0.096     1.821     2.110

 Mol. C6AA /au·bohr⁶  :     139478.003807
 Mol. C8AA /au·bohr⁸  :    3081805.109973
 Mol. α(0) /au        :        560.236804


Wiberg/Mayer (AO) data.
largest (>0.10) Wiberg bond orders for each atom
          total WBO             WBO to atom ...
     1  N   2.998        C    2 1.025    H  119 0.955    H    9 0.953
     2  C   3.986        N    1 1.025    C    3 0.984    C    5 0.956    H   10 0.932
     3  C   3.892        O    4 1.881    C    2 0.984    H  120 0.952
     4  O   2.026        C    3 1.881
     5  C   3.992        C    6 0.992    H   11 0.974    H   12 0.974    C    2 0.956
     6  C   3.996        C    8 1.011    C    7 1.006    C    5 0.992    H   13 0.965
     7  C   3.994        C    6 1.006    H   16 0.987    H   15 0.986    H   14 0.985
     8  C   3.994        C    6 1.011    H   18 0.986    H   19 0.977    H   17 0.968
     9  H   0.972        N    1 0.953
    10  H   0.996        C    2 0.932
    11  H   0.998        C    5 0.974
    12  H   0.998        C    5 0.974
    13  H   0.999        C    6 0.965
    14  H   0.997        C    7 0.985
    15  H   0.998        C    7 0.986
    16  H   0.999        C    7 0.987
    17  H   0.996        C    8 0.968
    18  H   0.999        C    8 0.986
    19  H   1.000        C    8 0.977
    20  N   3.002        C   21 1.030    H   32 0.952    H  121 0.951
    21  C   3.986        N   20 1.030    C   22 0.990    H   33 0.946    C   24 0.927
    22  C   3.902        O   23 1.883    C   21 0.990    H  122 0.955
    23  O   2.035        C   22 1.883
    24  C   3.993        C   25 1.009    H   34 0.974    H   35 0.965    C   21 0.927
    25  C   3.988        C   26 1.408    C   27 1.400    C   24 1.009
    26  C   3.988        C   28 1.449    C   25 1.408    H   36 0.968    C   29 0.104
    27  C   3.990        C   29 1.459    C   25 1.400    H   37 0.961    C   28 0.107
    28  C   3.986        C   26 1.449    C   30 1.372    H   38 0.968    C   27 0.107
    29  C   3.989        C   27 1.459    C   30 1.368    H   39 0.961    C   26 0.104
    30  C   3.931        C   28 1.372    C   29 1.368    O   31 1.061
    31  O   2.096        C   30 1.061    H   40 0.881
    32  H   0.973        N   20 0.952
    33  H   0.995        C   21 0.946
    34  H   0.997        C   24 0.974
    35  H   0.997        C   24 0.965
    36  H   0.998        C   26 0.968
    37  H   0.998        C   27 0.961
    38  H   0.997        C   28 0.968
    39  H   0.999        C   29 0.961
    40  H   0.904        O   31 0.881
    41  N   2.993        C   42 1.007    H   49 0.956    H  123 0.955
    42  C   3.986        N   41 1.007    C   45 0.980    H   50 0.965    C   43 0.940
    43  C   3.941        O   44 1.643    N   60 1.285    C   42 0.940
    44  O   1.946        C   43 1.643    N   60 0.191
    45  C   3.994        C   46 0.995    C   42 0.980    H   51 0.973    H   52 0.972
    46  C   3.996        C   47 1.009    C   48 1.007    C   45 0.995    H   53 0.961
    47  C   3.996        C   46 1.009    H   56 0.986    H   55 0.984    H   54 0.983
    48  C   3.995        C   46 1.007    H   58 0.984    H   57 0.983    H   59 0.981
    49  H   0.974        N   41 0.956
    50  H   0.999        C   42 0.965
    51  H   0.997        C   45 0.973
    52  H   0.998        C   45 0.972
    53  H   1.000        C   46 0.961
    54  H   0.998        C   47 0.983
    55  H   0.999        C   47 0.984
    56  H   0.998        C   47 0.986
    57  H   0.998        C   48 0.983
    58  H   0.997        C   48 0.984
    59  H   0.999        C   48 0.981
    60  N   3.456        C   43 1.285    C   61 0.982    H   65 0.923    O   44 0.191
    61  C   3.966        C   64 0.993    N   60 0.982    H   66 0.951    C   62 0.933
    62  C   3.945        O   63 1.643    N   70 1.287    C   61 0.933
    63  O   1.979        C   62 1.643    N   70 0.196
    64  C   3.983        C   61 0.993    H   69 0.983    H   67 0.981    H   68 0.979
    65  H   0.959        N   60 0.923
    66  H   0.994        C   61 0.951
    67  H   0.994        C   64 0.981
    68  H   0.993        C   64 0.979
    69  H   0.996        C   64 0.983
    70  N   3.457        C   62 1.287    C   71 0.995    H   74 0.921    O   63 0.196
    71  C   3.965        N   70 0.995    C   72 0.956    H   76 0.955    H   75 0.951
    72  C   3.948        O   73 1.614    N   77 1.302    C   71 0.956
    73  O   2.002        C   72 1.614    N   77 0.192
    74  H   0.949        N   70 0.921
    75  H   0.989        C   71 0.951
    76  H   0.991        C   71 0.955
    77  N   3.469        C   72 1.302    C   78 0.989    H   81 0.925    O   73 0.192
    78  C   3.963        N   77 0.989    H   83 0.960    C   79 0.950    H   82 0.947
    79  C   3.946        O   80 1.651    N   84 1.243    C   78 0.950
    80  O   1.956        C   79 1.651    N   84 0.166
    81  H   0.955        N   77 0.925
    82  H   0.993        C   78 0.947
    83  H   0.993        C   78 0.960
    84  N   3.391        C   79 1.243    C   85 0.964    H   89 0.914    O   80 0.166
    85  C   3.968        C   88 1.001    N   84 0.964    H   90 0.951    C   86 0.939
    86  C   3.946        O   87 1.653    N   94 1.274    C   85 0.939
    87  O   1.978        C   86 1.653    N   94 0.190
    88  C   3.986        C   85 1.001    H   91 0.982    H   92 0.979    H   93 0.974
    89  H   0.956        N   84 0.914
    90  H   0.997        C   85 0.951
    91  H   0.996        C   88 0.982
    92  H   0.995        C   88 0.979
    93  H   0.995        C   88 0.974
    94  N   3.450        C   86 1.274    C   95 0.989    H  101 0.914    O   87 0.190
    95  C   3.970        N   94 0.989    C   98 0.956    H  102 0.944    C   96 0.940
    96  C   3.952        O   97 1.634    N  108 1.302    C   95 0.940
    97  O   1.948        C   96 1.634    N  108 0.196
    98  C   3.957        C  100 1.000    O   99 0.993    H  103 0.961    C   95 0.956
    99  O   1.936        C   98 0.993    H  104 0.862
   100  C   3.989        C   98 1.000    H  106 0.984    H  105 0.981    H  107 0.979
   101  H   0.953        N   94 0.914
   102  H   0.994        C   95 0.944
   103  H   0.999        C   98 0.961
   104  H   0.878        O   99 0.862
   105  H   0.996        C  100 0.981
   106  H   0.997        C  100 0.984
   107  H   0.995        C  100 0.979
   108  N   3.478        C   96 1.302    C  109 0.989    H  114 0.915    O   97 0.196
   109  C   3.968        N  108 0.989    C  110 0.981    C  112 0.947    H  115 0.940
   110  C   3.902        O  111 1.905    C  109 0.981    H  124 0.951
   111  O   2.058        C  110 1.905
   112  C   3.959        O  113 1.009    H  116 0.966    H  117 0.964    C  109 0.947
   113  O   1.928        C  112 1.009    H  118 0.859
   114  H   0.955        N  108 0.915
   115  H   0.989        C  109 0.940
   116  H   0.997        C  112 0.966
   117  H   0.997        C  112 0.964
   118  H   0.874        O  113 0.859
   119  H   0.967        N    1 0.955
   120  H   0.994        C    3 0.952
   121  H   0.967        N   20 0.951
   122  H   0.996        C   22 0.955
   123  H   0.965        N   41 0.955
   124  H   0.990        C  110 0.951
 
molecular dipole:
                 x           y           z       tot (Debye)
 q only:       -3.287      -1.933      -3.905
   full:       -3.601      -2.626      -4.222      15.605
molecular quadrupole (traceless):
                xx          xy          yy          xz          yz          zz
 q only:    -1767.886   -1863.974    1753.819   -3608.638   -1403.881      14.067
  q+dip:    -1888.511   -2366.113    1769.204   -3926.701   -1685.738     119.308
   full:    -1888.465   -2367.479    1770.086   -3927.495   -1688.575     118.380


           -------------------------------------------------
          | TOTAL ENERGY             -189.606057966523 Eh   |
          | GRADIENT NORM               0.388704141586 Eh/α |
          | HOMO-LUMO GAP               1.563304468259 eV   |
           -------------------------------------------------

------------------------------------------------------------------------
 * finished run on 2019/05/31 at 05:35:27.330     
------------------------------------------------------------------------
 total:
 * wall-time:     0 d,  0 h,  0 min,  0.741 sec
 *  cpu-time:     0 d,  0 h,  0 min,  1.171 sec
 * ratio c/w:     1.581 speedup
 SCF:
 * wall-time:     0 d,  0 h,  0 min,  0.425 sec
 *  cpu-time:     0 d,  0 h,  0 min,  0.842 sec
 * ratio c/w:     1.981 speedup

