      -----------------------------------------------------------      
     |                   =====================                   |     
     |                           x T B                           |     
     |                   =====================                   |     
     |                         S. Grimme                         |     
     |          Mulliken Center for Theoretical Chemistry        |     
     |                    University of Bonn                     |     
     |                 Version 6.0.1 (SAW181210)                 |     
      -----------------------------------------------------------      

   This program is distributed in the hope that it will be useful,
   but WITHOUT ANY WARRANTY; without even the implied warranty of
   MERCHANTABILITY or FITNESS FOR A PARTICULAR PURPOSE.
   
   FOR NON-COMMERCIAL, ACADEMIA USE ONLY.
   
   Cite this work as:
   S. Grimme, C. Bannwarth, P. Shushkov, J. Comput. Theory Chem., 2017,
   13, 1989-2009.
   C. Bannwarth, S. Ehlert and S. Grimme., ChemRxiv, 2018, preprint.
   http://doi.org/10.26434/chemrxiv.7246238.v1
   
   for sTDA-xTB:
   S. Grimme and C. Bannwarth, J. Chem. Phys., 2016, 145, 054103.
   
   in the mass-spec context:
   V. Asgeirsson, C. Bauer and S. Grimme, Chem. Sci., 2017, 8, 4879.
   
   if GBSA is used:
   P. Shushkov, F. März and S. Grimme, unpublished.
   
   for ANC optimizer:
   S. Grimme, unpublished.
   Rational Function algorithm used in ANCopt:
   F. Eckert, P. Pulay, H.-J. Werner, J. Comput. Chem., 1997, 18, 1473.
   
   with help from (in alphabetical order)
   C. Bannwarth, F. Bohle, G. Brandenburg, E. Caldeweyher, M. Checinski,
   S. Dohm, S. Ehlert, S. Ehrlich, F. März, H. Neugebauer, J. Pisarek,
   P. Pracht, P. Shushkov, and S. Spicher.
   
 * started run on 2019/03/07 at 11:37:46.297     
========================================================================
 # omp threads = 1
========================================================================
number of atoms            : 535
number of electrons        : 1448
charge                     : 0
spin                       : .0
first test random number   : .0917
           ------------------------------------------------- 
          |                 G F N 2 - x T B                 |
          | Geometry, Frequencies, Noncovalent interactions |
          |            JCTC 2018 parametrisation            |
           ------------------------------------------------- 
 
      method parameters     
 k(s)        :  1.8500
 k(p)        :  2.2300
 k(d)        :  2.2300
 k(f)        :  2.0000
 kEN (H0ij)  : -2.0000
 D4 a1       :  0.5200
 D4 a2       :  5.0000
 D4 s6       :  1.0000
 D4 s8       :  2.7000
 D4 s9       :  5.0000
 alphaj      :  2.0000

 Solvent             : h2o
 Using internal parameter file: .param_gbsa2_h2o
 Gsolv ref. state (COSMO-RS): gsolv [1 M gas/solution]
 temperature (mdtemp)       :    298.150000000000     
 dielectric constant        :    80.2000000000000     
 rho                        :    1.00000000000000     
 mass                       :    18.0000000000000     
 surface tension            :    15.5689454083859     
 probe radius               :   0.975313790000000     
 vdW radii scaling          :    1.00000000000000     
 Gshift (Eh)                :   1.857443126794793E-003
 c1                         :    1.55243817000000     
 soset                      :   0.130326360000000     
 HB correction              :  T

            Z     q(EN)     CN     RAES       Cart. coordinates
     1  N   5.0   -0.24    3.30    1.98   279.74747   135.02092   195.68490
     2  C   4.0    0.02    4.36    4.31   278.53049   136.38719   193.64022
     3  C   4.0    0.15    3.43    3.09   280.51470   138.07094   192.32875
     4  O   6.0   -0.30    1.24    1.80   280.67722   138.23912   190.01572
     5  C   4.0   -0.05    4.37    4.33   276.43100   138.06716   194.82697
     6  C   4.0   -0.04    4.30    4.20   274.08396   136.58561   195.56963
     7  C   4.0    0.16    3.28    3.05   272.10353   138.25046   196.82630
     8  O   6.0   -0.27    1.20    1.80   271.93534   138.44699   199.13365
     9  N   5.0   -0.24    3.22    1.96   270.49726   139.47500   195.27672
    10  H   1.0    0.10    1.09    1.44   279.05016   135.23068   197.13810
    11  H   1.0    0.04    1.11    1.45   277.81428   135.19666   192.44591
    12  H   1.0    0.06    1.09    1.44   277.10185   138.90998   196.31040
    13  H   1.0    0.05    1.09    1.44   275.96235   139.37485   193.63266
    14  H   1.0    0.04    1.09    1.44   273.36209   135.80138   194.07863
    15  H   1.0    0.05    1.09    1.44   274.55450   135.23257   196.71291
    16  H   1.0    0.11    1.09    1.44   270.64277   139.31627   193.66478
    17  H   1.0    0.13    1.08    1.44   269.32752   140.41609   195.89655
    18  N   5.0   -0.16    3.53    2.10   282.17955   139.17643   193.85565
    19  C   4.0    0.03    4.46    4.48   284.22234   140.78269   192.91456
    20  C   4.0    0.16    3.47    3.10   285.89097   139.14430   191.13633
    21  O   6.0   -0.30    1.22    1.80   286.54481   139.96066   189.04063
    22  C   4.0   -0.06    4.36    4.31   285.80782   141.86362   195.11609
    23  C   4.0   -0.05    4.28    4.16   287.78825   143.78736   194.25249
    24  C   4.0   -0.01    4.34    4.28   286.51647   146.04936   193.04117
    25  N   5.0   -0.16    3.43    2.04   288.13785   148.31703   192.91834
    26  C   4.0    0.12    3.48    3.11   288.21911   149.92141   190.98893
    27  N   5.0   -0.23    3.33    1.99   286.77725   149.50756   188.98204
    28  N   5.0   -0.23    3.30    1.98   289.50979   152.04735   191.17224
    29  H   1.0    0.09    1.14    1.45   282.15687   139.01580   195.47325
    30  H   1.0    0.07    1.12    1.45   283.53070   142.21511   192.00372
    31  H   1.0    0.05    1.09    1.44   284.68721   142.65919   196.32930
    32  H   1.0    0.04    1.09    1.44   286.64875   140.48601   195.98537
    33  H   1.0    0.05    1.09    1.44   288.79359   144.33160   195.68490
    34  H   1.0    0.05    1.09    1.44   288.93721   143.00501   193.05818
    35  H   1.0    0.06    1.10    1.44   285.99113   145.59960   191.34420
    36  H   1.0    0.05    1.09    1.44   284.99713   146.45376   193.98226
    37  H   1.0    0.10    1.14    1.45   289.10161   148.62128   194.19013
    38  H   1.0    0.13    1.10    1.44   285.80026   148.20932   188.93669
    39  H   1.0    0.12    1.09    1.44   286.81883   150.53746   187.72538
    40  H   1.0    0.11    1.09    1.44   290.30348   152.40073   192.54607
    41  H   1.0    0.11    1.09    1.44   289.55704   153.07914   189.91746
    42  N   5.0   -0.17    3.52    2.09   286.49568   136.83695   191.98104
    43  C   4.0    0.03    4.58    4.64   288.03203   135.08139   190.55241
    44  C   4.0    0.16    3.56    3.14   286.94733   134.75258   187.91813
    45  O   6.0   -0.31    1.32    1.80   288.28336   135.17021   186.06242
    46  C   4.0   -0.03    4.41    4.40   288.22478   132.50758   191.86388
    47  C   4.0   -0.09    4.24    4.08   289.37940   130.50636   190.09698
    48  C   4.0   -0.09    4.22    4.05   289.72711   132.63420   194.29784
    49  H   1.0    0.09    1.14    1.45   286.00813   136.26058   193.42101
    50  H   1.0    0.05    1.13    1.45   289.72144   135.78248   190.44280
    51  H   1.0    0.04    1.13    1.45   286.51080   132.01625   192.28528
    52  H   1.0    0.04    1.05    1.44   289.47956   128.90010   190.97381
    53  H   1.0    0.04    1.06    1.44   288.32683   130.32495   188.60788
    54  H   1.0    0.04    1.05    1.44   291.06126   131.03171   189.59431
    55  H   1.0    0.04    1.06    1.44   289.79892   130.96935   195.05940
    56  H   1.0    0.04    1.06    1.44   291.42787   133.21434   193.93690
    57  H   1.0    0.04    1.06    1.44   288.91642   133.80016   195.45624
    58  N   5.0   -0.16    3.51    2.09   284.52848   134.07228   187.77829
    59  C   4.0    0.03    4.49    4.53   283.21890   133.68677   185.35377
    60  C   4.0    0.17    3.51    3.12   283.93132   135.61429   183.35444
    61  O   6.0   -0.32    1.27    1.80   284.68155   134.92832   181.28519
    62  C   4.0   -0.06    4.42    4.41   280.36730   133.79071   185.76006
    63  C   4.0   -0.06    4.32    4.24   279.37708   131.79705   187.56664
    64  C   4.0   -0.02    4.35    4.29   276.52927   131.69311   187.42491
    65  N   5.0   -0.17    3.46    2.05   275.51826   129.49347   188.76661
    66  C   4.0    0.11    3.50    3.11   273.37720   128.35775   188.13923
    67  N   5.0   -0.24    3.32    1.99   271.96747   129.12875   186.21171
    68  N   5.0   -0.23    3.33    1.99   272.59864   126.46424   189.51495
    69  H   1.0    0.09    1.14    1.45   283.59117   133.81905   189.08220
    70  H   1.0    0.04    1.13    1.45   283.74424   132.04082   184.74150
    71  H   1.0    0.06    1.10    1.44   279.91755   135.44800   186.40068
    72  H   1.0    0.04    1.10    1.44   279.52826   133.59607   184.14246
    73  H   1.0    0.04    1.10    1.44   280.08573   130.16054   187.14334
    74  H   1.0    0.04    1.09    1.44   279.90621   132.18444   189.27873
    75  H   1.0    0.04    1.09    1.44   275.82440   133.22568   188.14301
    76  H   1.0    0.04    1.10    1.44   276.00581   131.63264   185.66935
    77  H   1.0    0.09    1.14    1.45   276.35919   128.90766   190.02895
    78  H   1.0    0.10    1.10    1.44   272.43612   130.40621   185.32164
    79  H   1.0    0.11    1.09    1.44   270.58608   128.35019   185.85266
    80  H   1.0    0.11    1.10    1.44   273.47169   125.97858   190.79807
    81  H   1.0    0.11    1.10    1.44   271.21347   125.70268   189.13889
    82  N   5.0   -0.15    3.55    2.12   283.87652   138.01236   184.06687
    83  C   4.0    0.03    4.49    4.52   284.52092   140.10239   182.35477
    84  C   4.0    0.16    3.48    3.11   287.17787   139.83027   181.29464
    85  O   6.0   -0.31    1.25    1.80   287.62574   140.10239   179.03264
    86  C   4.0   -0.05    4.41    4.40   284.34895   142.58927   183.81175
    87  C   4.0   -0.03    4.29    4.17   281.74113   143.12973   184.92291
    88  C   4.0    0.25    3.15    3.03   281.83562   145.42764   186.62556
    89  O   6.0   -0.28    1.17    1.80   281.94900   147.59705   185.66368
    90  O   6.0   -0.29    1.18    1.80   281.80160   145.10072   188.96126
    91  H   1.0    0.11    1.14    1.45   283.46456   138.49046   185.56353
    92  H   1.0    0.05    1.12    1.45   283.33984   140.07594   180.95260
    93  H   1.0    0.07    1.10    1.44   285.57916   142.56659   185.17047
    94  H   1.0    0.06    1.09    1.44   284.81194   143.96499   182.69304
    95  H   1.0    0.05    1.09    1.44   280.53549   143.40752   183.57176
    96  H   1.0    0.06    1.09    1.44   281.15721   141.67464   185.87344
    97  N   5.0   -0.15    3.59    2.15   288.92209   139.18399   182.97460
    98  C   4.0    0.03    4.52    4.56   291.59038   138.80415   182.32265
    99  C   4.0    0.16    3.51    3.12   291.81148   136.66120   180.44237
   100  O   6.0   -0.31    1.27    1.80   292.98500   136.94844   178.47139
   101  C   4.0   -0.06    4.46    4.48   293.14185   138.27692   184.66591
   102  C   4.0   -0.02    4.32    4.24   293.08327   140.45010   186.60666
   103  C   4.0   -0.09    4.23    4.06   293.88640   139.51847   189.17858
   104  C   4.0   -0.09    4.20    4.01   294.73489   142.68754   185.78085
   105  H   1.0    0.12    1.16    1.45   288.59517   138.94777   184.54875
   106  H   1.0    0.05    1.13    1.45   292.24801   140.33483   181.55920
   107  H   1.0    0.06    1.10    1.44   292.52202   136.74624   185.46148
   108  H   1.0    0.04    1.10    1.44   294.87851   137.95944   184.17458
   109  H   1.0    0.06    1.13    1.45   291.35417   141.04914   186.70303
   110  H   1.0    0.04    1.06    1.44   293.83916   140.90742   190.37477
   111  H   1.0    0.04    1.06    1.44   292.74501   138.19566   189.73415
   112  H   1.0    0.04    1.06    1.44   295.59093   138.85328   189.08409
   113  H   1.0    0.05    1.05    1.44   294.64796   144.01035   187.04507
   114  H   1.0    0.05    1.05    1.44   296.47155   142.13007   185.59754
   115  H   1.0    0.04    1.05    1.44   294.12829   143.33571   184.17647
   116  N   5.0   -0.16    3.56    2.12   290.44899   134.61463   180.96016
   117  C   4.0    0.04    4.44    4.45   290.41497   132.45278   179.27452
   118  C   4.0    0.17    3.49    3.11   289.55326   133.20300   176.61568
   119  O   6.0   -0.30    1.31    1.80   290.53781   132.22790   174.73918
   120  C   4.0   -0.09    4.23    4.05   288.68776   130.39865   180.32521
   121  H   1.0    0.12    1.15    1.45   289.52869   134.44644   182.28863
   122  H   1.0    0.06    1.13    1.45   292.12518   131.80461   179.15736
   123  H   1.0    0.04    1.06    1.44   288.67832   128.96435   179.18381
   124  H   1.0    0.04    1.06    1.44   289.29815   129.86764   181.96927
   125  H   1.0    0.06    1.06    1.44   286.98512   131.05627   180.49150
   126  N   5.0   -0.16    3.54    2.11   287.73534   134.94155   176.49662
   127  C   4.0    0.04    4.55    4.60   286.77725   135.81460   174.06455
   128  C   4.0    0.16    3.47    3.10   288.81627   137.37552   172.69072
   129  O   6.0   -0.30    1.24    1.80   289.26035   137.00891   170.44005
   130  C   4.0   -0.03    4.37    4.33   284.36407   137.39253   174.39525
   131  C   4.0   -0.08    4.22    4.03   283.31338   138.39219   171.89703
   132  C   4.0   -0.08    4.20    4.01   282.28348   135.83917   175.76341
   133  H   1.0    0.12    1.14    1.45   287.03803   135.63130   177.79298
   134  H   1.0    0.06    1.13    1.45   286.35962   134.34440   173.05354
   135  H   1.0    0.06    1.13    1.45   284.84406   138.83817   175.41570
   136  H   1.0    0.05    1.05    1.44   281.79593   139.37107   172.21828
   137  H   1.0    0.06    1.06    1.44   284.56627   139.45800   171.08823
   138  H   1.0    0.05    1.06    1.44   282.90898   136.98434   170.79532
   139  H   1.0    0.05    1.05    1.44   280.77737   136.86718   175.95427
   140  H   1.0    0.04    1.05    1.44   281.88286   134.34818   174.77508
   141  H   1.0    0.06    1.06    1.44   282.88820   135.33083   177.41692
   142  N   5.0   -0.16    3.52    2.09   290.12962   139.00257   174.07400
   143  C   4.0    0.04    4.49    4.52   292.09494   140.55971   172.91181
   144  C   4.0    0.15    3.48    3.11   294.39474   139.03659   171.99908
   145  O   6.0   -0.31    1.28    1.80   295.68353   139.83783   170.15848
   146  C   4.0   -0.05    4.39    4.36   293.03224   142.54770   174.79587
   147  C   4.0   -0.03    4.33    4.26   291.18598   144.73789   175.18137
   148  C   4.0    0.16    3.32    3.06   292.32927   146.79769   176.75741
   149  O   6.0   -0.27    1.20    1.80   293.33838   148.64395   175.76719
   150  N   5.0   -0.24    3.25    1.97   292.13651   146.49722   179.22161
   151  H   1.0    0.12    1.14    1.45   289.92176   139.23690   175.66892
   152  H   1.0    0.06    1.13    1.45   291.31259   141.33638   171.44728
   153  H   1.0    0.06    1.09    1.44   293.34405   141.73889   176.41159
   154  H   1.0    0.06    1.10    1.44   294.63662   143.21477   174.21195
   155  H   1.0    0.06    1.09    1.44   290.69087   145.41630   173.55243
   156  H   1.0    0.05    1.10    1.44   289.66286   144.11995   175.99207
   157  H   1.0    0.11    1.10    1.44   291.41464   145.17253   179.82443
   158  H   1.0    0.12    1.09    1.44   292.73367   147.62539   180.22694
   159  N   5.0   -0.16    3.58    2.14   294.99945   137.01836   173.36535
   160  C   4.0    0.03    4.53    4.58   297.11783   135.46123   172.72473
   161  C   4.0    0.16    3.51    3.12   296.90240   134.40676   170.06400
   162  O   6.0   -0.29    1.26    1.80   298.75433   134.23101   168.70906
   163  C   4.0    0.02    4.30    4.19   297.37105   133.33717   174.59934
   164  O   6.0   -0.27    2.16    1.85   295.02779   132.09562   175.03587
   165  H   1.0    0.12    1.17    1.46   294.18120   136.53270   174.68249
   166  H   1.0    0.05    1.14    1.45   298.61827   136.51191   172.78520
   167  H   1.0    0.05    1.08    1.44   298.59938   132.12397   173.98329
   168  H   1.0    0.04    1.08    1.44   298.01734   133.99480   176.18293
   169  H   1.0    0.18    1.16    1.45   293.86750   132.87419   174.28376
   170  N   5.0   -0.16    3.52    2.09   294.62717   133.74535   169.27598
   171  C   4.0    0.04    4.41    4.39   294.11884   132.64175   166.76265
   172  C   4.0    0.16    3.42    3.08   294.40985   134.55038   164.57434
   173  O   6.0   -0.28    1.24    1.80   293.38562   134.11763   162.51265
   174  C   4.0   -0.07    4.25    4.10   291.52424   131.49469   166.72674
   175  H   1.0    0.11    1.14    1.45   293.29303   133.91921   170.18683
   176  H   1.0    0.06    1.13    1.45   295.38684   131.34729   166.48675
   177  H   1.0    0.06    1.06    1.44   291.19732   130.77282   165.07323
   178  H   1.0    0.05    1.06    1.44   291.41842   130.17944   167.99853
   179  H   1.0    0.07    1.06    1.44   290.27702   132.79104   167.08390
   180  N   5.0   -0.14    3.52    2.09   295.81770   136.58561   164.96174
   181  C   4.0    0.04    4.52    4.57   296.20509   138.49235   162.96808
   182  C   4.0    0.15    3.50    3.11   298.90551   138.52636   162.14605
   183  O   6.0   -0.29    1.32    1.80   300.50989   139.55059   163.47452
   184  C   4.0   -0.02    4.41    4.40   295.38873   141.10962   163.86192
   185  C   4.0    0.17    3.29    3.05   292.57493   141.29103   164.32490
   186  O   6.0   -0.27    1.19    1.80   291.19165   142.23400   162.71107
   187  N   5.0   -0.22    3.24    1.96   291.74345   140.46900   166.60013
   188  H   1.0    0.13    1.15    1.45   296.57359   136.91442   166.36202
   189  H   1.0    0.07    1.15    1.45   295.16008   138.03314   161.53377
   190  H   1.0    0.07    1.10    1.44   296.28257   141.52536   165.40771
   191  H   1.0    0.07    1.10    1.44   295.87628   142.35495   162.60903
   192  H   1.0    0.13    1.08    1.44   290.16931   140.59183   166.98374
   193  H   1.0    0.14    1.11    1.45   292.79036   139.82271   167.66216
   194  N   5.0   -0.16    3.48    2.06   299.45920   137.26780   160.01821
   195  C   4.0    0.04    4.43    4.44   302.03301   137.12607   158.99209
   196  C   4.0    0.16    3.45    3.09   303.48054   139.61862   158.86737
   197  O   6.0   -0.27    1.23    1.80   305.71608   139.62996   158.31935
   198  C   4.0    0.04    4.26    4.12   301.95175   135.89397   156.35404
   199  O   6.0   -0.26    2.09    1.84   301.13161   133.37308   156.37104
   200  H   1.0    0.11    1.13    1.45   298.35182   136.47412   159.13193
   201  H   1.0    0.07    1.13    1.45   302.97220   136.10751   160.19207
   202  H   1.0    0.05    1.08    1.44   300.84059   136.87285   155.27500
   203  H   1.0    0.06    1.08    1.44   303.62605   135.96956   155.61137
   204  H   1.0    0.15    1.08    1.44   301.12405   132.80805   154.88761
   205  N   5.0   -0.15    3.61    2.17   302.14450   141.74078   159.20185
   206  C   4.0    0.05    4.56    4.61   303.30479   144.22010   159.16217
   207  C   4.0    0.18    3.46    3.10   304.95264   144.66797   161.47708
   208  O   6.0   -0.26    1.23    1.80   306.67607   146.17030   161.40716
   209  C   4.0    0.05    4.34    4.27   301.26956   146.28935   159.00154
   210  O   6.0   -0.26    2.16    1.85   299.41385   145.84905   160.92528
   211  C   4.0   -0.08    4.19    3.98   299.99777   146.20243   156.40695
   212  H   1.0    0.11    1.16    1.45   300.54013   141.76346   159.45697
   213  H   1.0    0.06    1.13    1.45   304.37627   144.29380   157.67684
   214  H   1.0    0.06    1.10    1.44   302.04246   147.93342   159.24154
   215  H   1.0    0.15    1.08    1.44   298.29702   146.97344   160.85158
   216  H   1.0    0.05    1.05    1.44   298.71465   147.50823   156.31057
   217  H   1.0    0.05    1.05    1.44   301.25255   146.48211   155.10115
   218  H   1.0    0.05    1.06    1.44   299.21732   144.56215   156.16317
   219  N   5.0   -0.13    3.56    2.12   304.27422   143.43965   163.55767
   220  C   4.0    0.05    4.44    4.45   305.62160   143.66831   165.92928
   221  C   4.0    0.10    3.26    3.05   308.11415   142.26235   165.81211
   222  O   6.0   -0.26    1.14    1.80   308.19729   140.01546   165.33212
   223  C   4.0   -0.03    4.43    4.43   304.13249   142.59494   168.13459
   224  C   4.0    0.17    3.31    3.05   301.59081   143.88373   168.49741
   225  O   6.0   -0.26    1.22    1.80   301.23932   146.04747   167.72263
   226  N   5.0   -0.23    3.26    1.97   299.85415   142.56471   169.72952
   227  H   1.0    0.13    1.17    1.46   302.99677   142.43620   163.62381
   228  H   1.0    0.08    1.13    1.45   305.88805   145.46354   166.19195
   229  H   1.0    0.06    1.10    1.44   303.86604   140.80159   167.86625
   230  H   1.0    0.04    1.09    1.44   305.12082   142.76691   169.66904
   231  H   1.0    0.14    1.09    1.44   298.39529   143.21666   170.02242
   232  H   1.0    0.12    1.09    1.44   300.18675   141.05670   170.23596
   233  N   5.0   -0.23    3.26    1.97   312.50020   144.74167   174.61635
   234  C   4.0    0.03    4.41    4.40   309.83569   145.35205   175.16059
   235  C   4.0    0.15    3.46    3.10   308.67917   143.11462   176.50040
   236  O   6.0   -0.32    1.29    1.80   307.61715   143.42264   178.54698
   237  C   4.0   -0.04    4.35    4.28   308.39572   145.94731   172.72473
   238  C   4.0    0.25    3.12    3.03   309.22720   148.42663   171.43594
   239  O   6.0   -0.26    1.18    1.80   310.04734   150.20109   172.77197
   240  O   6.0   -0.26    1.17    1.80   308.97586   148.64584   169.10402
   241  H   1.0    0.11    1.08    1.44   312.91405   144.99300   173.06488
   242  H   1.0    0.06    1.12    1.45   309.73742   146.84304   176.22261
   243  H   1.0    0.05    1.09    1.44   308.62059   144.56026   171.54743
   244  H   1.0    0.05    1.09    1.44   306.60426   146.04558   173.10268
   245  N   5.0   -0.17    3.49    2.07   309.05145   140.87340   175.42515
   246  C   4.0    0.03    4.37    4.33   308.11604   138.50179   176.54198
   247  C   4.0    0.09    3.26    3.04   309.11192   138.10306   179.20460
   248  O   6.0   -0.31    1.15    1.80   307.71164   137.26402   180.88646
   249  C   4.0   -0.06    4.44    4.45   308.89271   136.25302   174.93382
   250  C   4.0   -0.02    4.27    4.14   307.86092   136.01491   172.17860
   251  C   4.0   -0.07    4.19    3.98   309.07224   133.84173   170.67816
   252  C   4.0   -0.08    4.24    4.08   305.03767   135.60862   172.37513
   253  H   1.0    0.09    1.14    1.45   309.85269   140.67309   174.02486
   254  H   1.0    0.05    1.13    1.45   306.28867   138.63596   176.60623
   255  H   1.0    0.05    1.10    1.44   310.72386   136.25113   174.83744
   256  H   1.0    0.05    1.10    1.44   308.40327   134.73557   175.83711
   257  H   1.0    0.05    1.12    1.45   308.27855   137.54559   171.26019
   258  H   1.0    0.06    1.05    1.44   308.35792   133.79071   168.99063
   259  H   1.0    0.05    1.05    1.44   310.88260   134.11007   170.56666
   260  H   1.0    0.06    1.05    1.44   308.74154   132.25247   171.52853
   261  H   1.0    0.06    1.06    1.44   304.32336   135.45178   170.69517
   262  H   1.0    0.05    1.06    1.44   304.70508   134.07795   173.32566
   263  H   1.0    0.04    1.06    1.44   304.27233   137.03726   173.23118
   264  N   5.0   -0.22    3.28    1.98   310.55756   142.62140   183.03319
   265  C   4.0    0.04    4.33    4.26   309.28389   144.51112   184.59788
   266  C   4.0    0.17    3.46    3.10   306.69118   143.38863   185.32353
   267  O   6.0   -0.29    1.24    1.80   306.00332   143.31115   187.56664
   268  C   4.0    0.03    4.23    4.07   308.97775   147.00556   183.12389
   269  O   6.0   -0.26    2.07    1.84   307.57935   148.82726   184.55631
   270  H   1.0    0.12    1.09    1.44   310.74465   143.05225   181.47794
   271  H   1.0    0.06    1.12    1.45   310.25710   144.89852   186.10210
   272  H   1.0    0.05    1.07    1.44   310.62937   147.68397   182.71193
   273  H   1.0    0.06    1.08    1.44   308.11982   146.68053   181.53652
   274  H   1.0    0.15    1.07    1.44   307.43951   150.16707   183.71727
   275  N   5.0   -0.16    3.55    2.12   305.32869   142.43431   183.43570
   276  C   4.0    0.03    4.55    4.61   302.88339   141.28347   183.85711
   277  C   4.0    0.16    3.51    3.12   303.15551   139.25391   185.93203
   278  O   6.0   -0.32    1.25    1.80   301.84971   139.36351   187.84443
   279  C   4.0   -0.03    4.46    4.48   301.92151   139.94554   181.42503
   280  C   4.0   -0.05    4.31    4.21   301.88939   141.79370   179.19704
   281  C   4.0   -0.09    4.26    4.11   299.39306   138.70399   181.83699
   282  C   4.0   -0.08    4.12    3.84   300.94075   140.64474   176.68749
   283  H   1.0    0.12    1.16    1.46   305.80490   142.44187   181.88234
   284  H   1.0    0.05    1.12    1.45   301.69853   142.59494   184.34277
   285  H   1.0    0.06    1.14    1.45   303.09315   138.59817   181.00929
   286  H   1.0    0.05    1.09    1.44   300.82736   143.22233   179.63168
   287  H   1.0    0.07    1.10    1.44   303.58447   142.44376   178.94571
   288  H   1.0    0.05    1.06    1.44   298.85071   137.88952   180.28741
   289  H   1.0    0.05    1.06    1.44   299.53668   137.45111   183.16736
   290  H   1.0    0.04    1.06    1.44   298.16096   139.97200   182.32265
   291  H   1.0    0.05    1.05    1.44   300.97665   141.92598   175.37602
   292  H   1.0    0.04    1.05    1.44   302.02545   139.24824   176.20561
   293  H   1.0    0.05    1.05    1.44   299.22488   140.03814   176.90292
   294  N   5.0   -0.17    3.51    2.09   305.02067   137.57583   185.57865
   295  C   4.0    0.04    4.39    4.37   305.60270   135.53115   187.31153
   296  C   4.0    0.09    3.28    3.05   306.20741   136.54404   189.91557
   297  O   6.0   -0.29    1.12    1.80   305.39294   135.43855   191.83553
   298  C   4.0   -0.05    4.37    4.33   307.87037   134.03259   186.29107
   299  C   4.0   -0.04    4.32    4.24   308.58469   131.77059   187.96726
   300  C   4.0    0.16    3.29    3.05   306.57402   129.71457   187.99372
   301  O   6.0   -0.31    1.24    1.80   306.09025   128.52782   186.06053
   302  N   5.0   -0.24    3.23    1.96   305.48554   129.30639   190.22170
   303  H   1.0    0.12    1.17    1.46   305.99954   137.61362   184.28230
   304  H   1.0    0.05    1.13    1.45   304.13816   134.43699   187.44759
   305  H   1.0    0.06    1.09    1.44   307.48298   133.43166   184.60355
   306  H   1.0    0.05    1.09    1.44   309.31412   135.15131   186.14368
   307  H   1.0    0.06    1.09    1.44   310.16639   131.05816   187.37578
   308  H   1.0    0.06    1.10    1.44   308.86815   132.35641   189.68124
   309  H   1.0    0.12    1.09    1.44   305.90695   130.20401   191.50861
   310  H   1.0    0.13    1.09    1.44   304.35926   128.14421   190.37477
   311  N   5.0   -0.21    3.27    1.97   304.05124   141.32882   192.63866
   312  C   4.0    0.04    4.41    4.40   301.66262   141.93921   193.90856
   313  C   4.0    0.16    3.47    3.10   300.45887   139.45422   194.74949
   314  O   6.0   -0.29    1.26    1.80   299.97888   139.12162   197.01149
   315  C   4.0   -0.05    4.39    4.36   299.90518   143.43587   192.18324
   316  C   4.0   -0.04    4.31    4.22   297.24444   143.77602   193.24716
   317  C   4.0    0.25    3.16    3.03   297.13673   145.39362   195.57341
   318  O   6.0   -0.30    1.19    1.80   295.13551   146.60305   195.95891
   319  O   6.0   -0.27    1.21    1.80   298.87528   145.34638   197.15322
   320  H   1.0    0.14    1.09    1.44   304.10604   141.69354   191.05507
   321  H   1.0    0.07    1.13    1.45   301.97821   143.00690   195.36365
   322  H   1.0    0.06    1.09    1.44   300.63839   145.08749   191.87332
   323  H   1.0    0.06    1.09    1.44   299.79557   142.58549   190.56374
   324  H   1.0    0.05    1.10    1.44   296.17864   144.52057   191.95458
   325  H   1.0    0.05    1.10    1.44   296.54335   142.12818   193.63644
   326  N   5.0   -0.16    3.49    2.07   300.13194   137.71189   192.95992
   327  C   4.0    0.03    4.45    4.46   299.02457   135.23257   193.51739
   328  C   4.0    0.10    3.27    3.05   300.21887   133.99291   195.86065
   329  O   6.0   -0.29    1.12    1.80   298.87150   132.76837   197.35164
   330  C   4.0   -0.02    4.44    4.45   299.32881   133.45245   191.21003
   331  C   4.0   -0.06    4.33    4.25   298.12506   134.59762   188.82520
   332  C   4.0   -0.08    4.29    4.18   298.04002   130.95423   191.77695
   333  C   4.0   -0.09    4.17    3.94   298.27812   132.77403   186.61422
   334  H   1.0    0.12    1.15    1.45   300.54013   137.92732   191.40089
   335  H   1.0    0.05    1.12    1.45   297.24633   135.50469   193.87265
   336  H   1.0    0.06    1.12    1.45   301.12027   133.21056   190.90578
   337  H   1.0    0.04    1.09    1.44   296.37139   135.01714   189.15968
   338  H   1.0    0.06    1.10    1.44   298.97732   136.16231   188.39434
   339  H   1.0    0.04    1.06    1.44   298.22332   129.83173   190.34076
   340  H   1.0    0.06    1.06    1.44   298.81292   130.18889   193.25282
   341  H   1.0    0.04    1.06    1.44   296.25990   131.24336   192.10198
   342  H   1.0    0.04    1.05    1.44   297.50900   133.53748   185.13645
   343  H   1.0    0.05    1.06    1.44   300.03557   132.39042   186.25706
   344  H   1.0    0.04    1.06    1.44   297.38995   131.22635   187.03374
   345  N   5.0   -0.21    3.22    1.96   297.86238   136.94466   201.66966
   346  C   4.0    0.04    4.33    4.26   295.25645   135.98090   201.88698
   347  C   4.0    0.09    3.22    3.04   295.19409   133.51859   203.33640
   348  O   6.0   -0.27    1.12    1.80   294.23978   133.39009   205.43022
   349  C   4.0   -0.05    4.39    4.36   293.97711   135.63130   199.31884
   350  C   4.0   -0.06    4.30    4.21   293.02846   138.06149   198.11698
   351  C   4.0   -0.01    4.39    4.36   291.65085   139.68287   200.00104
   352  N   5.0   -0.16    3.44    2.04   292.37840   142.34550   199.80450
   353  C   4.0    0.12    3.47    3.10   293.03035   143.74011   201.80005
   354  N   5.0   -0.23    3.30    1.98   293.08138   142.74801   204.12631
   355  N   5.0   -0.22    3.29    1.98   293.53491   146.17975   201.45046
   356  H   1.0    0.14    1.09    1.44   298.32726   137.29993   200.15221
   357  H   1.0    0.05    1.15    1.45   294.31348   137.25646   202.80728
   358  H   1.0    0.06    1.10    1.44   295.16385   134.83195   198.17367
   359  H   1.0    0.04    1.10    1.44   292.56359   134.48046   199.51538
   360  H   1.0    0.06    1.10    1.44   294.44387   138.99501   197.42156
   361  H   1.0    0.04    1.09    1.44   291.91164   137.66087   196.71858
   362  H   1.0    0.04    1.09    1.44   289.84428   139.52414   199.73647
   363  H   1.0    0.04    1.13    1.45   292.00045   139.07816   201.69612
   364  H   1.0    0.10    1.13    1.45   292.38596   143.04092   198.33619
   365  H   1.0    0.11    1.10    1.44   292.69020   141.18709   204.35307
   366  H   1.0    0.12    1.09    1.44   293.50657   143.67208   205.39431
   367  H   1.0    0.13    1.10    1.44   293.43665   146.82415   199.96135
   368  H   1.0    0.12    1.09    1.44   293.95821   147.11139   202.71279
   369  N   5.0   -0.22    3.25    1.97   300.26234   119.18124   191.25916
   370  C   4.0    0.03    4.38    4.34   299.17007   120.55696   189.12188
   371  C   4.0    0.15    3.48    3.11   301.21287   122.39377   188.25261
   372  O   6.0   -0.30    1.25    1.80   301.82325   124.13988   189.59998
   373  C   4.0   -0.05    4.44    4.45   296.77768   122.02527   189.94769
   374  C   4.0   -0.03    4.34    4.28   296.01423   124.24003   188.22048
   375  C   4.0   -0.09    4.23    4.07   294.62150   123.31029   185.91691
   376  C   4.0   -0.09    4.23    4.07   294.41930   126.10708   189.68880
   377  H   1.0    0.11    1.08    1.44   299.95809   119.84831   192.70858
   378  H   1.0    0.04    1.12    1.45   298.66174   119.41367   187.78207
   379  H   1.0    0.04    1.09    1.44   295.37550   120.84797   190.04029
   380  H   1.0    0.05    1.10    1.44   297.04791   122.67345   191.64089
   381  H   1.0    0.05    1.14    1.45   297.53546   125.08285   187.64223
   382  H   1.0    0.04    1.06    1.44   294.16230   124.73703   184.86244
   383  H   1.0    0.04    1.06    1.44   295.70054   122.17267   184.96827
   384  H   1.0    0.04    1.06    1.44   293.10405   122.42212   186.43658
   385  H   1.0    0.04    1.06    1.44   293.94309   127.49792   188.59465
   386  H   1.0    0.04    1.06    1.44   292.90941   125.26993   190.30485
   387  H   1.0    0.04    1.06    1.44   295.38306   126.74959   191.10987
   388  N   5.0   -0.16    3.50    2.07   302.34670   121.80229   186.07942
   389  C   4.0    0.04    4.51    4.55   304.44241   123.25549   185.03063
   390  C   4.0    0.16    3.52    3.13   303.97187   123.60508   182.24328
   391  O   6.0   -0.31    1.27    1.80   303.02889   121.90811   180.98661
   392  C   4.0   -0.03    4.39    4.36   306.97842   121.89488   185.45581
   393  C   4.0    0.17    3.32    3.06   309.18940   123.23092   184.23883
   394  O   6.0   -0.29    1.30    1.80   309.29523   123.57107   181.91636
   395  N   5.0   -0.23    3.24    1.96   311.04511   123.93768   185.76006
   396  H   1.0    0.10    1.14    1.45   301.91207   120.53050   185.16669
   397  H   1.0    0.08    1.15    1.45   304.54256   124.88065   185.87344
   398  H   1.0    0.05    1.10    1.44   307.28456   121.74559   187.25672
   399  H   1.0    0.06    1.09    1.44   306.86504   120.19224   184.78874
   400  H   1.0    0.14    1.10    1.44   312.36981   124.65388   185.14779
   401  H   1.0    0.11    1.09    1.44   310.92606   123.68067   187.36066
   402  N   5.0   -0.16    3.55    2.11   304.51044   125.85386   181.29086
   403  C   4.0    0.03    4.54    4.60   304.08336   126.40566   178.63768
   404  C   4.0    0.16    3.43    3.09   306.40772   127.65666   177.41692
   405  O   6.0   -0.30    1.24    1.80   306.17151   128.86419   175.46105
   406  C   4.0   -0.02    4.36    4.32   301.71742   128.13476   178.17281
   407  C   4.0   -0.08    4.21    4.02   299.29480   126.79116   179.01374
   408  C   4.0   -0.08    4.24    4.09   302.01222   130.58384   179.65625
   409  H   1.0    0.11    1.14    1.45   305.12649   127.08785   182.15068
   410  H   1.0    0.06    1.14    1.45   303.76778   124.77860   177.85534
   411  H   1.0    0.05    1.12    1.45   301.60026   128.49947   176.37946
   412  H   1.0    0.05    1.05    1.44   297.85293   127.88342   178.71327
   413  H   1.0    0.05    1.05    1.44   299.09260   125.23970   178.05943
   414  H   1.0    0.05    1.06    1.44   299.40251   126.39810   180.80142
   415  H   1.0    0.04    1.06    1.44   300.55146   131.65343   179.36901
   416  H   1.0    0.05    1.06    1.44   302.14828   130.20401   181.44393
   417  H   1.0    0.05    1.06    1.44   303.52589   131.45690   179.10067
   418  N   5.0   -0.14    3.57    2.13   308.65272   127.24848   178.53186
   419  C   4.0    0.03    4.50    4.54   310.99976   128.30294   177.62290
   420  C   4.0    0.15    3.46    3.10   311.98431   126.67022   175.47617
   421  O   6.0   -0.27    1.23    1.80   310.79000   124.77482   174.76941
   422  C   4.0   -0.05    4.42    4.42   313.01799   128.38042   179.69026
   423  C   4.0   -0.04    4.33    4.25   312.26587   129.98858   181.94848
   424  C   4.0    0.16    3.30    3.05   314.29166   130.06228   183.97994
   425  O   6.0   -0.28    1.22    1.80   314.87748   128.11586   185.11566
   426  N   5.0   -0.24    3.23    1.96   315.27621   132.27515   184.53930
   427  H   1.0    0.13    1.19    1.46   308.82657   126.33007   179.86034
   428  H   1.0    0.05    1.13    1.45   310.66528   130.01692   177.06732
   429  H   1.0    0.07    1.09    1.44   313.36003   126.67211   180.25907
   430  H   1.0    0.05    1.10    1.44   314.57701   129.03238   178.98161
   431  H   1.0    0.04    1.10    1.44   311.91439   131.69689   181.38346
   432  H   1.0    0.06    1.09    1.44   310.71252   129.33095   182.66658
   433  H   1.0    0.11    1.09    1.44   314.82645   133.59796   183.70971
   434  H   1.0    0.12    1.09    1.44   316.37036   132.39987   185.73549
   435  N   5.0   -0.16    3.55    2.11   314.23686   127.34674   174.56532
   436  C   4.0    0.03    4.38    4.34   315.55400   126.00504   172.53954
   437  C   4.0    0.08    3.24    3.04   318.36024   126.26582   173.22551
   438  O   6.0   -0.27    1.15    1.80   319.14637   128.27838   174.07589
   439  C   4.0   -0.04    4.41    4.39   314.96818   127.16722   169.96951
   440  C   4.0   -0.03    4.34    4.28   312.22619   127.05950   169.18527
   441  C   4.0    0.16    3.31    3.05   311.68384   128.53538   166.83635
   442  O   6.0   -0.27    1.22    1.80   313.43562   129.24025   165.42283
   443  N   5.0   -0.24    3.22    1.96   309.25365   129.02104   166.33746
   444  H   1.0    0.11    1.15    1.45   315.05889   128.63176   175.12468
   445  H   1.0    0.06    1.12    1.45   315.03810   124.25137   172.40159
   446  H   1.0    0.07    1.10    1.44   315.50298   128.92088   169.98463
   447  H   1.0    0.06    1.10    1.44   315.97352   126.31117   168.69773
   448  H   1.0    0.06    1.10    1.44   311.74620   125.31151   168.92071
   449  H   1.0    0.06    1.10    1.44   311.18495   127.70012   170.55155
   450  H   1.0    0.11    1.09    1.44   308.09714   128.50514   167.35602
   451  H   1.0    0.13    1.08    1.44   308.84925   129.84874   164.99953
   452  N   5.0   -0.19    3.30    1.98   308.17840   116.00461   176.85756
   453  C   4.0    0.04    4.36    4.31   305.86537   117.47859   176.73662
   454  C   4.0    0.09    3.26    3.04   303.70920   115.70981   177.40558
   455  O   6.0   -0.27    1.15    1.80   303.70542   113.53662   176.74985
   456  C   4.0    0.05    4.34    4.27   305.42318   118.50282   174.06266
   457  O   6.0   -0.26    2.16    1.85   307.82502   119.20769   172.99874
   458  C   4.0   -0.08    4.18    3.97   303.74321   120.86120   174.15714
   459  H   1.0    0.12    1.09    1.44   308.87760   115.76461   175.41003
   460  H   1.0    0.06    1.12    1.45   305.97498   118.90345   177.88557
   461  H   1.0    0.05    1.11    1.44   304.60493   117.21214   173.04976
   462  H   1.0    0.15    1.08    1.44   307.60959   119.77083   171.53042
   463  H   1.0    0.05    1.05    1.44   303.47676   121.49048   172.45639
   464  H   1.0    0.05    1.05    1.44   302.12750   120.43223   174.90925
   465  H   1.0    0.06    1.06    1.44   304.56146   122.15566   175.16626
   466  N   5.0   -0.15    3.45    2.05   289.68365   118.52739   177.21094
   467  C   4.0    0.02    4.51    4.55   289.49090   120.08830   179.51452
   468  C   4.0    0.15    3.42    3.08   286.75268   120.63255   180.31954
   469  O   6.0   -0.31    1.26    1.80   286.00624   119.82185   182.38312
   470  C   4.0   -0.05    4.50    4.54   290.91575   122.51093   178.72461
   471  C   4.0   -0.05    4.42    4.42   290.86473   122.53928   175.92971
   472  C   4.0   -0.02    4.43    4.43   291.23511   119.79162   175.30799
   473  H   1.0    0.05    1.12    1.45   290.18632   119.26249   180.99417
   474  H   1.0    0.04    1.09    1.44   290.10695   124.00571   179.41247
   475  H   1.0    0.04    1.09    1.44   292.63729   122.49582   179.35200
   476  H   1.0    0.04    1.09    1.44   289.27736   123.18179   175.27775
   477  H   1.0    0.04    1.09    1.44   292.19510   123.58808   175.22862
   478  H   1.0    0.05    1.08    1.44   290.68142   119.39666   173.60534
   479  H   1.0    0.04    1.08    1.44   292.99634   119.29840   175.42704
   480  N   5.0   -0.17    3.46    2.05   285.34862   121.89677   178.73406
   481  C   4.0    0.03    4.37    4.33   282.68599   122.61676   179.23295
   482  C   4.0    0.09    3.21    3.04   281.05894   120.40389   180.20427
   483  O   6.0   -0.28    1.11    1.80   279.49047   120.77428   181.92014
   484  C   4.0   -0.06    4.45    4.46   281.44255   123.76193   176.86512
   485  C   4.0   -0.03    4.37    4.32   282.69922   126.23936   176.06199
   486  C   4.0   -0.09    4.27    4.13   281.70334   127.08974   173.60156
   487  C   4.0   -0.09    4.25    4.11   282.32128   128.23113   178.08588
   488  H   1.0    0.09    1.14    1.45   285.88908   122.39566   177.28464
   489  H   1.0    0.05    1.13    1.45   282.75780   123.87532   180.56331
   490  H   1.0    0.05    1.09    1.44   281.53515   122.55818   175.48562
   491  H   1.0    0.05    1.09    1.44   279.66432   124.06051   177.19582
   492  H   1.0    0.04    1.14    1.45   284.50013   125.95968   175.86357
   493  H   1.0    0.04    1.06    1.44   282.51781   128.66010   173.12157
   494  H   1.0    0.05    1.06    1.44   282.04160   125.81228   172.32978
   495  H   1.0    0.05    1.06    1.44   279.89487   127.35619   173.73196
   496  H   1.0    0.05    1.06    1.44   283.12252   129.79394   177.56243
   497  H   1.0    0.04    1.06    1.44   280.52793   128.51837   178.33533
   498  H   1.0    0.04    1.06    1.44   283.07150   127.65666   179.65625
   499  N   5.0   -0.22    3.21    1.96   283.07528   118.82597   186.95626
   500  C   4.0    0.03    4.33    4.26   282.35529   121.04640   188.47182
   501  C   4.0    0.09    3.24    3.04   279.59629   120.89900   189.32786
   502  O   6.0   -0.28    1.11    1.80   278.99914   121.24860   191.55207
   503  C   4.0   -0.02    4.43    4.42   282.81828   123.59564   187.06208
   504  C   4.0   -0.06    4.33    4.25   285.66609   124.11342   186.71815
   505  C   4.0   -0.08    4.28    4.17   281.58617   125.77449   188.44158
   506  C   4.0   -0.09    4.19    3.97   286.17254   126.45101   185.27251
   507  H   1.0    0.13    1.10    1.44   283.71023   119.21147   185.51062
   508  H   1.0    0.05    1.13    1.45   283.44566   121.01427   189.94391
   509  H   1.0    0.06    1.13    1.45   282.05294   123.44635   185.40290
   510  H   1.0    0.04    1.10    1.44   286.45978   124.23814   188.36599
   511  H   1.0    0.06    1.10    1.44   286.43899   122.69235   185.85644
   512  H   1.0    0.04    1.07    1.44   281.90176   127.33351   187.52884
   513  H   1.0    0.05    1.06    1.44   279.77960   125.48536   188.55119
   514  H   1.0    0.05    1.06    1.44   282.28726   125.90488   190.13100
   515  H   1.0    0.04    1.06    1.44   287.98290   126.68912   185.11000
   516  H   1.0    0.04    1.06    1.44   285.42232   126.31495   183.60577
   517  H   1.0    0.04    1.06    1.44   285.44499   127.88531   186.15312
   518  H   1.0    0.10    1.08    1.44   279.71249   133.35320   195.35318
   519  H   1.0    0.07    1.05    1.44   309.73363   143.18191   166.13267
   520  H   1.0    0.11    1.07    1.44   313.51284   145.71128   175.57915
   521  H   1.0    0.06    1.04    1.44   310.90976   138.51791   179.61296
   522  H   1.0    0.10    1.08    1.44   312.11242   142.32408   183.65494
   523  H   1.0    0.07    1.04    1.44   307.26112   138.10157   190.10234
   524  H   1.0    0.11    1.08    1.44   305.32164   142.18561   193.37661
   525  H   1.0    0.08    1.04    1.43   302.07230   134.17168   196.18298
   526  H   1.0    0.11    1.07    1.44   298.01726   138.37287   202.58004
   527  H   1.0    0.07    1.05    1.44   295.94402   131.95766   202.57997
   528  H   1.0    0.10    1.08    1.44   299.63484   117.60094   191.29751
   529  H   1.0    0.06    1.04    1.43   319.53287   124.80453   172.97925
   530  H   1.0    0.11    1.08    1.44   309.31199   116.80662   177.83955
   531  H   1.0    0.06    1.05    1.44   302.24444   116.34557   178.41621
   532  H   1.0    0.09    1.13    1.45   290.52310   117.09164   177.56663
   533  H   1.0    0.06    1.04    1.43   281.26515   118.68039   179.45720
   534  H   1.0    0.10    1.07    1.44   284.23895   117.91624   187.79937
   535  H   1.0    0.07    1.04    1.44   278.23704   120.51270   188.07316

  Z AO/shell   Hii/eV     exponent
  1     Wed Apr 25 08:07:45 CEST 2018   EN: 2.200 GM2: 0.406  GM3: 0.0800  RAES: 1.40
     1s    -10.707211    1.230000
  6     Wed Apr 25 08:07:45 CEST 2018   EN: 2.550 GM2: 0.538  GM3: 0.1500  RAES: 3.00
     2s    -13.970922    2.096432
     2p    -10.063292    1.800000
  7     Wed Apr 25 08:07:45 CEST 2018   EN: 3.040 GM2: 0.461  GM3:-0.0640  RAES: 1.90
     2s    -16.686243    2.339881
     2p    -12.523956    2.014332
  8     Wed Apr 25 08:07:45 CEST 2018   EN: 3.440 GM2: 0.452  GM3:-0.0517  RAES: 1.80
     2s    -20.229985    2.439742
     2p    -15.503117    2.137023
 no old-style atom pair restraining (fixing) potential

molecular fragmentation (1/2 indicates fragments):
111111111111111111111111111111111111111111111111111111111111111111111111
111111111111111111111111111111111111111111111111111111111111111111111111
111111111111111111111111111111111111111111111111111111111111111111111111
111111111111111122222222222222222222222222222222222222222222222222222222
222222222222222222222222222222222222222222222222222222222222222222222222
222222222222222222222222222222222222222222222222222222222222222222222222
222222222222222222222222222222222222222222222222222222222222222222222222
2222222222222112222222222222222
# atoms in fragment 1/2:   234   301
 fragment masses (1/2) :     1657.82     1977.39
CMA distance (Bohr)    :  14.339
constraining FC (au)   :  0.0500
           ------------------------------------------------- 
          |        Self-Consistent Charge Iterations        |
           ------------------------------------------------- 

 Ncao       : 1297
 Nao        : 1297
 Nshell     : 789
 Nel        : 1448
 T(el)      :   500.0
 intcut     :    35.0
 scfconv/Eh :  0.100E-06
   qconv/e  :  0.100E-04
 intneglect :  0.100E-08
 broydamp   :      0.400
 iter      E             dE          RMSdq      gap      omega  full diag
   1   -835.7038446 -0.835704E+03  0.470E+00    3.11       0.0  T
   2   -837.8561950 -0.215235E+01  0.216E+00    1.49       1.0  T
   3   -837.9755361 -0.119341E+00  0.127E+00    1.65       1.0  T
   4   -838.1007322 -0.125196E+00  0.246E-01    1.01       1.0  T
   5   -838.1101432 -0.941102E-02  0.119E-01    1.18       1.0  T
   6   -838.1112265 -0.108329E-02  0.520E-02    1.14       1.0  T
   7   -838.1115178 -0.291379E-03  0.178E-02    1.16       1.0  T
   8   -838.1115403 -0.224042E-04  0.851E-03    1.15       1.0  T
   9   -838.1115474 -0.716758E-05  0.313E-03    1.15       1.4  T
  10   -838.1115484 -0.985011E-06  0.133E-03    1.14       3.3  T
  11   -838.1115486 -0.185475E-06  0.553E-04    1.14       7.8  T
  12   -838.1115486 -0.254780E-07  0.256E-04    1.14      16.9  T
  13   -838.1115486 -0.686452E-08  0.117E-04    1.14      36.9  T
  14   -838.1115486 -0.136879E-08  0.504E-05    1.14      85.9  T
  15   -838.1115486 -0.238401E-09  0.195E-05    1.14     221.6  T
speedup  1.00
cpu  time for SCC   13.16 s
wall time for SCC   13.16 s

   *** convergence criteria satisfied after 15 iterations ***

          eigenvalues
 #    :         712        713        714        715        716        717        718        719
 occ. :        2.000      2.000      2.000      2.000      2.000      2.000      2.000      2.000
 eps  :       -10.240    -10.185    -10.032     -9.971     -9.857     -9.829     -9.779     -9.755
 #    :         720        721        722        723        724        725        726        727
 occ. :        2.000      2.000      2.000      2.000      2.000      0.000      0.000      0.000
 eps  :        -9.700     -9.639     -9.618     -9.580     -9.513     -8.370     -8.257     -8.093
 #    :         728        729        730        731        732        733        734        735
 occ. :        0.000      0.000      0.000      0.000      0.000      0.000      0.000      0.000
 eps  :        -8.057     -7.837     -7.605     -7.534     -7.494     -7.399     -7.043     -6.810


   #   Z            q   n(s)   n(p)   n(d)      C6AA      α(0)
   1   7 N     -0.421  1.280  4.140  0.000    30.955     8.263
   2   6 C      0.008  1.045  2.947  0.000    20.458     6.442
   3   6 C      0.258  1.052  2.690  0.000    22.647     7.793
   4   8 O     -0.502  1.755  4.748  0.000    23.836     6.546
   5   6 C     -0.089  1.011  3.078  0.000    22.181     6.703
   6   6 C     -0.123  1.012  3.111  0.000    22.835     6.801
   7   6 C      0.284  1.043  2.673  0.000    22.192     7.713
   8   8 O     -0.512  1.766  4.746  0.000    24.043     6.574
   9   7 N     -0.312  1.203  4.110  0.000    28.041     7.865
  10   1 H      0.189  0.811  0.000  0.000     1.163     1.689
  11   1 H      0.079  0.921  0.000  0.000     1.986     2.204
  12   1 H      0.066  0.934  0.000  0.000     2.125     2.279
  13   1 H      0.059  0.941  0.000  0.000     2.216     2.328
  14   1 H      0.088  0.912  0.000  0.000     1.895     2.153
  15   1 H      0.090  0.910  0.000  0.000     1.879     2.143
  16   1 H      0.238  0.762  0.000  0.000     0.932     1.512
  17   1 H      0.228  0.772  0.000  0.000     0.974     1.546
  18   7 N     -0.187  1.210  3.977  0.000    25.053     7.434
  19   6 C     -0.005  1.050  2.955  0.000    20.675     6.475
  20   6 C      0.269  1.050  2.681  0.000    22.455     7.759
  21   8 O     -0.496  1.761  4.735  0.000    23.695     6.526
  22   6 C     -0.115  1.018  3.098  0.000    22.690     6.780
  23   6 C     -0.104  1.006  3.098  0.000    22.472     6.747
  24   6 C     -0.044  1.013  3.031  0.000    21.426     6.601
  25   7 N     -0.157  1.185  3.973  0.000    24.403     7.337
  26   6 C      0.230  1.015  2.755  0.000    23.174     7.882
  27   7 N     -0.254  1.167  4.087  0.000    26.610     7.661
  28   7 N     -0.272  1.174  4.098  0.000    27.031     7.722
  29   1 H      0.230  0.770  0.000  0.000     0.967     1.540
  30   1 H      0.107  0.893  0.000  0.000     1.725     2.054
  31   1 H      0.096  0.904  0.000  0.000     1.821     2.110
  32   1 H      0.091  0.909  0.000  0.000     1.871     2.139
  33   1 H      0.092  0.908  0.000  0.000     1.860     2.133
  34   1 H      0.076  0.924  0.000  0.000     2.024     2.224
  35   1 H      0.090  0.910  0.000  0.000     1.876     2.142
  36   1 H      0.108  0.892  0.000  0.000     1.712     2.046
  37   1 H      0.240  0.760  0.000  0.000     0.923     1.505
  38   1 H      0.233  0.767  0.000  0.000     0.952     1.528
  39   1 H      0.245  0.755  0.000  0.000     0.901     1.487
  40   1 H      0.258  0.742  0.000  0.000     0.853     1.447
  41   1 H      0.255  0.745  0.000  0.000     0.863     1.455
  42   7 N     -0.189  1.204  3.985  0.000    25.109     7.442
  43   6 C     -0.004  1.042  2.962  0.000    20.641     6.468
  44   6 C      0.272  1.041  2.687  0.000    22.408     7.752
  45   8 O     -0.491  1.746  4.745  0.000    23.585     6.511
  46   6 C     -0.052  1.043  3.009  0.000    21.458     6.588
  47   6 C     -0.162  0.982  3.180  0.000    23.680     6.935
  48   6 C     -0.168  0.981  3.187  0.000    23.802     6.952
  49   1 H      0.226  0.774  0.000  0.000     0.983     1.553
  50   1 H      0.093  0.907  0.000  0.000     1.852     2.128
  51   1 H      0.075  0.925  0.000  0.000     2.026     2.226
  52   1 H      0.082  0.918  0.000  0.000     1.962     2.190
  53   1 H      0.061  0.939  0.000  0.000     2.187     2.313
  54   1 H      0.065  0.935  0.000  0.000     2.140     2.287
  55   1 H      0.082  0.918  0.000  0.000     1.957     2.187
  56   1 H      0.063  0.937  0.000  0.000     2.162     2.299
  57   1 H      0.065  0.935  0.000  0.000     2.140     2.287
  58   7 N     -0.189  1.208  3.982  0.000    25.107     7.442
  59   6 C     -0.001  1.044  2.957  0.000    20.607     6.463
  60   6 C      0.276  1.035  2.689  0.000    22.326     7.737
  61   8 O     -0.487  1.737  4.750  0.000    23.507     6.500
  62   6 C     -0.112  1.011  3.102  0.000    22.627     6.769
  63   6 C     -0.114  1.006  3.108  0.000    22.659     6.775
  64   6 C     -0.048  1.011  3.037  0.000    21.488     6.609
  65   7 N     -0.154  1.178  3.976  0.000    24.324     7.325
  66   6 C      0.226  1.013  2.762  0.000    23.248     7.894
  67   7 N     -0.262  1.169  4.093  0.000    26.796     7.688
  68   7 N     -0.260  1.171  4.089  0.000    26.738     7.680
  69   1 H      0.224  0.776  0.000  0.000     0.993     1.561
  70   1 H      0.106  0.894  0.000  0.000     1.728     2.055
  71   1 H      0.087  0.913  0.000  0.000     1.912     2.162
  72   1 H      0.092  0.908  0.000  0.000     1.862     2.133
  73   1 H      0.097  0.903  0.000  0.000     1.816     2.107
  74   1 H      0.078  0.922  0.000  0.000     2.003     2.213
  75   1 H      0.101  0.899  0.000  0.000     1.779     2.086
  76   1 H      0.102  0.898  0.000  0.000     1.768     2.079
  77   1 H      0.237  0.763  0.000  0.000     0.937     1.516
  78   1 H      0.250  0.750  0.000  0.000     0.884     1.472
  79   1 H      0.256  0.744  0.000  0.000     0.861     1.453
  80   1 H      0.251  0.749  0.000  0.000     0.879     1.469
  81   1 H      0.259  0.741  0.000  0.000     0.850     1.444
  82   7 N     -0.186  1.209  3.977  0.000    25.026     7.430
  83   6 C      0.011  1.042  2.947  0.000    20.396     6.430
  84   6 C      0.268  1.041  2.691  0.000    22.483     7.765
  85   8 O     -0.511  1.744  4.767  0.000    24.032     6.573
  86   6 C     -0.078  1.005  3.073  0.000    21.974     6.671
  87   6 C     -0.115  1.012  3.103  0.000    22.683     6.779
  88   6 C      0.362  1.025  2.613  0.000    20.858     7.474
  89   8 O     -0.668  1.783  4.885  0.000    27.849     7.075
  90   8 O     -0.637  1.760  4.877  0.000    27.048     6.973
  91   1 H      0.221  0.779  0.000  0.000     1.003     1.569
  92   1 H      0.086  0.914  0.000  0.000     1.915     2.164
  93   1 H      0.067  0.933  0.000  0.000     2.113     2.273
  94   1 H      0.054  0.946  0.000  0.000     2.271     2.357
  95   1 H      0.040  0.960  0.000  0.000     2.452     2.448
  96   1 H      0.057  0.943  0.000  0.000     2.228     2.334
  97   7 N     -0.184  1.213  3.971  0.000    24.986     7.424
  98   6 C      0.007  1.038  2.955  0.000    20.451     6.438
  99   6 C      0.268  1.039  2.692  0.000    22.471     7.763
 100   8 O     -0.508  1.741  4.767  0.000    23.955     6.562
 101   6 C     -0.116  1.015  3.101  0.000    22.696     6.780
 102   6 C     -0.035  1.035  3.000  0.000    21.163     6.543
 103   6 C     -0.157  0.978  3.180  0.000    23.579     6.919
 104   6 C     -0.157  0.979  3.178  0.000    23.569     6.919
 105   1 H      0.235  0.765  0.000  0.000     0.944     1.522
 106   1 H      0.079  0.921  0.000  0.000     1.990     2.206
 107   1 H      0.095  0.905  0.000  0.000     1.835     2.118
 108   1 H      0.078  0.922  0.000  0.000     2.001     2.212
 109   1 H      0.060  0.940  0.000  0.000     2.203     2.321
 110   1 H      0.057  0.943  0.000  0.000     2.239     2.340
 111   1 H      0.062  0.938  0.000  0.000     2.180     2.309
 112   1 H      0.063  0.937  0.000  0.000     2.165     2.301
 113   1 H      0.054  0.946  0.000  0.000     2.268     2.355
 114   1 H      0.052  0.948  0.000  0.000     2.296     2.369
 115   1 H      0.044  0.956  0.000  0.000     2.391     2.418
 116   7 N     -0.184  1.211  3.973  0.000    24.990     7.425
 117   6 C      0.005  1.039  2.956  0.000    20.488     6.444
 118   6 C      0.270  1.044  2.687  0.000    22.447     7.758
 119   8 O     -0.500  1.753  4.748  0.000    23.794     6.540
 120   6 C     -0.171  0.983  3.188  0.000    23.860     6.961
 121   1 H      0.238  0.762  0.000  0.000     0.929     1.510
 122   1 H      0.105  0.895  0.000  0.000     1.743     2.064
 123   1 H      0.085  0.915  0.000  0.000     1.928     2.171
 124   1 H      0.092  0.908  0.000  0.000     1.860     2.133
 125   1 H      0.093  0.907  0.000  0.000     1.846     2.125
 126   7 N     -0.183  1.208  3.974  0.000    24.954     7.419
 127   6 C      0.004  1.045  2.951  0.000    20.511     6.448
 128   6 C      0.266  1.047  2.687  0.000    22.507     7.769
 129   8 O     -0.503  1.751  4.752  0.000    23.847     6.547
 130   6 C     -0.039  1.042  2.997  0.000    21.233     6.553
 131   6 C     -0.154  0.978  3.175  0.000    23.507     6.909
 132   6 C     -0.166  0.984  3.182  0.000    23.756     6.946
 133   1 H      0.226  0.774  0.000  0.000     0.980     1.551
 134   1 H      0.098  0.902  0.000  0.000     1.799     2.097
 135   1 H      0.062  0.938  0.000  0.000     2.171     2.304
 136   1 H      0.072  0.928  0.000  0.000     2.065     2.247
 137   1 H      0.041  0.959  0.000  0.000     2.438     2.442
 138   1 H      0.066  0.934  0.000  0.000     2.126     2.280
 139   1 H      0.069  0.931  0.000  0.000     2.093     2.262
 140   1 H      0.070  0.930  0.000  0.000     2.084     2.257
 141   1 H      0.077  0.923  0.000  0.000     2.014     2.219
 142   7 N     -0.190  1.210  3.979  0.000    25.112     7.443
 143   6 C      0.008  1.043  2.949  0.000    20.446     6.438
 144   6 C      0.251  1.054  2.695  0.000    22.777     7.816
 145   8 O     -0.514  1.767  4.747  0.000    24.107     6.583
 146   6 C     -0.089  1.009  3.080  0.000    22.176     6.702
 147   6 C     -0.128  1.011  3.116  0.000    22.930     6.815
 148   6 C      0.288  1.030  2.682  0.000    22.111     7.699
 149   8 O     -0.515  1.766  4.749  0.000    24.122     6.585
 150   7 N     -0.293  1.191  4.102  0.000    27.543     7.794
 151   1 H      0.231  0.769  0.000  0.000     0.963     1.537
 152   1 H      0.096  0.904  0.000  0.000     1.818     2.108
 153   1 H      0.089  0.911  0.000  0.000     1.892     2.151
 154   1 H      0.076  0.924  0.000  0.000     2.021     2.223
 155   1 H      0.086  0.914  0.000  0.000     1.914     2.163
 156   1 H      0.090  0.910  0.000  0.000     1.876     2.142
 157   1 H      0.228  0.772  0.000  0.000     0.975     1.547
 158   1 H      0.241  0.759  0.000  0.000     0.920     1.503
 159   7 N     -0.176  1.204  3.972  0.000    24.808     7.397
 160   6 C     -0.004  1.033  2.970  0.000    20.637     6.466
 161   6 C      0.269  1.035  2.697  0.000    22.464     7.761
 162   8 O     -0.486  1.746  4.740  0.000    23.483     6.497
 163   6 C      0.043  0.996  2.962  0.000    20.022     6.401
 164   8 O     -0.471  1.667  4.804  0.000    22.282     6.372
 165   1 H      0.242  0.758  0.000  0.000     0.915     1.498
 166   1 H      0.100  0.900  0.000  0.000     1.788     2.091
 167   1 H      0.086  0.914  0.000  0.000     1.913     2.163
 168   1 H      0.086  0.914  0.000  0.000     1.921     2.167
 169   1 H      0.326  0.674  0.000  0.000     0.646     1.263
 170   7 N     -0.191  1.209  3.982  0.000    25.133     7.446
 171   6 C      0.013  1.042  2.945  0.000    20.357     6.425
 172   6 C      0.267  1.048  2.686  0.000    22.498     7.767
 173   8 O     -0.489  1.753  4.736  0.000    23.547     6.506
 174   6 C     -0.165  0.978  3.187  0.000    23.735     6.942
 175   1 H      0.216  0.784  0.000  0.000     1.026     1.587
 176   1 H      0.107  0.893  0.000  0.000     1.721     2.051
 177   1 H      0.097  0.903  0.000  0.000     1.812     2.105
 178   1 H      0.095  0.905  0.000  0.000     1.827     2.114
 179   1 H      0.081  0.919  0.000  0.000     1.971     2.195
 180   7 N     -0.176  1.206  3.970  0.000    24.820     7.399
 181   6 C      0.017  1.033  2.951  0.000    20.293     6.413
 182   6 C      0.263  1.039  2.698  0.000    22.557     7.777
 183   8 O     -0.482  1.746  4.736  0.000    23.389     6.484
 184   6 C     -0.123  1.013  3.110  0.000    22.840     6.801
 185   6 C      0.285  1.039  2.676  0.000    22.169     7.709
 186   8 O     -0.489  1.753  4.737  0.000    23.550     6.506
 187   7 N     -0.299  1.198  4.102  0.000    27.711     7.818
 188   1 H      0.216  0.784  0.000  0.000     1.030     1.589
 189   1 H      0.098  0.902  0.000  0.000     1.805     2.101
 190   1 H      0.097  0.903  0.000  0.000     1.815     2.107
 191   1 H      0.096  0.904  0.000  0.000     1.817     2.108
 192   1 H      0.230  0.770  0.000  0.000     0.963     1.537
 193   1 H      0.227  0.773  0.000  0.000     0.979     1.550
 194   7 N     -0.192  1.216  3.976  0.000    25.163     7.450
 195   6 C     -0.002  1.046  2.956  0.000    20.619     6.466
 196   6 C      0.274  1.038  2.688  0.000    22.370     7.745
 197   8 O     -0.481  1.749  4.732  0.000    23.361     6.480
 198   6 C      0.061  0.991  2.948  0.000    19.733     6.357
 199   8 O     -0.496  1.674  4.823  0.000    22.808     6.447
 200   1 H      0.236  0.764  0.000  0.000     0.938     1.517
 201   1 H      0.117  0.883  0.000  0.000     1.635     1.999
 202   1 H      0.067  0.933  0.000  0.000     2.116     2.275
 203   1 H      0.073  0.927  0.000  0.000     2.052     2.240
 204   1 H      0.361  0.639  0.000  0.000     0.562     1.177
 205   7 N     -0.180  1.198  3.982  0.000    24.907     7.412
 206   6 C      0.004  1.043  2.953  0.000    20.508     6.447
 207   6 C      0.282  1.034  2.684  0.000    22.225     7.720
 208   8 O     -0.501  1.746  4.756  0.000    23.814     6.543
 209   6 C      0.103  1.028  2.869  0.000    18.967     6.216
 210   8 O     -0.507  1.687  4.819  0.000    23.034     6.479
 211   6 C     -0.175  0.985  3.190  0.000    23.959     6.976
 212   1 H      0.219  0.781  0.000  0.000     1.012     1.576
 213   1 H      0.103  0.897  0.000  0.000     1.761     2.075
 214   1 H      0.057  0.943  0.000  0.000     2.231     2.335
 215   1 H      0.345  0.655  0.000  0.000     0.599     1.216
 216   1 H      0.085  0.915  0.000  0.000     1.930     2.172
 217   1 H      0.078  0.922  0.000  0.000     1.998     2.210
 218   1 H      0.080  0.920  0.000  0.000     1.981     2.201
 219   7 N     -0.176  1.205  3.971  0.000    24.815     7.398
 220   6 C      0.035  1.023  2.942  0.000    19.982     6.364
 221   6 C      0.204  1.082  2.715  0.000    23.674     7.969
 222   8 O     -0.335  1.738  4.597  0.000    20.427     6.060
 223   6 C     -0.118  1.013  3.106  0.000    22.737     6.785
 224   6 C      0.286  1.032  2.682  0.000    22.149     7.706
 225   8 O     -0.501  1.761  4.740  0.000    23.803     6.541
 226   7 N     -0.273  1.185  4.088  0.000    27.068     7.727
 227   1 H      0.236  0.764  0.000  0.000     0.940     1.519
 228   1 H      0.091  0.909  0.000  0.000     1.871     2.139
 229   1 H      0.108  0.892  0.000  0.000     1.711     2.045
 230   1 H      0.091  0.909  0.000  0.000     1.869     2.138
 231   1 H      0.236  0.764  0.000  0.000     0.938     1.517
 232   1 H      0.230  0.770  0.000  0.000     0.964     1.538
 233   7 N     -0.419  1.278  4.142  0.000    30.918     8.258
 234   6 C      0.033  1.031  2.935  0.000    20.023     6.372
 235   6 C      0.260  1.049  2.691  0.000    22.617     7.788
 236   8 O     -0.501  1.740  4.761  0.000    23.810     6.542
 237   6 C     -0.113  1.020  3.094  0.000    22.652     6.774
 238   6 C      0.368  1.024  2.608  0.000    20.752     7.455
 239   8 O     -0.657  1.774  4.883  0.000    27.561     7.039
 240   8 O     -0.651  1.781  4.870  0.000    27.408     7.019
 241   1 H      0.175  0.825  0.000  0.000     1.243     1.747
 242   1 H      0.051  0.949  0.000  0.000     2.304     2.373
 243   1 H      0.040  0.960  0.000  0.000     2.442     2.444
 244   1 H      0.042  0.958  0.000  0.000     2.422     2.434
 245   7 N     -0.179  1.209  3.969  0.000    24.869     7.406
 246   6 C      0.011  1.041  2.948  0.000    20.395     6.431
 247   6 C      0.193  1.091  2.716  0.000    23.878     8.003
 248   8 O     -0.354  1.744  4.609  0.000    20.779     6.112
 249   6 C     -0.110  1.017  3.093  0.000    22.577     6.762
 250   6 C     -0.031  1.038  2.993  0.000    21.086     6.531
 251   6 C     -0.157  0.981  3.176  0.000    23.577     6.920
 252   6 C     -0.163  0.978  3.185  0.000    23.695     6.936
 253   1 H      0.219  0.781  0.000  0.000     1.013     1.577
 254   1 H      0.111  0.889  0.000  0.000     1.689     2.032
 255   1 H      0.078  0.922  0.000  0.000     1.997     2.210
 256   1 H      0.092  0.908  0.000  0.000     1.859     2.132
 257   1 H      0.044  0.956  0.000  0.000     2.397     2.421
 258   1 H      0.062  0.938  0.000  0.000     2.178     2.308
 259   1 H      0.054  0.946  0.000  0.000     2.268     2.355
 260   1 H      0.068  0.932  0.000  0.000     2.104     2.268
 261   1 H      0.060  0.940  0.000  0.000     2.202     2.320
 262   1 H      0.077  0.923  0.000  0.000     2.012     2.218
 263   1 H      0.049  0.951  0.000  0.000     2.337     2.390
 264   7 N     -0.412  1.280  4.131  0.000    30.701     8.229
 265   6 C      0.015  1.042  2.944  0.000    20.343     6.424
 266   6 C      0.271  1.051  2.678  0.000    22.421     7.754
 267   8 O     -0.513  1.756  4.756  0.000    24.072     6.578
 268   6 C      0.059  0.998  2.942  0.000    19.772     6.366
 269   8 O     -0.520  1.690  4.830  0.000    23.335     6.521
 270   1 H      0.175  0.825  0.000  0.000     1.245     1.748
 271   1 H      0.073  0.927  0.000  0.000     2.055     2.241
 272   1 H      0.045  0.955  0.000  0.000     2.382     2.413
 273   1 H      0.052  0.948  0.000  0.000     2.294     2.368
 274   1 H      0.342  0.658  0.000  0.000     0.606     1.222
 275   7 N     -0.183  1.209  3.973  0.000    24.957     7.420
 276   6 C      0.006  1.046  2.949  0.000    20.482     6.443
 277   6 C      0.276  1.044  2.680  0.000    22.333     7.738
 278   8 O     -0.473  1.738  4.735  0.000    23.194     6.457
 279   6 C     -0.052  1.045  3.007  0.000    21.466     6.589
 280   6 C     -0.098  1.008  3.090  0.000    22.360     6.731
 281   6 C     -0.158  0.976  3.182  0.000    23.593     6.922
 282   6 C     -0.153  0.977  3.176  0.000    23.493     6.909
 283   1 H      0.229  0.771  0.000  0.000     0.967     1.540
 284   1 H      0.085  0.915  0.000  0.000     1.928     2.171
 285   1 H      0.076  0.924  0.000  0.000     2.023     2.224
 286   1 H      0.054  0.946  0.000  0.000     2.273     2.357
 287   1 H      0.054  0.946  0.000  0.000     2.270     2.356
 288   1 H      0.078  0.922  0.000  0.000     2.002     2.213
 289   1 H      0.065  0.935  0.000  0.000     2.140     2.287
 290   1 H      0.066  0.934  0.000  0.000     2.133     2.284
 291   1 H      0.042  0.958  0.000  0.000     2.427     2.436
 292   1 H      0.054  0.946  0.000  0.000     2.267     2.354
 293   1 H      0.066  0.934  0.000  0.000     2.126     2.280
 294   7 N     -0.188  1.207  3.982  0.000    25.083     7.438
 295   6 C      0.016  1.035  2.949  0.000    20.306     6.417
 296   6 C      0.199  1.087  2.714  0.000    23.764     7.984
 297   8 O     -0.362  1.759  4.603  0.000    20.934     6.134
 298   6 C     -0.098  1.015  3.083  0.000    22.356     6.729
 299   6 C     -0.128  1.013  3.115  0.000    22.935     6.816
 300   6 C      0.279  1.037  2.684  0.000    22.274     7.728
 301   8 O     -0.500  1.743  4.756  0.000    23.777     6.538
 302   7 N     -0.281  1.193  4.087  0.000    27.249     7.753
 303   1 H      0.231  0.769  0.000  0.000     0.961     1.536
 304   1 H      0.109  0.891  0.000  0.000     1.703     2.041
 305   1 H      0.102  0.898  0.000  0.000     1.768     2.079
 306   1 H      0.088  0.912  0.000  0.000     1.901     2.156
 307   1 H      0.096  0.904  0.000  0.000     1.823     2.111
 308   1 H      0.076  0.924  0.000  0.000     2.022     2.223
 309   1 H      0.231  0.769  0.000  0.000     0.959     1.534
 310   1 H      0.238  0.762  0.000  0.000     0.929     1.510
 311   7 N     -0.422  1.283  4.139  0.000    30.986     8.267
 312   6 C      0.032  1.033  2.935  0.000    20.038     6.375
 313   6 C      0.273  1.052  2.676  0.000    22.391     7.749
 314   8 O     -0.512  1.749  4.762  0.000    24.045     6.574
 315   6 C     -0.077  1.004  3.072  0.000    21.950     6.668
 316   6 C     -0.115  1.012  3.103  0.000    22.685     6.779
 317   6 C      0.362  1.024  2.615  0.000    20.862     7.475
 318   8 O     -0.659  1.752  4.907  0.000    27.605     7.044
 319   8 O     -0.654  1.782  4.872  0.000    27.479     7.028
 320   1 H      0.183  0.817  0.000  0.000     1.194     1.712
 321   1 H      0.058  0.942  0.000  0.000     2.225     2.332
 322   1 H      0.026  0.974  0.000  0.000     2.642     2.542
 323   1 H      0.059  0.941  0.000  0.000     2.215     2.327
 324   1 H      0.051  0.949  0.000  0.000     2.312     2.378
 325   1 H      0.050  0.950  0.000  0.000     2.314     2.378
 326   7 N     -0.184  1.213  3.971  0.000    24.990     7.425
 327   6 C      0.012  1.047  2.941  0.000    20.382     6.428
 328   6 C      0.203  1.088  2.709  0.000    23.692     7.971
 329   8 O     -0.364  1.754  4.610  0.000    20.980     6.141
 330   6 C     -0.039  1.046  2.994  0.000    21.235     6.554
 331   6 C     -0.101  1.009  3.092  0.000    22.414     6.738
 332   6 C     -0.163  0.980  3.183  0.000    23.692     6.935
 333   6 C     -0.156  0.977  3.179  0.000    23.563     6.918
 334   1 H      0.228  0.772  0.000  0.000     0.973     1.545
 335   1 H      0.101  0.899  0.000  0.000     1.777     2.084
 336   1 H      0.063  0.937  0.000  0.000     2.163     2.300
 337   1 H      0.072  0.928  0.000  0.000     2.065     2.247
 338   1 H      0.051  0.949  0.000  0.000     2.303     2.373
 339   1 H      0.084  0.916  0.000  0.000     1.936     2.176
 340   1 H      0.055  0.945  0.000  0.000     2.254     2.347
 341   1 H      0.079  0.921  0.000  0.000     1.987     2.204
 342   1 H      0.061  0.939  0.000  0.000     2.186     2.312
 343   1 H      0.046  0.954  0.000  0.000     2.371     2.408
 344   1 H      0.076  0.924  0.000  0.000     2.025     2.225
 345   7 N     -0.416  1.287  4.129  0.000    30.819     8.245
 346   6 C      0.020  1.034  2.945  0.000    20.242     6.408
 347   6 C      0.204  1.088  2.708  0.000    23.670     7.968
 348   8 O     -0.377  1.754  4.623  0.000    21.227     6.177
 349   6 C     -0.110  1.012  3.098  0.000    22.578     6.762
 350   6 C     -0.102  1.003  3.099  0.000    22.440     6.742
 351   6 C     -0.052  1.011  3.041  0.000    21.559     6.621
 352   7 N     -0.147  1.180  3.967  0.000    24.187     7.304
 353   6 C      0.227  1.022  2.751  0.000    23.221     7.890
 354   7 N     -0.264  1.167  4.097  0.000    26.852     7.696
 355   7 N     -0.260  1.175  4.085  0.000    26.748     7.681
 356   1 H      0.188  0.812  0.000  0.000     1.168     1.693
 357   1 H      0.070  0.930  0.000  0.000     2.079     2.255
 358   1 H      0.088  0.912  0.000  0.000     1.901     2.156
 359   1 H      0.083  0.917  0.000  0.000     1.949     2.183
 360   1 H      0.065  0.935  0.000  0.000     2.135     2.285
 361   1 H      0.089  0.911  0.000  0.000     1.884     2.146
 362   1 H      0.116  0.884  0.000  0.000     1.647     2.007
 363   1 H      0.094  0.906  0.000  0.000     1.836     2.119
 364   1 H      0.220  0.780  0.000  0.000     1.007     1.572
 365   1 H      0.245  0.755  0.000  0.000     0.901     1.487
 366   1 H      0.255  0.745  0.000  0.000     0.865     1.457
 367   1 H      0.244  0.756  0.000  0.000     0.905     1.490
 368   1 H      0.255  0.745  0.000  0.000     0.865     1.457
 369   7 N     -0.423  1.293  4.130  0.000    31.011     8.271
 370   6 C      0.016  1.037  2.947  0.000    20.312     6.419
 371   6 C      0.275  1.044  2.681  0.000    22.353     7.742
 372   8 O     -0.473  1.732  4.742  0.000    23.199     6.458
 373   6 C     -0.103  1.017  3.085  0.000    22.448     6.743
 374   6 C     -0.029  1.030  2.999  0.000    21.052     6.526
 375   6 C     -0.154  0.976  3.178  0.000    23.518     6.910
 376   6 C     -0.163  0.981  3.183  0.000    23.697     6.936
 377   1 H      0.189  0.811  0.000  0.000     1.164     1.690
 378   1 H      0.045  0.955  0.000  0.000     2.381     2.413
 379   1 H      0.056  0.944  0.000  0.000     2.246     2.343
 380   1 H      0.062  0.938  0.000  0.000     2.176     2.307
 381   1 H      0.039  0.961  0.000  0.000     2.463     2.454
 382   1 H      0.061  0.939  0.000  0.000     2.192     2.315
 383   1 H      0.037  0.963  0.000  0.000     2.483     2.464
 384   1 H      0.058  0.942  0.000  0.000     2.225     2.332
 385   1 H      0.066  0.934  0.000  0.000     2.130     2.282
 386   1 H      0.062  0.938  0.000  0.000     2.171     2.304
 387   1 H      0.061  0.939  0.000  0.000     2.189     2.313
 388   7 N     -0.196  1.211  3.985  0.000    25.262     7.465
 389   6 C      0.011  1.036  2.953  0.000    20.396     6.430
 390   6 C      0.278  1.035  2.687  0.000    22.302     7.734
 391   8 O     -0.494  1.741  4.753  0.000    23.652     6.520
 392   6 C     -0.125  1.016  3.109  0.000    22.871     6.806
 393   6 C      0.278  1.039  2.683  0.000    22.287     7.730
 394   8 O     -0.517  1.756  4.761  0.000    24.162     6.590
 395   7 N     -0.281  1.197  4.084  0.000    27.259     7.754
 396   1 H      0.212  0.788  0.000  0.000     1.048     1.603
 397   1 H      0.111  0.889  0.000  0.000     1.686     2.031
 398   1 H      0.087  0.913  0.000  0.000     1.903     2.157
 399   1 H      0.094  0.906  0.000  0.000     1.836     2.119
 400   1 H      0.240  0.760  0.000  0.000     0.924     1.506
 401   1 H      0.239  0.761  0.000  0.000     0.928     1.509
 402   7 N     -0.176  1.204  3.972  0.000    24.808     7.397
 403   6 C     -0.003  1.049  2.954  0.000    20.642     6.469
 404   6 C      0.266  1.047  2.687  0.000    22.513     7.770
 405   8 O     -0.486  1.743  4.743  0.000    23.482     6.497
 406   6 C     -0.035  1.044  2.990  0.000    21.154     6.542
 407   6 C     -0.161  0.980  3.181  0.000    23.653     6.931
 408   6 C     -0.164  0.978  3.185  0.000    23.706     6.938
 409   1 H      0.216  0.784  0.000  0.000     1.029     1.589
 410   1 H      0.099  0.901  0.000  0.000     1.792     2.093
 411   1 H      0.071  0.929  0.000  0.000     2.070     2.250
 412   1 H      0.077  0.923  0.000  0.000     2.009     2.216
 413   1 H      0.057  0.943  0.000  0.000     2.230     2.335
 414   1 H      0.061  0.939  0.000  0.000     2.187     2.312
 415   1 H      0.071  0.929  0.000  0.000     2.072     2.251
 416   1 H      0.066  0.934  0.000  0.000     2.131     2.283
 417   1 H      0.053  0.947  0.000  0.000     2.285     2.363
 418   7 N     -0.185  1.204  3.980  0.000    25.001     7.426
 419   6 C      0.010  1.035  2.956  0.000    20.414     6.432
 420   6 C      0.264  1.044  2.693  0.000    22.554     7.777
 421   8 O     -0.477  1.761  4.716  0.000    23.279     6.469
 422   6 C     -0.093  1.008  3.085  0.000    22.254     6.713
 423   6 C     -0.126  1.011  3.116  0.000    22.908     6.812
 424   6 C      0.279  1.036  2.685  0.000    22.271     7.727
 425   8 O     -0.511  1.754  4.757  0.000    24.019     6.571
 426   7 N     -0.293  1.197  4.096  0.000    27.556     7.796
 427   1 H      0.231  0.769  0.000  0.000     0.958     1.533
 428   1 H      0.092  0.908  0.000  0.000     1.863     2.134
 429   1 H      0.080  0.920  0.000  0.000     1.983     2.202
 430   1 H      0.074  0.926  0.000  0.000     2.039     2.233
 431   1 H      0.077  0.923  0.000  0.000     2.007     2.215
 432   1 H      0.095  0.905  0.000  0.000     1.834     2.118
 433   1 H      0.237  0.763  0.000  0.000     0.935     1.514
 434   1 H      0.243  0.757  0.000  0.000     0.909     1.493
 435   7 N     -0.182  1.203  3.979  0.000    24.934     7.416
 436   6 C      0.010  1.040  2.949  0.000    20.410     6.433
 437   6 C      0.194  1.090  2.716  0.000    23.865     8.001
 438   8 O     -0.352  1.756  4.595  0.000    20.741     6.106
 439   6 C     -0.081  1.003  3.078  0.000    22.028     6.679
 440   6 C     -0.117  1.006  3.112  0.000    22.726     6.784
 441   6 C      0.282  1.039  2.679  0.000    22.218     7.718
 442   8 O     -0.522  1.769  4.753  0.000    24.272     6.605
 443   7 N     -0.301  1.196  4.104  0.000    27.744     7.823
 444   1 H      0.221  0.779  0.000  0.000     1.004     1.570
 445   1 H      0.109  0.891  0.000  0.000     1.707     2.043
 446   1 H      0.079  0.921  0.000  0.000     1.984     2.202
 447   1 H      0.085  0.915  0.000  0.000     1.932     2.173
 448   1 H      0.101  0.899  0.000  0.000     1.776     2.084
 449   1 H      0.088  0.912  0.000  0.000     1.897     2.154
 450   1 H      0.237  0.763  0.000  0.000     0.935     1.515
 451   1 H      0.233  0.767  0.000  0.000     0.950     1.527
 452   7 N     -0.404  1.277  4.127  0.000    30.480     8.200
 453   6 C      0.023  1.033  2.943  0.000    20.190     6.399
 454   6 C      0.200  1.083  2.717  0.000    23.744     7.981
 455   8 O     -0.353  1.742  4.612  0.000    20.771     6.110
 456   6 C      0.109  1.026  2.864  0.000    18.868     6.200
 457   8 O     -0.499  1.687  4.812  0.000    22.870     6.456
 458   6 C     -0.165  0.983  3.182  0.000    23.753     6.946
 459   1 H      0.194  0.806  0.000  0.000     1.139     1.671
 460   1 H      0.072  0.928  0.000  0.000     2.061     2.245
 461   1 H      0.042  0.958  0.000  0.000     2.425     2.435
 462   1 H      0.332  0.668  0.000  0.000     0.630     1.247
 463   1 H      0.072  0.928  0.000  0.000     2.067     2.248
 464   1 H      0.065  0.935  0.000  0.000     2.138     2.286
 465   1 H      0.066  0.934  0.000  0.000     2.133     2.284
 466   7 N     -0.318  1.333  3.986  0.000    28.185     7.885
 467   6 C      0.010  1.046  2.944  0.000    20.398     6.428
 468   6 C      0.265  1.047  2.688  0.000    22.525     7.771
 469   8 O     -0.517  1.756  4.761  0.000    24.158     6.590
 470   6 C     -0.088  1.006  3.082  0.000    22.125     6.688
 471   6 C     -0.089  0.999  3.090  0.000    22.161     6.696
 472   6 C     -0.005  0.998  3.007  0.000    20.666     6.472
 473   1 H      0.056  0.944  0.000  0.000     2.249     2.345
 474   1 H      0.061  0.939  0.000  0.000     2.191     2.315
 475   1 H      0.062  0.938  0.000  0.000     2.171     2.304
 476   1 H      0.057  0.943  0.000  0.000     2.236     2.338
 477   1 H      0.062  0.938  0.000  0.000     2.174     2.306
 478   1 H      0.053  0.947  0.000  0.000     2.278     2.360
 479   1 H      0.032  0.968  0.000  0.000     2.560     2.502
 480   7 N     -0.173  1.208  3.965  0.000    24.747     7.388
 481   6 C      0.010  1.048  2.942  0.000    20.420     6.435
 482   6 C      0.200  1.088  2.712  0.000    23.744     7.980
 483   8 O     -0.361  1.759  4.601  0.000    20.913     6.131
 484   6 C     -0.103  1.018  3.084  0.000    22.437     6.741
 485   6 C     -0.029  1.026  3.003  0.000    21.047     6.524
 486   6 C     -0.154  0.973  3.181  0.000    23.496     6.905
 487   6 C     -0.167  0.980  3.187  0.000    23.771     6.947
 488   1 H      0.223  0.777  0.000  0.000     0.994     1.561
 489   1 H      0.112  0.888  0.000  0.000     1.682     2.028
 490   1 H      0.071  0.929  0.000  0.000     2.077     2.254
 491   1 H      0.088  0.912  0.000  0.000     1.900     2.155
 492   1 H      0.050  0.950  0.000  0.000     2.325     2.384
 493   1 H      0.057  0.943  0.000  0.000     2.238     2.339
 494   1 H      0.051  0.949  0.000  0.000     2.301     2.372
 495   1 H      0.063  0.937  0.000  0.000     2.167     2.302
 496   1 H      0.059  0.941  0.000  0.000     2.204     2.322
 497   1 H      0.072  0.928  0.000  0.000     2.067     2.248
 498   1 H      0.060  0.940  0.000  0.000     2.201     2.320
 499   7 N     -0.424  1.290  4.134  0.000    31.058     8.277
 500   6 C      0.020  1.041  2.938  0.000    20.247     6.409
 501   6 C      0.198  1.095  2.707  0.000    23.776     7.985
 502   8 O     -0.387  1.758  4.629  0.000    21.432     6.207
 503   6 C     -0.041  1.047  2.994  0.000    21.265     6.558
 504   6 C     -0.086  0.999  3.086  0.000    22.118     6.693
 505   6 C     -0.164  0.979  3.185  0.000    23.726     6.941
 506   6 C     -0.148  0.972  3.177  0.000    23.398     6.893
 507   1 H      0.191  0.809  0.000  0.000     1.151     1.681
 508   1 H      0.064  0.936  0.000  0.000     2.155     2.295
 509   1 H      0.065  0.935  0.000  0.000     2.136     2.285
 510   1 H      0.054  0.946  0.000  0.000     2.276     2.359
 511   1 H      0.049  0.951  0.000  0.000     2.336     2.390
 512   1 H      0.077  0.923  0.000  0.000     2.014     2.219
 513   1 H      0.056  0.944  0.000  0.000     2.246     2.343
 514   1 H      0.068  0.932  0.000  0.000     2.105     2.269
 515   1 H      0.055  0.945  0.000  0.000     2.259     2.350
 516   1 H      0.047  0.953  0.000  0.000     2.361     2.403
 517   1 H      0.061  0.939  0.000  0.000     2.185     2.311
 518   1 H      0.192  0.808  0.000  0.000     1.150     1.679
 519   1 H      0.065  0.935  0.000  0.000     2.145     2.290
 520   1 H      0.181  0.819  0.000  0.000     1.210     1.723
 521   1 H      0.088  0.912  0.000  0.000     1.901     2.156
 522   1 H      0.197  0.803  0.000  0.000     1.121     1.659
 523   1 H      0.073  0.927  0.000  0.000     2.052     2.240
 524   1 H      0.165  0.835  0.000  0.000     1.303     1.788
 525   1 H      0.063  0.937  0.000  0.000     2.158     2.297
 526   1 H      0.177  0.823  0.000  0.000     1.233     1.739
 527   1 H      0.072  0.928  0.000  0.000     2.062     2.245
 528   1 H      0.184  0.816  0.000  0.000     1.193     1.711
 529   1 H      0.093  0.907  0.000  0.000     1.854     2.129
 530   1 H      0.182  0.818  0.000  0.000     1.204     1.719
 531   1 H      0.065  0.935  0.000  0.000     2.136     2.286
 532   1 H      0.168  0.832  0.000  0.000     1.283     1.774
 533   1 H      0.068  0.932  0.000  0.000     2.103     2.268
 534   1 H      0.171  0.829  0.000  0.000     1.264     1.761
 535   1 H      0.074  0.926  0.000  0.000     2.043     2.235

 Mol. C6AA /au·bohr⁶  :    2523006.371906
 Mol. C8AA /au·bohr⁸  :   55558116.677072
 Mol. α(0) /au        :       2360.751342

 
molecular dipole:
                 x           y           z       tot (Debye)
 q only:      -38.531     -20.454      29.375
   full:      -37.451     -17.541      29.260     128.766
molecular quadrupole (traceless):
                xx          xy          yy          xz          yz          zz
 q only:   -24899.243  -16976.283     146.384    2519.483     743.909   24752.859
  q+dip:   -24587.149  -15434.920     663.768    2770.798    1521.240   23923.380
   full:   -24587.882  -15438.836     664.978    2770.945    1519.875   23922.905
speedup  1.00
cpu  time for grad   16.60 s
wall time for grad   16.60 s

SCC energy    :    -838.1302844
rep           :      17.7709140
ES            :       2.7140425
AES           :      -0.0883659
AXC           :       0.1047632
disp          :      -0.6837076
XB            :       0.0000000
fix           :       0.0000000
Gborn         :       0.0000000
Gsasa         :       0.0000000
Ghb           :       0.0000000
Gshift        :       0.0000000
Gsolv         :      -0.6098147     -382.66
Etot ala COSMO:    -838.1302844
grad norm     :       3.0489876
total E       :    -820.2897781
atomizationE  :     143.7391064    90197.65
(atE without considering molecular charge,
 total energy contains solvation terms)
H-L gap (eV)  :          1.1436

------------------------------------------------------------------------
 * finished run on 2019/03/07 at 11:38:04.459     
------------------------------------------------------------------------
 total:
 * wall-time:     0 d,  0 h,  0 min, 18.161 sec
 *  cpu-time:     0 d,  0 h,  0 min, 18.000 sec
 * ratio c/w:     0.991 speedup
 SCF:
 * wall-time:     0 d,  0 h,  0 min, 17.644 sec
 *  cpu-time:     0 d,  0 h,  0 min, 17.641 sec
 * ratio c/w:     1.000 speedup

