      -----------------------------------------------------------      
     |                   =====================                   |     
     |                           x T B                           |     
     |                   =====================                   |     
     |                         S. Grimme                         |     
     |          Mulliken Center for Theoretical Chemistry        |     
     |                    University of Bonn                     |     
     |                 Version 6.0.1 (SAW181210)                 |     
      -----------------------------------------------------------      

   This program is distributed in the hope that it will be useful,
   but WITHOUT ANY WARRANTY; without even the implied warranty of
   MERCHANTABILITY or FITNESS FOR A PARTICULAR PURPOSE.
   
   FOR NON-COMMERCIAL, ACADEMIA USE ONLY.
   
   Cite this work as:
   S. Grimme, C. Bannwarth, P. Shushkov, J. Comput. Theory Chem., 2017,
   13, 1989-2009.
   C. Bannwarth, S. Ehlert and S. Grimme., ChemRxiv, 2018, preprint.
   http://doi.org/10.26434/chemrxiv.7246238.v1
   
   for sTDA-xTB:
   S. Grimme and C. Bannwarth, J. Chem. Phys., 2016, 145, 054103.
   
   in the mass-spec context:
   V. Asgeirsson, C. Bauer and S. Grimme, Chem. Sci., 2017, 8, 4879.
   
   if GBSA is used:
   P. Shushkov, F. März and S. Grimme, unpublished.
   
   for ANC optimizer:
   S. Grimme, unpublished.
   Rational Function algorithm used in ANCopt:
   F. Eckert, P. Pulay, H.-J. Werner, J. Comput. Chem., 1997, 18, 1473.
   
   with help from (in alphabetical order)
   C. Bannwarth, F. Bohle, G. Brandenburg, E. Caldeweyher, M. Checinski,
   S. Dohm, S. Ehlert, S. Ehrlich, F. März, H. Neugebauer, J. Pisarek,
   P. Pracht, P. Shushkov, and S. Spicher.
   
 * started run on 2019/03/07 at 11:37:45.738     
========================================================================
 # omp threads = 1
========================================================================
number of atoms            : 282
number of electrons        : 820
charge                     : -2
spin                       : .0
first test random number   : .1559
           ------------------------------------------------- 
          |                 G F N 2 - x T B                 |
          | Geometry, Frequencies, Noncovalent interactions |
          |            JCTC 2018 parametrisation            |
           ------------------------------------------------- 
 
      method parameters     
 k(s)        :  1.8500
 k(p)        :  2.2300
 k(d)        :  2.2300
 k(f)        :  2.0000
 kEN (H0ij)  : -2.0000
 D4 a1       :  0.5200
 D4 a2       :  5.0000
 D4 s6       :  1.0000
 D4 s8       :  2.7000
 D4 s9       :  5.0000
 alphaj      :  2.0000

 Solvent             : h2o
 Using internal parameter file: .param_gbsa2_h2o
 Gsolv ref. state (COSMO-RS): gsolv [1 M gas/solution]
 temperature (mdtemp)       :    298.150000000000     
 dielectric constant        :    80.2000000000000     
 rho                        :    1.00000000000000     
 mass                       :    18.0000000000000     
 surface tension            :    15.5689454083859     
 probe radius               :   0.975313790000000     
 vdW radii scaling          :    1.00000000000000     
 Gshift (Eh)                :   1.857443126794793E-003
 c1                         :    1.55243817000000     
 soset                      :   0.130326360000000     
 HB correction              :  T

            Z     q(EN)     CN     RAES       Cart. coordinates
     1  N   5.0   -0.25    3.25    1.97   290.12962   139.00257   174.07400
     2  C   4.0    0.02    4.37    4.33   292.09494   140.55971   172.91181
     3  C   4.0    0.14    3.46    3.10   294.39474   139.03659   171.99908
     4  O   6.0   -0.31    1.28    1.80   295.68353   139.83783   170.15848
     5  C   4.0   -0.05    4.39    4.36   293.03224   142.54770   174.79587
     6  C   4.0   -0.05    4.33    4.26   291.18598   144.73789   175.18137
     7  C   4.0    0.15    3.32    3.06   292.32927   146.79769   176.75741
     8  O   6.0   -0.30    1.20    1.80   293.33838   148.64395   175.76719
     9  N   5.0   -0.25    3.25    1.97   292.13651   146.49722   179.22161
    10  H   1.0    0.09    1.08    1.44   289.92176   139.23690   175.66892
    11  H   1.0    0.04    1.13    1.45   291.31259   141.33638   171.44728
    12  H   1.0    0.04    1.09    1.44   293.34405   141.73889   176.41159
    13  H   1.0    0.06    1.10    1.44   294.63662   143.21477   174.21195
    14  H   1.0    0.05    1.09    1.44   290.69087   145.41630   173.55243
    15  H   1.0    0.03    1.10    1.44   289.66286   144.11995   175.99207
    16  H   1.0    0.09    1.10    1.44   291.41464   145.17253   179.82443
    17  H   1.0    0.11    1.09    1.44   292.73367   147.62539   180.22694
    18  N   5.0   -0.17    3.53    2.10   294.99945   137.01836   173.36535
    19  C   4.0    0.03    4.43    4.43   297.11783   135.46123   172.72473
    20  C   4.0    0.09    3.30    3.05   296.90240   134.40676   170.06400
    21  O   6.0   -0.29    1.15    1.80   298.75433   134.23101   168.70906
    22  C   4.0    0.02    4.29    4.18   297.37105   133.33717   174.59934
    23  O   6.0   -0.29    2.10    1.84   295.02779   132.09562   175.03587
    24  H   1.0    0.09    1.15    1.45   294.18120   136.53270   174.68249
    25  H   1.0    0.05    1.14    1.45   298.61827   136.51191   172.78520
    26  H   1.0    0.05    1.08    1.44   298.59938   132.12397   173.98329
    27  H   1.0    0.04    1.08    1.44   298.01734   133.99480   176.18293
    28  H   1.0    0.14    1.11    1.44   293.86750   132.87419   174.28376
    29  N   5.0   -0.22    3.27    1.97   295.81770   136.58561   164.96174
    30  C   4.0    0.03    4.42    4.41   296.20509   138.49235   162.96808
    31  C   4.0    0.15    3.50    3.11   298.90551   138.52636   162.14605
    32  O   6.0   -0.29    1.32    1.80   300.50989   139.55059   163.47452
    33  C   4.0   -0.03    4.41    4.40   295.38873   141.10962   163.86192
    34  C   4.0    0.16    3.29    3.05   292.57493   141.29103   164.32490
    35  O   6.0   -0.31    1.19    1.80   291.19165   142.23400   162.71107
    36  N   5.0   -0.25    3.24    1.96   291.74345   140.46900   166.60013
    37  H   1.0    0.14    1.10    1.44   296.57359   136.91442   166.36202
    38  H   1.0    0.04    1.14    1.45   295.16008   138.03314   161.53377
    39  H   1.0    0.07    1.10    1.44   296.28257   141.52536   165.40771
    40  H   1.0    0.06    1.10    1.44   295.87628   142.35495   162.60903
    41  H   1.0    0.11    1.08    1.44   290.16931   140.59183   166.98374
    42  H   1.0    0.12    1.11    1.45   292.79036   139.82271   167.66216
    43  N   5.0   -0.17    3.48    2.06   299.45920   137.26780   160.01821
    44  C   4.0    0.04    4.43    4.44   302.03301   137.12607   158.99209
    45  C   4.0    0.16    3.45    3.09   303.48054   139.61862   158.86737
    46  O   6.0   -0.28    1.23    1.80   305.71608   139.62996   158.31935
    47  C   4.0    0.02    4.26    4.12   301.95175   135.89397   156.35404
    48  O   6.0   -0.29    2.09    1.84   301.13161   133.37308   156.37104
    49  H   1.0    0.09    1.13    1.45   298.35182   136.47412   159.13193
    50  H   1.0    0.07    1.13    1.45   302.97220   136.10751   160.19207
    51  H   1.0    0.04    1.08    1.44   300.84059   136.87285   155.27500
    52  H   1.0    0.05    1.08    1.44   303.62605   135.96956   155.61137
    53  H   1.0    0.13    1.08    1.44   301.12405   132.80805   154.88761
    54  N   5.0   -0.15    3.61    2.17   302.14450   141.74078   159.20185
    55  C   4.0    0.04    4.56    4.61   303.30479   144.22010   159.16217
    56  C   4.0    0.18    3.46    3.10   304.95264   144.66797   161.47708
    57  O   6.0   -0.28    1.23    1.80   306.67607   146.17030   161.40716
    58  C   4.0    0.05    4.34    4.27   301.26956   146.28935   159.00154
    59  O   6.0   -0.27    2.16    1.85   299.41385   145.84905   160.92528
    60  C   4.0   -0.09    4.19    3.98   299.99777   146.20243   156.40695
    61  H   1.0    0.11    1.16    1.45   300.54013   141.76346   159.45697
    62  H   1.0    0.05    1.13    1.45   304.37627   144.29380   157.67684
    63  H   1.0    0.05    1.10    1.44   302.04246   147.93342   159.24154
    64  H   1.0    0.14    1.08    1.44   298.29702   146.97344   160.85158
    65  H   1.0    0.04    1.05    1.44   298.71465   147.50823   156.31057
    66  H   1.0    0.04    1.05    1.44   301.25255   146.48211   155.10115
    67  H   1.0    0.04    1.06    1.44   299.21732   144.56215   156.16317
    68  N   5.0   -0.13    3.56    2.12   304.27422   143.43965   163.55767
    69  C   4.0    0.05    4.54    4.59   305.62160   143.66831   165.92928
    70  C   4.0    0.17    3.50    3.11   308.11415   142.26235   165.81211
    71  O   6.0   -0.27    1.26    1.80   308.19729   140.01546   165.33212
    72  C   4.0   -0.03    4.43    4.43   304.13249   142.59494   168.13459
    73  C   4.0    0.17    3.31    3.05   301.59081   143.88373   168.49741
    74  O   6.0   -0.27    1.22    1.80   301.23932   146.04747   167.72263
    75  N   5.0   -0.23    3.26    1.97   299.85415   142.56471   169.72952
    76  H   1.0    0.13    1.17    1.46   302.99677   142.43620   163.62381
    77  H   1.0    0.07    1.14    1.45   305.88805   145.46354   166.19195
    78  H   1.0    0.06    1.10    1.44   303.86604   140.80159   167.86625
    79  H   1.0    0.05    1.09    1.44   305.12082   142.76691   169.66904
    80  H   1.0    0.13    1.09    1.44   298.39529   143.21666   170.02242
    81  H   1.0    0.12    1.09    1.44   300.18675   141.05670   170.23596
    82  N   5.0   -0.14    3.53    2.10   310.16639   143.59839   166.30722
    83  C   4.0    0.04    4.48    4.50   312.67595   142.47022   166.31289
    84  C   4.0    0.17    3.51    3.12   312.94618   140.90175   168.69773
    85  O   6.0   -0.30    1.32    1.80   311.44762   141.14363   170.44950
    86  C   4.0    0.03    4.26    4.11   314.74708   144.52246   166.25620
    87  O   6.0   -0.25    2.13    1.84   314.41449   146.27991   168.24230
    88  H   1.0    0.12    1.14    1.45   310.14938   145.18764   166.65115
    89  H   1.0    0.06    1.12    1.45   312.87437   141.42520   164.82001
    90  H   1.0    0.04    1.07    1.44   316.39682   143.73822   166.39793
    91  H   1.0    0.06    1.07    1.44   314.70551   145.39740   164.64615
    92  H   1.0    0.16    1.13    1.45   315.61069   146.14196   169.27787
    93  N   5.0   -0.17    3.48    2.06   314.84535   139.25768   168.72040
    94  C   4.0    0.03    4.44    4.45   315.37447   137.69488   170.96729
    95  C   4.0    0.17    3.48    3.11   315.31778   139.34272   173.37858
    96  O   6.0   -0.29    1.32    1.80   314.01765   138.74557   175.21161
    97  C   4.0   -0.05    4.35    4.29   317.92371   136.29459   170.69328
    98  C   4.0   -0.04    4.31    4.22   318.10891   134.39353   168.51442
    99  C   4.0    0.16    3.30    3.05   320.75641   133.47701   168.05144
   100  O   6.0   -0.29    1.21    1.80   321.81844   133.98346   166.05211
   101  N   5.0   -0.24    3.24    1.96   321.88458   132.28082   169.95628
   102  H   1.0    0.09    1.13    1.45   315.85257   139.00824   167.46940
   103  H   1.0    0.05    1.12    1.45   314.06489   136.42121   171.11468
   104  H   1.0    0.05    1.09    1.44   319.24841   137.54370   170.48163
   105  H   1.0    0.06    1.09    1.44   318.26764   135.41020   172.26175
   106  H   1.0    0.05    1.09    1.44   317.03176   132.95545   168.87914
   107  H   1.0    0.06    1.10    1.44   317.46640   135.17021   166.98374
   108  H   1.0    0.12    1.09    1.44   321.06066   131.96901   171.32066
   109  H   1.0    0.12    1.09    1.44   323.43793   131.82161   169.82211
   110  N   5.0   -0.15    3.52    2.09   316.63303   141.48756   173.27464
   111  C   4.0    0.04    4.47    4.49   316.76342   143.28091   175.34200
   112  C   4.0    0.17    3.51    3.12   314.12537   143.88373   176.34356
   113  O   6.0   -0.30    1.28    1.80   313.55845   143.55114   178.56965
   114  C   4.0    0.02    4.27    4.13   318.04844   145.73378   174.47840
   115  O   6.0   -0.28    2.21    1.86   316.66138   146.83738   172.45828
   116  H   1.0    0.09    1.14    1.45   317.48719   141.93921   171.96884
   117  H   1.0    0.06    1.13    1.45   317.75175   142.51935   176.68560
   118  H   1.0    0.04    1.07    1.44   318.15426   146.91107   175.88057
   119  H   1.0    0.04    1.07    1.44   319.76620   145.38418   173.93983
   120  H   1.0    0.14    1.08    1.44   317.37380   148.17908   171.99719
   121  N   5.0   -0.14    3.56    2.13   312.50020   144.74167   174.61635
   122  C   4.0    0.04    4.49    4.53   309.83569   145.35205   175.16059
   123  C   4.0    0.16    3.51    3.12   308.67917   143.11462   176.50040
   124  O   6.0   -0.32    1.29    1.80   307.61715   143.42264   178.54698
   125  C   4.0   -0.04    4.35    4.29   308.39572   145.94731   172.72473
   126  C   4.0    0.26    3.12    3.03   309.22720   148.42663   171.43594
   127  O   6.0   -0.28    1.18    1.80   310.04734   150.20109   172.77197
   128  O   6.0   -0.27    1.18    1.80   308.97586   148.64584   169.10402
   129  H   1.0    0.12    1.15    1.45   312.91405   144.99300   173.06488
   130  H   1.0    0.06    1.13    1.45   309.73742   146.84304   176.22261
   131  H   1.0    0.06    1.09    1.44   308.62059   144.56026   171.54743
   132  H   1.0    0.05    1.09    1.44   306.60426   146.04558   173.10268
   133  N   5.0   -0.16    3.55    2.11   309.05145   140.87340   175.42515
   134  C   4.0    0.03    4.47    4.49   308.11604   138.50179   176.54198
   135  C   4.0    0.16    3.49    3.11   309.11192   138.10306   179.20460
   136  O   6.0   -0.32    1.26    1.80   307.71164   137.26402   180.88646
   137  C   4.0   -0.05    4.45    4.47   308.89271   136.25302   174.93382
   138  C   4.0   -0.02    4.27    4.14   307.86092   136.01491   172.17860
   139  C   4.0   -0.07    4.19    3.98   309.07224   133.84173   170.67816
   140  C   4.0   -0.08    4.24    4.08   305.03767   135.60862   172.37513
   141  H   1.0    0.12    1.16    1.45   309.85269   140.67309   174.02486
   142  H   1.0    0.05    1.13    1.45   306.28867   138.63596   176.60623
   143  H   1.0    0.07    1.11    1.45   310.72386   136.25113   174.83744
   144  H   1.0    0.05    1.10    1.44   308.40327   134.73557   175.83711
   145  H   1.0    0.06    1.12    1.45   308.27855   137.54559   171.26019
   146  H   1.0    0.06    1.05    1.44   308.35792   133.79071   168.99063
   147  H   1.0    0.05    1.05    1.44   310.88260   134.11007   170.56666
   148  H   1.0    0.05    1.05    1.44   308.74154   132.25247   171.52853
   149  H   1.0    0.06    1.06    1.44   304.32336   135.45178   170.69517
   150  H   1.0    0.05    1.06    1.44   304.70508   134.07795   173.32566
   151  H   1.0    0.04    1.06    1.44   304.27233   137.03726   173.23118
   152  N   5.0   -0.15    3.59    2.15   311.48164   138.82305   179.65436
   153  C   4.0    0.04    4.52    4.57   312.60414   138.64541   182.13368
   154  C   4.0    0.16    3.48    3.10   311.34180   140.43498   183.98561
   155  O   6.0   -0.29    1.23    1.80   310.99787   139.75468   186.17580
   156  C   4.0   -0.04    4.34    4.28   315.47085   139.15186   182.07510
   157  C   4.0    0.26    3.14    3.03   316.89948   137.36229   180.27608
   158  O   6.0   -0.29    1.23    1.80   316.41571   135.10218   180.38946
   159  O   6.0   -0.28    1.17    1.80   318.44717   138.25991   178.72650
   160  H   1.0    0.14    1.18    1.46   312.47185   139.42776   178.51674
   161  H   1.0    0.06    1.14    1.45   312.33957   136.92198   182.69870
   162  H   1.0    0.06    1.09    1.44   315.76565   140.88663   181.56109
   163  H   1.0    0.05    1.09    1.44   316.14926   138.97234   183.76829
   164  N   5.0   -0.16    3.56    2.12   310.55756   142.62140   183.03319
   165  C   4.0    0.04    4.43    4.43   309.28389   144.51112   184.59788
   166  C   4.0    0.18    3.49    3.11   306.69118   143.38863   185.32353
   167  O   6.0   -0.27    1.23    1.80   306.00332   143.31115   187.56664
   168  C   4.0    0.03    4.23    4.07   308.97775   147.00556   183.12389
   169  O   6.0   -0.28    2.07    1.84   307.57935   148.82726   184.55631
   170  H   1.0    0.13    1.16    1.46   310.74465   143.05225   181.47794
   171  H   1.0    0.06    1.12    1.45   310.25710   144.89852   186.10210
   172  H   1.0    0.05    1.07    1.44   310.62937   147.68397   182.71193
   173  H   1.0    0.06    1.08    1.44   308.11982   146.68053   181.53652
   174  H   1.0    0.14    1.07    1.44   307.43951   150.16707   183.71727
   175  N   5.0   -0.16    3.55    2.12   305.32869   142.43431   183.43570
   176  C   4.0    0.04    4.55    4.61   302.88339   141.28347   183.85711
   177  C   4.0    0.17    3.51    3.12   303.15551   139.25391   185.93203
   178  O   6.0   -0.28    1.21    1.80   301.84971   139.36351   187.84443
   179  C   4.0   -0.03    4.46    4.48   301.92151   139.94554   181.42503
   180  C   4.0   -0.05    4.31    4.21   301.88939   141.79370   179.19704
   181  C   4.0   -0.09    4.25    4.11   299.39306   138.70399   181.83699
   182  C   4.0   -0.09    4.12    3.84   300.94075   140.64474   176.68749
   183  H   1.0    0.12    1.16    1.46   305.80490   142.44187   181.88234
   184  H   1.0    0.06    1.12    1.45   301.69853   142.59494   184.34277
   185  H   1.0    0.06    1.14    1.45   303.09315   138.59817   181.00929
   186  H   1.0    0.05    1.09    1.44   300.82736   143.22233   179.63168
   187  H   1.0    0.06    1.10    1.44   303.58447   142.44376   178.94571
   188  H   1.0    0.04    1.06    1.44   298.85071   137.88952   180.28741
   189  H   1.0    0.05    1.06    1.44   299.53668   137.45111   183.16736
   190  H   1.0    0.04    1.06    1.44   298.16096   139.97200   182.32265
   191  H   1.0    0.05    1.05    1.44   300.97665   141.92598   175.37602
   192  H   1.0    0.04    1.05    1.44   302.02545   139.24824   176.20561
   193  H   1.0    0.04    1.05    1.44   299.22488   140.03814   176.90292
   194  N   5.0   -0.16    3.51    2.09   305.02067   137.57583   185.57865
   195  C   4.0    0.04    4.39    4.37   305.60270   135.53115   187.31153
   196  C   4.0    0.10    3.27    3.05   306.20741   136.54404   189.91557
   197  O   6.0   -0.29    1.11    1.80   305.39294   135.43855   191.83553
   198  C   4.0   -0.05    4.37    4.33   307.87037   134.03259   186.29107
   199  C   4.0   -0.04    4.32    4.24   308.58469   131.77059   187.96726
   200  C   4.0    0.16    3.29    3.05   306.57402   129.71457   187.99372
   201  O   6.0   -0.31    1.21    1.80   306.09025   128.52782   186.06053
   202  N   5.0   -0.24    3.23    1.96   305.48554   129.30639   190.22170
   203  H   1.0    0.12    1.17    1.46   305.99954   137.61362   184.28230
   204  H   1.0    0.06    1.13    1.45   304.13816   134.43699   187.44759
   205  H   1.0    0.06    1.09    1.44   307.48298   133.43166   184.60355
   206  H   1.0    0.06    1.09    1.44   309.31412   135.15131   186.14368
   207  H   1.0    0.05    1.09    1.44   310.16639   131.05816   187.37578
   208  H   1.0    0.05    1.10    1.44   308.86815   132.35641   189.68124
   209  H   1.0    0.11    1.09    1.44   305.90695   130.20401   191.50861
   210  H   1.0    0.11    1.09    1.44   304.35926   128.14421   190.37477
   211  N   5.0   -0.24    3.28    1.98   304.51044   125.85386   181.29086
   212  C   4.0    0.03    4.43    4.43   304.08336   126.40566   178.63768
   213  C   4.0    0.16    3.43    3.09   306.40772   127.65666   177.41692
   214  O   6.0   -0.30    1.24    1.80   306.17151   128.86419   175.46105
   215  C   4.0   -0.02    4.37    4.32   301.71742   128.13476   178.17281
   216  C   4.0   -0.09    4.21    4.03   299.29480   126.79116   179.01374
   217  C   4.0   -0.08    4.24    4.09   302.01222   130.58384   179.65625
   218  H   1.0    0.12    1.09    1.44   305.12649   127.08785   182.15068
   219  H   1.0    0.04    1.12    1.45   303.76778   124.77860   177.85534
   220  H   1.0    0.05    1.12    1.45   301.60026   128.49947   176.37946
   221  H   1.0    0.04    1.05    1.44   297.85293   127.88342   178.71327
   222  H   1.0    0.04    1.05    1.44   299.09260   125.23970   178.05943
   223  H   1.0    0.04    1.06    1.44   299.40251   126.39810   180.80142
   224  H   1.0    0.04    1.06    1.44   300.55146   131.65343   179.36901
   225  H   1.0    0.05    1.06    1.44   302.14828   130.20401   181.44393
   226  H   1.0    0.05    1.06    1.44   303.52589   131.45690   179.10067
   227  N   5.0   -0.15    3.54    2.11   308.65272   127.24848   178.53186
   228  C   4.0    0.03    4.50    4.54   310.99976   128.30294   177.62290
   229  C   4.0    0.15    3.46    3.10   311.98431   126.67022   175.47617
   230  O   6.0   -0.29    1.23    1.80   310.79000   124.77482   174.76941
   231  C   4.0   -0.05    4.42    4.42   313.01799   128.38042   179.69026
   232  C   4.0   -0.03    4.33    4.25   312.26587   129.98858   181.94848
   233  C   4.0    0.16    3.30    3.05   314.29166   130.06228   183.97994
   234  O   6.0   -0.30    1.21    1.80   314.87748   128.11586   185.11566
   235  N   5.0   -0.23    3.26    1.97   315.27621   132.27515   184.53930
   236  H   1.0    0.10    1.14    1.45   308.82657   126.33007   179.86034
   237  H   1.0    0.05    1.13    1.45   310.66528   130.01692   177.06732
   238  H   1.0    0.06    1.09    1.44   313.36003   126.67211   180.25907
   239  H   1.0    0.06    1.10    1.44   314.57701   129.03238   178.98161
   240  H   1.0    0.05    1.10    1.44   311.91439   131.69689   181.38346
   241  H   1.0    0.05    1.09    1.44   310.71252   129.33095   182.66658
   242  H   1.0    0.12    1.11    1.45   314.82645   133.59796   183.70971
   243  H   1.0    0.12    1.09    1.44   316.37036   132.39987   185.73549
   244  N   5.0   -0.16    3.55    2.11   314.23686   127.34674   174.56532
   245  C   4.0    0.03    4.38    4.34   315.55400   126.00504   172.53954
   246  C   4.0    0.07    3.24    3.04   318.36024   126.26582   173.22551
   247  O   6.0   -0.29    1.15    1.80   319.14637   128.27838   174.07589
   248  C   4.0   -0.04    4.41    4.39   314.96818   127.16722   169.96951
   249  C   4.0   -0.04    4.34    4.28   312.22619   127.05950   169.18527
   250  C   4.0    0.15    3.31    3.05   311.68384   128.53538   166.83635
   251  O   6.0   -0.29    1.22    1.80   313.43562   129.24025   165.42283
   252  N   5.0   -0.24    3.22    1.96   309.25365   129.02104   166.33746
   253  H   1.0    0.11    1.15    1.45   315.05889   128.63176   175.12468
   254  H   1.0    0.05    1.12    1.45   315.03810   124.25137   172.40159
   255  H   1.0    0.06    1.10    1.44   315.50298   128.92088   169.98463
   256  H   1.0    0.05    1.10    1.44   315.97352   126.31117   168.69773
   257  H   1.0    0.05    1.10    1.44   311.74620   125.31151   168.92071
   258  H   1.0    0.06    1.10    1.44   311.18495   127.70012   170.55155
   259  H   1.0    0.11    1.09    1.44   308.09714   128.50514   167.35602
   260  H   1.0    0.12    1.08    1.44   308.84925   129.84874   164.99953
   261  N   5.0   -0.24    3.21    1.96   324.14469   139.54492   158.41762
   262  C   4.0    0.03    4.25    4.09   324.63791   141.79748   156.83025
   263  C   4.0    0.07    3.17    3.03   327.50085   142.46077   156.61293
   264  O   6.0   -0.31    1.13    1.80   328.16225   144.64718   156.21042
   265  C   4.0   -0.04    4.38    4.34   323.23195   144.11239   157.91495
   266  C   4.0    0.15    3.30    3.05   320.41437   143.61539   158.34392
   267  O   6.0   -0.29    1.20    1.80   319.61124   142.66108   160.31112
   268  N   5.0   -0.25    3.23    1.96   318.88936   144.23711   156.46931
   269  H   1.0    0.11    1.07    1.44   324.42248   139.76980   160.00310
   270  H   1.0    0.04    1.12    1.45   324.02942   141.38174   155.15217
   271  H   1.0    0.05    1.09    1.44   324.00674   144.59805   159.50232
   272  H   1.0    0.05    1.09    1.44   323.42660   145.52780   156.76789
   273  H   1.0    0.12    1.09    1.44   317.29066   143.97822   156.60348
   274  H   1.0    0.10    1.09    1.44   319.49597   144.90041   155.11438
   275  H   1.0    0.09    1.08    1.44   288.63367   139.33122   173.33463
   276  H   1.0    0.05    1.05    1.44   295.22332   133.84551   169.40314
   277  H   1.0    0.10    1.08    1.44   294.15825   136.46009   165.31252
   278  H   1.0    0.07    1.04    1.43   307.26112   138.10157   190.10234
   279  H   1.0    0.10    1.08    1.44   303.03698   125.42994   182.02690
   280  H   1.0    0.04    1.04    1.43   319.53287   124.80453   172.97925
   281  H   1.0    0.11    1.08    1.44   322.51512   139.08452   158.25918
   282  H   1.0    0.05    1.04    1.43   328.80215   141.10354   156.80157

  Z AO/shell   Hii/eV     exponent
  1     Wed Apr 25 08:07:45 CEST 2018   EN: 2.200 GM2: 0.406  GM3: 0.0800  RAES: 1.40
     1s    -10.707211    1.230000
  6     Wed Apr 25 08:07:45 CEST 2018   EN: 2.550 GM2: 0.538  GM3: 0.1500  RAES: 3.00
     2s    -13.970922    2.096432
     2p    -10.063292    1.800000
  7     Wed Apr 25 08:07:45 CEST 2018   EN: 3.040 GM2: 0.461  GM3:-0.0640  RAES: 1.90
     2s    -16.686243    2.339881
     2p    -12.523956    2.014332
  8     Wed Apr 25 08:07:45 CEST 2018   EN: 3.440 GM2: 0.452  GM3:-0.0517  RAES: 1.80
     2s    -20.229985    2.439742
     2p    -15.503117    2.137023
 no old-style atom pair restraining (fixing) potential

molecular fragmentation (1/2 indicates fragments):
111111111111111111111111111122222222222222222222222222222222222222222222
222222222222222222222222222222222222222222222222222222222222222222222222
222222222222222222222222222222222222222222222222222222222222222222222222
222222222222222222222222222222222222222222222222222222222211222222
# atoms in fragment 1/2:    30   252
 fragment masses (1/2) :      217.22     1863.91
CMA distance (Bohr)    :  14.937
constraining FC (au)   :  0.0500
           ------------------------------------------------- 
          |        Self-Consistent Charge Iterations        |
           ------------------------------------------------- 

 Ncao       : 717
 Nao        : 717
 Nshell     : 427
 Nel        : 820
 T(el)      :   500.0
 intcut     :    35.0
 scfconv/Eh :  0.100E-06
   qconv/e  :  0.100E-04
 intneglect :  0.100E-08
 broydamp   :      0.400
 iter      E             dE          RMSdq      gap      omega  full diag
   1   -479.3455245 -0.479346E+03  0.515E+00    3.28       0.0  T
   2   -480.8042802 -0.145876E+01  0.233E+00    1.81       1.0  T
   3   -480.8816560 -0.773758E-01  0.136E+00    1.83       1.0  T
   4   -480.9519708 -0.703149E-01  0.272E-01    1.12       1.0  T
   5   -480.9582130 -0.624217E-02  0.126E-01    1.30       1.0  T
   6   -480.9587726 -0.559543E-03  0.562E-02    1.28       1.0  T
   7   -480.9589461 -0.173559E-03  0.187E-02    1.29       1.0  T
   8   -480.9589593 -0.132281E-04  0.925E-03    1.28       1.0  T
   9   -480.9589642 -0.490310E-05  0.316E-03    1.28       1.9  T
  10   -480.9589647 -0.497410E-06  0.137E-03    1.28       4.3  T
  11   -480.9589649 -0.114463E-06  0.495E-04    1.28      12.0  T
  12   -480.9589649 -0.935535E-08  0.230E-04    1.28      25.9  T
  13   -480.9589649 -0.245143E-08  0.957E-05    1.28      62.2  T
  14   -480.9589649 -0.489308E-09  0.380E-05    1.28     156.5  T
speedup  1.00
cpu  time for SCC    2.96 s
wall time for SCC    2.96 s

   *** convergence criteria satisfied after 14 iterations ***

          eigenvalues
 #    :         398        399        400        401        402        403        404        405
 occ. :        2.000      2.000      2.000      2.000      2.000      2.000      2.000      2.000
 eps  :       -10.805    -10.798    -10.762    -10.674    -10.617    -10.455    -10.375    -10.283
 #    :         406        407        408        409        410        411        412        413
 occ. :        2.000      2.000      2.000      2.000      2.000      0.000      0.000      0.000
 eps  :       -10.255    -10.133    -10.038    -10.021     -9.632     -8.355     -8.082     -8.028
 #    :         414        415        416        417        418        419        420        421
 occ. :        0.000      0.000      0.000      0.000      0.000      0.000      0.000      0.000
 eps  :        -7.927     -6.925     -6.917     -6.718     -6.594     -6.534     -6.506     -6.442


   #   Z            q   n(s)   n(p)   n(d)      C6AA      α(0)
   1   7 N     -0.420  1.280  4.140  0.000    30.927     8.259
   2   6 C      0.011  1.040  2.950  0.000    20.407     6.433
   3   6 C      0.243  1.060  2.697  0.000    22.929     7.842
   4   8 O     -0.520  1.775  4.746  0.000    24.241     6.601
   5   6 C     -0.087  1.009  3.078  0.000    22.149     6.698
   6   6 C     -0.123  1.011  3.112  0.000    22.830     6.800
   7   6 C      0.288  1.031  2.681  0.000    22.121     7.701
   8   8 O     -0.529  1.770  4.759  0.000    24.437     6.628
   9   7 N     -0.301  1.198  4.103  0.000    27.758     7.825
  10   1 H      0.196  0.804  0.000  0.000     1.127     1.663
  11   1 H      0.077  0.923  0.000  0.000     2.014     2.219
  12   1 H      0.077  0.923  0.000  0.000     2.012     2.218
  13   1 H      0.057  0.943  0.000  0.000     2.235     2.338
  14   1 H      0.083  0.917  0.000  0.000     1.951     2.184
  15   1 H      0.087  0.913  0.000  0.000     1.904     2.158
  16   1 H      0.247  0.753  0.000  0.000     0.896     1.483
  17   1 H      0.233  0.767  0.000  0.000     0.951     1.528
  18   7 N     -0.165  1.199  3.966  0.000    24.570     7.362
  19   6 C      0.001  1.031  2.968  0.000    20.556     6.454
  20   6 C      0.195  1.079  2.726  0.000    23.832     7.995
  21   8 O     -0.344  1.762  4.582  0.000    20.595     6.084
  22   6 C      0.051  0.995  2.953  0.000    19.877     6.377
  23   8 O     -0.484  1.678  4.806  0.000    22.544     6.410
  24   1 H      0.243  0.757  0.000  0.000     0.910     1.494
  25   1 H      0.101  0.899  0.000  0.000     1.772     2.082
  26   1 H      0.084  0.916  0.000  0.000     1.933     2.174
  27   1 H      0.084  0.916  0.000  0.000     1.936     2.176
  28   1 H      0.347  0.653  0.000  0.000     0.593     1.210
  29   7 N     -0.402  1.282  4.120  0.000    30.438     8.194
  30   6 C      0.025  1.031  2.944  0.000    20.153     6.392
  31   6 C      0.269  1.041  2.690  0.000    22.460     7.761
  32   8 O     -0.501  1.754  4.746  0.000    23.800     6.541
  33   6 C     -0.120  1.012  3.108  0.000    22.782     6.792
  34   6 C      0.284  1.041  2.675  0.000    22.192     7.713
  35   8 O     -0.498  1.756  4.742  0.000    23.745     6.533
  36   7 N     -0.310  1.199  4.111  0.000    27.975     7.855
  37   1 H      0.178  0.822  0.000  0.000     1.226     1.734
  38   1 H      0.072  0.928  0.000  0.000     2.063     2.246
  39   1 H      0.081  0.919  0.000  0.000     1.964     2.191
  40   1 H      0.076  0.924  0.000  0.000     2.019     2.222
  41   1 H      0.234  0.766  0.000  0.000     0.948     1.525
  42   1 H      0.227  0.773  0.000  0.000     0.978     1.549
  43   7 N     -0.198  1.217  3.980  0.000    25.291     7.469
  44   6 C     -0.001  1.045  2.956  0.000    20.600     6.463
  45   6 C      0.274  1.039  2.687  0.000    22.359     7.743
  46   8 O     -0.485  1.749  4.736  0.000    23.465     6.495
  47   6 C      0.061  0.992  2.947  0.000    19.732     6.357
  48   8 O     -0.496  1.674  4.822  0.000    22.797     6.446
  49   1 H      0.240  0.760  0.000  0.000     0.923     1.505
  50   1 H      0.111  0.889  0.000  0.000     1.685     2.030
  51   1 H      0.068  0.932  0.000  0.000     2.105     2.269
  52   1 H      0.071  0.929  0.000  0.000     2.078     2.254
  53   1 H      0.362  0.638  0.000  0.000     0.559     1.174
  54   7 N     -0.182  1.198  3.983  0.000    24.939     7.417
  55   6 C      0.005  1.043  2.953  0.000    20.495     6.445
  56   6 C      0.282  1.034  2.685  0.000    22.230     7.721
  57   8 O     -0.504  1.742  4.762  0.000    23.879     6.552
  58   6 C      0.104  1.027  2.869  0.000    18.955     6.214
  59   8 O     -0.510  1.691  4.819  0.000    23.104     6.489
  60   6 C     -0.175  0.985  3.190  0.000    23.959     6.976
  61   1 H      0.219  0.781  0.000  0.000     1.012     1.576
  62   1 H      0.103  0.897  0.000  0.000     1.758     2.073
  63   1 H      0.056  0.944  0.000  0.000     2.240     2.340
  64   1 H      0.345  0.655  0.000  0.000     0.599     1.215
  65   1 H      0.086  0.914  0.000  0.000     1.918     2.165
  66   1 H      0.080  0.920  0.000  0.000     1.978     2.199
  67   1 H      0.080  0.920  0.000  0.000     1.976     2.198
  68   7 N     -0.184  1.209  3.975  0.000    24.977     7.423
  69   6 C      0.034  1.024  2.943  0.000    20.004     6.367
  70   6 C      0.278  1.037  2.685  0.000    22.294     7.733
  71   8 O     -0.482  1.731  4.751  0.000    23.395     6.485
  72   6 C     -0.115  1.010  3.105  0.000    22.681     6.777
  73   6 C      0.286  1.034  2.680  0.000    22.157     7.707
  74   8 O     -0.502  1.757  4.745  0.000    23.832     6.545
  75   7 N     -0.275  1.186  4.089  0.000    27.113     7.733
  76   1 H      0.234  0.766  0.000  0.000     0.948     1.525
  77   1 H      0.078  0.922  0.000  0.000     2.001     2.212
  78   1 H      0.098  0.902  0.000  0.000     1.800     2.098
  79   1 H      0.076  0.924  0.000  0.000     2.017     2.221
  80   1 H      0.241  0.759  0.000  0.000     0.921     1.503
  81   1 H      0.227  0.773  0.000  0.000     0.978     1.549
  82   7 N     -0.173  1.203  3.970  0.000    24.750     7.389
  83   6 C      0.005  1.038  2.956  0.000    20.487     6.444
  84   6 C      0.278  1.038  2.684  0.000    22.289     7.731
  85   8 O     -0.494  1.746  4.748  0.000    23.658     6.521
  86   6 C      0.055  0.999  2.947  0.000    19.842     6.375
  87   8 O     -0.500  1.689  4.811  0.000    22.889     6.459
  88   1 H      0.217  0.783  0.000  0.000     1.021     1.583
  89   1 H      0.100  0.900  0.000  0.000     1.782     2.087
  90   1 H      0.074  0.926  0.000  0.000     2.043     2.235
  91   1 H      0.087  0.913  0.000  0.000     1.912     2.162
  92   1 H      0.337  0.663  0.000  0.000     0.618     1.234
  93   7 N     -0.198  1.213  3.985  0.000    25.299     7.470
  94   6 C      0.009  1.047  2.944  0.000    20.432     6.437
  95   6 C      0.284  1.040  2.676  0.000    22.191     7.714
  96   8 O     -0.483  1.753  4.730  0.000    23.420     6.488
  97   6 C     -0.097  1.011  3.086  0.000    22.338     6.727
  98   6 C     -0.122  1.010  3.111  0.000    22.811     6.797
  99   6 C      0.289  1.031  2.680  0.000    22.099     7.697
 100   8 O     -0.494  1.752  4.741  0.000    23.642     6.519
 101   7 N     -0.295  1.194  4.101  0.000    27.601     7.803
 102   1 H      0.232  0.768  0.000  0.000     0.956     1.532
 103   1 H      0.097  0.903  0.000  0.000     1.813     2.106
 104   1 H      0.078  0.922  0.000  0.000     1.999     2.211
 105   1 H      0.083  0.917  0.000  0.000     1.949     2.183
 106   1 H      0.085  0.915  0.000  0.000     1.932     2.174
 107   1 H      0.089  0.911  0.000  0.000     1.892     2.151
 108   1 H      0.223  0.777  0.000  0.000     0.994     1.561
 109   1 H      0.246  0.754  0.000  0.000     0.898     1.484
 110   7 N     -0.187  1.203  3.984  0.000    25.050     7.433
 111   6 C      0.012  1.037  2.951  0.000    20.367     6.426
 112   6 C      0.284  1.038  2.678  0.000    22.186     7.713
 113   8 O     -0.507  1.745  4.762  0.000    23.931     6.559
 114   6 C      0.049  1.000  2.951  0.000    19.932     6.389
 115   8 O     -0.508  1.689  4.819  0.000    23.060     6.483
 116   1 H      0.226  0.774  0.000  0.000     0.982     1.552
 117   1 H      0.103  0.897  0.000  0.000     1.753     2.070
 118   1 H      0.074  0.926  0.000  0.000     2.041     2.234
 119   1 H      0.088  0.912  0.000  0.000     1.901     2.156
 120   1 H      0.359  0.641  0.000  0.000     0.567     1.182
 121   7 N     -0.186  1.216  3.970  0.000    25.029     7.430
 122   6 C      0.032  1.035  2.933  0.000    20.041     6.374
 123   6 C      0.274  1.042  2.684  0.000    22.365     7.744
 124   8 O     -0.514  1.737  4.778  0.000    24.102     6.582
 125   6 C     -0.118  1.019  3.099  0.000    22.750     6.789
 126   6 C      0.370  1.022  2.608  0.000    20.723     7.450
 127   8 O     -0.644  1.770  4.875  0.000    27.238     6.997
 128   8 O     -0.631  1.770  4.861  0.000    26.891     6.952
 129   1 H      0.225  0.775  0.000  0.000     0.989     1.557
 130   1 H      0.080  0.920  0.000  0.000     1.976     2.198
 131   1 H      0.059  0.941  0.000  0.000     2.213     2.326
 132   1 H      0.051  0.949  0.000  0.000     2.307     2.375
 133   7 N     -0.195  1.219  3.976  0.000    25.227     7.460
 134   6 C      0.023  1.039  2.938  0.000    20.186     6.397
 135   6 C      0.272  1.044  2.684  0.000    22.407     7.752
 136   8 O     -0.509  1.737  4.772  0.000    23.983     6.566
 137   6 C     -0.101  1.011  3.090  0.000    22.411     6.737
 138   6 C     -0.026  1.035  2.991  0.000    21.007     6.519
 139   6 C     -0.151  0.979  3.172  0.000    23.456     6.902
 140   6 C     -0.159  0.978  3.182  0.000    23.609     6.923
 141   1 H      0.227  0.773  0.000  0.000     0.979     1.550
 142   1 H      0.094  0.906  0.000  0.000     1.840     2.121
 143   1 H      0.066  0.934  0.000  0.000     2.126     2.280
 144   1 H      0.071  0.929  0.000  0.000     2.076     2.253
 145   1 H      0.042  0.958  0.000  0.000     2.415     2.430
 146   1 H      0.070  0.930  0.000  0.000     2.086     2.259
 147   1 H      0.040  0.960  0.000  0.000     2.452     2.448
 148   1 H      0.066  0.934  0.000  0.000     2.128     2.281
 149   1 H      0.067  0.933  0.000  0.000     2.113     2.273
 150   1 H      0.073  0.927  0.000  0.000     2.054     2.241
 151   1 H      0.044  0.956  0.000  0.000     2.399     2.422
 152   7 N     -0.191  1.216  3.975  0.000    25.141     7.447
 153   6 C      0.037  1.030  2.932  0.000    19.941     6.357
 154   6 C      0.273  1.040  2.687  0.000    22.388     7.748
 155   8 O     -0.495  1.741  4.754  0.000    23.664     6.522
 156   6 C     -0.124  1.021  3.103  0.000    22.862     6.806
 157   6 C      0.373  1.018  2.609  0.000    20.683     7.443
 158   8 O     -0.611  1.748  4.864  0.000    26.401     6.889
 159   8 O     -0.649  1.771  4.879  0.000    27.367     7.014
 160   1 H      0.226  0.774  0.000  0.000     0.983     1.553
 161   1 H      0.076  0.924  0.000  0.000     2.023     2.224
 162   1 H      0.052  0.948  0.000  0.000     2.300     2.372
 163   1 H      0.056  0.944  0.000  0.000     2.242     2.341
 164   7 N     -0.194  1.212  3.982  0.000    25.208     7.457
 165   6 C      0.012  1.044  2.943  0.000    20.376     6.428
 166   6 C      0.279  1.043  2.678  0.000    22.272     7.728
 167   8 O     -0.493  1.756  4.737  0.000    23.630     6.517
 168   6 C      0.056  0.998  2.946  0.000    19.825     6.374
 169   8 O     -0.503  1.685  4.818  0.000    22.951     6.467
 170   1 H      0.218  0.782  0.000  0.000     1.017     1.579
 171   1 H      0.100  0.900  0.000  0.000     1.788     2.091
 172   1 H      0.060  0.940  0.000  0.000     2.193     2.316
 173   1 H      0.060  0.940  0.000  0.000     2.194     2.316
 174   1 H      0.359  0.641  0.000  0.000     0.567     1.183
 175   7 N     -0.190  1.209  3.981  0.000    25.130     7.445
 176   6 C      0.008  1.047  2.945  0.000    20.440     6.437
 177   6 C      0.283  1.042  2.675  0.000    22.202     7.716
 178   8 O     -0.480  1.746  4.734  0.000    23.343     6.478
 179   6 C     -0.044  1.041  3.003  0.000    21.329     6.568
 180   6 C     -0.097  1.008  3.089  0.000    22.340     6.727
 181   6 C     -0.159  0.977  3.182  0.000    23.605     6.923
 182   6 C     -0.149  0.976  3.173  0.000    23.425     6.899
 183   1 H      0.223  0.777  0.000  0.000     0.995     1.562
 184   1 H      0.094  0.906  0.000  0.000     1.844     2.123
 185   1 H      0.063  0.937  0.000  0.000     2.169     2.303
 186   1 H      0.061  0.939  0.000  0.000     2.182     2.310
 187   1 H      0.044  0.956  0.000  0.000     2.396     2.420
 188   1 H      0.085  0.915  0.000  0.000     1.931     2.173
 189   1 H      0.057  0.943  0.000  0.000     2.228     2.334
 190   1 H      0.074  0.926  0.000  0.000     2.044     2.236
 191   1 H      0.047  0.953  0.000  0.000     2.362     2.403
 192   1 H      0.045  0.955  0.000  0.000     2.376     2.410
 193   1 H      0.075  0.925  0.000  0.000     2.026     2.226
 194   7 N     -0.193  1.209  3.985  0.000    25.193     7.455
 195   6 C      0.025  1.034  2.941  0.000    20.157     6.393
 196   6 C      0.206  1.088  2.705  0.000    23.621     7.960
 197   8 O     -0.365  1.752  4.613  0.000    20.991     6.143
 198   6 C     -0.081  1.010  3.071  0.000    22.037     6.681
 199   6 C     -0.121  1.012  3.109  0.000    22.799     6.796
 200   6 C      0.282  1.036  2.682  0.000    22.226     7.719
 201   8 O     -0.492  1.746  4.746  0.000    23.609     6.515
 202   7 N     -0.296  1.199  4.097  0.000    27.623     7.806
 203   1 H      0.220  0.780  0.000  0.000     1.008     1.572
 204   1 H      0.107  0.893  0.000  0.000     1.721     2.051
 205   1 H      0.087  0.913  0.000  0.000     1.907     2.160
 206   1 H      0.069  0.931  0.000  0.000     2.091     2.261
 207   1 H      0.086  0.914  0.000  0.000     1.922     2.168
 208   1 H      0.072  0.928  0.000  0.000     2.058     2.243
 209   1 H      0.234  0.766  0.000  0.000     0.948     1.525
 210   1 H      0.250  0.750  0.000  0.000     0.882     1.471
 211   7 N     -0.418  1.286  4.133  0.000    30.891     8.255
 212   6 C      0.007  1.046  2.946  0.000    20.466     6.443
 213   6 C      0.270  1.052  2.678  0.000    22.434     7.756
 214   8 O     -0.501  1.745  4.756  0.000    23.810     6.542
 215   6 C     -0.035  1.043  2.992  0.000    21.160     6.542
 216   6 C     -0.156  0.980  3.176  0.000    23.551     6.916
 217   6 C     -0.144  0.973  3.171  0.000    23.317     6.881
 218   1 H      0.175  0.825  0.000  0.000     1.243     1.746
 219   1 H      0.079  0.921  0.000  0.000     1.992     2.207
 220   1 H      0.055  0.945  0.000  0.000     2.253     2.347
 221   1 H      0.069  0.931  0.000  0.000     2.095     2.263
 222   1 H      0.057  0.943  0.000  0.000     2.236     2.338
 223   1 H      0.055  0.945  0.000  0.000     2.256     2.349
 224   1 H      0.059  0.941  0.000  0.000     2.213     2.326
 225   1 H      0.054  0.946  0.000  0.000     2.274     2.358
 226   1 H      0.033  0.967  0.000  0.000     2.548     2.496
 227   7 N     -0.184  1.201  3.983  0.000    24.995     7.425
 228   6 C      0.015  1.032  2.953  0.000    20.321     6.418
 229   6 C      0.264  1.045  2.691  0.000    22.544     7.775
 230   8 O     -0.476  1.752  4.724  0.000    23.263     6.467
 231   6 C     -0.087  1.007  3.079  0.000    22.135     6.695
 232   6 C     -0.114  1.007  3.106  0.000    22.657     6.774
 233   6 C      0.286  1.035  2.679  0.000    22.152     7.706
 234   8 O     -0.509  1.747  4.762  0.000    23.983     6.566
 235   7 N     -0.288  1.195  4.093  0.000    27.426     7.778
 236   1 H      0.221  0.779  0.000  0.000     1.006     1.571
 237   1 H      0.078  0.922  0.000  0.000     2.002     2.212
 238   1 H      0.082  0.918  0.000  0.000     1.961     2.190
 239   1 H      0.067  0.933  0.000  0.000     2.115     2.274
 240   1 H      0.056  0.944  0.000  0.000     2.248     2.345
 241   1 H      0.092  0.908  0.000  0.000     1.860     2.132
 242   1 H      0.215  0.785  0.000  0.000     1.031     1.591
 243   1 H      0.239  0.761  0.000  0.000     0.927     1.508
 244   7 N     -0.180  1.203  3.977  0.000    24.901     7.411
 245   6 C      0.009  1.041  2.949  0.000    20.431     6.437
 246   6 C      0.192  1.092  2.716  0.000    23.890     8.005
 247   8 O     -0.359  1.761  4.598  0.000    20.879     6.126
 248   6 C     -0.081  1.003  3.078  0.000    22.023     6.679
 249   6 C     -0.118  1.006  3.113  0.000    22.748     6.787
 250   6 C      0.280  1.039  2.681  0.000    22.257     7.725
 251   8 O     -0.515  1.765  4.751  0.000    24.122     6.585
 252   7 N     -0.300  1.197  4.103  0.000    27.724     7.820
 253   1 H      0.212  0.788  0.000  0.000     1.049     1.604
 254   1 H      0.117  0.883  0.000  0.000     1.636     2.000
 255   1 H      0.069  0.931  0.000  0.000     2.101     2.267
 256   1 H      0.095  0.905  0.000  0.000     1.826     2.113
 257   1 H      0.108  0.892  0.000  0.000     1.717     2.049
 258   1 H      0.081  0.919  0.000  0.000     1.971     2.195
 259   1 H      0.235  0.765  0.000  0.000     0.945     1.522
 260   1 H      0.237  0.763  0.000  0.000     0.935     1.515
 261   7 N     -0.407  1.281  4.126  0.000    30.572     8.212
 262   6 C      0.024  1.046  2.930  0.000    20.192     6.401
 263   6 C      0.196  1.096  2.708  0.000    23.818     7.992
 264   8 O     -0.363  1.758  4.605  0.000    20.955     6.137
 265   6 C     -0.124  1.016  3.107  0.000    22.853     6.804
 266   6 C      0.284  1.038  2.679  0.000    22.196     7.714
 267   8 O     -0.521  1.764  4.757  0.000    24.244     6.602
 268   7 N     -0.301  1.200  4.101  0.000    27.745     7.823
 269   1 H      0.184  0.816  0.000  0.000     1.189     1.708
 270   1 H      0.105  0.895  0.000  0.000     1.736     2.061
 271   1 H      0.080  0.920  0.000  0.000     1.975     2.198
 272   1 H      0.090  0.910  0.000  0.000     1.882     2.145
 273   1 H      0.236  0.764  0.000  0.000     0.940     1.519
 274   1 H      0.245  0.755  0.000  0.000     0.903     1.489
 275   1 H      0.191  0.809  0.000  0.000     1.154     1.683
 276   1 H      0.094  0.906  0.000  0.000     1.838     2.120
 277   1 H      0.190  0.810  0.000  0.000     1.160     1.687
 278   1 H      0.070  0.930  0.000  0.000     2.085     2.258
 279   1 H      0.189  0.811  0.000  0.000     1.166     1.691
 280   1 H      0.105  0.895  0.000  0.000     1.738     2.061
 281   1 H      0.181  0.819  0.000  0.000     1.210     1.723
 282   1 H      0.090  0.910  0.000  0.000     1.875     2.141

 Mol. C6AA /au·bohr⁶  :     756371.253264
 Mol. C8AA /au·bohr⁸  :   16753512.238338
 Mol. α(0) /au        :       1289.347098

 
molecular dipole:
                 x           y           z       tot (Debye)
 q only:     -626.057    -288.409    -355.557
   full:     -625.596    -285.929    -355.790    1968.397
molecular quadrupole (traceless):
                xx          xy          yy          xz          yz          zz
 q only:  -143382.298 -135259.128   87909.612 -166951.699  -76779.927   55472.686
  q+dip:  -143367.845 -134017.026   88488.938 -166911.821  -76176.495   54878.907
   full:  -143369.141 -134017.775   88489.138 -166910.804  -76176.545   54880.003
speedup  1.00
cpu  time for grad    3.86 s
wall time for grad    3.86 s

SCC energy    :    -480.9625545
rep           :       9.2464020
ES            :       1.9320867
AES           :      -0.0371547
AXC           :       0.0237215
disp          :      -0.3657188
XB            :       0.0000000
fix           :       0.0000000
Gborn         :       0.0000000
Gsasa         :       0.0000000
Ghb           :       0.0000000
Gshift        :       0.0000000
Gsolv         :      -0.4832532     -303.25
Etot ala COSMO:    -480.9625545
grad norm     :       2.2485330
total E       :    -471.6838491
atomizationE  :      78.6608767    49360.45
(atE without considering molecular charge,
 total energy contains solvation terms)
H-L gap (eV)  :          1.2772

------------------------------------------------------------------------
 * finished run on 2019/03/07 at 11:37:50.233     
------------------------------------------------------------------------
 total:
 * wall-time:     0 d,  0 h,  0 min,  4.494 sec
 *  cpu-time:     0 d,  0 h,  0 min,  4.297 sec
 * ratio c/w:     0.956 speedup
 SCF:
 * wall-time:     0 d,  0 h,  0 min,  4.215 sec
 *  cpu-time:     0 d,  0 h,  0 min,  4.214 sec
 * ratio c/w:     1.000 speedup

