      -----------------------------------------------------------      
     |                   =====================                   |     
     |                           x T B                           |     
     |                   =====================                   |     
     |                         S. Grimme                         |     
     |          Mulliken Center for Theoretical Chemistry        |     
     |                    University of Bonn                     |     
     |                Version 6.1 RC1 (SAW190329)                |     
      -----------------------------------------------------------      

   This program is distributed in the hope that it will be useful,
   but WITHOUT ANY WARRANTY; without even the implied warranty of
   MERCHANTABILITY or FITNESS FOR A PARTICULAR PURPOSE.
   
   FOR NON-COMMERCIAL, ACADEMIA USE ONLY.
   
   Cite this work as:
   S. Grimme, C. Bannwarth, P. Shushkov, J. Comput. Theory Chem., 2017,
   13, 1989-2009. DOI: 10.1021/acs.jctc.7b00118
   C. Bannwarth, S. Ehlert and S. Grimme., J. Comput. Theory Chem., 2019,
   just accepted. DOI: 10.1021/acs.jctc.8b01176
   
   for sTDA-xTB:
   S. Grimme and C. Bannwarth, J. Chem. Phys., 2016, 145, 054103.
   DOI: 10.1063/1.4959605
   
   in the mass-spec context:
   V. Asgeirsson, C. Bauer and S. Grimme, Chem. Sci., 2017, 8, 4879.
   DOI: 10.1039/c7sc00601b
   
   for metadynamics refer to:
   S. Grimme, ChemRxiv, Preprint. DOI: 10.26434/chemrxiv.7660532.v1
   
   with help from (in alphabetical order)
   C. Bannwarth, F. Bohle, G. Brandenburg, E. Caldeweyher, M. Checinski,
   S. Dohm, S. Ehlert, S. Ehrlich, F. März, H. Neugebauer, J. Pisarek,
   P. Pracht, P. Shushkov, and S. Spicher.
   
 * started run on 2019/05/31 at 07:36:38.655     

           -------------------------------------------------
          |                Calculation Setup                |
           -------------------------------------------------

          program call               : /home/lum/install/xtb/xtb-190329/bin/xtb xtb_tmp.xyz --chrg 0 --grad --gfn 2 --etemp 500 --acc 0.1 --gbsa h2o --parallel 1
          hostname                   : cu05
          coordinate file            : xtb_tmp.xyz
          omp threads                :                     1
          number of atoms            :                   416
          number of electrons        :                  1090
          charge                     :                     0
          spin                       :                   0.0
          first test random number   :      0.78950085728782


molecular fragmentation (1/2 indicates fragments):
111111111111111111111111222222222222222222222222222222222222222222222222
222222222222222222222222222222222222222222222222222222222222222222222222
222222222222222222222222222222222222222222222222222222222222222222222222
222222222222222222222222222222222222222222222222222222222222222222222222
222222222222222222222222222222222222222222222222222222222222222222222222
22222222222222222222222222222222222222221122222222222222
# atoms in fragment 1/2:    26   390
 fragment masses (1/2) :      188.23     2554.19
CMA distance (Bohr)    :  14.155
constraining FC (au)   :  0.0500

########################################################################
# WARNING! Please study the warnings concerning your input carefully
#  - XTBPATH is not set, using XTBHOME instead
########################################################################

           ------------------------------------------------- 
          |                 G F N 2 - x T B                 |
          | Geometry, Frequencies, Noncovalent interactions |
          |            JCTC 2018 parametrisation            |
           ------------------------------------------------- 
 
             k(s)              :                1.8500
             k(p)              :                2.2300
             k(d)              :                2.2300
             k(f)              :                2.0000
             kEN (H0ij)        :               -2.0000
             D4 a1             :                0.5200
             D4 a2             :                5.0000
             D4 s6             :                1.0000
             D4 s8             :                2.7000
             D4 s9             :                5.0000
             alphaj            :                2.0000

  Z AO/shell   Hii/eV     exponent
  1     Wed Apr 25 08:07:45 CEST 2018   EN: 2.200 GM2: 0.406  GM3: 0.0800  RAES: 1.40
     1s    -10.707211    1.230000
  6     Wed Apr 25 08:07:45 CEST 2018   EN: 2.550 GM2: 0.538  GM3: 0.1500  RAES: 3.00
     2s    -13.970922    2.096432
     2p    -10.063292    1.800000
  7     Wed Apr 25 08:07:45 CEST 2018   EN: 3.040 GM2: 0.461  GM3:-0.0640  RAES: 1.90
     2s    -16.686243    2.339881
     2p    -12.523956    2.014332
  8     Wed Apr 25 08:07:45 CEST 2018   EN: 3.440 GM2: 0.452  GM3:-0.0517  RAES: 1.80
     2s    -20.229985    2.439742
     2p    -15.503117    2.137023

 Solvent             : h2o
 Using internal parameter file: .param_gbsa2_h2o
 Gsolv ref. state (COSMO-RS): gsolv [1 M gas/solution]
 temperature (mdtemp)       :    298.150000000000     
 dielectric constant        :    80.2000000000000     
 rho                        :    1.00000000000000     
 mass                       :    18.0000000000000     
 surface tension            :    15.5689454083859     
 probe radius               :   0.975313790000000     
 vdW radii scaling          :    1.00000000000000     
 Gshift (Eh)                :   1.857443126794793E-003
 c1                         :    1.55243817000000     
 soset                      :   0.130326360000000     
 HB correction              :  T
 Number of grid points      :          230

            Z     q(EN)     CN     RAES       Cart. coordinates
     1  N   5.0   -0.72    3.00    1.93    43.82518    68.85260    51.19803
     2  C   4.0    0.06    3.98    3.59    43.64154    69.85725    53.74281
     3  C   4.0    0.08    3.00    3.02    43.05324    72.67905    53.69057
     4  O   6.0   -0.49    1.00    1.80    41.40686    73.61760    55.06025
     5  C   4.0   -0.13    3.99    3.60    46.13058    69.34889    55.14482
     6  C   4.0   -0.02    3.12    3.03    46.00415    69.99983    57.88713
     7  C   4.0    0.02    3.23    3.04    45.25141    68.42067    59.79010
     8  C   4.0    0.03    3.18    3.03    46.68033    72.33421    59.06024
     9  N   5.0   -0.47    3.10    1.94    45.44347    69.59946    62.07230
    10  C   4.0    0.13    3.23    3.04    46.31382    71.99433    61.69615
    11  C   4.0   -0.10    3.02    3.02    47.58613    74.64992    58.17403
    12  C   4.0   -0.09    3.02    3.02    46.86294    73.89910    63.42189
    13  C   4.0   -0.11    3.03    3.02    48.12762    76.52604    59.89435
    14  C   4.0   -0.11    3.03    3.02    47.78299    76.15185    62.49092
    15  H   1.0    0.25    1.00    1.43    45.46545    68.01188    50.67242
    16  H   1.0    0.13    0.99    1.43    42.06372    68.92428    54.71430
    17  H   1.0    0.11    0.99    1.43    46.55663    67.34014    54.94084
    18  H   1.0    0.11    0.99    1.43    47.61389    70.43976    54.22019
    19  H   1.0    0.12    1.00    1.43    44.61101    66.50409    59.65149
    20  H   1.0    0.28    1.00    1.43    44.91548    68.85357    63.75525
    21  H   1.0    0.11    1.00    1.43    47.87324    74.95635    56.17677
    22  H   1.0    0.13    1.00    1.43    46.61710    73.61211    65.42566
    23  H   1.0    0.11    0.99    1.43    48.85114    78.32733    59.25347
    24  H   1.0    0.11    0.99    1.43    48.25764    77.66611    63.77868
    25  N   5.0   -0.69    3.00    1.93    36.20440    74.01377    52.31931
    26  C   4.0    0.07    3.98    3.58    34.66300    73.78408    54.56243
    27  C   4.0    0.27    3.01    3.02    34.93166    76.16135    56.20519
    28  O   6.0   -0.47    1.00    1.80    33.06662    77.23256    57.06907
    29  C   4.0   -0.01    3.98    3.58    35.28301    71.40707    56.15911
    30  O   6.0   -0.50    1.99    1.82    37.62590    70.29992    55.72533
    31  H   1.0    0.29    1.00    1.43    37.40507    72.59353    51.84194
    32  H   1.0    0.09    0.99    1.43    32.66298    73.70616    54.00235
    33  H   1.0    0.12    0.99    1.43    35.08139    71.94275    58.16278
    34  H   1.0    0.12    0.99    1.43    33.89793    69.93803    55.72448
    35  H   1.0    0.32    0.99    1.43    38.97168    71.57802    55.74819
    36  N   5.0   -0.48    3.01    1.93    37.30026    76.84232    56.73095
    37  C   4.0    0.06    3.99    3.60    37.86743    78.97620    58.36373
    38  C   4.0    0.09    3.00    3.02    36.41739    81.30360    57.44910
    39  O   6.0   -0.42    1.00    1.80    35.14141    82.60417    58.88785
    40  C   4.0   -0.14    3.99    3.60    40.70759    79.51801    58.32900
    41  C   4.0   -0.10    3.98    3.58    41.44658    81.72242    60.08193
    42  C   4.0   -0.23    3.98    3.59    42.39992    80.73979    62.62168
    43  C   4.0   -0.23    3.98    3.59    43.44985    83.38561    58.83542
    44  H   1.0    0.29    1.00    1.43    38.79525    75.87266    56.01907
    45  H   1.0    0.13    0.99    1.43    37.21881    78.56392    60.29157
    46  H   1.0    0.12    0.99    1.43    41.71701    77.80802    58.88927
    47  H   1.0    0.11    0.99    1.43    41.23601    79.96512    56.38721
    48  H   1.0    0.13    0.99    1.43    39.76976    82.88761    60.41889
    49  H   1.0    0.10    0.99    1.43    42.85383    82.30460    63.87194
    50  H   1.0    0.11    0.99    1.43    40.98175    79.56832    63.53551
    51  H   1.0    0.11    0.99    1.43    44.09832    79.61643    62.34720
    52  H   1.0    0.10    0.99    1.43    43.90292    84.97943    60.04768
    53  H   1.0    0.10    0.99    1.43    45.18166    82.32587    58.51938
    54  H   1.0    0.10    0.99    1.43    42.77281    84.11394    57.03577
    55  N   5.0   -0.68    3.00    1.93    31.56027    81.97632    53.59548
    56  C   4.0    0.07    3.98    3.59    28.84361    81.82722    53.88812
    57  C   4.0    0.29    3.01    3.02    28.08455    82.46761    56.60596
    58  O   6.0   -0.46    1.00    1.80    26.35771    83.94602    57.07099
    59  C   4.0   -0.14    3.99    3.60    27.89334    79.20188    53.16152
    60  C   4.0   -0.11    3.98    3.58    28.13857    78.61668    50.33076
    61  C   4.0   -0.24    3.98    3.59    27.58130    75.81804    49.89856
    62  C   4.0   -0.23    3.98    3.59    26.36115    80.23209    48.73283
    63  H   1.0    0.26    1.00    1.43    32.49728    80.45970    52.88980
    64  H   1.0    0.11    0.99    1.43    27.96272    83.27770    52.69639
    65  H   1.0    0.12    0.99    1.43    28.98796    77.82307    54.23651
    66  H   1.0    0.10    0.99    1.43    25.91430    79.04498    53.72122
    67  H   1.0    0.11    0.99    1.43    30.08867    78.98324    49.74982
    68  H   1.0    0.09    0.99    1.43    27.70688    75.37165    47.89803
    69  H   1.0    0.09    0.99    1.43    28.93577    74.65039    50.91219
    70  H   1.0    0.09    0.99    1.43    25.68854    75.35457    50.54995
    71  H   1.0    0.10    0.99    1.43    26.53467    79.72078    46.75047
    72  H   1.0    0.10    0.99    1.43    24.41168    79.93602    49.31192
    73  H   1.0    0.10    0.99    1.43    26.79490    82.23124    48.91396
    74  N   5.0   -0.47    3.01    1.93    29.36945    81.24143    58.38934
    75  C   4.0    0.06    3.99    3.60    28.81954    81.60769    61.04762
    76  C   4.0    0.10    3.00    3.02    29.04159    84.40546    61.74719
    77  O   6.0   -0.42    1.00    1.80    27.43235    85.48720    63.01666
    78  C   4.0   -0.21    3.99    3.60    30.63959    80.05020    62.64067
    79  H   1.0    0.30    1.00    1.43    30.76434    80.01139    57.92616
    80  H   1.0    0.12    0.99    1.43    26.85429    81.04489    61.41073
    81  H   1.0    0.10    0.99    1.43    30.16969    80.23759    64.62950
    82  H   1.0    0.10    0.99    1.43    30.50237    78.07798    62.08510
    83  H   1.0    0.14    0.99    1.43    32.56504    80.69075    62.31816
    84  N   5.0   -0.69    3.00    1.93    23.58352    88.22952    59.66978
    85  C   4.0    0.08    3.98    3.59    21.41801    87.84429    61.31003
    86  C   4.0    0.08    3.00    3.02    21.68642    89.53780    63.64380
    87  O   6.0   -0.41    1.00    1.80    20.00786    90.97947    64.33491
    88  C   4.0   -0.08    3.98    3.58    21.16516    85.04921    62.04855
    89  C   4.0   -0.23    3.98    3.59    19.09862    84.72273    64.03736
    90  C   4.0   -0.23    3.98    3.59    20.57074    83.44474    59.72340
    91  H   1.0    0.32    1.00    1.43    24.57530    86.70464    59.07187
    92  H   1.0    0.12    0.99    1.43    19.69857    88.46987    60.32332
    93  H   1.0    0.14    0.99    1.43    22.98027    84.44815    62.83772
    94  H   1.0    0.09    0.99    1.43    18.89112    82.73612    64.51242
    95  H   1.0    0.12    0.99    1.43    19.54443    85.76878    65.74726
    96  H   1.0    0.11    0.99    1.43    17.30056    85.40807    63.31606
    97  H   1.0    0.09    0.99    1.43    20.33501    81.47995    60.27369
    98  H   1.0    0.10    0.99    1.43    18.82878    84.08014    58.83762
    99  H   1.0    0.13    0.99    1.43    22.08502    83.54651    58.34057
   100  N   5.0   -0.72    3.00    1.93    29.42224    75.32830    76.82179
   101  C   4.0    0.06    3.98    3.59    28.39243    72.79410    76.60251
   102  C   4.0    0.28    3.01    3.02    27.61410    72.26606    73.86175
   103  O   6.0   -0.48    1.00    1.80    28.23559    70.31063    72.77562
   104  C   4.0   -0.22    3.98    3.59    26.14073    72.50097    78.36772
   105  H   1.0    0.25    1.00    1.43    28.64068    76.50680    78.12566
   106  H   1.0    0.10    0.99    1.43    29.87563    71.41903    77.06971
   107  H   1.0    0.09    0.99    1.43    25.35101    70.61546    78.18856
   108  H   1.0    0.10    0.99    1.43    26.74085    72.79970    80.30861
   109  H   1.0    0.10    0.99    1.43    24.70123    73.88370    77.88271
   110  N   5.0   -0.49    3.01    1.93    26.21015    74.05779    72.79445
   111  C   4.0    0.07    4.00    3.62    25.40188    73.87393    70.18517
   112  C   4.0    0.29    3.02    3.02    27.71311    73.39513    68.53226
   113  O   6.0   -0.47    1.00    1.80    27.77516    71.70577    66.94454
   114  C   4.0   -0.10    3.98    3.59    24.00883    76.28701    69.36595
   115  C   4.0   -0.23    3.98    3.59    23.60322    76.30959    66.50944
   116  C   4.0   -0.23    3.98    3.59    21.47639    76.49080    70.73174
   117  H   1.0    0.23    1.00    1.43    25.70896    75.61617    73.79673
   118  H   1.0    0.11    0.99    1.43    24.15920    72.22488    69.95496
   119  H   1.0    0.11    0.99    1.43    25.20566    77.89099    69.88437
   120  H   1.0    0.09    0.99    1.43    22.61076    78.02076    65.95951
   121  H   1.0    0.11    0.99    1.43    25.39711    76.24660    65.50986
   122  H   1.0    0.09    0.99    1.43    22.48945    74.68233    65.93174
   123  H   1.0    0.09    0.99    1.43    20.49184    78.18239    70.11174
   124  H   1.0    0.09    0.99    1.43    20.30189    74.86001    70.30567
   125  H   1.0    0.10    0.99    1.43    21.73451    76.59650    72.76457
   126  N   5.0   -0.49    3.01    1.93    29.64674    74.97137    68.91837
   127  C   4.0    0.07    4.00    3.62    31.87995    74.74770    67.36388
   128  C   4.0    0.32    3.01    3.02    32.89606    72.04353    67.45426
   129  O   6.0   -0.48    1.00    1.80    33.65342    71.02399    65.51221
   130  C   4.0   -0.03    3.98    3.58    33.95661    76.64894    68.12305
   131  O   6.0   -0.48    1.99    1.82    35.63662    75.75032    69.95338
   132  H   1.0    0.23    1.00    1.43    29.49505    76.45191    70.13463
   133  H   1.0    0.11    0.99    1.43    31.35937    75.09672    65.38365
   134  H   1.0    0.11    0.99    1.43    35.10507    77.06645    66.45928
   135  H   1.0    0.10    0.99    1.43    33.02432    78.39674    68.74529
   136  H   1.0    0.25    0.99    1.43    34.68712    75.42083    71.50856
   137  N   5.0   -0.46    3.01    1.93    32.98969    70.97400    69.72646
   138  C   4.0    0.08    4.00    3.62    33.90462    68.41702    70.08062
   139  C   4.0    0.29    3.01    3.02    32.34991    66.57969    68.48196
   140  O   6.0   -0.45    1.00    1.80    33.34567    65.06124    67.03526
   141  C   4.0   -0.10    3.98    3.59    33.77160    67.63442    72.86967
   142  C   4.0   -0.21    3.98    3.59    34.29826    64.80935    73.10417
   143  C   4.0   -0.21    3.98    3.59    35.66839    69.13395    74.44001
   144  H   1.0    0.26    1.00    1.43    32.31510    71.90679    71.25876
   145  H   1.0    0.14    0.99    1.43    35.86324    68.28504    69.40240
   146  H   1.0    0.13    0.99    1.43    31.85395    68.03001    73.53638
   147  H   1.0    0.11    0.99    1.43    34.47318    64.27398    75.07498
   148  H   1.0    0.11    0.99    1.43    32.81443    63.68857    72.22771
   149  H   1.0    0.13    0.99    1.43    36.07406    64.33746    72.18469
   150  H   1.0    0.11    0.99    1.43    35.50095    68.57448    76.40974
   151  H   1.0    0.12    0.99    1.43    37.57463    68.69873    73.80984
   152  H   1.0    0.11    0.99    1.43    35.32007    71.15057    74.26970
   153  N   5.0   -0.48    3.01    1.93    29.85918    66.73435    68.82223
   154  C   4.0    0.07    4.00    3.62    28.17099    65.04599    67.48060
   155  C   4.0    0.30    3.01    3.02    28.82945    65.10358    64.66866
   156  O   6.0   -0.48    1.00    1.80    29.11719    63.15864    63.43495
   157  C   4.0   -0.14    3.99    3.60    25.41393    65.81392    67.87028
   158  C   4.0   -0.10    3.98    3.58    24.41472    65.29799    70.54536
   159  C   4.0   -0.23    3.98    3.59    21.87609    66.63095    70.88541
   160  C   4.0   -0.24    3.98    3.59    24.09994    62.47187    71.03449
   161  H   1.0    0.29    1.00    1.43    29.10309    67.98503    70.06592
   162  H   1.0    0.11    0.99    1.43    28.49437    63.09882    68.11852
   163  H   1.0    0.13    0.99    1.43    25.26813    67.82812    67.45388
   164  H   1.0    0.10    0.99    1.43    24.25329    64.78643    66.50774
   165  H   1.0    0.13    0.99    1.43    25.75523    66.07285    71.91751
   166  H   1.0    0.09    0.99    1.43    21.11848    66.26172    72.75755
   167  H   1.0    0.10    0.99    1.43    22.08167    68.66208    70.65927
   168  H   1.0    0.09    0.99    1.43    20.52523    65.95412    69.49310
   169  H   1.0    0.09    0.99    1.43    23.37910    62.15053    72.93149
   170  H   1.0    0.10    0.99    1.43    22.76916    61.66322    69.69334
   171  H   1.0    0.09    0.99    1.43    25.88321    61.46771    70.84731
   172  N   5.0   -0.48    3.01    1.93    28.97741    67.41442    63.68373
   173  C   4.0    0.07    3.99    3.61    29.51312    67.84147    61.03683
   174  C   4.0    0.29    3.01    3.02    32.07447    66.71681    60.31572
   175  O   6.0   -0.48    1.00    1.80    32.29075    65.42601    58.39493
   176  C   4.0   -0.14    3.99    3.60    29.40296    70.66378    60.41458
   177  C   4.0   -0.11    3.98    3.58    26.78021    71.56949    59.57180
   178  C   4.0   -0.23    3.98    3.59    24.72808    70.90081    61.48568
   179  C   4.0   -0.23    3.98    3.59    26.85654    74.42637    59.16100
   180  H   1.0    0.30    1.00    1.43    28.70477    68.94535    64.80352
   181  H   1.0    0.11    0.99    1.43    28.11788    66.80631    59.89828
   182  H   1.0    0.14    0.99    1.43    30.00918    71.71341    62.08181
   183  H   1.0    0.10    0.99    1.43    30.74497    71.06535    58.90187
   184  H   1.0    0.10    0.99    1.43    26.33963    70.64899    57.77152
   185  H   1.0    0.09    0.99    1.43    22.95048    71.76933    60.93331
   186  H   1.0    0.10    0.99    1.43    24.44368    68.87050    61.59890
   187  H   1.0    0.13    0.99    1.43    25.25452    71.58617    63.34679
   188  H   1.0    0.09    0.99    1.43    25.14557    75.06803    58.22632
   189  H   1.0    0.10    0.99    1.43    27.00076    75.38948    60.96926
   190  H   1.0    0.11    0.99    1.43    28.46873    74.96339    58.00601
   191  N   5.0   -0.47    3.01    1.93    34.01237    67.23434    61.82370
   192  C   4.0    0.07    4.00    3.62    36.48393    66.15717    61.33402
   193  C   4.0    0.30    3.01    3.02    36.22509    63.31713    60.82529
   194  O   6.0   -0.46    1.00    1.80    37.34107    62.29168    59.07029
   195  C   4.0   -0.13    3.99    3.60    38.24504    66.53138    63.59349
   196  C   4.0   -0.11    3.98    3.59    39.08487    69.28096    63.93916
   197  C   4.0    0.27    3.00    3.02    40.70932    69.49846    66.29513
   198  O   6.0   -0.44    1.00    1.80    42.60560    68.20662    66.61031
   199  N   5.0   -0.65    3.00    1.93    39.94383    71.18230    68.02055
   200  H   1.0    0.31    1.00    1.43    33.78627    68.33438    63.37841
   201  H   1.0    0.13    0.99    1.43    37.28897    67.01756    59.62229
   202  H   1.0    0.15    0.99    1.43    37.25463    65.88033    65.28268
   203  H   1.0    0.13    0.99    1.43    39.90834    65.33969    63.33919
   204  H   1.0    0.12    0.99    1.43    40.21735    69.85810    62.31366
   205  H   1.0    0.14    0.99    1.43    37.44329    70.50739    64.08573
   206  H   1.0    0.29    1.00    1.43    38.44068    72.31919    67.76359
   207  H   1.0    0.28    1.00    1.43    40.98705    71.44178    69.59447
   208  N   5.0   -0.47    3.01    1.93    34.79257    62.07010    62.47797
   209  C   4.0    0.08    4.00    3.61    34.48526    59.35623    62.34405
   210  C   4.0    0.29    3.01    3.02    32.99946    58.59313    59.98564
   211  O   6.0   -0.46    1.00    1.80    33.64231    56.77745    58.68446
   212  C   4.0   -0.14    3.98    3.59    33.19678    58.37435    64.73218
   213  C   4.0   -0.12    3.98    3.58    34.97502    58.46967    67.01144
   214  C   4.0    0.30    2.99    3.02    37.12088    56.47532    66.78559
   215  O   6.0   -0.47    1.00    1.80    38.95928    57.02396    65.39252
   216  O   6.0   -0.45    1.00    1.80    36.86322    54.47685    67.98753
   217  H   1.0    0.30    1.00    1.43    33.97393    62.99594    63.94011
   218  H   1.0    0.15    0.99    1.43    36.36434    58.48652    62.18649
   219  H   1.0    0.13    0.99    1.43    31.51861    59.52737    65.08222
   220  H   1.0    0.11    0.99    1.43    32.59479    56.42433    64.41069
   221  H   1.0    0.13    0.99    1.43    35.80831    60.34860    67.17879
   222  H   1.0    0.10    0.99    1.43    33.91760    58.05328    68.73374
   223  N   5.0   -0.48    3.01    1.93    30.99402    60.01032    59.44699
   224  C   4.0    0.08    4.00    3.62    29.52733    59.56881    57.17503
   225  C   4.0    0.30    3.01    3.02    31.27629    59.62775    54.87400
   226  O   6.0   -0.48    1.00    1.80    31.09804    58.05416    53.17812
   227  C   4.0   -0.09    3.98    3.59    27.41896    61.54893    56.90545
   228  C   4.0   -0.23    3.98    3.59    26.22772    61.43544    54.27905
   229  C   4.0   -0.23    3.98    3.59    25.40335    61.14584    58.93011
   230  H   1.0    0.30    1.00    1.43    30.45225    61.40777    60.64486
   231  H   1.0    0.12    0.99    1.43    28.70423    57.66194    57.24225
   232  H   1.0    0.13    0.99    1.43    28.29957    63.40268    57.16298
   233  H   1.0    0.09    0.99    1.43    24.65731    62.75309    54.16648
   234  H   1.0    0.12    0.99    1.43    27.59276    61.92507    52.82351
   235  H   1.0    0.10    0.99    1.43    25.52817    59.54197    53.89514
   236  H   1.0    0.09    0.99    1.43    23.93197    62.56654    58.74235
   237  H   1.0    0.10    0.99    1.43    24.54756    59.29053    58.71794
   238  H   1.0    0.13    0.99    1.43    26.21465    61.28321    60.81059
   239  N   5.0   -0.48    3.01    1.93    32.91248    61.53808    54.82358
   240  C   4.0    0.08    4.00    3.62    34.61821    61.90697    52.72452
   241  C   4.0    0.28    3.01    3.02    36.62104    59.82874    52.61659
   242  O   6.0   -0.41    1.00    1.80    37.31005    58.99647    50.56344
   243  C   4.0   -0.12    3.99    3.60    35.80385    64.55688    52.79009
   244  C   4.0   -0.03    3.03    3.02    34.12477    66.38562    51.40769
   245  C   4.0   -0.09    3.03    3.02    31.87772    67.21901    52.48478
   246  C   4.0   -0.10    3.03    3.02    34.72174    67.14287    48.96830
   247  C   4.0   -0.12    3.03    3.02    30.27008    68.79462    51.15308
   248  C   4.0   -0.11    3.03    3.02    33.10487    68.69807    47.62624
   249  C   4.0   -0.11    3.03    3.02    30.87529    69.52574    48.71423
   250  H   1.0    0.31    1.00    1.43    32.94675    62.82983    56.23896
   251  H   1.0    0.13    0.99    1.43    33.53160    61.69922    50.96416
   252  H   1.0    0.14    0.99    1.43    36.08511    65.12373    54.75039
   253  H   1.0    0.11    0.99    1.43    37.65351    64.49574    51.88297
   254  H   1.0    0.13    1.00    1.43    31.38334    66.61527    54.36912
   255  H   1.0    0.11    1.00    1.43    36.46040    66.51013    48.10848
   256  H   1.0    0.10    0.99    1.43    28.53022    69.43545    52.00784
   257  H   1.0    0.11    1.00    1.43    33.58416    69.24724    45.72188
   258  H   1.0    0.10    1.00    1.43    29.60510    70.72513    47.66403
   259  N   5.0   -0.47    3.01    1.93    37.49369    58.96822    54.80929
   260  C   4.0    0.07    4.00    3.61    39.13494    56.77073    54.92145
   261  C   4.0    0.30    3.01    3.02    37.88289    54.57335    53.50369
   262  O   6.0   -0.38    1.00    1.80    39.00940    53.39382    51.85785
   263  C   4.0   -0.14    3.99    3.60    39.64650    56.11353    57.68649
   264  C   4.0   -0.15    3.98    3.59    40.80053    53.49403    58.05412
   265  C   4.0   -0.04    3.99    3.60    41.85588    53.22362    60.72466
   266  N   5.0   -0.47    3.02    1.93    44.28687    54.47804    60.89715
   267  C   4.0    0.37    3.00    3.02    45.32116    55.52759    62.93180
   268  N   5.0   -0.63    3.01    1.93    44.03599    55.93980    65.03691
   269  N   5.0   -0.66    3.02    1.93    47.79284    56.08236    62.82913
   270  H   1.0    0.30    1.00    1.43    37.12495    59.89873    56.44740
   271  H   1.0    0.13    0.99    1.43    40.91321    57.16658    53.92591
   272  H   1.0    0.13    0.99    1.43    40.90775    57.54565    58.46462
   273  H   1.0    0.14    0.99    1.43    37.86356    56.19037    58.71588
   274  H   1.0    0.11    0.99    1.43    39.36617    52.04369    57.76288
   275  H   1.0    0.12    0.99    1.43    42.29390    53.16607    56.67080
   276  H   1.0    0.14    0.99    1.43    40.53884    54.04172    62.08169
   277  H   1.0    0.11    0.99    1.43    42.08529    51.21801    61.17251
   278  H   1.0    0.23    1.00    1.43    45.41044    54.20732    59.37237
   279  H   1.0    0.32    1.00    1.43    42.08565    55.96349    65.10631
   280  H   1.0    0.26    1.00    1.43    44.89084    56.85668    66.47041
   281  H   1.0    0.25    1.00    1.43    48.75434    55.88650    61.19900
   282  H   1.0    0.26    1.00    1.43    48.68291    56.92847    64.28243
   283  N   5.0   -0.48    3.01    1.93    35.50767    54.07819    54.18042
   284  C   4.0    0.08    4.00    3.62    34.07538    52.06290    52.99791
   285  C   4.0    0.31    3.02    3.02    33.89962    52.47990    50.14369
   286  O   6.0   -0.37    1.00    1.80    34.34593    50.78251    48.62828
   287  C   4.0   -0.13    3.99    3.60    31.40130    51.95229    54.10611
   288  C   4.0   -0.03    3.03    3.02    29.70133    50.29609    52.53365
   289  C   4.0   -0.08    3.03    3.02    29.98214    47.68516    52.51110
   290  C   4.0   -0.08    3.03    3.02    27.82324    51.38216    51.05461
   291  C   4.0   -0.09    3.03    3.02    28.38259    46.18523    51.08482
   292  C   4.0   -0.10    3.03    3.02    26.21845    49.88933    49.62971
   293  C   4.0   -0.09    3.03    3.02    26.48329    47.28618    49.65932
   294  H   1.0    0.30    1.00    1.43    34.69865    55.03043    55.63230
   295  H   1.0    0.13    0.99    1.43    35.06734    50.26206    53.28245
   296  H   1.0    0.11    0.99    1.43    31.51376    51.25463    56.04502
   297  H   1.0    0.14    0.99    1.43    30.65152    53.87299    54.15002
   298  H   1.0    0.11    0.99    1.43    31.44493    46.78919    53.61881
   299  H   1.0    0.12    0.99    1.43    27.61631    53.41331    51.05079
   300  H   1.0    0.11    0.99    1.43    28.64135    44.16023    51.12779
   301  H   1.0    0.11    1.00    1.43    24.74958    50.76329    48.51732
   302  H   1.0    0.11    1.00    1.43    25.19046    46.12094    48.60016
   303  N   5.0   -0.47    3.01    1.93    33.17737    54.77949    49.43626
   304  C   4.0    0.07    3.99    3.61    32.92129    55.39674    46.78107
   305  C   4.0    0.11    3.00    3.02    35.40454    54.84033    45.40384
   306  O   6.0   -0.38    1.00    1.80    35.43243    53.80323    43.33024
   307  C   4.0   -0.21    3.98    3.59    32.18864    58.16196    46.47646
   308  H   1.0    0.30    1.00    1.43    32.68030    56.09791    50.74057
   309  H   1.0    0.14    0.99    1.43    31.47542    54.16848    45.93832
   310  H   1.0    0.11    0.99    1.43    31.85661    58.59440    44.49803
   311  H   1.0    0.11    0.99    1.43    30.47450    58.54156    47.54269
   312  H   1.0    0.13    0.99    1.43    33.69791    59.36210    47.18540
   313  N   5.0   -0.71    3.00    1.93    54.72813    62.21975    57.13070
   314  C   4.0    0.07    3.98    3.58    53.00134    63.66862    58.69052
   315  C   4.0    0.08    3.00    3.02    54.51541    64.94351    60.80529
   316  O   6.0   -0.40    1.00    1.80    54.25532    67.18496    61.32448
   317  C   4.0   -0.13    3.99    3.60    50.89836    61.99117    59.76626
   318  C   4.0   -0.04    3.02    3.02    48.58868    61.86274    58.09245
   319  C   4.0   -0.10    3.03    3.02    48.78124    61.78096    55.47355
   320  C   4.0   -0.09    3.03    3.02    46.19451    61.85175    59.18178
   321  C   4.0   -0.11    3.03    3.02    46.62861    61.72591    53.98313
   322  C   4.0   -0.10    3.03    3.02    44.03968    61.79678    57.69541
   323  C   4.0   -0.10    3.03    3.02    44.25576    61.74459    55.08710
   324  H   1.0    0.25    1.00    1.43    54.41396    60.34137    56.91246
   325  H   1.0    0.13    0.99    1.43    52.17535    65.20286    57.56266
   326  H   1.0    0.11    0.99    1.43    51.69353    60.10811    60.07129
   327  H   1.0    0.11    0.99    1.43    50.34582    62.75626    61.59855
   328  H   1.0    0.11    1.00    1.43    50.61165    61.79095    54.57437
   329  H   1.0    0.12    1.00    1.43    46.01353    61.94521    61.21103
   330  H   1.0    0.11    1.00    1.43    46.81488    61.71671    51.95119
   331  H   1.0    0.14    1.00    1.43    42.18855    61.86331    58.55283
   332  H   1.0    0.12    1.00    1.43    42.58379    61.75680    53.92000
   333  N   5.0   -0.71    3.00    1.93    36.21092    45.70404    75.43457
   334  C   4.0    0.08    3.99    3.60    37.88898    47.59259    74.37850
   335  C   4.0    0.28    3.01    3.02    36.65593    50.20729    74.38810
   336  O   6.0   -0.45    1.00    1.80    37.71936    52.03297    75.36270
   337  C   4.0   -0.09    3.98    3.59    38.70248    46.82623    71.70322
   338  C   4.0   -0.21    3.98    3.59    40.12322    48.97723    70.40744
   339  C   4.0   -0.23    3.98    3.59    40.35252    44.46399    71.82797
   340  H   1.0    0.25    1.00    1.43    35.67106    44.24968    74.30446
   341  H   1.0    0.11    0.99    1.43    39.56816    47.74965    75.59630
   342  H   1.0    0.11    0.99    1.43    36.98420    46.42084    70.62483
   343  H   1.0    0.10    0.99    1.43    40.88511    48.34641    68.60537
   344  H   1.0    0.14    0.99    1.43    38.91000    50.59773    70.03042
   345  H   1.0    0.11    0.99    1.43    41.68820    49.62955    71.57193
   346  H   1.0    0.10    0.99    1.43    40.96573    43.95815    69.93631
   347  H   1.0    0.10    0.99    1.43    42.01471    44.83164    72.97906
   348  H   1.0    0.10    0.99    1.43    39.30729    42.89059    72.62870
   349  N   5.0   -0.48    3.01    1.93    34.36836    50.33848    73.35629
   350  C   4.0    0.07    4.00    3.62    33.12392    52.76553    73.07193
   351  C   4.0    0.08    3.00    3.02    32.84763    53.95284    75.68972
   352  O   6.0   -0.47    1.00    1.80    33.46977    56.12725    76.19310
   353  C   4.0   -0.10    3.98    3.59    30.54594    52.46837    71.77920
   354  C   4.0   -0.23    3.98    3.59    29.17717    55.00615    71.72156
   355  C   4.0   -0.22    3.98    3.59    30.89761    51.45921    69.09853
   356  H   1.0    0.23    1.00    1.43    33.59823    48.79767    72.52104
   357  H   1.0    0.15    0.99    1.43    34.33743    54.01013    71.93060
   358  H   1.0    0.11    0.99    1.43    29.43491    51.11731    72.88974
   359  H   1.0    0.09    0.99    1.43    27.34817    54.81038    70.81084
   360  H   1.0    0.10    0.99    1.43    28.89944    55.74066    73.61841
   361  H   1.0    0.10    0.99    1.43    30.29733    56.37250    70.66748
   362  H   1.0    0.10    0.99    1.43    29.13541    51.59439    68.05309
   363  H   1.0    0.12    0.99    1.43    32.33981    52.55378    68.11956
   364  H   1.0    0.10    0.99    1.43    31.50254    49.49954    69.12257
   365  N   5.0   -0.69    3.00    1.93    38.60631    56.51446    78.41938
   366  C   4.0    0.09    3.99    3.60    39.25368    58.94388    77.32566
   367  C   4.0    0.30    3.02    3.02    37.94684    61.00424    78.86751
   368  O   6.0   -0.37    1.00    1.80    39.12204    62.63435    80.03021
   369  C   4.0   -0.11    3.98    3.59    38.55766    59.01446    74.51934
   370  C   4.0    0.10    3.34    3.06    40.07596    60.94403    73.13244
   371  N   5.0   -0.38    2.10    1.90    40.32815    63.37296    73.96509
   372  C   4.0    0.03    3.24    3.04    41.47727    60.62742    70.97550
   373  C   4.0    0.18    3.43    3.09    41.85102    64.46720    72.35044
   374  N   5.0   -0.46    3.13    1.94    42.58836    62.89788    70.49001
   375  H   1.0    0.33    1.00    1.43    37.88985    55.16986    77.25774
   376  H   1.0    0.13    0.99    1.43    41.29624    59.24999    77.51199
   377  H   1.0    0.12    0.99    1.43    38.95536    57.16839    73.68241
   378  H   1.0    0.13    0.99    1.43    36.53691    59.37148    74.29640
   379  H   1.0    0.12    1.00    1.43    41.68816    59.01803    69.76365
   380  H   1.0    0.12    1.00    1.43    42.46265    66.39291    72.46631
   381  H   1.0    0.24    1.00    1.43    43.93108    63.26742    69.14003
   382  N   5.0   -0.49    3.01    1.93    35.43441    60.83401    78.95852
   383  C   4.0    0.06    3.99    3.61    33.99555    62.67809    80.38283
   384  C   4.0    0.09    3.00    3.02    35.13418    62.99946    83.02413
   385  O   6.0   -0.39    1.00    1.80    35.48914    65.11572    83.91585
   386  C   4.0   -0.15    3.99    3.60    31.19914    61.98922    80.65453
   387  C   4.0   -0.10    3.98    3.58    29.53542    62.78978    78.40922
   388  C   4.0   -0.22    3.98    3.59    29.46786    60.77862    76.34670
   389  C   4.0   -0.24    3.98    3.59    26.84694    63.33603    79.31422
   390  H   1.0    0.28    1.00    1.43    34.53790    59.36823    78.11589
   391  H   1.0    0.13    0.99    1.43    34.18728    64.52926    79.45745
   392  H   1.0    0.12    0.99    1.43    31.05875    59.95736    80.97349
   393  H   1.0    0.11    0.99    1.43    30.50968    62.94265    82.35076
   394  H   1.0    0.10    0.99    1.43    30.31419    64.52746    77.60270
   395  H   1.0    0.09    0.99    1.43    28.33596    61.42874    74.76112
   396  H   1.0    0.12    0.99    1.43    31.34589    60.33026    75.64883
   397  H   1.0    0.11    0.99    1.43    28.63364    59.04618    77.07500
   398  H   1.0    0.09    0.99    1.43    25.67579    63.91307    77.72907
   399  H   1.0    0.10    0.99    1.43    26.02638    61.65314    80.15879
   400  H   1.0    0.10    0.99    1.43    26.84403    64.83707    80.71597
   401  H   1.0    0.29    1.00    1.43    42.63058    67.66382    50.96939
   402  H   1.0    0.13    1.00    1.43    44.00874    73.82207    52.52799
   403  H   1.0    0.29    1.00    1.43    35.20153    74.18588    50.95651
   404  H   1.0    0.14    1.00    1.43    36.49066    81.80764    55.62931
   405  H   1.0    0.29    1.00    1.43    31.94829    83.25070    52.53814
   406  H   1.0    0.16    1.00    1.43    30.53345    85.40923    61.16593
   407  H   1.0    0.30    1.00    1.43    23.08207    89.00054    58.23917
   408  H   1.0    0.15    1.00    1.43    23.27511    89.49293    64.66611
   409  H   1.0    0.29    1.00    1.43    31.06911    75.23793    77.23680
   410  H   1.0    0.17    1.00    1.43    37.05183    55.32427    46.19334
   411  H   1.0    0.29    1.00    1.43    54.72439    62.84428    55.54876
   412  H   1.0    0.14    1.00    1.43    55.76242    63.94115    61.81092
   413  H   1.0    0.29    1.00    1.43    36.95515    44.96976    76.77603
   414  H   1.0    0.13    1.00    1.43    32.12302    52.94331    77.11340
   415  H   1.0    0.30    1.00    1.43    39.99532    55.81232    79.10509
   416  H   1.0    0.14    1.00    1.43    35.59820    61.47810    84.04452

           ------------------------------------------------- 
          |        Self-Consistent Charge Iterations        |
           ------------------------------------------------- 

          ...................................................
          :                      SETUP                      :
          :.................................................:
          :  # basis functions                1001          :
          :  # atomic orbitals                1001          :
          :  # shells                          611          :
          :  # electrons                      1090          :
          :  max. iterations                   250          :
          :  Hamiltonian                  GFN2-xTB          :
          :  restarted?                      false          :
          :  GBSA solvation                   true          :
          :  PC potential                    false          :
          :  electronic temp.          500.0000000     K    :
          :  accuracy                    0.1000000          :
          :  -> integral cutoff          0.3500000E+02      :
          :  -> integral neglect         0.1000000E-08      :
          :  -> SCF convergence          0.1000000E-06 Eh   :
          :  -> wf. convergence          0.1000000E-04 e    :
          :  Broyden damping             0.4000000          :
          ...................................................

 iter      E             dE          RMSdq      gap      omega  full diag
   1   -617.1577620 -0.617158E+03  0.404E+00    1.61       0.0  T
   2   -618.6134131 -0.145565E+01  0.214E+00    1.55       1.0  T
   3   -618.6701130 -0.566999E-01  0.115E+00    1.83       1.0  T
   4   -618.6952146 -0.251016E-01  0.274E-01    1.30       1.0  T
   5   -618.7145036 -0.192890E-01  0.102E-01    1.37       1.0  T
   6   -618.7152238 -0.720178E-03  0.525E-02    1.40       1.0  T
   7   -618.7154818 -0.258019E-03  0.253E-02    1.39       1.0  T
   8   -618.7155445 -0.627115E-04  0.872E-03    1.40       1.0  T
   9   -618.7155508 -0.629380E-05  0.449E-03    1.40       1.1  T
  10   -618.7155528 -0.195648E-05  0.231E-03    1.40       2.1  T
  11   -618.7155532 -0.443394E-06  0.106E-03    1.39       4.6  T
  12   -618.7155533 -0.140488E-06  0.446E-04    1.39      11.0  T
  13   -618.7155534 -0.161324E-07  0.228E-04    1.39      21.5  T
  14   -618.7155534 -0.579098E-08  0.106E-04    1.39      46.3  T
  15   -618.7155534 -0.948717E-09  0.439E-05    1.39     111.8  T
  16   -618.7155534 -0.220894E-09  0.169E-05    1.39     290.0  T

   *** convergence criteria satisfied after 16 iterations ***

         #    Occupation            Energy/Eh            Energy/eV
      -------------------------------------------------------------
         1        2.0000           -0.7364233             -20.0391
       ...           ...                  ...                  ...
       539        2.0000           -0.3698109             -10.0631
       540        2.0000           -0.3694408             -10.0530
       541        2.0000           -0.3658052              -9.9541
       542        2.0000           -0.3624401              -9.8625
       543        2.0000           -0.3582821              -9.7494
       544        2.0000           -0.3554507              -9.6723
       545        2.0000           -0.3521379              -9.5822 (HOMO)
       546        0.0000           -0.3008792              -8.1873 (LUMO)
       547                         -0.2881163              -7.8400
       548                         -0.2836617              -7.7188
       549                         -0.2835543              -7.7159
       550                         -0.2813744              -7.6566
       ...                                ...                  ...
      1001                          0.7192738              19.5724
      -------------------------------------------------------------
                  HL-Gap            0.0512587 Eh            1.3948 eV
             Fermi-level           -0.3264011 Eh           -8.8818 eV

 SCC (total)                   0 d,  0 h,  0 min, 14.732 sec
 SCC setup                      ...        0 min,  0.168 sec (  1.143%)
 Dispersion                     ...        0 min,  0.243 sec (  1.653%)
 integral evaluation            ...        0 min,  0.760 sec (  5.156%)
 zeroth order Hamiltonian       ...        0 min,  0.008 sec (  0.054%)
 iterations                     ...        0 min, 11.065 sec ( 75.111%)
 molecular gradient             ...        0 min,  2.422 sec ( 16.442%)
 printout                       ...        0 min,  0.065 sec (  0.442%)

         :::::::::::::::::::::::::::::::::::::::::::::::::::::
         ::                     SUMMARY                     ::
         :::::::::::::::::::::::::::::::::::::::::::::::::::::
         :: total energy             -610.613150652645 Eh   ::
         :: total w/o Gsasa/hb       -610.557652616458 Eh   ::
         :: gradient norm               0.628152031774 Eh/α ::
         :: HOMO-LUMO gap               1.394819454195 eV   ::
         ::.................................................::
         :: SCC energy               -618.739490454641 Eh   ::
         :: -> isotropic ES             1.389170006172 Eh   ::
         :: -> anisotropic ES          -0.031727983672 Eh   ::
         :: -> anisotropic XC           0.242926723543 Eh   ::
         :: -> dispersion              -0.553245676186 Eh   ::
         :: -> Gsolv                   -0.242601690372 Eh   ::
         ::    -> Gborn                -0.187103654185 Eh   ::
         ::    -> Gsasa                -0.025794539449 Eh   ::
         ::    -> Ghb                  -0.031560939865 Eh   ::
         ::    -> Gshift                0.001857443127 Eh   ::
         :: repulsion energy            8.070879685127 Eh   ::
         :: add. restraining            0.000000000000 Eh   ::
         :::::::::::::::::::::::::::::::::::::::::::::::::::::

           -------------------------------------------------
          |                Property Printout                |
           -------------------------------------------------

    * Orbital Energies and Occupations

         #    Occupation            Energy/Eh            Energy/eV
      -------------------------------------------------------------
         1        2.0000           -0.7364233             -20.0391
       ...           ...                  ...                  ...
       533        2.0000           -0.3826780             -10.4132
       534        2.0000           -0.3810542             -10.3690
       535        2.0000           -0.3784446             -10.2980
       536        2.0000           -0.3778735             -10.2825
       537        2.0000           -0.3775101             -10.2726
       538        2.0000           -0.3733719             -10.1600
       539        2.0000           -0.3698109             -10.0631
       540        2.0000           -0.3694408             -10.0530
       541        2.0000           -0.3658052              -9.9541
       542        2.0000           -0.3624401              -9.8625
       543        2.0000           -0.3582821              -9.7494
       544        2.0000           -0.3554507              -9.6723
       545        2.0000           -0.3521379              -9.5822 (HOMO)
       546        0.0000           -0.3008792              -8.1873 (LUMO)
       547                         -0.2881163              -7.8400
       548                         -0.2836617              -7.7188
       549                         -0.2835543              -7.7159
       550                         -0.2813744              -7.6566
       551                         -0.2782654              -7.5720
       552                         -0.2778963              -7.5619
       553                         -0.2740352              -7.4569
       554                         -0.2534473              -6.8967
       555                         -0.2466967              -6.7130
       556                         -0.2408648              -6.5543
       ...                                ...                  ...
      1001                          0.7192738              19.5724
      -------------------------------------------------------------
                  HL-Gap            0.0512587 Eh            1.3948 eV
             Fermi-level           -0.3264011 Eh           -8.8818 eV

   #   Z        covCN         q      C6AA      α(0)
   1   7 N      2.636    -0.382    29.864     8.116
   2   6 C      3.783     0.039    19.936     6.360
   3   6 C      2.766     0.199    23.753     7.982
   4   8 O      0.856    -0.370    21.086     6.156
   5   6 C      3.809    -0.064    21.713     6.633
   6   6 C      3.055    -0.043    29.021     8.835
   7   6 C      3.043    -0.008    28.180     8.707
   8   6 C      3.113    -0.023    28.416     8.732
   9   7 N      2.773    -0.114    23.479     7.197
  10   6 C      3.096     0.044    26.893     8.499
  11   6 C      2.911    -0.043    29.068     8.841
  12   6 C      2.908    -0.056    29.391     8.889
  13   6 C      2.918    -0.045    29.121     8.849
  14   6 C      2.923    -0.042    29.038     8.837
  15   1 H      0.860     0.169     1.277     1.770
  16   1 H      0.924     0.057     2.235     2.338
  17   1 H      0.924     0.054     2.273     2.358
  18   1 H      0.924     0.058     2.224     2.332
  19   1 H      0.926     0.039     2.460     2.453
  20   1 H      0.860     0.199     1.113     1.653
  21   1 H      0.926     0.023     2.691     2.565
  22   1 H      0.926     0.028     2.610     2.527
  23   1 H      0.925     0.025     2.664     2.552
  24   1 H      0.925     0.029     2.600     2.521
  25   7 N      2.634    -0.380    29.823     8.111
  26   6 C      3.782     0.020    20.253     6.411
  27   6 C      2.756     0.260    22.613     7.787
  28   8 O      0.858    -0.487    23.507     6.500
  29   6 C      3.675     0.082    19.438     6.317
  30   8 O      1.654    -0.485    22.563     6.412
  31   1 H      0.860     0.163     1.314     1.796
  32   1 H      0.923     0.029     2.600     2.521
  33   1 H      0.923     0.012     2.864     2.646
  34   1 H      0.924     0.042     2.424     2.435
  35   1 H      0.803     0.335     0.626     1.243
  36   7 N      2.690    -0.173    24.743     7.388
  37   6 C      3.792     0.026    20.140     6.391
  38   6 C      2.767     0.208    23.587     7.954
  39   8 O      0.856    -0.360    20.902     6.130
  40   6 C      3.809    -0.084    22.089     6.690
  41   6 C      3.849    -0.013    20.771     6.483
  42   6 C      3.756    -0.120    22.849     6.816
  43   6 C      3.756    -0.116    22.782     6.806
  44   1 H      0.860     0.237     0.937     1.516
  45   1 H      0.923     0.079     1.992     2.207
  46   1 H      0.924     0.073     2.056     2.242
  47   1 H      0.924     0.064     2.148     2.292
  48   1 H      0.924     0.035     2.520     2.482
  49   1 H      0.925     0.045     2.388     2.417
  50   1 H      0.925     0.042     2.422     2.434
  51   1 H      0.925     0.046     2.365     2.405
  52   1 H      0.925     0.043     2.411     2.428
  53   1 H      0.925     0.045     2.384     2.415
  54   1 H      0.925     0.037     2.491     2.468
  55   7 N      2.636    -0.387    30.010     8.136
  56   6 C      3.787     0.035    19.993     6.369
  57   6 C      2.758     0.267    22.494     7.767
  58   8 O      0.858    -0.514    24.100     6.582
  59   6 C      3.810    -0.071    21.853     6.654
  60   6 C      3.849    -0.008    20.678     6.468
  61   6 C      3.758    -0.112    22.689     6.791
  62   6 C      3.755    -0.112    22.697     6.793
  63   1 H      0.860     0.151     1.392     1.848
  64   1 H      0.924     0.030     2.592     2.518
  65   1 H      0.924     0.051     2.306     2.375
  66   1 H      0.924     0.037     2.488     2.467
  67   1 H      0.924     0.028     2.611     2.527
  68   1 H      0.925     0.041     2.434     2.440
  69   1 H      0.925     0.033     2.541     2.493
  70   1 H      0.925     0.043     2.408     2.426
  71   1 H      0.925     0.042     2.422     2.434
  72   1 H      0.925     0.040     2.453     2.449
  73   1 H      0.925     0.032     2.563     2.503
  74   7 N      2.691    -0.167    24.607     7.367
  75   6 C      3.793     0.035    19.990     6.367
  76   6 C      2.766     0.207    23.612     7.958
  77   8 O      0.856    -0.359    20.871     6.125
  78   6 C      3.758    -0.134    23.122     6.856
  79   1 H      0.860     0.236     0.941     1.520
  80   1 H      0.923     0.078     1.999     2.211
  81   1 H      0.925     0.072     2.065     2.247
  82   1 H      0.925     0.073     2.055     2.242
  83   1 H      0.925     0.080     1.981     2.201
  84   7 N      2.636    -0.393    30.191     8.160
  85   6 C      3.786     0.043    19.869     6.349
  86   6 C      2.765     0.206    23.629     7.961
  87   8 O      0.856    -0.393    21.547     6.224
  88   6 C      3.852    -0.016    20.826     6.491
  89   6 C      3.756    -0.114    22.744     6.800
  90   6 C      3.756    -0.113    22.717     6.796
  91   1 H      0.860     0.176     1.237     1.742
  92   1 H      0.923     0.032     2.551     2.498
  93   1 H      0.924     0.056     2.248     2.345
  94   1 H      0.925     0.054     2.273     2.358
  95   1 H      0.925     0.031     2.565     2.505
  96   1 H      0.925     0.040     2.448     2.447
  97   1 H      0.925     0.048     2.349     2.397
  98   1 H      0.925     0.036     2.508     2.476
  99   1 H      0.925     0.050     2.323     2.384
 100   7 N      2.636    -0.397    30.288     8.174
 101   6 C      3.786     0.029    20.095     6.385
 102   6 C      2.758     0.262    22.585     7.782
 103   8 O      0.858    -0.497    23.712     6.529
 104   6 C      3.757    -0.125    22.943     6.829
 105   1 H      0.860     0.170     1.272     1.766
 106   1 H      0.923     0.040     2.447     2.446
 107   1 H      0.925     0.052     2.290     2.367
 108   1 H      0.925     0.060     2.196     2.317
 109   1 H      0.925     0.058     2.228     2.334
 110   7 N      2.692    -0.167    24.606     7.367
 111   6 C      3.803     0.012    20.376     6.426
 112   6 C      2.765     0.278    22.298     7.733
 113   8 O      0.859    -0.476    23.263     6.467
 114   6 C      3.853    -0.026    21.000     6.518
 115   6 C      3.756    -0.118    22.821     6.811
 116   6 C      3.757    -0.126    22.966     6.833
 117   1 H      0.860     0.222     1.002     1.568
 118   1 H      0.923     0.079     1.992     2.207
 119   1 H      0.924     0.055     2.253     2.347
 120   1 H      0.925     0.059     2.211     2.325
 121   1 H      0.925     0.038     2.477     2.461
 122   1 H      0.925     0.055     2.260     2.351
 123   1 H      0.925     0.061     2.184     2.311
 124   1 H      0.925     0.054     2.270     2.356
 125   1 H      0.925     0.050     2.314     2.379
 126   7 N      2.690    -0.187    25.063     7.435
 127   6 C      3.800     0.001    20.570     6.457
 128   6 C      2.757     0.280    22.262     7.726
 129   8 O      0.858    -0.485    23.466     6.495
 130   6 C      3.676     0.058    19.826     6.379
 131   8 O      1.654    -0.456    21.966     6.327
 132   1 H      0.860     0.221     1.006     1.571
 133   1 H      0.923     0.084     1.935     2.175
 134   1 H      0.924     0.081     1.967     2.193
 135   1 H      0.923     0.066     2.132     2.284
 136   1 H      0.803     0.328     0.643     1.260
 137   7 N      2.689    -0.162    24.496     7.351
 138   6 C      3.803     0.016    20.296     6.414
 139   6 C      2.761     0.281    22.243     7.723
 140   8 O      0.858    -0.506    23.921     6.557
 141   6 C      3.854    -0.025    20.988     6.516
 142   6 C      3.758    -0.107    22.604     6.778
 143   6 C      3.756    -0.123    22.907     6.824
 144   1 H      0.860     0.209     1.061     1.613
 145   1 H      0.923     0.069     2.094     2.263
 146   1 H      0.924     0.066     2.134     2.285
 147   1 H      0.925     0.055     2.263     2.352
 148   1 H      0.925     0.030     2.591     2.517
 149   1 H      0.925     0.036     2.498     2.472
 150   1 H      0.925     0.055     2.254     2.348
 151   1 H      0.925     0.053     2.288     2.366
 152   1 H      0.925     0.053     2.283     2.363
 153   7 N      2.692    -0.184    24.997     7.425
 154   6 C      3.801     0.028    20.096     6.382
 155   6 C      2.759     0.278    22.289     7.731
 156   8 O      0.858    -0.508    23.961     6.563
 157   6 C      3.810    -0.081    22.038     6.682
 158   6 C      3.849    -0.012    20.765     6.481
 159   6 C      3.758    -0.116    22.777     6.804
 160   6 C      3.756    -0.115    22.764     6.803
 161   1 H      0.860     0.239     0.929     1.510
 162   1 H      0.924     0.057     2.239     2.340
 163   1 H      0.924     0.070     2.089     2.260
 164   1 H      0.924     0.054     2.266     2.354
 165   1 H      0.924     0.044     2.400     2.423
 166   1 H      0.925     0.050     2.321     2.382
 167   1 H      0.925     0.039     2.460     2.453
 168   1 H      0.925     0.046     2.374     2.410
 169   1 H      0.925     0.049     2.331     2.387
 170   1 H      0.925     0.043     2.405     2.425
 171   1 H      0.925     0.028     2.615     2.529
 172   7 N      2.691    -0.184    24.987     7.424
 173   6 C      3.796     0.027    20.129     6.389
 174   6 C      2.760     0.273    22.389     7.749
 175   8 O      0.859    -0.506    23.922     6.558
 176   6 C      3.809    -0.076    21.939     6.667
 177   6 C      3.849    -0.011    20.746     6.479
 178   6 C      3.756    -0.125    22.953     6.831
 179   6 C      3.758    -0.118    22.812     6.809
 180   1 H      0.860     0.237     0.934     1.514
 181   1 H      0.923     0.069     2.098     2.265
 182   1 H      0.924     0.065     2.146     2.291
 183   1 H      0.924     0.044     2.395     2.420
 184   1 H      0.924     0.033     2.538     2.491
 185   1 H      0.925     0.052     2.291     2.367
 186   1 H      0.925     0.033     2.546     2.495
 187   1 H      0.925     0.058     2.218     2.329
 188   1 H      0.925     0.048     2.350     2.397
 189   1 H      0.925     0.045     2.386     2.415
 190   1 H      0.925     0.042     2.424     2.435
 191   7 N      2.690    -0.183    24.973     7.422
 192   6 C      3.800     0.027    20.129     6.388
 193   6 C      2.760     0.281    22.248     7.724
 194   8 O      0.858    -0.496    23.686     6.525
 195   6 C      3.810    -0.061    21.657     6.624
 196   6 C      3.805    -0.106    22.513     6.755
 197   6 C      2.746     0.287    22.140     7.704
 198   8 O      0.859    -0.495    23.678     6.524
 199   7 N      2.638    -0.269    26.971     7.713
 200   1 H      0.860     0.238     0.931     1.511
 201   1 H      0.923     0.078     2.002     2.213
 202   1 H      0.924     0.058     2.223     2.332
 203   1 H      0.924     0.059     2.210     2.325
 204   1 H      0.924     0.079     1.986     2.204
 205   1 H      0.925     0.079     1.987     2.204
 206   1 H      0.860     0.219     1.014     1.577
 207   1 H      0.860     0.228     0.975     1.547
 208   7 N      2.691    -0.183    24.957     7.420
 209   6 C      3.799     0.035    19.988     6.366
 210   6 C      2.759     0.270    22.438     7.757
 211   8 O      0.859    -0.509    23.976     6.565
 212   6 C      3.806    -0.050    21.471     6.596
 213   6 C      3.799    -0.086    22.143     6.700
 214   6 C      2.684     0.364    20.820     7.467
 215   8 O      0.856    -0.615    26.498     6.902
 216   8 O      0.856    -0.614    26.461     6.897
 217   1 H      0.860     0.222     0.999     1.565
 218   1 H      0.923     0.074     2.042     2.235
 219   1 H      0.924     0.052     2.300     2.372
 220   1 H      0.924     0.034     2.528     2.487
 221   1 H      0.924     0.026     2.642     2.542
 222   1 H      0.924     0.020     2.729     2.583
 223   7 N      2.690    -0.184    24.997     7.426
 224   6 C      3.803     0.025    20.145     6.390
 225   6 C      2.759     0.280    22.259     7.726
 226   8 O      0.858    -0.499    23.762     6.536
 227   6 C      3.853    -0.018    20.852     6.495
 228   6 C      3.756    -0.117    22.788     6.806
 229   6 C      3.756    -0.125    22.942     6.829
 230   1 H      0.860     0.231     0.961     1.535
 231   1 H      0.923     0.063     2.168     2.303
 232   1 H      0.924     0.048     2.343     2.394
 233   1 H      0.925     0.065     2.144     2.290
 234   1 H      0.925     0.033     2.538     2.491
 235   1 H      0.925     0.049     2.334     2.389
 236   1 H      0.925     0.058     2.222     2.331
 237   1 H      0.925     0.049     2.331     2.388
 238   1 H      0.925     0.053     2.281     2.362
 239   7 N      2.690    -0.191    25.146     7.448
 240   6 C      3.801     0.033    20.023     6.371
 241   6 C      2.757     0.274    22.372     7.745
 242   8 O      0.859    -0.507    23.948     6.561
 243   6 C      3.811    -0.069    21.808     6.647
 244   6 C      2.972     0.014    27.695     8.632
 245   6 C      2.924    -0.043    29.072     8.842
 246   6 C      2.925    -0.041    29.017     8.834
 247   6 C      2.919    -0.035    28.877     8.812
 248   6 C      2.919    -0.035    28.859     8.809
 249   6 C      2.920    -0.037    28.930     8.820
 250   1 H      0.860     0.234     0.950     1.527
 251   1 H      0.923     0.064     2.154     2.295
 252   1 H      0.925     0.070     2.088     2.260
 253   1 H      0.924     0.049     2.336     2.390
 254   1 H      0.926     0.042     2.418     2.432
 255   1 H      0.926     0.034     2.524     2.484
 256   1 H      0.926     0.040     2.450     2.448
 257   1 H      0.926     0.043     2.408     2.427
 258   1 H      0.926     0.044     2.392     2.419
 259   7 N      2.691    -0.187    25.062     7.435
 260   6 C      3.798     0.027    20.122     6.387
 261   6 C      2.757     0.284    22.181     7.712
 262   8 O      0.858    -0.504    23.869     6.550
 263   6 C      3.808    -0.083    22.069     6.687
 264   6 C      3.804    -0.074    21.921     6.666
 265   6 C      3.739    -0.020    21.008     6.540
 266   7 N      2.703    -0.145    24.138     7.297
 267   6 C      2.735     0.236    23.064     7.863
 268   7 N      2.647    -0.253    26.578     7.657
 269   7 N      2.655    -0.259    26.729     7.678
 270   1 H      0.860     0.226     0.983     1.553
 271   1 H      0.923     0.069     2.102     2.267
 272   1 H      0.924     0.073     2.052     2.240
 273   1 H      0.925     0.063     2.164     2.301
 274   1 H      0.924     0.051     2.304     2.374
 275   1 H      0.924     0.066     2.132     2.283
 276   1 H      0.924     0.085     1.927     2.171
 277   1 H      0.924     0.081     1.972     2.196
 278   1 H      0.860     0.232     0.955     1.531
 279   1 H      0.859     0.251     0.881     1.470
 280   1 H      0.860     0.226     0.984     1.554
 281   1 H      0.860     0.240     0.921     1.504
 282   1 H      0.860     0.249     0.888     1.476
 283   7 N      2.690    -0.191    25.153     7.449
 284   6 C      3.800     0.034    20.000     6.367
 285   6 C      2.762     0.287    22.133     7.704
 286   8 O      0.859    -0.512    24.059     6.576
 287   6 C      3.813    -0.082    22.048     6.683
 288   6 C      2.970     0.010    27.794     8.648
 289   6 C      2.924    -0.038    28.949     8.823
 290   6 C      2.925    -0.043    29.056     8.840
 291   6 C      2.918    -0.033    28.827     8.804
 292   6 C      2.918    -0.034    28.856     8.809
 293   6 C      2.921    -0.036    28.893     8.815
 294   1 H      0.860     0.224     0.992     1.560
 295   1 H      0.923     0.059     2.216     2.328
 296   1 H      0.924     0.062     2.171     2.304
 297   1 H      0.924     0.068     2.113     2.273
 298   1 H      0.926     0.032     2.556     2.500
 299   1 H      0.926     0.036     2.504     2.474
 300   1 H      0.926     0.041     2.434     2.440
 301   1 H      0.926     0.044     2.396     2.421
 302   1 H      0.926     0.043     2.409     2.427
 303   7 N      2.692    -0.183    24.960     7.420
 304   6 C      3.795     0.041    19.894     6.351
 305   6 C      2.766     0.217    23.413     7.924
 306   8 O      0.856    -0.372    21.122     6.162
 307   6 C      3.757    -0.125    22.956     6.831
 308   1 H      0.860     0.230     0.963     1.537
 309   1 H      0.923     0.077     2.015     2.220
 310   1 H      0.925     0.078     2.004     2.214
 311   1 H      0.925     0.079     1.994     2.208
 312   1 H      0.925     0.066     2.131     2.283
 313   7 N      2.636    -0.389    30.072     8.144
 314   6 C      3.782     0.042    19.892     6.353
 315   6 C      2.766     0.199    23.763     7.983
 316   8 O      0.856    -0.384    21.364     6.197
 317   6 C      3.809    -0.081    22.038     6.682
 318   6 C      2.966     0.012    27.751     8.641
 319   6 C      2.923    -0.042    29.042     8.838
 320   6 C      2.925    -0.045    29.110     8.848
 321   6 C      2.918    -0.034    28.840     8.806
 322   6 C      2.917    -0.033    28.820     8.803
 323   6 C      2.919    -0.032    28.790     8.799
 324   1 H      0.860     0.176     1.238     1.743
 325   1 H      0.923     0.052     2.301     2.372
 326   1 H      0.924     0.079     1.993     2.208
 327   1 H      0.924     0.058     2.227     2.334
 328   1 H      0.926     0.047     2.362     2.403
 329   1 H      0.926     0.043     2.413     2.429
 330   1 H      0.926     0.033     2.549     2.497
 331   1 H      0.926     0.035     2.520     2.483
 332   1 H      0.926     0.016     2.792     2.613
 333   7 N      2.635    -0.397    30.302     8.175
 334   6 C      3.791     0.030    20.079     6.381
 335   6 C      2.760     0.275    22.358     7.743
 336   8 O      0.858    -0.507    23.935     6.559
 337   6 C      3.853    -0.017    20.847     6.494
 338   6 C      3.755    -0.112    22.699     6.793
 339   6 C      3.757    -0.115    22.758     6.802
 340   1 H      0.860     0.166     1.298     1.785
 341   1 H      0.923     0.036     2.497     2.471
 342   1 H      0.924     0.033     2.546     2.496
 343   1 H      0.925     0.049     2.334     2.389
 344   1 H      0.925     0.035     2.516     2.481
 345   1 H      0.925     0.035     2.515     2.480
 346   1 H      0.925     0.051     2.309     2.376
 347   1 H      0.925     0.045     2.388     2.417
 348   1 H      0.925     0.045     2.382     2.413
 349   7 N      2.692    -0.164    24.552     7.359
 350   6 C      3.801     0.031    20.057     6.376
 351   6 C      2.767     0.205    23.641     7.963
 352   8 O      0.856    -0.361    20.916     6.132
 353   6 C      3.853    -0.018    20.851     6.495
 354   6 C      3.757    -0.115    22.751     6.801
 355   6 C      3.757    -0.118    22.810     6.810
 356   1 H      0.860     0.214     1.040     1.597
 357   1 H      0.923     0.077     2.009     2.217
 358   1 H      0.924     0.058     2.219     2.330
 359   1 H      0.925     0.064     2.151     2.294
 360   1 H      0.925     0.046     2.374     2.409
 361   1 H      0.925     0.036     2.496     2.471
 362   1 H      0.925     0.060     2.199     2.319
 363   1 H      0.925     0.046     2.374     2.409
 364   1 H      0.925     0.044     2.395     2.420
 365   7 N      2.637    -0.406    30.536     8.207
 366   6 C      3.790     0.048    19.772     6.333
 367   6 C      2.762     0.280    22.253     7.725
 368   8 O      0.859    -0.501    23.798     6.541
 369   6 C      3.807    -0.063    21.705     6.632
 370   6 C      3.200     0.054    26.254     8.350
 371   7 N      1.914    -0.302    28.671     7.939
 372   6 C      3.056    -0.030    28.696     8.785
 373   6 C      3.174     0.087    25.689     8.278
 374   7 N      2.802    -0.097    23.134     7.144
 375   1 H      0.860     0.178     1.227     1.735
 376   1 H      0.924     0.022     2.707     2.573
 377   1 H      0.924     0.037     2.483     2.464
 378   1 H      0.924     0.048     2.343     2.394
 379   1 H      0.926     0.029     2.601     2.522
 380   1 H      0.926     0.044     2.390     2.417
 381   1 H      0.859     0.209     1.060     1.613
 382   7 N      2.690    -0.174    24.777     7.393
 383   6 C      3.796     0.034    20.015     6.370
 384   6 C      2.767     0.211    23.523     7.943
 385   8 O      0.856    -0.382    21.328     6.192
 386   6 C      3.808    -0.079    22.007     6.678
 387   6 C      3.849    -0.011    20.742     6.478
 388   6 C      3.756    -0.114    22.740     6.799
 389   6 C      3.757    -0.119    22.834     6.813
 390   1 H      0.860     0.229     0.970     1.543
 391   1 H      0.923     0.074     2.045     2.236
 392   1 H      0.924     0.067     2.122     2.278
 393   1 H      0.924     0.064     2.157     2.297
 394   1 H      0.924     0.042     2.419     2.432
 395   1 H      0.925     0.046     2.367     2.406
 396   1 H      0.925     0.037     2.495     2.470
 397   1 H      0.925     0.038     2.469     2.457
 398   1 H      0.925     0.050     2.314     2.379
 399   1 H      0.925     0.046     2.368     2.407
 400   1 H      0.925     0.044     2.402     2.424
 401   1 H      0.862     0.172     1.259     1.758
 402   1 H      0.930     0.092     1.855     2.130
 403   1 H      0.862     0.177     1.231     1.738
 404   1 H      0.930     0.073     2.048     2.238
 405   1 H      0.862     0.176     1.235     1.740
 406   1 H      0.930     0.072     2.062     2.245
 407   1 H      0.862     0.174     1.248     1.750
 408   1 H      0.930     0.070     2.080     2.255
 409   1 H      0.862     0.178     1.225     1.734
 410   1 H      0.930     0.066     2.130     2.282
 411   1 H      0.862     0.178     1.225     1.734
 412   1 H      0.930     0.079     1.990     2.206
 413   1 H      0.862     0.185     1.186     1.705
 414   1 H      0.930     0.075     2.030     2.228
 415   1 H      0.862     0.175     1.243     1.746
 416   1 H      0.930     0.064     2.152     2.294

 Mol. C6AA /au·bohr⁶  :    1585937.528373
 Mol. C8AA /au·bohr⁸  :   35345704.704228
 Mol. α(0) /au        :       1900.704934


Wiberg/Mayer (AO) data.
largest (>0.10) Wiberg bond orders for each atom
          total WBO             WBO to atom ...
     1  N   2.998        C    2 1.008    H  401 0.959    H   15 0.952
     2  C   3.982        N    1 1.008    C    3 0.994    H   16 0.957    C    5 0.937
     3  C   3.878        O    4 1.831    C    2 0.994    H  402 0.952
     4  O   2.087        C    3 1.831
     5  C   3.990        C    6 1.018    H   18 0.970    H   17 0.962    C    2 0.937
     6  C   3.973        C    7 1.563    C    8 1.212    C    5 1.018
     7  C   3.955        C    6 1.563    N    9 1.219    H   19 0.964
     8  C   3.984        C   11 1.329    C   10 1.241    C    6 1.212
     9  N   3.559        C    7 1.219    C   10 1.188    H   20 0.909
    10  C   3.961        C   12 1.336    C    8 1.241    N    9 1.188
    11  C   3.992        C   13 1.506    C    8 1.329    H   21 0.968    C   12 0.112
    12  C   3.989        C   14 1.494    C   10 1.336    H   22 0.968    C   11 0.112
    13  C   3.990        C   11 1.506    C   14 1.367    H   23 0.971
    14  C   3.990        C   12 1.494    C   13 1.367    H   24 0.971
    15  H   0.971        N    1 0.952
    16  H   0.997        C    2 0.957
    17  H   0.997        C    5 0.962
    18  H   0.996        C    5 0.970
    19  H   0.998        C    7 0.964
    20  H   0.960        N    9 0.909
    21  H   0.999        C   11 0.968
    22  H   0.999        C   12 0.968
    23  H   0.999        C   13 0.971
    24  H   0.999        C   14 0.971
    25  N   2.997        C   26 1.023    H  403 0.957    H   31 0.948
    26  C   3.986        N   25 1.023    H   32 0.964    C   29 0.953    C   27 0.934
    27  C   3.949        O   28 1.607    N   36 1.326    C   26 0.934
    28  O   1.966        C   27 1.607    N   36 0.200
    29  C   3.964        O   30 1.022    H   33 0.964    H   34 0.962    C   26 0.953
    30  O   1.946        C   29 1.022    H   35 0.810
    31  H   0.973        N   25 0.948
    32  H   0.999        C   26 0.964
    33  H   1.000        C   29 0.964
    34  H   0.998        C   29 0.962
    35  H   0.888        O   30 0.810
    36  N   3.481        C   27 1.326    C   37 0.973    H   44 0.886    O   28 0.200
    37  C   3.966        C   38 0.973    N   36 0.973    C   40 0.970    H   45 0.950
    38  C   3.901        O   39 1.894    C   37 0.973    H  404 0.953
    39  O   2.043        C   38 1.894
    40  C   3.983        C   41 0.990    H   47 0.972    C   37 0.970    H   46 0.966
    41  C   3.994        C   42 1.011    C   43 1.010    C   40 0.990    H   48 0.967
    42  C   3.994        C   41 1.011    H   50 0.986    H   49 0.986    H   51 0.981
    43  C   3.995        C   41 1.010    H   54 0.986    H   53 0.986    H   52 0.986
    44  H   0.944        N   36 0.886
    45  H   0.994        C   37 0.950
    46  H   0.995        C   40 0.966
    47  H   0.996        C   40 0.972
    48  H   0.999        C   41 0.967
    49  H   0.998        C   42 0.986
    50  H   0.998        C   42 0.986
    51  H   0.998        C   42 0.981
    52  H   0.998        C   43 0.986
    53  H   0.998        C   43 0.986
    54  H   0.999        C   43 0.986
    55  N   2.998        C   56 1.012    H  405 0.959    H   63 0.954
    56  C   3.984        N   55 1.012    C   59 0.980    H   64 0.960    C   57 0.935
    57  C   3.944        O   58 1.598    N   74 1.329    C   56 0.935
    58  O   1.938        C   57 1.598    N   74 0.197
    59  C   3.993        C   60 0.993    C   56 0.980    H   66 0.975    H   65 0.968
    60  C   3.996        C   62 1.011    C   61 1.007    C   59 0.993    H   67 0.966
    61  C   3.995        C   60 1.007    H   70 0.986    H   68 0.985    H   69 0.984
    62  C   3.996        C   60 1.011    H   72 0.986    H   71 0.985    H   73 0.983
    63  H   0.977        N   55 0.954
    64  H   0.999        C   56 0.960
    65  H   0.997        C   59 0.968
    66  H   0.999        C   59 0.975
    67  H   0.999        C   60 0.966
    68  H   0.998        C   61 0.985
    69  H   0.999        C   61 0.984
    70  H   0.998        C   61 0.986
    71  H   0.998        C   62 0.985
    72  H   0.998        C   62 0.986
    73  H   0.999        C   62 0.983
    74  N   3.487        C   57 1.329    C   75 0.977    H   79 0.890    O   58 0.197
    75  C   3.968        C   78 0.984    N   74 0.977    C   76 0.971    H   80 0.950
    76  C   3.900        O   77 1.900    C   75 0.971    H  406 0.954
    77  O   2.046        C   76 1.900
    78  C   3.982        C   75 0.984    H   81 0.981    H   83 0.978    H   82 0.972
    79  H   0.944        N   74 0.890
    80  H   0.994        C   75 0.950
    81  H   0.994        C   78 0.981
    82  H   0.995        C   78 0.972
    83  H   0.994        C   78 0.978
    84  N   3.001        C   85 1.010    H  407 0.958    H   91 0.932
    85  C   3.984        N   84 1.010    C   86 0.974    H   92 0.962    C   88 0.953
    86  C   3.886        O   87 1.881    C   85 0.974    H  408 0.955
    87  O   2.018        C   86 1.881
    88  C   3.991        C   89 1.008    C   90 1.008    H   93 0.961    C   85 0.953
    89  C   3.996        C   88 1.008    H   96 0.986    H   94 0.985    H   95 0.983
    90  C   3.995        C   88 1.008    H   98 0.986    H   97 0.983    H   99 0.978
    91  H   0.969        N   84 0.932
    92  H   0.999        C   85 0.962
    93  H   0.997        C   88 0.961
    94  H   0.997        C   89 0.985
    95  H   0.999        C   89 0.983
    96  H   0.998        C   89 0.986
    97  H   0.996        C   90 0.983
    98  H   0.999        C   90 0.986
    99  H   0.998        C   90 0.978
   100  N   2.989        C  101 1.011    H  409 0.958    H  105 0.952
   101  C   3.985        N  100 1.011    C  104 0.993    H  106 0.964    C  102 0.937
   102  C   3.941        O  103 1.601    N  110 1.317    C  101 0.937
   103  O   1.963        C  102 1.601    N  110 0.194
   104  C   3.991        C  101 0.993    H  107 0.984    H  109 0.982    H  108 0.981
   105  H   0.971        N  100 0.952
   106  H   0.998        C  101 0.964
   107  H   0.997        C  104 0.984
   108  H   0.996        C  104 0.981
   109  H   0.997        C  104 0.982
   110  N   3.480        C  102 1.317    C  111 0.977    H  117 0.912    O  103 0.194
   111  C   3.963        N  110 0.977    C  114 0.964    H  118 0.943    C  112 0.942
   112  C   3.944        O  113 1.620    N  126 1.288    C  111 0.942
   113  O   1.984        C  112 1.620    N  126 0.187
   114  C   3.987        C  116 1.008    C  115 1.008    C  111 0.964    H  119 0.962
   115  C   3.992        C  114 1.008    H  122 0.984    H  120 0.983    H  121 0.981
   116  C   3.991        C  114 1.008    H  124 0.984    H  125 0.982    H  123 0.982
   117  H   0.951        N  110 0.912
   118  H   0.993        C  111 0.943
   119  H   0.997        C  114 0.962
   120  H   0.996        C  115 0.983
   121  H   0.999        C  115 0.981
   122  H   0.997        C  115 0.984
   123  H   0.995        C  116 0.982
   124  H   0.997        C  116 0.984
   125  H   0.997        C  116 0.982
   126  N   3.452        C  112 1.288    C  127 0.983    H  132 0.914    O  113 0.187
   127  C   3.965        N  126 0.983    C  130 0.961    H  133 0.945    C  128 0.938
   128  C   3.949        O  129 1.596    N  137 1.319    C  127 0.938
   129  O   1.974        C  128 1.596    N  137 0.193
   130  C   3.952        O  131 1.017    H  134 0.968    C  127 0.961    H  135 0.958
   131  O   1.961        C  130 1.017    H  136 0.874
   132  H   0.951        N  126 0.914
   133  H   0.993        C  127 0.945
   134  H   0.993        C  130 0.968
   135  H   0.995        C  130 0.958
   136  H   0.892        O  131 0.874
   137  N   3.488        C  128 1.319    C  138 0.976    H  144 0.913    O  129 0.193
   138  C   3.961        N  137 0.976    C  141 0.967    H  145 0.949    C  139 0.935
   139  C   3.947        O  140 1.596    N  153 1.328    C  138 0.935
   140  O   1.957        C  139 1.596    N  153 0.197
   141  C   3.987        C  143 1.008    C  142 1.007    C  138 0.967    H  146 0.955
   142  C   3.993        C  141 1.007    H  148 0.983    H  149 0.982    H  147 0.978
   143  C   3.992        C  141 1.008    H  151 0.984    H  150 0.982    H  152 0.982
   144  H   0.956        N  137 0.913
   145  H   0.995        C  138 0.949
   146  H   0.996        C  141 0.955
   147  H   0.997        C  142 0.978
   148  H   0.999        C  142 0.983
   149  H   0.999        C  142 0.982
   150  H   0.996        C  143 0.982
   151  H   0.997        C  143 0.984
   152  H   0.997        C  143 0.982
   153  N   3.479        C  139 1.328    C  154 0.977    H  161 0.883    O  140 0.197
   154  C   3.965        C  157 0.980    N  153 0.977    H  162 0.949    C  155 0.938
   155  C   3.946        O  156 1.587    N  172 1.328    C  154 0.938
   156  O   1.952        C  155 1.587    N  172 0.192
   157  C   3.983        C  158 0.992    C  154 0.980    H  164 0.971    H  163 0.965
   158  C   3.994        C  160 1.011    C  159 1.007    C  157 0.992    H  165 0.964
   159  C   3.993        C  158 1.007    H  168 0.986    H  166 0.985    H  167 0.980
   160  C   3.995        C  158 1.011    H  170 0.985    H  169 0.984    H  171 0.981
   161  H   0.943        N  153 0.883
   162  H   0.996        C  154 0.949
   163  H   0.995        C  157 0.965
   164  H   0.996        C  157 0.971
   165  H   0.998        C  158 0.964
   166  H   0.997        C  159 0.985
   167  H   0.998        C  159 0.980
   168  H   0.998        C  159 0.986
   169  H   0.997        C  160 0.984
   170  H   0.998        C  160 0.985
   171  H   0.999        C  160 0.981
   172  N   3.478        C  155 1.328    C  173 0.980    H  180 0.882    O  156 0.192
   173  C   3.965        N  172 0.980    C  176 0.978    H  181 0.947    C  174 0.938
   174  C   3.945        O  175 1.573    N  191 1.341    C  173 0.938
   175  O   1.954        C  174 1.573    N  191 0.194
   176  C   3.985        C  177 0.992    C  173 0.978    H  183 0.969    H  182 0.965
   177  C   3.993        C  178 1.010    C  179 1.007    C  176 0.992    H  184 0.969
   178  C   3.993        C  177 1.010    H  186 0.986    H  185 0.984    H  187 0.977
   179  C   3.993        C  177 1.007    H  188 0.985    H  190 0.983    H  189 0.982
   180  H   0.943        N  172 0.882
   181  H   0.995        C  173 0.947
   182  H   0.996        C  176 0.965
   183  H   0.998        C  176 0.969
   184  H   0.998        C  177 0.969
   185  H   0.997        C  178 0.984
   186  H   0.999        C  178 0.986
   187  H   0.997        C  178 0.977
   188  H   0.997        C  179 0.985
   189  H   0.998        C  179 0.982
   190  H   0.998        C  179 0.983
   191  N   3.486        C  174 1.341    C  192 0.978    H  200 0.873    O  175 0.194
   192  C   3.965        C  195 0.981    N  191 0.978    H  201 0.949    C  193 0.935
   193  C   3.946        O  194 1.596    N  208 1.324    C  192 0.935
   194  O   1.952        C  193 1.596    N  208 0.192
   195  C   3.988        C  196 0.992    C  192 0.981    H  203 0.972    H  202 0.966
   196  C   3.990        C  195 0.992    C  197 0.971    H  205 0.961    H  204 0.953
   197  C   3.944        O  198 1.619    N  199 1.321    C  196 0.971
   198  O   1.947        C  197 1.619    N  199 0.196
   199  N   3.414        C  197 1.321    H  206 0.929    H  207 0.926    O  198 0.196
   200  H   0.943        N  191 0.873
   201  H   0.993        C  192 0.949
   202  H   0.997        C  195 0.966
   203  H   0.996        C  195 0.972
   204  H   0.994        C  196 0.953
   205  H   0.994        C  196 0.961
   206  H   0.952        N  199 0.929
   207  H   0.948        N  199 0.926
   208  N   3.482        C  193 1.324    C  209 0.980    H  217 0.895    O  194 0.192
   209  C   3.965        C  212 0.981    N  208 0.980    H  218 0.943    C  210 0.937
   210  C   3.949        O  211 1.586    N  223 1.336    C  209 0.937
   211  O   1.942        C  210 1.586    N  223 0.196
   212  C   3.992        C  213 0.997    C  209 0.981    H  220 0.975    H  219 0.967
   213  C   3.986        C  212 0.997    H  222 0.974    H  221 0.974    C  214 0.922
   214  C   3.937        O  216 1.533    O  215 1.455    C  213 0.922
   215  O   1.839        C  214 1.455    O  216 0.215
   216  O   1.833        C  214 1.533    O  215 0.215
   217  H   0.950        N  208 0.895
   218  H   0.994        C  209 0.943
   219  H   0.997        C  212 0.967
   220  H   0.998        C  212 0.975
   221  H   0.999        C  213 0.974
   222  H   0.999        C  213 0.974
   223  N   3.484        C  210 1.336    C  224 0.975    H  230 0.880    O  211 0.196
   224  C   3.960        N  223 0.975    C  227 0.964    H  231 0.951    C  225 0.938
   225  C   3.947        O  226 1.590    N  239 1.327    C  224 0.938
   226  O   1.956        C  225 1.590    N  239 0.192
   227  C   3.987        C  229 1.008    C  228 1.008    C  224 0.964    H  232 0.958
   228  C   3.992        C  227 1.008    H  235 0.986    H  234 0.985    H  233 0.983
   229  C   3.992        C  227 1.008    H  237 0.985    H  236 0.983    H  238 0.978
   230  H   0.946        N  223 0.880
   231  H   0.995        C  224 0.951
   232  H   0.998        C  227 0.958
   233  H   0.995        C  228 0.983
   234  H   0.999        C  228 0.985
   235  H   0.997        C  228 0.986
   236  H   0.996        C  229 0.983
   237  H   0.998        C  229 0.985
   238  H   0.997        C  229 0.978
   239  N   3.479        C  225 1.327    C  240 0.983    H  250 0.876    O  226 0.192
   240  C   3.965        N  239 0.983    C  243 0.964    H  251 0.948    C  241 0.933
   241  C   3.948        O  242 1.616    N  259 1.320    C  240 0.933
   242  O   1.936        C  241 1.616    N  259 0.198
   243  C   3.986        C  244 1.008    H  253 0.972    C  240 0.964    H  252 0.961
   244  C   3.987        C  246 1.417    C  245 1.406    C  243 1.008    C  249 0.110
   245  C   3.990        C  247 1.446    C  244 1.406    H  254 0.959    C  248 0.111
   246  C   3.990        C  248 1.442    C  244 1.417    H  255 0.969    C  247 0.110
   247  C   3.992        C  245 1.446    C  249 1.436    H  256 0.970    C  246 0.110
   248  C   3.991        C  246 1.442    C  249 1.441    H  257 0.970    C  245 0.111
   249  C   3.990        C  248 1.441    C  247 1.436    H  258 0.969    C  244 0.110
   250  H   0.945        N  239 0.876
   251  H   0.995        C  240 0.948
   252  H   0.995        C  243 0.961
   253  H   0.997        C  243 0.972
   254  H   0.998        C  245 0.959
   255  H   0.999        C  246 0.969
   256  H   0.998        C  247 0.970
   257  H   0.998        C  248 0.970
   258  H   0.997        C  249 0.969
   259  N   3.471        C  241 1.320    C  260 0.974    H  270 0.884    O  242 0.198
   260  C   3.963        C  263 0.983    N  259 0.974    H  271 0.953    C  261 0.932
   261  C   3.944        O  262 1.631    N  283 1.307    C  260 0.932
   262  O   1.944        C  261 1.631    N  283 0.197
   263  C   3.985        C  264 1.006    C  260 0.983    H  272 0.967    H  273 0.962
   264  C   3.992        C  263 1.006    C  265 1.005    H  274 0.974    H  275 0.969
   265  C   3.960        C  264 1.005    N  266 0.988    H  277 0.959    H  276 0.959
   266  N   3.464        C  267 1.308    C  265 0.988    H  278 0.911    N  268 0.105
   267  C   3.976        N  268 1.346    N  266 1.308    N  269 1.288
   268  N   3.406        C  267 1.346    H  280 0.927    H  279 0.849    N  266 0.105    N  269 0.103
   269  N   3.367        C  267 1.288    H  281 0.922    H  282 0.919    N  268 0.103
   270  H   0.949        N  259 0.884
   271  H   0.995        C  260 0.953
   272  H   0.994        C  263 0.967
   273  H   0.996        C  263 0.962
   274  H   0.997        C  264 0.974
   275  H   0.995        C  264 0.969
   276  H   0.993        C  265 0.959
   277  H   0.993        C  265 0.959
   278  H   0.946        N  266 0.911
   279  H   0.937        N  268 0.849
   280  H   0.949        N  268 0.927
   281  H   0.942        N  269 0.922
   282  H   0.938        N  269 0.919
   283  N   3.465        C  261 1.307    C  284 0.978    H  294 0.894    O  262 0.197
   284  C   3.967        N  283 0.978    C  287 0.969    H  295 0.955    C  285 0.934
   285  C   3.947        O  286 1.617    N  303 1.320    C  284 0.934
   286  O   1.941        C  285 1.617    N  303 0.197
   287  C   3.986        C  288 1.005    C  284 0.969    H  296 0.965    H  297 0.962
   288  C   3.987        C  290 1.414    C  289 1.414    C  287 1.005    C  293 0.110
   289  C   3.991        C  291 1.446    C  288 1.414    H  298 0.970    C  292 0.112
   290  C   3.991        C  292 1.444    C  288 1.414    H  299 0.968    C  291 0.111
   291  C   3.992        C  289 1.446    C  293 1.438    H  300 0.970    C  290 0.111
   292  C   3.991        C  290 1.444    C  293 1.439    H  301 0.970    C  289 0.112
   293  C   3.991        C  292 1.439    C  291 1.438    H  302 0.971    C  288 0.110
   294  H   0.950        N  283 0.894
   295  H   0.996        C  284 0.955
   296  H   0.996        C  287 0.965
   297  H   0.995        C  287 0.962
   298  H   0.999        C  289 0.970
   299  H   0.999        C  290 0.968
   300  H   0.998        C  291 0.970
   301  H   0.998        C  292 0.970
   302  H   0.998        C  293 0.971
   303  N   3.473        C  285 1.320    C  304 0.977    H  308 0.880    O  286 0.197
   304  C   3.967        C  307 0.983    N  303 0.977    C  305 0.973    H  309 0.949
   305  C   3.898        O  306 1.893    C  304 0.973    H  410 0.956
   306  O   2.033        C  305 1.893
   307  C   3.982        C  304 0.983    H  310 0.981    H  312 0.979    H  311 0.976
   308  H   0.947        N  303 0.880
   309  H   0.994        C  304 0.949
   310  H   0.993        C  307 0.981
   311  H   0.994        C  307 0.976
   312  H   0.996        C  307 0.979
   313  N   3.006        C  314 1.013    H  411 0.955    H  324 0.948
   314  C   3.984        N  313 1.013    C  315 0.968    C  317 0.962    H  325 0.959
   315  C   3.886        O  316 1.895    C  314 0.968    H  412 0.953
   316  O   2.030        C  315 1.895
   317  C   3.991        C  318 1.009    H  327 0.968    C  314 0.962    H  326 0.952
   318  C   3.988        C  319 1.415    C  320 1.407    C  317 1.009    C  323 0.109
   319  C   3.991        C  321 1.441    C  318 1.415    H  328 0.964    C  322 0.111
   320  C   3.991        C  322 1.444    C  318 1.407    H  329 0.967    C  321 0.111
   321  C   3.992        C  319 1.441    C  323 1.440    H  330 0.971    C  320 0.111
   322  C   3.991        C  320 1.444    C  323 1.434    H  331 0.967    C  319 0.111
   323  C   3.991        C  321 1.440    C  322 1.434    H  332 0.971    C  318 0.109
   324  H   0.969        N  313 0.948
   325  H   0.997        C  314 0.959
   326  H   0.994        C  317 0.952
   327  H   0.996        C  317 0.968
   328  H   0.998        C  319 0.964
   329  H   0.998        C  320 0.967
   330  H   0.999        C  321 0.971
   331  H   0.998        C  322 0.967
   332  H   0.999        C  323 0.971
   333  N   2.992        C  334 1.013    H  413 0.956    H  340 0.951
   334  C   3.984        N  333 1.013    C  337 0.966    H  341 0.964    C  335 0.937
   335  C   3.938        O  336 1.607    N  349 1.312    C  334 0.937
   336  O   1.954        C  335 1.607    N  349 0.191
   337  C   3.994        C  338 1.008    C  339 1.008    C  334 0.966    H  342 0.965
   338  C   3.995        C  337 1.008    H  345 0.987    H  343 0.984    H  344 0.982
   339  C   3.994        C  337 1.008    H  347 0.986    H  346 0.984    H  348 0.983
   340  H   0.972        N  333 0.951
   341  H   0.998        C  334 0.964
   342  H   0.999        C  337 0.965
   343  H   0.998        C  338 0.984
   344  H   0.999        C  338 0.982
   345  H   0.999        C  338 0.987
   346  H   0.997        C  339 0.984
   347  H   0.998        C  339 0.986
   348  H   0.998        C  339 0.983
   349  N   3.475        C  335 1.312    C  350 0.972    H  356 0.916    O  336 0.191
   350  C   3.962        C  351 0.976    N  349 0.972    C  353 0.955    H  357 0.945
   351  C   3.902        O  352 1.876    C  350 0.976    H  414 0.954
   352  O   2.049        C  351 1.876
   353  C   3.987        C  354 1.008    C  355 1.007    H  358 0.965    C  350 0.955
   354  C   3.993        C  353 1.008    H  359 0.983    H  361 0.983    H  360 0.981
   355  C   3.993        C  353 1.007    H  363 0.983    H  364 0.982    H  362 0.981
   356  H   0.954        N  349 0.916
   357  H   0.994        C  350 0.945
   358  H   0.996        C  353 0.965
   359  H   0.996        C  354 0.983
   360  H   0.998        C  354 0.981
   361  H   0.999        C  354 0.983
   362  H   0.995        C  355 0.981
   363  H   0.998        C  355 0.983
   364  H   0.998        C  355 0.982
   365  N   2.989        C  366 1.010    H  415 0.958    H  375 0.926
   366  C   3.986        N  365 1.010    C  369 0.973    H  376 0.967    C  367 0.937
   367  C   3.943        O  368 1.620    N  382 1.310    C  366 0.937
   368  O   1.962        C  367 1.620    N  382 0.194
   369  C   3.996        C  370 1.015    C  366 0.973    H  377 0.969    H  378 0.958
   370  C   3.976        C  372 1.550    N  371 1.278    C  369 1.015
   371  N   3.016        C  373 1.535    C  370 1.278    N  374 0.107
   372  C   3.941        C  370 1.550    N  374 1.215    H  379 0.970    C  373 0.122
   373  C   3.957        N  371 1.535    N  374 1.275    H  380 0.964    C  372 0.122
   374  N   3.595        C  373 1.275    C  372 1.215    H  381 0.925    N  371 0.107
   375  H   0.968        N  365 0.926
   376  H   0.999        C  366 0.967
   377  H   0.998        C  369 0.969
   378  H   0.998        C  369 0.958
   379  H   0.999        C  372 0.970
   380  H   0.998        C  373 0.964
   381  H   0.956        N  374 0.925
   382  N   3.468        C  367 1.310    C  383 0.977    H  390 0.897    O  368 0.194
   383  C   3.965        N  382 0.977    C  384 0.971    C  386 0.969    H  391 0.944
   384  C   3.902        O  385 1.874    C  383 0.971    H  416 0.956
   385  O   2.025        C  384 1.874
   386  C   3.982        C  387 0.989    H  392 0.970    C  383 0.969    H  393 0.968
   387  C   3.993        C  388 1.010    C  389 1.008    C  386 0.989    H  394 0.965
   388  C   3.994        C  387 1.010    H  397 0.984    H  395 0.982    H  396 0.978
   389  C   3.994        C  387 1.008    H  399 0.986    H  400 0.986    H  398 0.984
   390  H   0.948        N  382 0.897
   391  H   0.994        C  383 0.944
   392  H   0.995        C  386 0.970
   393  H   0.995        C  386 0.968
   394  H   0.998        C  387 0.965
   395  H   0.997        C  388 0.982
   396  H   0.999        C  388 0.978
   397  H   0.998        C  388 0.984
   398  H   0.997        C  389 0.984
   399  H   0.998        C  389 0.986
   400  H   0.998        C  389 0.986
   401  H   0.970        N    1 0.959
   402  H   0.991        C    3 0.952
   403  H   0.969        N   25 0.957
   404  H   0.995        C   38 0.953
   405  H   0.969        N   55 0.959
   406  H   0.995        C   76 0.954
   407  H   0.970        N   84 0.958
   408  H   0.995        C   86 0.955
   409  H   0.968        N  100 0.958
   410  H   0.996        C  305 0.956
   411  H   0.968        N  313 0.955
   412  H   0.994        C  315 0.953
   413  H   0.966        N  333 0.956
   414  H   0.994        C  351 0.954
   415  H   0.969        N  365 0.958
   416  H   0.996        C  384 0.956
 
molecular dipole:
                 x           y           z       tot (Debye)
 q only:        1.656       4.528       6.125
   full:        1.827       3.943       6.672      20.240
molecular quadrupole (traceless):
                xx          xy          yy          xz          yz          zz
 q only:     -309.608     424.576      44.003     320.700     916.273     265.604
  q+dip:     -293.758     401.373     -78.036     368.023     872.120     371.794
   full:     -291.518     403.334     -77.785     368.990     867.889     369.304


           -------------------------------------------------
          | TOTAL ENERGY             -610.613150652645 Eh   |
          | GRADIENT NORM               0.628152031774 Eh/α |
          | HOMO-LUMO GAP               1.394819454195 eV   |
           -------------------------------------------------

------------------------------------------------------------------------
 * finished run on 2019/05/31 at 07:36:54.198     
------------------------------------------------------------------------
 total:
 * wall-time:     0 d,  0 h,  0 min, 15.543 sec
 *  cpu-time:     0 d,  0 h,  0 min,  8.331 sec
 * ratio c/w:     0.536 speedup
 SCF:
 * wall-time:     0 d,  0 h,  0 min, 14.733 sec
 *  cpu-time:     0 d,  0 h,  0 min,  7.933 sec
 * ratio c/w:     0.538 speedup

