      -----------------------------------------------------------      
     |                   =====================                   |     
     |                           x T B                           |     
     |                   =====================                   |     
     |                         S. Grimme                         |     
     |          Mulliken Center for Theoretical Chemistry        |     
     |                    University of Bonn                     |     
     |                 Version 6.0.1 (SAW181210)                 |     
      -----------------------------------------------------------      

   This program is distributed in the hope that it will be useful,
   but WITHOUT ANY WARRANTY; without even the implied warranty of
   MERCHANTABILITY or FITNESS FOR A PARTICULAR PURPOSE.
   
   FOR NON-COMMERCIAL, ACADEMIA USE ONLY.
   
   Cite this work as:
   S. Grimme, C. Bannwarth, P. Shushkov, J. Comput. Theory Chem., 2017,
   13, 1989-2009.
   C. Bannwarth, S. Ehlert and S. Grimme., ChemRxiv, 2018, preprint.
   http://doi.org/10.26434/chemrxiv.7246238.v1
   
   for sTDA-xTB:
   S. Grimme and C. Bannwarth, J. Chem. Phys., 2016, 145, 054103.
   
   in the mass-spec context:
   V. Asgeirsson, C. Bauer and S. Grimme, Chem. Sci., 2017, 8, 4879.
   
   if GBSA is used:
   P. Shushkov, F. März and S. Grimme, unpublished.
   
   for ANC optimizer:
   S. Grimme, unpublished.
   Rational Function algorithm used in ANCopt:
   F. Eckert, P. Pulay, H.-J. Werner, J. Comput. Chem., 1997, 18, 1473.
   
   with help from (in alphabetical order)
   C. Bannwarth, F. Bohle, G. Brandenburg, E. Caldeweyher, M. Checinski,
   S. Dohm, S. Ehlert, S. Ehrlich, F. März, H. Neugebauer, J. Pisarek,
   P. Pracht, P. Shushkov, and S. Spicher.
   
 * started run on 2019/03/07 at 11:37:45.397     
========================================================================
 # omp threads = 1
========================================================================
number of atoms            : 274
number of electrons        : 726
charge                     : 1
spin                       : .0
first test random number   : .8907
           ------------------------------------------------- 
          |                 G F N 2 - x T B                 |
          | Geometry, Frequencies, Noncovalent interactions |
          |            JCTC 2018 parametrisation            |
           ------------------------------------------------- 
 
      method parameters     
 k(s)        :  1.8500
 k(p)        :  2.2300
 k(d)        :  2.2300
 k(f)        :  2.0000
 kEN (H0ij)  : -2.0000
 D4 a1       :  0.5200
 D4 a2       :  5.0000
 D4 s6       :  1.0000
 D4 s8       :  2.7000
 D4 s9       :  5.0000
 alphaj      :  2.0000

 Solvent             : h2o
 Using internal parameter file: .param_gbsa2_h2o
 Gsolv ref. state (COSMO-RS): gsolv [1 M gas/solution]
 temperature (mdtemp)       :    298.150000000000     
 dielectric constant        :    80.2000000000000     
 rho                        :    1.00000000000000     
 mass                       :    18.0000000000000     
 surface tension            :    15.5689454083859     
 probe radius               :   0.975313790000000     
 vdW radii scaling          :    1.00000000000000     
 Gshift (Eh)                :   1.857443126794793E-003
 c1                         :    1.55243817000000     
 soset                      :   0.130326360000000     
 HB correction              :  T

            Z     q(EN)     CN     RAES       Cart. coordinates
     1  N   5.0   -0.23    3.25    1.97   198.42311   123.65233   321.25152
     2  C   4.0    0.03    4.30    4.20   198.99948   126.18834   320.34445
     3  C   4.0    0.09    3.26    3.05   201.84730   126.48314   320.27831
     4  O   6.0   -0.32    1.21    1.80   202.81484   127.57162   318.49063
     5  C   4.0   -0.06    4.44    4.45   197.85431   128.14043   322.15481
     6  C   4.0   -0.03    4.27    4.14   198.44201   130.97313   321.93749
     7  C   4.0   -0.08    4.17    3.93   200.97235   131.73280   323.28298
     8  C   4.0   -0.08    4.24    4.07   198.47036   131.73091   319.18416
     9  H   1.0    0.11    1.08    1.44   197.34030   123.58997   322.46095
    10  H   1.0    0.05    1.12    1.45   198.29839   126.44723   318.67016
    11  H   1.0    0.04    1.10    1.44   196.03261   127.96846   322.03387
    12  H   1.0    0.05    1.10    1.44   198.33052   127.63020   323.84989
    13  H   1.0    0.04    1.13    1.45   197.11542   131.88586   322.81244
    14  H   1.0    0.05    1.05    1.44   201.25203   133.53370   323.08834
    15  H   1.0    0.05    1.05    1.44   200.86464   131.32084   325.06499
    16  H   1.0    0.05    1.05    1.44   202.36697   130.81439   322.52709
    17  H   1.0    0.04    1.06    1.44   198.84074   133.52048   319.04621
    18  H   1.0    0.06    1.07    1.44   199.75537   130.77093   318.29788
    19  H   1.0    0.04    1.06    1.44   196.83197   131.38887   318.43772
    20  N   5.0   -0.23    3.28    1.98   206.07273   128.27649   314.67528
    21  C   4.0    0.03    4.37    4.33   207.91710   130.32684   314.55244
    22  C   4.0    0.08    3.24    3.04   210.32272   129.27804   313.33924
    23  O   6.0   -0.28    1.11    1.80   211.41876   130.48180   311.62526
    24  C   4.0   -0.03    4.44    4.45   208.53126   131.31139   317.22830
    25  C   4.0   -0.05    4.32    4.24   206.15965   132.34696   318.50764
    26  C   4.0   -0.07    4.24    4.08   210.57783   133.33906   317.17727
    27  C   4.0   -0.08    4.14    3.88   204.77826   134.42943   317.05633
    28  H   1.0    0.13    1.12    1.45   205.58896   127.89665   316.17950
    29  H   1.0    0.04    1.12    1.45   207.23869   131.71768   313.56979
    30  H   1.0    0.05    1.13    1.45   209.16243   129.88842   318.19395
    31  H   1.0    0.06    1.11    1.44   204.99369   130.95990   318.78543
    32  H   1.0    0.05    1.09    1.44   206.62453   132.99702   320.15737
    33  H   1.0    0.05    1.06    1.44   210.91420   133.91165   318.88558
    34  H   1.0    0.06    1.06    1.44   212.11229   132.64175   316.45351
    35  H   1.0    0.05    1.06    1.44   210.01091   134.75447   316.15871
    36  H   1.0    0.04    1.05    1.44   203.30617   134.96612   318.00875
    37  H   1.0    0.05    1.05    1.44   205.90265   135.85618   316.81633
    38  H   1.0    0.04    1.06    1.44   204.24725   133.78882   315.42361
    39  N   5.0   -0.21    3.22    1.96   209.96934   129.13064   306.27166
    40  C   4.0    0.04    4.28    4.16   210.41721   131.63264   305.20208
    41  C   4.0    0.10    3.20    3.04   213.19888   132.42822   305.00933
    42  O   6.0   -0.26    1.11    1.80   213.81871   134.22345   303.64683
    43  C   4.0   -0.04    4.48    4.50   209.02826   133.62630   306.74976
    44  C   4.0   -0.03    4.31    4.22   206.12942   133.71512   306.48709
    45  C   4.0   -0.09    4.24    4.07   204.88787   134.13653   308.99476
    46  C   4.0   -0.08    4.23    4.05   205.49825   135.82594   304.60682
    47  H   1.0    0.11    1.09    1.44   208.94889   129.12497   307.53589
    48  H   1.0    0.05    1.13    1.45   209.78793   131.51359   303.48432
    49  H   1.0    0.06    1.10    1.44   209.43266   133.35985   308.51855
    50  H   1.0    0.06    1.11    1.45   209.69344   135.27036   306.28867
    51  H   1.0    0.04    1.13    1.45   205.48880   132.11263   305.86915
    52  H   1.0    0.04    1.06    1.44   203.06806   134.18377   308.77555
    53  H   1.0    0.04    1.06    1.44   205.33006   132.77026   310.13426
    54  H   1.0    0.05    1.06    1.44   205.46045   135.72768   309.70152
    55  H   1.0    0.04    1.06    1.44   203.68033   135.93366   304.39517
    56  H   1.0    0.05    1.06    1.44   206.13509   137.42276   305.24365
    57  H   1.0    0.05    1.05    1.44   206.27871   135.45934   302.98921
    58  N   5.0   -0.23    3.21    1.96   197.96958   137.40953   294.80481
    59  C   4.0    0.03    4.43    4.42   198.37209   139.14808   296.92130
    60  C   4.0    0.15    3.48    3.11   195.95513   139.83216   298.35749
    61  O   6.0   -0.31    1.30    1.80   195.91545   139.78870   300.67241
    62  C   4.0   -0.03    4.35    4.29   199.83285   141.62173   296.10872
    63  C   4.0   -0.08    4.29    4.17   198.01304   143.52847   295.00701
    64  C   4.0   -0.08    4.22    4.04   201.17267   142.77069   298.38584
    65  H   1.0    0.11    1.08    1.44   198.74626   137.83094   293.44042
    66  H   1.0    0.05    1.13    1.45   199.43034   138.20700   298.08537
    67  H   1.0    0.05    1.12    1.45   201.07440   141.17576   294.83693
    68  H   1.0    0.05    1.06    1.44   198.93145   145.03647   294.51568
    69  H   1.0    0.05    1.06    1.44   197.18912   142.80848   293.53680
    70  H   1.0    0.05    1.07    1.44   196.74882   143.96499   296.26179
    71  H   1.0    0.05    1.06    1.44   202.06462   144.28814   297.86994
    72  H   1.0    0.06    1.06    1.44   199.93867   143.19587   299.67274
    73  H   1.0    0.05    1.05    1.44   202.37075   141.56126   299.06614
    74  N   5.0   -0.17    3.55    2.12   193.95769   140.45388   296.96098
    75  C   4.0    0.04    4.47    4.49   191.52372   141.13229   298.03246
    76  C   4.0    0.18    3.54    3.13   190.81508   139.24635   300.06769
    77  O   6.0   -0.29    1.26    1.80   190.30296   139.92287   302.20119
    78  C   4.0    0.03    4.26    4.13   189.52251   141.10773   295.92541
    79  O   6.0   -0.26    2.07    1.83   187.08476   141.82771   296.86650
    80  H   1.0    0.09    1.14    1.45   193.98793   140.49168   295.33582
    81  H   1.0    0.06    1.12    1.45   191.61443   142.80659   298.77323
    82  H   1.0    0.05    1.07    1.44   190.02706   142.25290   294.58560
    83  H   1.0    0.05    1.07    1.44   189.42613   139.43154   295.18842
    84  H   1.0    0.15    1.07    1.44   186.03029   141.80126   295.67975
    85  N   5.0   -0.16    3.57    2.13   190.86232   136.83317   299.40440
    86  C   4.0    0.03    4.52    4.57   190.25383   134.78848   301.14673
    87  C   4.0    0.16    3.47    3.10   191.77128   134.89431   303.60148
    88  O   6.0   -0.30    1.23    1.80   190.73382   134.53148   305.65939
    89  C   4.0   -0.04    4.43    4.43   190.84342   132.24302   299.91085
    90  C   4.0    0.16    3.34    3.06   189.82297   132.05405   297.26145
    91  O   6.0   -0.27    1.20    1.80   191.17979   131.40776   295.46621
    92  N   5.0   -0.23    3.26    1.97   187.41357   132.64931   296.94965
    93  H   1.0    0.10    1.15    1.45   191.25349   136.32672   297.90963
    94  H   1.0    0.06    1.13    1.45   188.48127   134.97746   301.57381
    95  H   1.0    0.06    1.10    1.44   192.65945   131.98980   299.88061
    96  H   1.0    0.05    1.09    1.44   190.13289   130.89565   300.93130
    97  H   1.0    0.13    1.09    1.44   186.75028   132.59451   295.46621
    98  H   1.0    0.11    1.10    1.44   186.51406   133.09340   298.22710
    99  N   5.0   -0.16    3.51    2.08   194.22225   135.44044   303.38794
   100  C   4.0    0.04    4.61    4.67   195.88899   135.59918   305.61026
   101  C   4.0    0.16    3.46    3.10   195.59986   137.97456   307.19763
   102  O   6.0   -0.32    1.29    1.80   195.73781   137.86118   309.52388
   103  C   4.0   -0.05    4.48    4.50   198.62343   135.17021   304.88272
   104  C   4.0   -0.05    4.18    3.95   199.21113   132.38097   304.49532
   105  S   6.0   -0.04    2.85    3.11   197.95635   130.53660   307.03322
   106  C   4.0   -0.07    4.01    3.64   198.78783   127.52060   306.06001
   107  H   1.0    0.11    1.14    1.45   194.96492   135.72768   301.97254
   108  H   1.0    0.06    1.22    1.47   195.32963   134.24046   306.70630
   109  H   1.0    0.05    1.09    1.44   198.99570   136.09050   303.34259
   110  H   1.0    0.04    1.10    1.44   199.71569   135.84673   306.19041
   111  H   1.0    0.05    1.14    1.45   198.50059   131.81216   302.90417
   112  H   1.0    0.04    1.14    1.45   201.02527   132.13720   304.38950
   113  H   1.0    0.05    1.12    1.45   198.20769   126.29794   307.29590
   114  H   1.0    0.05    1.12    1.45   198.01115   127.16533   304.43863
   115  H   1.0    0.05    1.12    1.45   200.61142   127.40910   305.90128
   116  N   5.0   -0.15    3.53    2.10   195.00271   140.06460   305.92773
   117  C   4.0    0.04    4.44    4.45   194.56807   142.42864   307.28267
   118  C   4.0    0.16    3.50    3.12   192.27962   141.99779   309.03633
   119  O   6.0   -0.30    1.27    1.80   192.46481   142.20944   311.37203
   120  C   4.0    0.03    4.24    4.08   194.11076   144.60183   305.37593
   121  O   6.0   -0.26    2.08    1.84   196.32552   145.17253   303.97376
   122  H   1.0    0.13    1.15    1.45   194.84208   140.15341   304.31202
   123  H   1.0    0.06    1.12    1.45   196.02316   142.91430   308.28611
   124  H   1.0    0.06    1.07    1.44   192.76150   144.13318   304.22698
   125  H   1.0    0.05    1.07    1.44   193.55329   146.09849   306.27544
   126  H   1.0    0.15    1.08    1.44   196.01938   146.35172   302.95708
   127  N   5.0   -0.16    3.52    2.09   190.11588   141.44032   307.88360
   128  C   4.0    0.03    4.46    4.48   187.81041   140.96978   309.34058
   129  C   4.0    0.17    3.54    3.14   188.41135   139.04415   311.41739
   130  O   6.0   -0.31    1.30    1.80   187.64412   139.35028   313.58679
   131  C   4.0   -0.05    4.37    4.32   185.68447   139.87185   307.63794
   132  C   4.0   -0.05    4.29    4.17   183.47727   138.63030   309.12326
   133  C   4.0   -0.01    4.35    4.29   183.35633   135.81649   308.59036
   134  N   5.0   -0.16    3.48    2.07   183.73050   135.15698   305.96553
   135  C   4.0    0.12    3.49    3.11   184.83032   133.04427   305.19830
   136  N   5.0   -0.23    3.32    1.99   185.72227   131.37375   306.81968
   137  N   5.0   -0.24    3.31    1.98   184.93047   132.50380   302.71709
   138  H   1.0    0.11    1.14    1.45   189.93824   141.32504   306.27166
   139  H   1.0    0.05    1.12    1.45   187.23216   142.55715   310.05112
   140  H   1.0    0.05    1.08    1.44   185.01173   141.21544   306.58914
   141  H   1.0    0.06    1.11    1.44   186.41391   138.62652   306.50788
   142  H   1.0    0.05    1.10    1.44   183.70404   138.91186   310.92039
   143  H   1.0    0.05    1.08    1.44   181.89179   139.42020   308.65272
   144  H   1.0    0.05    1.10    1.44   184.62811   134.96612   309.60136
   145  H   1.0    0.05    1.09    1.44   181.72550   135.17966   309.13460
   146  H   1.0    0.10    1.14    1.45   183.20704   136.20011   304.83358
   147  H   1.0    0.11    1.10    1.44   185.59565   131.64398   308.41650
   148  H   1.0    0.11    1.09    1.44   186.42902   130.01315   306.27922
   149  H   1.0    0.11    1.09    1.44   184.28230   133.52804   301.63617
   150  H   1.0    0.11    1.09    1.44   185.64290   131.13375   302.21253
   151  N   5.0   -0.15    3.54    2.11   189.91746   137.12796   310.75976
   152  C   4.0    0.04    4.44    4.44   190.62799   135.14375   312.54933
   153  C   4.0    0.16    3.47    3.10   192.01316   136.26058   314.83968
   154  O   6.0   -0.32    1.28    1.80   191.45192   135.52548   316.99586
   155  C   4.0   -0.08    4.25    4.10   192.20025   133.15954   311.31156
   156  H   1.0    0.12    1.14    1.45   190.55052   136.94466   309.27444
   157  H   1.0    0.05    1.13    1.45   189.08220   134.35196   313.13893
   158  H   1.0    0.05    1.06    1.44   192.64055   131.87264   312.53989
   159  H   1.0    0.06    1.06    1.44   191.25349   132.39420   309.94151
   160  H   1.0    0.06    1.06    1.44   193.73092   133.91732   310.64638
   161  N   5.0   -0.15    3.51    2.09   193.76305   138.03503   314.41449
   162  C   4.0    0.04    4.52    4.56   195.20491   139.18776   316.46485
   163  C   4.0    0.17    3.48    3.11   193.53061   140.53325   318.33378
   164  O   6.0   -0.31    1.35    1.80   193.51361   139.83972   320.53343
   165  C   4.0   -0.05    4.39    4.36   197.32140   140.87529   315.47652
   166  C   4.0   -0.04    4.33    4.25   199.37932   139.37863   314.14615
   167  C   4.0    0.16    3.30    3.05   201.56195   141.05670   313.33924
   168  O   6.0   -0.28    1.22    1.80   202.95657   142.05070   314.88692
   169  N   5.0   -0.24    3.24    1.97   201.90021   141.39685   310.89771
   170  H   1.0    0.13    1.16    1.46   194.13911   138.59628   312.93673
   171  H   1.0    0.05    1.15    1.45   196.00804   137.81960   317.38325
   172  H   1.0    0.06    1.09    1.44   196.62221   142.10928   314.31623
   173  H   1.0    0.06    1.09    1.44   198.05651   141.80881   316.87303
   174  H   1.0    0.04    1.09    1.44   199.99915   138.06338   315.26298
   175  H   1.0    0.06    1.10    1.44   198.67445   138.54337   312.67595
   176  H   1.0    0.11    1.09    1.44   200.90243   140.68443   309.83191
   177  H   1.0    0.12    1.09    1.44   203.11908   142.33227   310.36859
   178  N   5.0   -0.16    3.52    2.09   192.05663   142.38518   317.46073
   179  C   4.0    0.03    4.58    4.64   190.35398   143.81003   319.13503
   180  C   4.0    0.17    3.56    3.14   188.44914   142.00535   320.25564
   181  O   6.0   -0.30    1.31    1.80   188.01450   142.08660   322.51008
   182  C   4.0   -0.03    4.47    4.50   188.86110   145.86795   317.75364
   183  C   4.0   -0.05    4.36    4.31   190.52784   147.46476   316.01131
   184  C   4.0   -0.08    4.26    4.12   187.62900   147.62350   319.70951
   185  C   4.0   -0.08    4.18    3.97   189.18235   149.53023   314.68850
   186  H   1.0    0.11    1.13    1.45   192.01127   142.85005   315.90360
   187  H   1.0    0.06    1.13    1.45   191.40845   144.61128   320.40303
   188  H   1.0    0.05    1.13    1.45   187.60254   145.02702   316.71996
   189  H   1.0    0.05    1.10    1.44   191.89222   148.18853   316.99964
   190  H   1.0    0.06    1.10    1.44   191.29696   146.36683   314.76031
   191  H   1.0    0.05    1.06    1.44   186.68036   148.93119   318.84590
   192  H   1.0    0.06    1.06    1.44   186.49705   146.65218   320.77531
   193  H   1.0    0.06    1.06    1.44   188.93102   148.39640   320.74319
   194  H   1.0    0.05    1.06    1.44   190.36154   150.44864   313.62837
   195  H   1.0    0.05    1.06    1.44   187.84821   148.82348   313.64726
   196  H   1.0    0.05    1.06    1.44   188.45292   150.67352   315.92249
   197  N   5.0   -0.16    3.55    2.12   187.30397   140.41798   318.65126
   198  C   4.0    0.04    4.51    4.54   185.45393   138.57927   319.52998
   199  C   4.0    0.17    3.57    3.15   186.59343   137.23946   321.80521
   200  O   6.0   -0.30    1.29    1.80   185.75439   137.61362   323.92548
   201  C   4.0   -0.05    4.50    4.54   184.86622   136.67065   317.44372
   202  C   4.0   -0.03    4.32    4.24   183.41113   134.24613   317.96718
   203  C   4.0   -0.08    4.23    4.07   185.20448   132.04460   318.46985
   204  C   4.0   -0.08    4.25    4.09   181.49684   134.51636   320.05344
   205  H   1.0    0.13    1.17    1.46   187.57987   140.38585   317.05066
   206  H   1.0    0.05    1.12    1.45   183.88545   139.41075   319.98352
   207  H   1.0    0.05    1.10    1.44   183.94025   137.57394   316.14548
   208  H   1.0    0.06    1.11    1.45   186.47249   136.17554   316.71051
   209  H   1.0    0.04    1.14    1.45   182.45682   133.87952   316.44595
   210  H   1.0    0.05    1.06    1.44   184.23127   130.52526   318.79677
   211  H   1.0    0.05    1.06    1.44   186.27407   131.78004   317.00531
   212  H   1.0    0.06    1.07    1.44   186.24950   132.42633   319.92682
   213  H   1.0    0.05    1.06    1.44   180.63134   132.91954   320.30099
   214  H   1.0    0.06    1.07    1.44   182.34722   134.99824   321.60490
   215  H   1.0    0.05    1.06    1.44   180.27608   135.80705   319.59990
   216  N   5.0   -0.17    3.58    2.14   188.57575   135.75980   321.28743
   217  C   4.0    0.05    4.55    4.61   189.87588   134.33873   323.25463
   218  C   4.0    0.16    3.51    3.12   190.70547   135.97712   325.44293
   219  O   6.0   -0.28    1.29    1.80   190.41257   135.22690   327.63313
   220  C   4.0   -0.04    4.42    4.42   192.13978   132.87797   322.20961
   221  C   4.0   -0.04    4.37    4.33   191.40467   130.50447   320.88869
   222  C   4.0    0.16    3.34    3.06   190.07997   128.59774   322.51575
   223  O   6.0   -0.28    1.28    1.80   188.71559   129.26292   324.26563
   224  N   5.0   -0.24    3.25    1.97   190.49004   126.21669   322.03576
   225  H   1.0    0.12    1.17    1.46   189.19180   135.55949   319.79643
   226  H   1.0    0.08    1.16    1.46   188.64189   133.14064   323.88958
   227  H   1.0    0.06    1.10    1.44   193.06385   133.95133   321.04743
   228  H   1.0    0.05    1.10    1.44   193.28117   132.47168   323.58533
   229  H   1.0    0.05    1.10    1.44   190.31430   130.93155   319.47896
   230  H   1.0    0.04    1.11    1.44   192.91078   129.73158   320.18761
   231  H   1.0    0.10    1.10    1.44   191.45381   125.79150   320.79799
   232  H   1.0    0.13    1.09    1.44   189.79652   125.07151   322.95605
   233  N   5.0   -0.15    3.62    2.18   191.51995   138.29014   324.82877
   234  C   4.0    0.04    4.53    4.57   192.39489   140.09105   326.69393
   235  C   4.0    0.17    3.52    3.13   190.26895   140.48979   328.57988
   236  O   6.0   -0.26    1.23    1.80   190.75839   140.41231   330.83621
   237  C   4.0   -0.04    4.46    4.47   193.08464   142.52880   325.35790
   238  C   4.0   -0.03    4.34    4.28   195.66034   143.49634   326.05521
   239  C   4.0    0.17    3.31    3.05   196.67323   145.20654   324.00485
   240  O   6.0   -0.27    1.20    1.80   196.06663   147.44965   323.94249
   241  N   5.0   -0.23    3.22    1.96   198.08485   144.08593   322.21339
   242  H   1.0    0.13    1.19    1.46   191.57286   138.84383   323.30187
   243  H   1.0    0.06    1.13    1.45   193.88021   139.49012   327.58399
   244  H   1.0    0.07    1.13    1.45   193.01472   142.26046   323.54565
   245  H   1.0    0.06    1.10    1.44   191.83364   143.80814   325.75852
   246  H   1.0    0.07    1.09    1.44   195.57152   144.41097   327.64069
   247  H   1.0    0.05    1.10    1.44   196.80551   142.08849   326.31221
   248  H   1.0    0.11    1.09    1.44   198.45902   142.50990   322.34189
   249  H   1.0    0.13    1.08    1.44   198.61209   144.94576   320.93972
   250  N   5.0   -0.15    3.62    2.18   187.92947   140.63152   327.65202
   251  C   4.0    0.05    4.43    4.44   185.73738   141.03025   329.27152
   252  C   4.0    0.18    3.50    3.11   185.29708   138.52825   330.62078
   253  O   6.0   -0.24    1.25    1.80   184.45615   138.51880   332.77885
   254  C   4.0   -0.07    4.23    4.06   183.44515   141.72945   327.68604
   255  H   1.0    0.14    1.17    1.46   187.57609   140.49923   326.07221
   256  H   1.0    0.07    1.12    1.45   186.01139   142.39841   330.46016
   257  H   1.0    0.06    1.06    1.44   181.99951   141.99023   328.78208
   258  H   1.0    0.06    1.06    1.44   183.79097   143.27146   326.75629
   259  H   1.0    0.07    1.06    1.44   183.08043   140.37451   326.50685
   260  N   5.0   -0.14    3.48    2.07   186.00195   136.41176   329.44159
   261  C   4.0    0.04    4.27    4.13   185.70715   133.94755   330.63779
   262  C   4.0    0.12    3.19    3.03   187.08854   133.86441   333.12845
   263  O   6.0   -0.23    1.12    1.80   185.86966   133.57339   335.10132
   264  H   1.0    0.13    1.16    1.46   186.65201   136.36829   327.95249
   265  H   1.0    0.07    1.09    1.44   183.92703   133.59607   330.90424
   266  H   1.0    0.06    1.09    1.44   186.35155   132.63797   329.52852
   267  H   1.0    0.10    1.08    1.44   197.78608   122.72445   319.97646
   268  H   1.0    0.06    1.05    1.44   202.90181   125.79080   321.68534
   269  H   1.0    0.10    1.08    1.44   204.67963   128.71298   313.80274
   270  H   1.0    0.07    1.04    1.43   211.02697   127.62190   313.91569
   271  H   1.0    0.10    1.08    1.44   209.29927   128.11637   305.08220
   272  H   1.0    0.08    1.04    1.43   214.51872   131.49421   305.98746
   273  H   1.0    0.10    1.08    1.44   198.51870   135.85772   295.23249
   274  H   1.0    0.08    1.04    1.43   188.96923   134.04365   333.17227

  Z AO/shell   Hii/eV     exponent
  1     Wed Apr 25 08:07:45 CEST 2018   EN: 2.200 GM2: 0.406  GM3: 0.0800  RAES: 1.40
     1s    -10.707211    1.230000
  6     Wed Apr 25 08:07:45 CEST 2018   EN: 2.550 GM2: 0.538  GM3: 0.1500  RAES: 3.00
     2s    -13.970922    2.096432
     2p    -10.063292    1.800000
  7     Wed Apr 25 08:07:45 CEST 2018   EN: 3.040 GM2: 0.461  GM3:-0.0640  RAES: 1.90
     2s    -16.686243    2.339881
     2p    -12.523956    2.014332
  8     Wed Apr 25 08:07:45 CEST 2018   EN: 3.440 GM2: 0.452  GM3:-0.0517  RAES: 1.80
     2s    -20.229985    2.439742
     2p    -15.503117    2.137023
 16     Tue Apr 24 11:44:34 CEST 2018   EN: 2.580 GM2: 0.340  GM3:-0.0502  RAES: 3.10
     3s    -20.029654    1.981333
     3p    -11.377694    2.025643
     3d     -0.420282    1.702555
 no old-style atom pair restraining (fixing) potential

molecular fragmentation (1/2 indicates fragments):
111111111111111111122222222222222222222222222222222222222222222222222222
222222222222222222222222222222222222222222222222222222222222222222222222
222222222222222222222222222222222222222222222222222222222222222222222222
2222222222222222222222222222222222222222222222222211222222
# atoms in fragment 1/2:    21   253
 fragment masses (1/2) :      115.17     1718.06
CMA distance (Bohr)    :  13.465
constraining FC (au)   :  0.0500
           ------------------------------------------------- 
          |        Self-Consistent Charge Iterations        |
           ------------------------------------------------- 

 Ncao       : 661
 Nao        : 660
 Nshell     : 402
 Nel        : 726
 T(el)      :   500.0
 intcut     :    35.0
 scfconv/Eh :  0.100E-06
   qconv/e  :  0.100E-04
 intneglect :  0.100E-08
 broydamp   :      0.400
 iter      E             dE          RMSdq      gap      omega  full diag
   1   -416.9718807 -0.416972E+03  0.461E+00    2.27       0.0  T
   2   -417.9576819 -0.985801E+00  0.214E+00    1.47       1.0  T
   3   -418.0073381 -0.496562E-01  0.122E+00    2.03       1.0  T
   4   -418.0700473 -0.627092E-01  0.242E-01    1.86       1.0  T
   5   -418.0743832 -0.433594E-02  0.112E-01    2.00       1.0  T
   6   -418.0748132 -0.429960E-03  0.493E-02    1.99       1.0  T
   7   -418.0749518 -0.138676E-03  0.198E-02    2.02       1.0  T
   8   -418.0749628 -0.109457E-04  0.986E-03    2.02       1.0  T
   9   -418.0749667 -0.390450E-05  0.349E-03    2.02       1.7  T
  10   -418.0749673 -0.595231E-06  0.160E-03    2.02       3.8  T
  11   -418.0749674 -0.110807E-06  0.712E-04    2.02       8.5  T
  12   -418.0749674 -0.129547E-07  0.307E-04    2.02      19.6  T
  13   -418.0749674 -0.413866E-08  0.139E-04    2.02      43.6  T
  14   -418.0749674 -0.677460E-09  0.608E-05    2.02      99.4  T
  15   -418.0749674 -0.146827E-09  0.238E-05    2.02     253.8  T
speedup  1.00
cpu  time for SCC    1.99 s
wall time for SCC    2.00 s

   *** convergence criteria satisfied after 15 iterations ***

          eigenvalues
 #    :         351        352        353        354        355        356        357        358
 occ. :        2.000      2.000      2.000      2.000      2.000      2.000      2.000      2.000
 eps  :       -10.913    -10.843    -10.835    -10.799    -10.673    -10.573    -10.545    -10.444
 #    :         359        360        361        362        363        364        365        366
 occ. :        2.000      2.000      2.000      2.000      2.000      0.000      0.000      0.000
 eps  :       -10.425    -10.067     -9.887     -9.768     -9.710     -7.688     -7.678     -7.673
 #    :         367        368        369        370        371        372        373        374
 occ. :        0.000      0.000      0.000      0.000      0.000      0.000      0.000      0.000
 eps  :        -7.586     -7.011     -6.852     -6.791     -6.780     -6.624     -6.539     -6.498


   #   Z            q   n(s)   n(p)   n(d)      C6AA      α(0)
   1   7 N     -0.425  1.290  4.135  0.000    31.070     8.278
   2   6 C      0.027  1.033  2.940  0.000    20.137     6.391
   3   6 C      0.201  1.090  2.709  0.000    23.731     7.978
   4   8 O     -0.379  1.745  4.635  0.000    21.269     6.183
   5   6 C     -0.101  1.015  3.086  0.000    22.407     6.736
   6   6 C     -0.037  1.040  2.996  0.000    21.196     6.548
   7   6 C     -0.153  0.982  3.172  0.000    23.507     6.911
   8   6 C     -0.157  0.976  3.180  0.000    23.565     6.917
   9   1 H      0.188  0.812  0.000  0.000     1.168     1.693
  10   1 H      0.079  0.921  0.000  0.000     1.985     2.203
  11   1 H      0.064  0.936  0.000  0.000     2.147     2.291
  12   1 H      0.063  0.937  0.000  0.000     2.166     2.301
  13   1 H      0.052  0.948  0.000  0.000     2.297     2.370
  14   1 H      0.054  0.946  0.000  0.000     2.266     2.354
  15   1 H      0.044  0.956  0.000  0.000     2.398     2.421
  16   1 H      0.051  0.949  0.000  0.000     2.303     2.373
  17   1 H      0.050  0.950  0.000  0.000     2.316     2.379
  18   1 H      0.071  0.929  0.000  0.000     2.070     2.250
  19   1 H      0.060  0.940  0.000  0.000     2.201     2.320
  20   7 N     -0.422  1.287  4.135  0.000    31.003     8.270
  21   6 C      0.027  1.038  2.935  0.000    20.139     6.391
  22   6 C      0.189  1.100  2.711  0.000    23.949     8.015
  23   8 O     -0.393  1.771  4.622  0.000    21.541     6.223
  24   6 C     -0.033  1.043  2.989  0.000    21.119     6.536
  25   6 C     -0.088  1.006  3.082  0.000    22.158     6.700
  26   6 C     -0.147  0.976  3.171  0.000    23.374     6.890
  27   6 C     -0.146  0.974  3.172  0.000    23.364     6.889
  28   1 H      0.202  0.798  0.000  0.000     1.094     1.638
  29   1 H      0.072  0.928  0.000  0.000     2.058     2.243
  30   1 H      0.050  0.950  0.000  0.000     2.318     2.381
  31   1 H      0.069  0.931  0.000  0.000     2.101     2.266
  32   1 H      0.050  0.950  0.000  0.000     2.325     2.384
  33   1 H      0.058  0.942  0.000  0.000     2.227     2.334
  34   1 H      0.039  0.961  0.000  0.000     2.464     2.454
  35   1 H      0.059  0.941  0.000  0.000     2.208     2.324
  36   1 H      0.054  0.946  0.000  0.000     2.266     2.354
  37   1 H      0.049  0.951  0.000  0.000     2.338     2.391
  38   1 H      0.056  0.944  0.000  0.000     2.241     2.341
  39   7 N     -0.421  1.285  4.136  0.000    30.966     8.265
  40   6 C      0.032  1.033  2.935  0.000    20.043     6.376
  41   6 C      0.197  1.097  2.706  0.000    23.797     7.989
  42   8 O     -0.400  1.766  4.634  0.000    21.684     6.243
  43   6 C     -0.095  1.014  3.081  0.000    22.292     6.718
  44   6 C     -0.025  1.031  2.994  0.000    20.977     6.514
  45   6 C     -0.147  0.975  3.172  0.000    23.362     6.887
  46   6 C     -0.158  0.981  3.177  0.000    23.592     6.921
  47   1 H      0.184  0.816  0.000  0.000     1.191     1.709
  48   1 H      0.075  0.925  0.000  0.000     2.028     2.227
  49   1 H      0.071  0.929  0.000  0.000     2.072     2.251
  50   1 H      0.060  0.940  0.000  0.000     2.196     2.317
  51   1 H      0.049  0.951  0.000  0.000     2.337     2.391
  52   1 H      0.066  0.934  0.000  0.000     2.129     2.282
  53   1 H      0.047  0.953  0.000  0.000     2.358     2.401
  54   1 H      0.050  0.950  0.000  0.000     2.321     2.382
  55   1 H      0.062  0.938  0.000  0.000     2.180     2.309
  56   1 H      0.053  0.947  0.000  0.000     2.280     2.361
  57   1 H      0.052  0.948  0.000  0.000     2.300     2.371
  58   7 N     -0.426  1.281  4.144  0.000    31.099     8.282
  59   6 C      0.006  1.046  2.948  0.000    20.488     6.447
  60   6 C      0.266  1.049  2.685  0.000    22.517     7.770
  61   8 O     -0.487  1.739  4.747  0.000    23.489     6.498
  62   6 C     -0.033  1.045  2.988  0.000    21.127     6.537
  63   6 C     -0.158  0.977  3.180  0.000    23.584     6.920
  64   6 C     -0.155  0.979  3.176  0.000    23.524     6.911
  65   1 H      0.184  0.816  0.000  0.000     1.191     1.709
  66   1 H      0.062  0.938  0.000  0.000     2.181     2.309
  67   1 H      0.057  0.943  0.000  0.000     2.239     2.340
  68   1 H      0.061  0.939  0.000  0.000     2.186     2.312
  69   1 H      0.058  0.942  0.000  0.000     2.221     2.330
  70   1 H      0.057  0.943  0.000  0.000     2.238     2.339
  71   1 H      0.058  0.942  0.000  0.000     2.216     2.328
  72   1 H      0.063  0.937  0.000  0.000     2.165     2.301
  73   1 H      0.055  0.945  0.000  0.000     2.253     2.347
  74   7 N     -0.190  1.208  3.982  0.000    25.118     7.443
  75   6 C      0.001  1.041  2.958  0.000    20.570     6.457
  76   6 C      0.281  1.033  2.685  0.000    22.236     7.722
  77   8 O     -0.466  1.729  4.737  0.000    23.045     6.436
  78   6 C      0.049  0.999  2.952  0.000    19.936     6.390
  79   8 O     -0.501  1.686  4.816  0.000    22.916     6.462
  80   1 H      0.222  0.778  0.000  0.000     1.002     1.568
  81   1 H      0.103  0.897  0.000  0.000     1.759     2.074
  82   1 H      0.069  0.931  0.000  0.000     2.097     2.264
  83   1 H      0.066  0.934  0.000  0.000     2.124     2.279
  84   1 H      0.356  0.644  0.000  0.000     0.575     1.190
  85   7 N     -0.187  1.197  3.990  0.000    25.056     7.434
  86   6 C     -0.008  1.045  2.963  0.000    20.729     6.482
  87   6 C      0.259  1.042  2.699  0.000    22.630     7.790
  88   8 O     -0.460  1.735  4.725  0.000    22.911     6.418
  89   6 C     -0.139  1.019  3.120  0.000    23.151     6.846
  90   6 C      0.278  1.032  2.690  0.000    22.292     7.731
  91   8 O     -0.507  1.774  4.733  0.000    23.933     6.559
  92   7 N     -0.288  1.190  4.098  0.000    27.435     7.779
  93   1 H      0.210  0.790  0.000  0.000     1.057     1.611
  94   1 H      0.114  0.886  0.000  0.000     1.661     2.015
  95   1 H      0.101  0.899  0.000  0.000     1.772     2.081
  96   1 H      0.124  0.876  0.000  0.000     1.583     1.968
  97   1 H      0.242  0.758  0.000  0.000     0.916     1.499
  98   1 H      0.238  0.762  0.000  0.000     0.931     1.511
  99   7 N     -0.173  1.206  3.967  0.000    24.745     7.388
 100   6 C     -0.007  1.043  2.964  0.000    20.698     6.476
 101   6 C      0.260  1.042  2.698  0.000    22.626     7.790
 102   8 O     -0.486  1.746  4.740  0.000    23.473     6.496
 103   6 C     -0.091  1.006  3.084  0.000    22.182     6.697
 104   6 C     -0.034  1.015  3.019  0.000    21.177     6.551
 105  16 S     -0.223  1.901  4.265  0.057   150.566    20.652
 106   6 C     -0.077  0.979  3.098  0.000    22.010     6.687
 107   1 H      0.211  0.789  0.000  0.000     1.050     1.605
 108   1 H      0.131  0.869  0.000  0.000     1.531     1.935
 109   1 H      0.080  0.920  0.000  0.000     1.978     2.199
 110   1 H      0.077  0.923  0.000  0.000     2.006     2.215
 111   1 H      0.065  0.935  0.000  0.000     2.140     2.287
 112   1 H      0.065  0.935  0.000  0.000     2.145     2.290
 113   1 H      0.077  0.923  0.000  0.000     2.013     2.218
 114   1 H      0.067  0.933  0.000  0.000     2.113     2.273
 115   1 H      0.056  0.944  0.000  0.000     2.244     2.342
 116   7 N     -0.173  1.212  3.961  0.000    24.733     7.386
 117   6 C     -0.002  1.046  2.955  0.000    20.609     6.464
 118   6 C      0.259  1.049  2.693  0.000    22.644     7.792
 119   8 O     -0.488  1.755  4.733  0.000    23.527     6.503
 120   6 C      0.052  0.996  2.952  0.000    19.894     6.385
 121   8 O     -0.492  1.676  4.816  0.000    22.722     6.435
 122   1 H      0.241  0.759  0.000  0.000     0.917     1.500
 123   1 H      0.103  0.897  0.000  0.000     1.760     2.074
 124   1 H      0.070  0.930  0.000  0.000     2.089     2.260
 125   1 H      0.064  0.936  0.000  0.000     2.147     2.291
 126   1 H      0.342  0.658  0.000  0.000     0.607     1.224
 127   7 N     -0.182  1.211  3.971  0.000    24.935     7.416
 128   6 C     -0.004  1.049  2.955  0.000    20.651     6.471
 129   6 C      0.273  1.042  2.686  0.000    22.394     7.749
 130   8 O     -0.492  1.746  4.746  0.000    23.618     6.516
 131   6 C     -0.122  1.020  3.101  0.000    22.818     6.799
 132   6 C     -0.113  1.012  3.102  0.000    22.652     6.775
 133   6 C     -0.052  1.009  3.043  0.000    21.562     6.621
 134   7 N     -0.141  1.177  3.964  0.000    24.053     7.284
 135   6 C      0.214  1.022  2.764  0.000    23.470     7.932
 136   7 N     -0.237  1.164  4.073  0.000    26.210     7.603
 137   7 N     -0.274  1.167  4.107  0.000    27.085     7.729
 138   1 H      0.235  0.765  0.000  0.000     0.943     1.521
 139   1 H      0.103  0.897  0.000  0.000     1.761     2.075
 140   1 H      0.097  0.903  0.000  0.000     1.812     2.105
 141   1 H      0.096  0.904  0.000  0.000     1.824     2.112
 142   1 H      0.088  0.912  0.000  0.000     1.893     2.152
 143   1 H      0.097  0.903  0.000  0.000     1.808     2.102
 144   1 H      0.093  0.907  0.000  0.000     1.847     2.125
 145   1 H      0.116  0.884  0.000  0.000     1.645     2.006
 146   1 H      0.245  0.755  0.000  0.000     0.902     1.488
 147   1 H      0.248  0.752  0.000  0.000     0.891     1.479
 148   1 H      0.259  0.741  0.000  0.000     0.848     1.442
 149   1 H      0.241  0.759  0.000  0.000     0.919     1.502
 150   1 H      0.247  0.753  0.000  0.000     0.895     1.482
 151   7 N     -0.182  1.207  3.976  0.000    24.954     7.419
 152   6 C      0.009  1.038  2.954  0.000    20.434     6.436
 153   6 C      0.263  1.050  2.687  0.000    22.563     7.778
 154   8 O     -0.506  1.750  4.756  0.000    23.917     6.557
 155   6 C     -0.180  0.982  3.198  0.000    24.042     6.986
 156   1 H      0.225  0.775  0.000  0.000     0.989     1.557
 157   1 H      0.100  0.900  0.000  0.000     1.785     2.089
 158   1 H      0.090  0.910  0.000  0.000     1.882     2.145
 159   1 H      0.109  0.891  0.000  0.000     1.708     2.043
 160   1 H      0.084  0.916  0.000  0.000     1.934     2.175
 161   7 N     -0.175  1.210  3.964  0.000    24.782     7.394
 162   6 C      0.007  1.037  2.957  0.000    20.461     6.440
 163   6 C      0.274  1.039  2.688  0.000    22.375     7.746
 164   8 O     -0.493  1.743  4.750  0.000    23.627     6.517
 165   6 C     -0.090  1.006  3.084  0.000    22.201     6.706
 166   6 C     -0.129  1.012  3.117  0.000    22.957     6.819
 167   6 C      0.287  1.033  2.679  0.000    22.129     7.703
 168   8 O     -0.514  1.757  4.756  0.000    24.084     6.580
 169   7 N     -0.293  1.192  4.101  0.000    27.556     7.796
 170   1 H      0.239  0.761  0.000  0.000     0.927     1.508
 171   1 H      0.101  0.899  0.000  0.000     1.779     2.086
 172   1 H      0.080  0.920  0.000  0.000     1.979     2.200
 173   1 H      0.070  0.930  0.000  0.000     2.080     2.255
 174   1 H      0.090  0.910  0.000  0.000     1.876     2.142
 175   1 H      0.097  0.903  0.000  0.000     1.809     2.103
 176   1 H      0.226  0.774  0.000  0.000     0.982     1.552
 177   1 H      0.237  0.763  0.000  0.000     0.936     1.516
 178   7 N     -0.200  1.216  3.984  0.000    25.335     7.476
 179   6 C      0.006  1.045  2.949  0.000    20.467     6.440
 180   6 C      0.277  1.036  2.687  0.000    22.317     7.737
 181   8 O     -0.499  1.748  4.751  0.000    23.757     6.535
 182   6 C     -0.042  1.043  2.999  0.000    21.277     6.559
 183   6 C     -0.089  1.000  3.089  0.000    22.179     6.702
 184   6 C     -0.152  0.978  3.174  0.000    23.476     6.904
 185   6 C     -0.152  0.972  3.180  0.000    23.467     6.903
 186   1 H      0.228  0.772  0.000  0.000     0.976     1.547
 187   1 H      0.078  0.922  0.000  0.000     2.002     2.212
 188   1 H      0.067  0.933  0.000  0.000     2.117     2.275
 189   1 H      0.052  0.948  0.000  0.000     2.298     2.371
 190   1 H      0.056  0.944  0.000  0.000     2.246     2.343
 191   1 H      0.078  0.922  0.000  0.000     1.997     2.210
 192   1 H      0.050  0.950  0.000  0.000     2.315     2.379
 193   1 H      0.056  0.944  0.000  0.000     2.246     2.344
 194   1 H      0.061  0.939  0.000  0.000     2.181     2.309
 195   1 H      0.062  0.938  0.000  0.000     2.174     2.305
 196   1 H      0.058  0.942  0.000  0.000     2.224     2.332
 197   7 N     -0.201  1.215  3.986  0.000    25.371     7.481
 198   6 C      0.011  1.037  2.952  0.000    20.387     6.428
 199   6 C      0.283  1.039  2.679  0.000    22.215     7.718
 200   8 O     -0.512  1.753  4.759  0.000    24.052     6.575
 201   6 C     -0.120  1.014  3.105  0.000    22.770     6.790
 202   6 C     -0.037  1.034  3.003  0.000    21.189     6.547
 203   6 C     -0.167  0.982  3.186  0.000    23.781     6.949
 204   6 C     -0.154  0.974  3.179  0.000    23.506     6.909
 205   1 H      0.240  0.760  0.000  0.000     0.922     1.504
 206   1 H      0.085  0.915  0.000  0.000     1.923     2.168
 207   1 H      0.085  0.915  0.000  0.000     1.923     2.168
 208   1 H      0.085  0.915  0.000  0.000     1.926     2.170
 209   1 H      0.078  0.922  0.000  0.000     1.997     2.210
 210   1 H      0.062  0.938  0.000  0.000     2.178     2.308
 211   1 H      0.065  0.935  0.000  0.000     2.138     2.286
 212   1 H      0.047  0.953  0.000  0.000     2.362     2.403
 213   1 H      0.059  0.941  0.000  0.000     2.212     2.325
 214   1 H      0.037  0.963  0.000  0.000     2.482     2.464
 215   1 H      0.056  0.944  0.000  0.000     2.244     2.342
 216   7 N     -0.205  1.219  3.986  0.000    25.457     7.494
 217   6 C      0.008  1.037  2.955  0.000    20.440     6.436
 218   6 C      0.268  1.042  2.690  0.000    22.468     7.762
 219   8 O     -0.516  1.762  4.754  0.000    24.139     6.587
 220   6 C     -0.085  1.002  3.083  0.000    22.095     6.689
 221   6 C     -0.129  1.006  3.122  0.000    22.948     6.817
 222   6 C      0.285  1.029  2.686  0.000    22.169     7.709
 223   8 O     -0.525  1.764  4.761  0.000    24.343     6.615
 224   7 N     -0.296  1.194  4.103  0.000    27.639     7.808
 225   1 H      0.248  0.752  0.000  0.000     0.890     1.478
 226   1 H      0.110  0.890  0.000  0.000     1.693     2.035
 227   1 H      0.095  0.905  0.000  0.000     1.829     2.115
 228   1 H      0.064  0.936  0.000  0.000     2.150     2.293
 229   1 H      0.110  0.890  0.000  0.000     1.695     2.036
 230   1 H      0.091  0.909  0.000  0.000     1.869     2.138
 231   1 H      0.239  0.761  0.000  0.000     0.927     1.508
 232   1 H      0.239  0.761  0.000  0.000     0.928     1.509
 233   7 N     -0.198  1.217  3.981  0.000    25.294     7.469
 234   6 C      0.017  1.037  2.946  0.000    20.294     6.413
 235   6 C      0.279  1.039  2.682  0.000    22.271     7.728
 236   8 O     -0.517  1.755  4.763  0.000    24.167     6.591
 237   6 C     -0.089  1.005  3.084  0.000    22.168     6.700
 238   6 C     -0.121  1.010  3.111  0.000    22.789     6.794
 239   6 C      0.285  1.040  2.675  0.000    22.174     7.710
 240   8 O     -0.502  1.757  4.745  0.000    23.827     6.545
 241   7 N     -0.302  1.196  4.106  0.000    27.785     7.829
 242   1 H      0.239  0.761  0.000  0.000     0.926     1.507
 243   1 H      0.086  0.914  0.000  0.000     1.913     2.163
 244   1 H      0.098  0.902  0.000  0.000     1.802     2.099
 245   1 H      0.066  0.934  0.000  0.000     2.131     2.282
 246   1 H      0.078  0.922  0.000  0.000     2.001     2.212
 247   1 H      0.077  0.923  0.000  0.000     2.008     2.216
 248   1 H      0.234  0.766  0.000  0.000     0.948     1.525
 249   1 H      0.233  0.767  0.000  0.000     0.951     1.528
 250   7 N     -0.198  1.214  3.984  0.000    25.293     7.469
 251   6 C      0.021  1.036  2.943  0.000    20.216     6.402
 252   6 C      0.278  1.042  2.680  0.000    22.293     7.732
 253   8 O     -0.507  1.753  4.754  0.000    23.945     6.561
 254   6 C     -0.162  0.981  3.181  0.000    23.674     6.933
 255   1 H      0.240  0.760  0.000  0.000     0.924     1.505
 256   1 H      0.084  0.916  0.000  0.000     1.935     2.175
 257   1 H      0.080  0.920  0.000  0.000     1.979     2.200
 258   1 H      0.087  0.913  0.000  0.000     1.912     2.162
 259   1 H      0.087  0.913  0.000  0.000     1.910     2.161
 260   7 N     -0.169  1.203  3.966  0.000    24.668     7.376
 261   6 C     -0.035  1.004  3.031  0.000    21.252     6.573
 262   6 C      0.213  1.080  2.707  0.000    23.486     7.937
 263   8 O     -0.365  1.759  4.606  0.000    20.999     6.144
 264   1 H      0.227  0.773  0.000  0.000     0.979     1.549
 265   1 H      0.108  0.892  0.000  0.000     1.710     2.045
 266   1 H      0.120  0.880  0.000  0.000     1.615     1.987
 267   1 H      0.187  0.813  0.000  0.000     1.175     1.698
 268   1 H      0.064  0.936  0.000  0.000     2.151     2.293
 269   1 H      0.184  0.816  0.000  0.000     1.190     1.708
 270   1 H      0.067  0.933  0.000  0.000     2.114     2.273
 271   1 H      0.180  0.820  0.000  0.000     1.212     1.724
 272   1 H      0.067  0.933  0.000  0.000     2.115     2.274
 273   1 H      0.181  0.819  0.000  0.000     1.206     1.720
 274   1 H      0.074  0.926  0.000  0.000     2.041     2.234

 Mol. C6AA /au·bohr⁶  :     657241.247825
 Mol. C8AA /au·bohr⁸  :   14662719.637709
 Mol. α(0) /au        :       1208.485878

 
molecular dipole:
                 x           y           z       tot (Debye)
 q only:      182.972     129.628     283.006
   full:      184.193     129.751     279.502     912.516
molecular quadrupole (traceless):
                xx          xy          yy          xz          yz          zz
 q only:   -14583.929   35497.084  -39408.949   77509.402   54621.309   53992.878
  q+dip:   -13048.937   35781.342  -38510.059   77086.670   53949.146   51558.995
   full:   -13051.066   35781.931  -38506.476   77085.328   53950.398   51557.542
speedup  1.00
cpu  time for grad    2.84 s
wall time for grad    2.85 s

SCC energy    :    -418.0883208
rep           :       9.1216237
ES            :       1.2009505
AES           :      -0.0244642
AXC           :       0.0642566
disp          :      -0.3528418
XB            :       0.0000000
fix           :       0.0000000
Gborn         :       0.0000000
Gsasa         :       0.0000000
Ghb           :       0.0000000
Gshift        :       0.0000000
Gsolv         :      -0.2962596     -185.91
Etot ala COSMO:    -418.0883208
grad norm     :       2.1619130
total E       :    -408.9360776
atomizationE  :      72.3925223    45426.99
(atE without considering molecular charge,
 total energy contains solvation terms)
H-L gap (eV)  :          2.0223

------------------------------------------------------------------------
 * finished run on 2019/03/07 at 11:37:48.731     
------------------------------------------------------------------------
 total:
 * wall-time:     0 d,  0 h,  0 min,  3.333 sec
 *  cpu-time:     0 d,  0 h,  0 min,  3.138 sec
 * ratio c/w:     0.941 speedup
 SCF:
 * wall-time:     0 d,  0 h,  0 min,  3.080 sec
 *  cpu-time:     0 d,  0 h,  0 min,  3.074 sec
 * ratio c/w:     0.998 speedup

