      -----------------------------------------------------------      
     |                   =====================                   |     
     |                           x T B                           |     
     |                   =====================                   |     
     |                         S. Grimme                         |     
     |          Mulliken Center for Theoretical Chemistry        |     
     |                    University of Bonn                     |     
     |                 Version 6.0.1 (SAW181210)                 |     
      -----------------------------------------------------------      

   This program is distributed in the hope that it will be useful,
   but WITHOUT ANY WARRANTY; without even the implied warranty of
   MERCHANTABILITY or FITNESS FOR A PARTICULAR PURPOSE.
   
   FOR NON-COMMERCIAL, ACADEMIA USE ONLY.
   
   Cite this work as:
   S. Grimme, C. Bannwarth, P. Shushkov, J. Comput. Theory Chem., 2017,
   13, 1989-2009.
   C. Bannwarth, S. Ehlert and S. Grimme., ChemRxiv, 2018, preprint.
   http://doi.org/10.26434/chemrxiv.7246238.v1
   
   for sTDA-xTB:
   S. Grimme and C. Bannwarth, J. Chem. Phys., 2016, 145, 054103.
   
   in the mass-spec context:
   V. Asgeirsson, C. Bauer and S. Grimme, Chem. Sci., 2017, 8, 4879.
   
   if GBSA is used:
   P. Shushkov, F. März and S. Grimme, unpublished.
   
   for ANC optimizer:
   S. Grimme, unpublished.
   Rational Function algorithm used in ANCopt:
   F. Eckert, P. Pulay, H.-J. Werner, J. Comput. Chem., 1997, 18, 1473.
   
   with help from (in alphabetical order)
   C. Bannwarth, F. Bohle, G. Brandenburg, E. Caldeweyher, M. Checinski,
   S. Dohm, S. Ehlert, S. Ehrlich, F. März, H. Neugebauer, J. Pisarek,
   P. Pracht, P. Shushkov, and S. Spicher.
   
 * started run on 2019/03/14 at 15:08:20.562     
========================================================================
 # omp threads = 1
========================================================================
number of atoms            : 590
number of electrons        : 1500
charge                     : 0
spin                       : .0
first test random number   : .5976
           ------------------------------------------------- 
          |                 G F N 2 - x T B                 |
          | Geometry, Frequencies, Noncovalent interactions |
          |            JCTC 2018 parametrisation            |
           ------------------------------------------------- 
 
      method parameters     
 k(s)        :  1.8500
 k(p)        :  2.2300
 k(d)        :  2.2300
 k(f)        :  2.0000
 kEN (H0ij)  : -2.0000
 D4 a1       :  0.5200
 D4 a2       :  5.0000
 D4 s6       :  1.0000
 D4 s8       :  2.7000
 D4 s9       :  5.0000
 alphaj      :  2.0000

 Solvent             : h2o
 Using internal parameter file: .param_gbsa2_h2o
 Gsolv ref. state (COSMO-RS): gsolv [1 M gas/solution]
 temperature (mdtemp)       :    298.150000000000     
 dielectric constant        :    80.2000000000000     
 rho                        :    1.00000000000000     
 mass                       :    18.0000000000000     
 surface tension            :    15.5689454083859     
 probe radius               :   0.975313790000000     
 vdW radii scaling          :    1.00000000000000     
 Gshift (Eh)                :   1.857443126794793E-003
 c1                         :    1.55243817000000     
 soset                      :   0.130326360000000     
 HB correction              :  T

            Z     q(EN)     CN     RAES       Cart. coordinates
     1  N   5.0   -0.21    3.22    1.96    76.19648   114.48219    58.90366
     2  C   4.0    0.03    4.24    4.08    74.28912   112.79369    57.90998
     3  C   4.0    0.08    3.27    3.05    72.51239   114.27956    56.21285
     4  O   6.0   -0.33    1.23    1.80    71.68220   113.40697    54.22551
     5  C   4.0   -0.04    4.35    4.29    72.82428   111.65731    60.12967
     6  C   4.0   -0.02    3.58    3.16    70.27401   110.61388    59.47396
     7  C   4.0   -0.05    3.47    3.10    68.26711   110.95976    61.12713
     8  C   4.0   -0.04    3.56    3.14    69.89675   109.17913    57.31669
     9  C   4.0   -0.04    3.41    3.08    65.99547   109.76325    60.69181
    10  C   4.0   -0.05    3.40    3.08    67.63175   107.93364    56.89973
    11  C   4.0   -0.04    3.42    3.08    65.69712   108.18137    58.62687
    12  H   1.0    0.08    1.03    1.43    76.09572   114.80531    60.79193
    13  H   1.0    0.04    1.05    1.44    75.17474   111.32713    56.74922
    14  H   1.0    0.03    1.03    1.43    73.97415   110.16608    60.98164
    15  H   1.0    0.04    1.04    1.43    72.56916   113.13362    61.53766
    16  H   1.0    0.04    1.03    1.43    68.48576   112.14306    62.77527
    17  H   1.0    0.05    1.04    1.43    71.40477   109.02795    55.95658
    18  H   1.0    0.06    1.04    1.43    64.43609   110.00963    61.97013
    19  H   1.0    0.04    1.03    1.43    67.41212   106.74685    55.25881
    20  H   1.0    0.06    1.04    1.43    63.95430   107.15376    58.42179
    21  N   5.0   -0.20    3.22    1.96    71.51410   112.23791    49.33339
    22  C   4.0    0.03    4.28    4.15    69.09751   112.15321    48.06394
    23  C   4.0    0.09    3.24    3.04    68.87627   114.31923    46.18910
    24  O   6.0   -0.29    1.12    1.80    68.22516   113.91772    44.01547
    25  C   4.0    0.05    4.25    4.09    66.75038   112.27159    49.79609
    26  O   6.0   -0.25    2.12    1.84    66.73131   114.49705    51.25009
    27  C   4.0   -0.08    4.09    3.79    66.53182   109.95814    51.46945
    28  H   1.0    0.12    1.09    1.44    71.63930   113.19265    50.99027
    29  H   1.0    0.05    1.06    1.44    68.98280   110.42729    46.94111
    30  H   1.0    0.05    1.05    1.44    65.13799   112.37946    48.51171
    31  H   1.0    0.14    1.05    1.44    67.90186   114.21409    52.63027
    32  H   1.0    0.05    1.00    1.43    64.88020   110.12888    52.68239
    33  H   1.0    0.03    1.00    1.43    66.35839   108.26064    50.33537
    34  H   1.0    0.05    1.02    1.43    68.21141   109.87460    52.63820
    35  N   5.0   -0.22    3.23    1.96    72.82525    96.01271    47.45407
    36  C   4.0    0.02    4.34    4.27    70.58771    95.56756    48.96828
    37  C   4.0    0.14    3.47    3.10    71.18800    93.79960    51.15402
    38  O   6.0   -0.33    1.34    1.80    70.53534    94.31610    53.32778
    39  C   4.0   -0.05    4.38    4.35    68.45933    94.37262    47.41800
    40  C   4.0   -0.03    4.19    3.98    67.66191    95.95293    45.12977
    41  C   4.0   -0.08    4.12    3.84    65.82139    94.41835    43.52414
    42  C   4.0   -0.08    4.12    3.84    66.52298    98.45127    45.98918
    43  H   1.0    0.08    1.03    1.43    72.67006    95.84023    45.55040
    44  H   1.0    0.04    1.05    1.44    69.97306    97.36283    49.80857
    45  H   1.0    0.04    1.03    1.43    69.09266    92.52047    46.77956
    46  H   1.0    0.04    1.03    1.43    66.83629    94.10153    48.66490
    47  H   1.0    0.04    1.06    1.44    69.32838    96.36587    43.98130
    48  H   1.0    0.04    1.00    1.43    65.33255    95.42054    41.80246
    49  H   1.0    0.04    1.00    1.43    66.64837    92.61740    43.01352
    50  H   1.0    0.03    1.00    1.43    64.10773    94.00815    44.57138
    51  H   1.0    0.04    1.00    1.43    65.86363    99.51939    44.37211
    52  H   1.0    0.04    1.00    1.43    64.94561    98.11446    47.26319
    53  H   1.0    0.04    1.00    1.43    67.93384    99.56467    46.97593
    54  N   5.0   -0.15    3.52    2.09    72.28142    91.63364    50.49903
    55  C   4.0    0.03    4.44    4.45    72.84560    89.70801    52.35594
    56  C   4.0    0.16    3.51    3.12    74.36036    90.93174    54.47984
    57  O   6.0   -0.32    1.31    1.80    73.62450    90.86383    56.67235
    58  C   4.0   -0.06    4.36    4.30    74.32832    87.48991    51.24598
    59  C   4.0   -0.03    4.20    3.99    73.22407    86.43631    48.78486
    60  C   4.0   -0.08    4.10    3.81    74.74493    84.12500    47.97906
    61  C   4.0   -0.08    4.11    3.82    70.42165    85.81665    49.01765
    62  H   1.0    0.07    1.07    1.44    72.87460    91.36513    48.69875
    63  H   1.0    0.05    1.05    1.44    71.07112    89.03503    53.20349
    64  H   1.0    0.04    1.03    1.43    76.26534    88.09554    50.87779
    65  H   1.0    0.04    1.03    1.43    74.39065    86.00024    52.67434
    66  H   1.0    0.04    1.06    1.44    73.44915    87.86298    47.31193
    67  H   1.0    0.04    1.00    1.43    73.98644    83.36204    46.23332
    68  H   1.0    0.04    1.00    1.43    76.71977    84.62926    47.69735
    69  H   1.0    0.04    1.00    1.43    74.65984    82.64153    49.39689
    70  H   1.0    0.04    1.00    1.43    69.82514    84.74420    47.37422
    71  H   1.0    0.04    1.00    1.43    70.06008    84.69369    50.68909
    72  H   1.0    0.04    1.00    1.43    69.31174    87.53826    49.13482
    73  N   5.0   -0.15    3.49    2.07    76.51342    92.04613    53.76442
    74  C   4.0    0.03    4.40    4.38    78.25341    93.09364    55.60420
    75  C   4.0    0.17    3.47    3.10    76.92232    94.98694    57.34813
    76  O   6.0   -0.31    1.28    1.80    77.19783    94.93247    59.64543
    77  C   4.0    0.03    4.16    3.93    80.45790    94.44090    54.28402
    78  O   6.0   -0.25    2.07    1.83    79.80189    96.72996    53.15759
    79  H   1.0    0.07    1.06    1.44    77.00296    92.12339    51.90624
    80  H   1.0    0.04    1.05    1.44    79.03844    91.58023    56.78896
    81  H   1.0    0.05    1.02    1.43    81.88570    94.88953    55.71191
    82  H   1.0    0.04    1.01    1.43    81.27444    93.14176    52.87519
    83  H   1.0    0.11    1.02    1.43    78.28759    96.50638    52.10297
    84  N   5.0   -0.13    3.59    2.15    75.57334    96.68859    56.08838
    85  C   4.0    0.03    4.45    4.46    74.30402    98.85654    57.16516
    86  C   4.0    0.16    3.48    3.11    72.52289    97.91582    59.21162
    87  O   6.0   -0.33    1.29    1.80    72.53355    98.76716    61.36278
    88  C   4.0   -0.05    4.40    4.38    72.92389   100.17383    54.99161
    89  C   4.0   -0.02    4.16    3.93    71.51687   102.63071    55.63810
    90  C   4.0   -0.08    4.14    3.89    72.77126   103.99429    57.84076
    91  C   4.0   -0.08    4.11    3.82    71.43458   104.20898    53.21428
    92  H   1.0    0.08    1.10    1.44    75.38230    96.53615    54.19689
    93  H   1.0    0.05    1.05    1.44    75.69391   100.11998    58.03338
    94  H   1.0    0.04    1.04    1.43    74.35838   100.60911    53.57205
    95  H   1.0    0.05    1.03    1.43    71.60723    98.82287    54.16416
    96  H   1.0    0.04    1.05    1.44    69.57922   102.19127    56.21513
    97  H   1.0    0.04    1.04    1.43    71.88456   105.80541    58.17634
    98  H   1.0    0.05    1.01    1.43    72.54669   102.87703    59.54087
    99  H   1.0    0.04    1.00    1.43    74.76520   104.27696    57.48932
   100  H   1.0    0.04    1.01    1.43    70.82053   106.12914    53.53460
   101  H   1.0    0.04    1.00    1.43    73.30585   104.31582    52.37665
   102  H   1.0    0.03    1.00    1.43    70.13019   103.35167    51.87863
   103  N   5.0   -0.14    3.56    2.12    70.99530    96.08786    58.40344
   104  C   4.0    0.04    4.46    4.48    69.22142    94.80070    60.01532
   105  C   4.0    0.16    3.50    3.11    70.58012    93.62624    62.26766
   106  O   6.0   -0.32    1.36    1.80    69.77466    94.01348    64.40858
   107  C   4.0    0.06    4.23    4.07    67.68458    92.88957    58.42763
   108  O   6.0   -0.26    2.13    1.84    66.32034    94.17963    56.54502
   109  C   4.0   -0.07    4.10    3.79    65.78334    91.49232    60.07097
   110  H   1.0    0.11    1.12    1.45    71.16980    95.42612    56.61488
   111  H   1.0    0.05    1.05    1.44    67.89952    96.19746    60.81012
   112  H   1.0    0.06    1.04    1.43    69.01635    91.54656    57.56577
   113  H   1.0    0.14    1.05    1.44    67.45574    94.62967    55.18004
   114  H   1.0    0.04    1.00    1.43    64.47319    90.48325    58.85648
   115  H   1.0    0.04    1.00    1.43    66.72622    90.16728    61.31718
   116  H   1.0    0.04    1.00    1.43    64.72817    92.85175    61.18727
   117  N   5.0   -0.14    3.50    2.08    72.65903    92.26856    61.82961
   118  C   4.0    0.04    4.54    4.59    73.96484    91.18404    63.98783
   119  C   4.0    0.16    3.54    3.13    74.60446    93.29817    65.84847
   120  O   6.0   -0.32    1.31    1.80    74.20803    93.09255    68.12407
   121  C   4.0   -0.02    4.27    4.14    76.44089    89.76927    63.39031
   122  C   4.0   -0.08    4.13    3.86    77.03720    88.04312    65.62519
   123  C   4.0   -0.07    4.13    3.87    76.25018    88.23172    60.96789
   124  H   1.0    0.11    1.10    1.44    73.16594    91.75741    60.05589
   125  H   1.0    0.05    1.05    1.44    72.66018    89.88525    64.95959
   126  H   1.0    0.05    1.06    1.44    77.95742    91.15804    63.18111
   127  H   1.0    0.04    1.00    1.43    78.76492    86.98671    65.28826
   128  H   1.0    0.05    1.00    1.43    77.26380    89.13505    67.34931
   129  H   1.0    0.04    1.00    1.43    75.49487    86.71153    65.89584
   130  H   1.0    0.04    1.00    1.43    77.72031    86.79806    60.91685
   131  H   1.0    0.04    1.02    1.43    74.41760    87.33309    60.86465
   132  H   1.0    0.06    1.02    1.43    76.45012    89.43871    59.33078
   133  N   5.0   -0.14    3.56    2.12    75.74200    95.29306    64.81673
   134  C   4.0    0.04    4.47    4.49    76.63462    97.38928    66.33128
   135  C   4.0    0.16    3.49    3.11    74.48565    98.40161    67.96762
   136  O   6.0   -0.32    1.30    1.80    74.77973    98.74361    70.23914
   137  C   4.0   -0.04    4.33    4.26    77.71540    99.45880    64.63366
   138  C   4.0   -0.00    3.56    3.14    79.95615    98.60311    63.09632
   139  C   4.0   -0.04    3.47    3.10    80.86089   100.14754    61.17042
   140  C   4.0   -0.03    3.52    3.12    81.12877    96.29380    63.49837
   141  C   4.0   -0.04    3.37    3.07    82.86343    99.39414    59.66932
   142  C   4.0   -0.04    3.38    3.07    83.09433    95.51770    61.96514
   143  C   4.0   -0.04    3.37    3.07    83.98567    97.06273    60.05650
   144  H   1.0    0.12    1.11    1.45    76.09241    95.34363    62.93141
   145  H   1.0    0.05    1.05    1.44    78.08600    96.73328    67.67008
   146  H   1.0    0.06    1.04    1.43    76.22915   100.08867    63.34545
   147  H   1.0    0.04    1.03    1.43    78.25041   101.06400    65.81871
   148  H   1.0    0.05    1.03    1.43    79.98449   101.96544    60.86553
   149  H   1.0    0.05    1.04    1.43    80.52313    95.07188    65.01189
   150  H   1.0    0.05    1.03    1.43    83.53106   100.61401    58.17792
   151  H   1.0    0.05    1.03    1.43    83.90319    93.67022    62.26264
   152  H   1.0    0.05    1.03    1.43    85.55980    96.45294    58.90979
   153  N   5.0   -0.14    3.52    2.09    72.37341    98.98555    66.73310
   154  C   4.0    0.03    4.44    4.44    70.23062   100.04351    68.05553
   155  C   4.0    0.16    3.47    3.10    69.28105    98.18085    70.04366
   156  O   6.0   -0.33    1.32    1.80    68.73394    98.92813    72.17393
   157  C   4.0   -0.05    4.35    4.29    68.10643   100.77301    66.24125
   158  C   4.0   -0.02    4.19    3.98    68.88776   102.73755    64.25732
   159  C   4.0   -0.08    4.11    3.83    66.66355   103.26277    62.50253
   160  C   4.0   -0.08    4.11    3.82    69.80206   105.19444    65.45311
   161  H   1.0    0.11    1.11    1.44    72.21651    98.64550    64.85409
   162  H   1.0    0.05    1.06    1.44    70.85524   101.71487    69.11687
   163  H   1.0    0.05    1.03    1.43    67.46090    99.06390    65.28283
   164  H   1.0    0.04    1.03    1.43    66.54162   101.52522    67.35644
   165  H   1.0    0.06    1.07    1.44    70.41956   101.93855    63.13120
   166  H   1.0    0.04    1.01    1.43    67.20301   104.61960    61.06225
   167  H   1.0    0.04    1.00    1.43    66.05228   101.53785    61.57191
   168  H   1.0    0.04    1.00    1.43    65.08231   104.04614    63.55206
   169  H   1.0    0.04    1.00    1.43    70.09692   106.60640    63.99154
   170  H   1.0    0.04    1.00    1.43    68.40632   105.91403    66.77677
   171  H   1.0    0.04    1.00    1.43    71.57579   104.91296    66.44746
   172  N   5.0   -0.14    3.51    2.09    69.03955    95.78615    69.32391
   173  C   4.0    0.04    4.42    4.42    68.13096    93.87833    71.06031
   174  C   4.0    0.16    3.44    3.09    69.83295    93.71191    73.40438
   175  O   6.0   -0.30    1.23    1.80    68.90250    93.42231    75.50811
   176  C   4.0   -0.04    4.34    4.27    67.91931    91.30273    69.75968
   177  C   4.0   -0.02    4.18    3.95    65.89241    91.17388    67.68139
   178  C   4.0   -0.08    4.10    3.81    65.96583    88.59057    66.39057
   179  C   4.0   -0.08    4.11    3.82    63.24563    91.64878    68.71460
   180  H   1.0    0.12    1.12    1.45    69.57501    95.18754    67.58208
   181  H   1.0    0.05    1.06    1.44    66.27276    94.46512    71.77597
   182  H   1.0    0.06    1.03    1.43    69.76102    90.85668    68.94398
   183  H   1.0    0.05    1.03    1.43    67.50139    89.89655    71.21103
   184  H   1.0    0.06    1.07    1.44    66.32762    92.61263    66.26813
   185  H   1.0    0.04    1.00    1.43    64.52788    88.49445    64.92597
   186  H   1.0    0.04    1.00    1.43    67.79890    88.25109    65.52507
   187  H   1.0    0.04    1.00    1.43    65.60115    87.09615    67.75166
   188  H   1.0    0.04    1.00    1.43    61.86357    91.42127    67.21329
   189  H   1.0    0.04    1.00    1.43    62.81024    90.30887    70.20959
   190  H   1.0    0.04    1.00    1.43    63.07209    93.55071    69.46443
   191  N   5.0   -0.14    3.52    2.09    72.31966    93.92235    73.01942
   192  C   4.0    0.04    4.52    4.56    74.08686    93.80850    75.10906
   193  C   4.0    0.15    3.51    3.12    73.98197    96.24485    76.61933
   194  O   6.0   -0.29    1.27    1.80    74.27908    96.26502    78.93484
   195  C   4.0   -0.02    4.26    4.13    76.79589    93.22330    74.24775
   196  C   4.0   -0.07    4.14    3.88    78.54718    93.19028    76.53834
   197  C   4.0   -0.07    4.13    3.86    76.86737    90.64470    72.96492
   198  H   1.0    0.12    1.11    1.45    73.04234    93.98635    71.24789
   199  H   1.0    0.06    1.06    1.44    73.51484    92.29609    76.41366
   200  H   1.0    0.05    1.05    1.44    77.39433    94.70139    72.92408
   201  H   1.0    0.04    1.00    1.43    80.47257    92.72777    75.99204
   202  H   1.0    0.06    1.00    1.43    78.58974    95.00334    77.50362
   203  H   1.0    0.05    1.00    1.43    77.88492    91.76704    77.86741
   204  H   1.0    0.04    1.00    1.43    78.79361    90.18444    72.41998
   205  H   1.0    0.04    1.00    1.43    76.20583    89.22398    74.29303
   206  H   1.0    0.06    1.01    1.43    75.66445    90.63398    71.30555
   207  N   5.0   -0.13    3.55    2.12    73.41403    98.36689    75.39103
   208  C   4.0    0.04    4.53    4.58    73.08496   100.66501    76.84873
   209  C   4.0    0.16    3.46    3.10    70.78729   100.29723    78.59638
   210  O   6.0   -0.28    1.21    1.80    70.84607   101.02482    80.80695
   211  C   4.0   -0.02    4.31    4.21    72.93694   103.00067    75.12821
   212  C   4.0   -0.04    4.20    4.00    75.47700   103.33600    73.76108
   213  C   4.0   -0.07    4.13    3.85    72.30757   105.34385    76.68787
   214  C   4.0   -0.08    4.01    3.64    75.35812   105.18738    71.55906
   215  H   1.0    0.12    1.10    1.44    73.40747    98.44508    73.47685
   216  H   1.0    0.06    1.06    1.44    74.71845   100.87170    78.12422
   217  H   1.0    0.05    1.05    1.44    71.44106   102.66409    73.73826
   218  H   1.0    0.04    1.03    1.43    76.89542   103.96646    75.12079
   219  H   1.0    0.06    1.05    1.44    76.09507   101.51532    73.02756
   220  H   1.0    0.04    1.00    1.43    72.15145   106.99684    75.48318
   221  H   1.0    0.05    1.00    1.43    70.54067   105.09650    77.70219
   222  H   1.0    0.05    1.00    1.43    73.80205   105.68154    78.05843
   223  H   1.0    0.04    1.00    1.43    77.14476   105.17795    70.54395
   224  H   1.0    0.04    1.00    1.43    73.87723   104.61456    70.25757
   225  H   1.0    0.04    1.00    1.43    74.98850   107.10059    72.19763
   226  N   5.0   -0.14    3.48    2.06    68.82457    99.09379    77.57481
   227  C   4.0    0.04    4.37    4.32    66.56675    98.38887    78.96351
   228  C   4.0    0.10    3.23    3.04    67.18021    96.37165    80.96079
   229  O   6.0   -0.29    1.16    1.80    65.55190    95.55427    82.38462
   230  C   4.0   -0.01    4.25    4.11    64.41931    97.42687    77.22806
   231  C   4.0   -0.07    4.15    3.89    61.99719    96.98095    78.74002
   232  C   4.0   -0.08    4.12    3.85    63.79570    99.30263    75.12467
   233  H   1.0    0.11    1.11    1.45    68.86125    98.67935    75.70418
   234  H   1.0    0.05    1.05    1.44    65.86247   100.07524    79.95353
   235  H   1.0    0.06    1.06    1.44    65.09933    95.64453    76.42757
   236  H   1.0    0.04    1.00    1.43    60.50951    96.29783    77.50282
   237  H   1.0    0.07    1.02    1.43    62.30147    95.62292    80.23992
   238  H   1.0    0.04    1.00    1.43    61.36987    98.74868    79.58035
   239  H   1.0    0.04    1.00    1.43    62.26610    98.55505    73.97228
   240  H   1.0    0.04    1.00    1.43    63.17516   101.09035    75.92374
   241  H   1.0    0.07    1.02    1.43    65.41011    99.63519    73.91569
   242  N   5.0   -0.22    3.25    1.97    55.19958   114.77684    77.91070
   243  C   4.0    0.02    4.35    4.30    57.16221   113.23018    76.80751
   244  C   4.0    0.15    3.45    3.10    55.92997   111.11841    75.27940
   245  O   6.0   -0.32    1.30    1.80    56.68783   110.57747    73.15877
   246  C   4.0    0.05    4.21    4.02    59.04882   112.17645    78.77908
   247  O   6.0   -0.25    2.10    1.84    58.06418   110.18687    80.22523
   248  C   4.0   -0.08    4.07    3.75    60.09288   114.31152    80.42498
   249  H   1.0    0.08    1.02    1.43    54.99139   114.84593    79.80637
   250  H   1.0    0.04    1.05    1.44    58.22328   114.37540    75.43871
   251  H   1.0    0.05    1.04    1.43    60.59879   111.31942    77.70157
   252  H   1.0    0.11    1.02    1.43    56.53518   110.73268    81.10632
   253  H   1.0    0.05    1.00    1.43    61.43974   113.51986    81.75682
   254  H   1.0    0.04    1.00    1.43    61.04858   115.69304    79.24932
   255  H   1.0    0.04    1.00    1.43    58.59924   115.24279    81.48823
   256  N   5.0   -0.14    3.49    2.07    53.97077   109.96009    76.37386
   257  C   4.0    0.03    4.42    4.41    52.83417   107.80766    75.12068
   258  C   4.0    0.15    3.51    3.12    51.59797   108.66336    72.64972
   259  O   6.0   -0.33    1.35    1.80    51.91990   107.42688    70.71750
   260  C   4.0   -0.05    4.30    4.19    51.01423   106.34385    76.85682
   261  C   4.0   -0.04    4.12    3.84    48.25324   106.98118    76.37996
   262  S   6.0   -0.05    2.45    3.10    46.16400   105.84070    78.87758
   263  C   4.0   -0.07    3.89    3.45    43.28595   107.26468    77.65160
   264  H   1.0    0.07    1.06    1.44    53.51953   110.31299    78.20232
   265  H   1.0    0.05    1.06    1.44    54.36424   106.53416    74.52308
   266  H   1.0    0.04    1.03    1.43    51.31720   104.32576    76.57001
   267  H   1.0    0.04    1.04    1.43    51.49101   106.78764    78.81587
   268  H   1.0    0.04    1.09    1.44    47.99697   109.01684    76.34714
   269  H   1.0    0.04    1.07    1.44    47.59365   106.15825    74.60820
   270  H   1.0    0.04    1.04    1.43    41.79721   106.87508    79.00307
   271  H   1.0    0.04    1.04    1.43    43.58467   109.28608    77.45544
   272  H   1.0    0.04    1.03    1.43    42.81819   106.42803    75.83561
   273  N   5.0   -0.15    3.51    2.08    50.17425   110.74238    72.69014
   274  C   4.0    0.03    4.53    4.57    48.80396   111.48571    70.43825
   275  C   4.0    0.16    3.53    3.13    50.61509   112.29810    68.37496
   276  O   6.0   -0.32    1.34    1.80    50.15889   111.78489    66.15891
   277  C   4.0   -0.03    4.33    4.25    46.83809   113.60571    70.83924
   278  C   4.0   -0.05    4.22    4.04    48.12845   115.99739    71.82460
   279  C   4.0   -0.08    4.11    3.82    44.72426   112.70041    72.56896
   280  C   4.0   -0.08    4.00    3.63    46.43407   118.31246    72.08314
   281  H   1.0    0.07    1.06    1.44    49.93233   111.73944    74.30876
   282  H   1.0    0.05    1.06    1.44    47.84448   109.80822    69.66545
   283  H   1.0    0.04    1.06    1.44    46.04004   113.99445    68.96838
   284  H   1.0    0.04    1.03    1.43    49.00480   115.54338    73.62322
   285  H   1.0    0.04    1.05    1.44    49.63124   116.50526    70.51706
   286  H   1.0    0.04    1.00    1.43    43.27627   114.14600    72.70760
   287  H   1.0    0.04    1.00    1.43    43.86835   110.99467    71.80794
   288  H   1.0    0.04    1.00    1.43    45.48411   112.32102    74.43552
   289  H   1.0    0.04    1.00    1.43    47.58043   119.92245    72.65387
   290  H   1.0    0.04    1.00    1.43    45.59889   118.74331    70.25924
   291  H   1.0    0.04    1.00    1.43    44.93047   118.06178    73.45741
   292  N   5.0   -0.14    3.54    2.10    52.61420   113.66680    69.07061
   293  C   4.0    0.03    4.45    4.46    54.44954   114.35789    67.15554
   294  C   4.0    0.16    3.60    3.17    55.61395   111.91620    66.20440
   295  O   6.0   -0.33    1.49    1.80    55.39992   111.34440    63.95313
   296  C   4.0   -0.04    4.31    4.22    56.33945   116.25660    68.22562
   297  C   4.0   -0.01    3.53    3.13    58.91004   116.46898    66.99871
   298  C   4.0   -0.04    3.48    3.11    60.71497   117.91640    68.25388
   299  C   4.0   -0.04    3.50    3.12    59.60046   115.30410    64.74990
   300  C   4.0   -0.04    3.38    3.07    63.16315   118.05776    67.36446
   301  C   4.0   -0.04    3.37    3.07    62.08204   115.35827    63.90734
   302  C   4.0   -0.04    3.37    3.07    63.87432   116.70351    65.24037
   303  H   1.0    0.08    1.06    1.44    53.03509   114.00127    70.91441
   304  H   1.0    0.06    1.06    1.44    53.41999   115.13915    65.52814
   305  H   1.0    0.04    1.03    1.43    55.41181   118.10016    68.19222
   306  H   1.0    0.04    1.04    1.43    56.66106   115.75662    70.20460
   307  H   1.0    0.05    1.03    1.43    60.19941   118.96376    69.92988
   308  H   1.0    0.06    1.06    1.44    58.19406   114.37596    63.61807
   309  H   1.0    0.05    1.03    1.43    64.50112   119.21018    68.38037
   310  H   1.0    0.05    1.03    1.43    62.65457   114.36288    62.21510
   311  H   1.0    0.05    1.03    1.43    65.79544   116.69332    64.56086
   312  N   5.0   -0.14    3.52    2.09    56.77786   110.44995    67.85356
   313  C   4.0    0.03    4.50    4.54    58.11784   108.22437    66.96724
   314  C   4.0    0.16    3.55    3.14    56.30523   106.73984    65.28127
   315  O   6.0   -0.33    1.40    1.80    56.92880   106.08890    63.13395
   316  C   4.0   -0.02    4.24    4.08    59.32480   106.77869    69.19821
   317  C   4.0   -0.07    4.13    3.86    57.67733   104.66668    70.25591
   318  C   4.0   -0.08    4.11    3.81    61.88723   105.70275    68.42293
   319  H   1.0    0.11    1.10    1.44    56.90692   110.86834    69.72211
   320  H   1.0    0.05    1.06    1.44    59.65364   108.86472    65.71810
   321  H   1.0    0.06    1.06    1.44    59.62211   108.17219    70.69776
   322  H   1.0    0.04    1.00    1.43    58.59507   103.86484    71.90984
   323  H   1.0    0.06    1.01    1.43    55.83649   105.36997    70.81656
   324  H   1.0    0.04    1.00    1.43    57.43846   103.17911    68.85978
   325  H   1.0    0.04    1.00    1.43    62.74396   104.72302    70.01341
   326  H   1.0    0.04    1.00    1.43    61.65699   104.35870    66.88562
   327  H   1.0    0.04    1.00    1.43    63.16203   107.19493    67.81773
   328  N   5.0   -0.14    3.55    2.11    54.01446   106.27028    66.18435
   329  C   4.0    0.04    4.53    4.58    52.20005   104.85461    64.71611
   330  C   4.0    0.16    3.53    3.13    51.61590   106.21033    62.25824
   331  O   6.0   -0.34    1.42    1.80    51.32717   104.93550    60.34051
   332  C   4.0   -0.02    4.35    4.29    49.78439   104.29971    66.22260
   333  C   4.0   -0.05    4.21    4.01    50.36129   102.40227    68.33093
   334  C   4.0   -0.08    4.15    3.91    47.72801   103.25474    64.49465
   335  C   4.0   -0.08    4.02    3.66    48.27168   102.32734    70.30697
   336  H   1.0    0.12    1.13    1.45    53.44023   106.90328    67.89950
   337  H   1.0    0.04    1.06    1.44    53.03457   103.03957    64.13916
   338  H   1.0    0.06    1.06    1.44    49.16417   106.08676    67.05130
   339  H   1.0    0.03    1.03    1.43    50.60581   100.53331    67.49459
   340  H   1.0    0.05    1.03    1.43    52.12253   102.93711    69.24847
   341  H   1.0    0.03    1.00    1.43    46.04038   102.82948    65.57797
   342  H   1.0    0.05    1.01    1.43    47.22829   104.59343    63.02178
   343  H   1.0    0.04    1.00    1.43    48.38572   101.52396    63.60218
   344  H   1.0    0.04    1.00    1.43    48.85009   101.18841    71.91328
   345  H   1.0    0.04    1.00    1.43    47.88832   104.23853    70.95404
   346  H   1.0    0.03    1.00    1.43    46.53847   101.53897    69.54152
   347  N   5.0   -0.13    3.53    2.10    51.45354   108.71614    62.23445
   348  C   4.0    0.03    4.42    4.42    50.94173   110.00884    59.87468
   349  C   4.0    0.16    3.52    3.12    53.14764   109.69442    58.06606
   350  O   6.0   -0.33    1.40    1.80    52.82724   109.08374    55.86084
   351  C   4.0    0.03    4.15    3.90    50.32690   112.81240    60.26194
   352  O   6.0   -0.26    2.06    1.83    52.42669   114.33502    60.78595
   353  H   1.0    0.13    1.13    1.45    51.38396   109.78159    63.82814
   354  H   1.0    0.04    1.07    1.44    49.31807   109.11372    58.96828
   355  H   1.0    0.04    1.02    1.43    49.51920   113.54825    58.50860
   356  H   1.0    0.05    1.01    1.43    48.92056   112.93510    61.78472
   357  H   1.0    0.15    1.08    1.44    53.49141   113.45050    62.00416
   358  N   5.0   -0.14    3.58    2.14    55.44385   110.10973    58.98926
   359  C   4.0    0.04    4.44    4.45    57.60605   109.78497    57.36603
   360  C   4.0    0.17    3.46    3.10    57.64208   107.13110    56.25453
   361  O   6.0   -0.34    1.34    1.80    58.43894   106.78663    54.10443
   362  C   4.0    0.03    4.17    3.93    59.99785   110.33592    58.88905
   363  O   6.0   -0.27    2.10    1.84    60.63931   108.47271    60.63740
   364  H   1.0    0.12    1.14    1.45    55.69874   110.46854    60.85052
   365  H   1.0    0.05    1.05    1.44    57.50192   111.08989    55.75357
   366  H   1.0    0.04    1.02    1.43    61.61975   110.47802    57.61601
   367  H   1.0    0.04    1.01    1.43    59.67650   112.17380    59.80160
   368  H   1.0    0.15    1.08    1.44    59.20359   107.86475    61.63369
   369  N   5.0   -0.13    3.56    2.12    56.78676   105.34076    57.78323
   370  C   4.0    0.03    4.46    4.47    56.63154   102.65804    57.30731
   371  C   4.0    0.15    3.51    3.12    54.43604   102.04485    55.52830
   372  O   6.0   -0.34    1.42    1.80    54.78121   100.56495    53.75282
   373  C   4.0   -0.02    4.38    4.34    56.32930   101.37398    59.89617
   374  C   4.0   -0.05    4.18    3.96    58.80557   101.01502    61.35798
   375  C   4.0   -0.08    4.20    4.00    54.95924    98.87646    59.65259
   376  C   4.0   -0.08    4.01    3.65    60.68903    99.17998    60.19113
   377  H   1.0    0.11    1.13    1.45    56.32621   105.81694    59.57918
   378  H   1.0    0.05    1.05    1.44    58.33488   101.97687    56.33835
   379  H   1.0    0.06    1.08    1.44    55.15987   102.65284    61.01076
   380  H   1.0    0.05    1.03    1.43    59.72935   102.83685    61.62070
   381  H   1.0    0.04    1.03    1.43    58.25492   100.30468    63.21811
   382  H   1.0    0.03    1.01    1.43    54.85930    97.98050    61.49579
   383  H   1.0    0.05    1.01    1.43    53.05573    99.13980    58.93269
   384  H   1.0    0.04    1.01    1.43    55.99802    97.67317    58.36194
   385  H   1.0    0.04    1.00    1.43    62.27683    98.95678    61.47363
   386  H   1.0    0.04    1.00    1.43    59.86689    97.32714    59.87770
   387  H   1.0    0.05    1.00    1.43    61.40468    99.88005    58.39935
   388  N   5.0   -0.15    3.56    2.12    52.21864   103.15691    55.87442
   389  C   4.0    0.03    4.56    4.61    50.21636   102.68250    54.07430
   390  C   4.0    0.15    3.54    3.14    50.80484   104.03121    51.60779
   391  O   6.0   -0.33    1.31    1.80    50.02005   103.21459    49.58714
   392  C   4.0   -0.02    4.34    4.28    47.56026   103.54280    54.88951
   393  C   4.0   -0.04    4.23    4.05    47.54189   106.30334    55.77465
   394  C   4.0   -0.08    4.11    3.81    46.50622   101.80871    56.92656
   395  C   4.0   -0.08    4.01    3.63    45.43041   107.88077    54.62454
   396  H   1.0    0.12    1.17    1.46    51.82890   104.16198    57.47162
   397  H   1.0    0.05    1.06    1.44    50.17628   100.65261    53.64573
   398  H   1.0    0.04    1.07    1.44    46.40591   103.36719    53.17930
   399  H   1.0    0.05    1.04    1.43    47.37125   106.33831    57.82841
   400  H   1.0    0.06    1.07    1.44    49.31836   107.18698    55.25382
   401  H   1.0    0.04    1.00    1.43    44.66257   102.48977    57.51815
   402  H   1.0    0.04    1.00    1.43    46.29768    99.88938    56.22831
   403  H   1.0    0.05    1.00    1.43    47.78909   101.82316    58.52884
   404  H   1.0    0.04    1.00    1.43    45.66412   109.85162    55.16284
   405  H   1.0    0.04    1.00    1.43    45.51332   107.74942    52.57704
   406  H   1.0    0.04    1.00    1.43    43.58454   107.24270    55.25364
   407  N   5.0   -0.14    3.61    2.17    52.07698   106.18201    51.88933
   408  C   4.0    0.04    4.53    4.58    53.10869   107.48104    49.73151
   409  C   4.0    0.16    3.63    3.19    54.89906   105.55034    48.58853
   410  O   6.0   -0.32    1.52    1.80    54.56980   104.84892    46.41612
   411  C   4.0   -0.02    4.32    4.24    54.31628   110.04887    50.26330
   412  C   4.0   -0.04    4.20    4.00    52.30655   111.96688    51.08368
   413  C   4.0   -0.08    4.16    3.93    55.62491   110.95575    47.86340
   414  C   4.0   -0.07    4.02    3.65    53.46919   114.44028    51.99300
   415  H   1.0    0.12    1.15    1.45    52.76567   106.59561    53.62879
   416  H   1.0    0.05    1.06    1.44    51.58944   107.75397    48.33957
   417  H   1.0    0.06    1.06    1.44    55.71340   109.82040    51.76214
   418  H   1.0    0.03    1.03    1.43    51.03716   112.32644    49.49615
   419  H   1.0    0.06    1.04    1.43    51.19675   111.14925    52.60798
   420  H   1.0    0.04    1.00    1.43    56.64415   112.69348    48.23216
   421  H   1.0    0.04    1.01    1.43    56.94543   109.56356    47.14021
   422  H   1.0    0.04    1.00    1.43    54.22686   111.30162    46.39881
   423  H   1.0    0.04    1.00    1.43    52.03303   115.68178    52.77688
   424  H   1.0    0.05    1.00    1.43    54.84801   114.06713    53.46871
   425  H   1.0    0.04    1.00    1.43    54.39173   115.43066    50.45032
   426  N   5.0   -0.13    3.50    2.08    56.64185   104.41836    50.03138
   427  C   4.0    0.03    4.50    4.54    58.18318   102.55828    48.70542
   428  C   4.0    0.17    3.60    3.17    56.38319   100.71505    47.38502
   429  O   6.0   -0.33    1.45    1.80    56.64338   100.25257    45.12513
   430  C   4.0    0.05    4.17    3.95    60.31872   101.27180    50.22098
   431  O   6.0   -0.26    2.10    1.84    59.50777    99.62687    52.13806
   432  C   4.0   -0.07    4.06    3.73    62.20374   103.23789    51.23289
   433  H   1.0    0.12    1.13    1.45    57.19971   105.11120    51.74414
   434  H   1.0    0.04    1.09    1.44    59.12934   103.50590    47.12966
   435  H   1.0    0.04    1.04    1.43    61.33340   100.05988    48.86352
   436  H   1.0    0.15    1.09    1.44    57.84535   100.11846    52.77429
   437  H   1.0    0.04    1.00    1.43    63.58557   102.33216    52.45661
   438  H   1.0    0.03    1.00    1.43    63.18509   104.12751    49.66684
   439  H   1.0    0.07    1.02    1.43    61.22554   104.66498    52.32609
   440  N   5.0   -0.13    3.53    2.10    54.54425    99.60141    48.67462
   441  C   4.0    0.04    4.57    4.63    53.09638    97.67577    47.36868
   442  C   4.0    0.16    3.56    3.14    51.98656    98.66381    44.91359
   443  O   6.0   -0.30    1.24    1.80    51.89723    97.32390    43.01261
   444  C   4.0   -0.02    4.29    4.18    50.99040    96.71571    49.10777
   445  C   4.0   -0.07    4.13    3.87    48.97642    95.20864    47.70258
   446  C   4.0   -0.08    4.14    3.89    52.17542    95.11031    51.17470
   447  H   1.0    0.11    1.12    1.45    54.28455    99.81514    50.56067
   448  H   1.0    0.05    1.06    1.44    54.40319    96.15768    46.80911
   449  H   1.0    0.05    1.06    1.44    50.07814    98.38074    49.93144
   450  H   1.0    0.04    1.00    1.43    47.48332    94.70110    49.01760
   451  H   1.0    0.05    1.01    1.43    48.16351    96.27785    46.14888
   452  H   1.0    0.05    1.00    1.43    49.77804    93.48892    46.92261
   453  H   1.0    0.04    1.01    1.43    50.72272    94.35397    52.40076
   454  H   1.0    0.04    1.00    1.43    53.19051    93.53898    50.32760
   455  H   1.0    0.05    1.00    1.43    53.50020    96.20973    52.28995
   456  N   5.0   -0.13    3.55    2.11    51.03671   100.99093    44.96541
   457  C   4.0    0.04    4.54    4.59    49.72866   101.96973    42.78267
   458  C   4.0    0.15    3.46    3.10    51.51930   102.97036    40.76333
   459  O   6.0   -0.29    1.22    1.80    50.91135   102.77221    38.51981
   460  C   4.0   -0.02    4.28    4.17    47.88420   104.08167    43.53956
   461  C   4.0   -0.07    4.14    3.89    46.79551   105.41568    41.22611
   462  C   4.0   -0.07    4.13    3.85    45.75557   102.95874    45.11781
   463  H   1.0    0.12    1.12    1.45    50.86116   101.93325    46.62774
   464  H   1.0    0.06    1.06    1.44    48.69957   100.37571    41.93222
   465  H   1.0    0.05    1.05    1.44    48.96290   105.43741    44.66844
   466  H   1.0    0.04    1.00    1.43    45.29390   106.68945    41.80206
   467  H   1.0    0.05    1.00    1.43    48.22655   106.50424    40.23486
   468  H   1.0    0.05    1.00    1.43    46.00503   104.04062    39.92075
   469  H   1.0    0.04    1.00    1.43    44.43016   104.42441    45.66864
   470  H   1.0    0.04    1.00    1.43    44.74314   101.55932    44.00600
   471  H   1.0    0.05    1.00    1.43    46.50883   102.07159    46.80586
   472  N   5.0   -0.14    3.53    2.10    53.59785   104.11033    41.57112
   473  C   4.0    0.04    4.54    4.60    55.60401   104.99368    39.94699
   474  C   4.0    0.15    3.51    3.12    57.20219   102.85491    38.88457
   475  O   6.0   -0.29    1.24    1.80    58.47105   103.30548    36.98674
   476  C   4.0   -0.02    4.30    4.20    57.51255   106.82398    41.15288
   477  C   4.0   -0.07    4.11    3.83    56.10338   109.16819    42.01976
   478  C   4.0   -0.07    4.19    3.97    58.97984   105.37493    43.16918
   479  H   1.0    0.12    1.17    1.46    53.86120   104.22561    43.46861
   480  H   1.0    0.06    1.06    1.44    54.77264   106.02568    38.36302
   481  H   1.0    0.05    1.06    1.44    58.80152   107.34638    39.61930
   482  H   1.0    0.04    1.00    1.43    57.32781   110.53523    42.92932
   483  H   1.0    0.04    1.00    1.43    55.29948   110.08080    40.36611
   484  H   1.0    0.05    1.01    1.43    54.61209   108.61333    43.30947
   485  H   1.0    0.04    1.00    1.43    59.43505   106.53043    44.80086
   486  H   1.0    0.07    1.05    1.44    57.80441   103.83364    43.80030
   487  H   1.0    0.04    1.00    1.43    60.69450   104.57254    42.36426
   488  N   5.0   -0.14    3.54    2.11    57.18520   100.65955    40.09542
   489  C   4.0    0.04    4.45    4.46    58.39582    98.44966    39.04496
   490  C   4.0    0.09    3.28    3.05    56.42157    97.17134    37.42181
   491  O   6.0   -0.27    1.12    1.80    57.02819    96.33501    35.34092
   492  C   4.0   -0.02    4.31    4.21    59.62968    96.62513    40.95504
   493  C   4.0   -0.04    4.19    3.98    57.63061    95.05898    42.34659
   494  C   4.0   -0.07    4.17    3.94    61.30429    98.23046    42.64784
   495  C   4.0   -0.08    4.01    3.63    58.71140    93.14659    44.21432
   496  H   1.0    0.12    1.12    1.45    56.35324   100.46942    41.80650
   497  H   1.0    0.07    1.07    1.44    59.91832    99.14768    37.82175
   498  H   1.0    0.04    1.05    1.44    60.83376    95.32194    39.87788
   499  H   1.0    0.07    1.04    1.43    56.33503    96.34594    43.28122
   500  H   1.0    0.05    1.04    1.43    56.54328    94.02861    40.92725
   501  H   1.0    0.04    1.02    1.43    62.02656    97.12559    44.19911
   502  H   1.0    0.04    1.00    1.43    62.85760    98.99930    41.54535
   503  H   1.0    0.06    1.03    1.43    60.21994    99.78152    43.40861
   504  H   1.0    0.04    1.00    1.43    57.23755    92.15920    45.23367
   505  H   1.0    0.04    1.00    1.43    59.79444    91.73922    43.18266
   506  H   1.0    0.04    1.00    1.43    59.87310    94.03267    45.65348
   507  N   5.0   -0.21    3.22    1.96    49.66983   127.62976    59.34731
   508  C   4.0    0.03    4.31    4.21    49.69303   125.99260    61.54063
   509  C   4.0    0.08    3.24    3.04    51.83149   126.77627    63.30608
   510  O   6.0   -0.29    1.11    1.80    51.53074   126.82212    65.61227
   511  C   4.0   -0.02    4.33    4.26    49.99963   123.22592    60.71031
   512  C   4.0   -0.05    4.18    3.97    47.73567   122.29669    59.15206
   513  C   4.0   -0.07    4.13    3.86    50.47453   121.49347    62.96302
   514  C   4.0   -0.08    4.02    3.65    45.17144   122.49763    60.43995
   515  H   1.0    0.08    1.03    1.43    49.85905   126.81472    57.62080
   516  H   1.0    0.05    1.05    1.44    47.93305   126.26091    62.61149
   517  H   1.0    0.04    1.06    1.44    51.65832   123.17226    59.47364
   518  H   1.0    0.04    1.03    1.43    47.66852   123.36796    57.39892
   519  H   1.0    0.04    1.03    1.43    48.09331   120.32337    58.67015
   520  H   1.0    0.04    1.00    1.43    50.62326   119.55465    62.30138
   521  H   1.0    0.05    1.00    1.43    52.21686   121.99206    63.92794
   522  H   1.0    0.04    1.00    1.43    48.92962   121.64193    64.30403
   523  H   1.0    0.04    1.00    1.43    43.72825   121.80266    59.15571
   524  H   1.0    0.04    1.00    1.43    45.09290   121.38763    62.16382
   525  H   1.0    0.04    1.00    1.43    44.72888   124.45130    60.88825
   526  N   5.0   -0.21    3.17    1.95    46.52581    89.82388    71.98483
   527  C   4.0    0.03    4.14    3.89    47.93442    91.36562    70.18315
   528  C   4.0    0.08    3.18    3.03    49.74836    89.81483    68.54217
   529  O   6.0   -0.32    1.17    1.80    49.60884    89.98541    66.22670
   530  C   4.0   -0.08    4.09    3.79    49.28073    93.52079    71.53526
   531  H   1.0    0.08    1.03    1.43    46.32720    90.59004    73.73208
   532  H   1.0    0.05    1.06    1.44    46.62117    92.21761    68.81926
   533  H   1.0    0.04    1.00    1.43    50.04305    94.82503    70.14712
   534  H   1.0    0.04    1.00    1.43    47.92585    94.51444    72.71569
   535  H   1.0    0.04    1.00    1.43    50.80958    92.83648    72.71787
   536  N   5.0   -0.21    3.22    1.96    48.55466    88.26912    61.20048
   537  C   4.0    0.03    4.26    4.12    50.47171    89.22267    59.49826
   538  C   4.0    0.08    3.21    3.04    51.85998    87.07675    58.18424
   539  O   6.0   -0.30    1.12    1.80    52.53542    87.33133    55.97229
   540  C   4.0   -0.04    4.33    4.26    52.28291    90.93148    60.94188
   541  C   4.0   -0.02    4.18    3.96    53.62162    92.94503    59.33169
   542  C   4.0   -0.08    4.10    3.80    56.26685    92.13145    58.52393
   543  C   4.0   -0.08    4.15    3.91    52.13128    93.79499    57.01669
   544  H   1.0    0.11    1.06    1.44    48.83431    88.49460    63.08838
   545  H   1.0    0.04    1.07    1.44    49.53667    90.29726    57.99823
   546  H   1.0    0.05    1.04    1.43    51.15362    91.87817    62.38017
   547  H   1.0    0.05    1.03    1.43    53.67301    89.74524    61.89647
   548  H   1.0    0.03    1.08    1.44    53.81879    94.58425    60.54987
   549  H   1.0    0.04    1.00    1.43    57.01721    93.50886    57.19576
   550  H   1.0    0.04    1.00    1.43    57.52672    92.03042    60.14392
   551  H   1.0    0.05    1.00    1.43    56.21820    90.30345    57.59395
   552  H   1.0    0.04    1.01    1.43    52.95603    95.51322    56.26316
   553  H   1.0    0.05    1.00    1.43    52.23049    92.38125    55.53395
   554  H   1.0    0.04    1.00    1.43    50.16789    94.20782    57.45899
   555  N   5.0   -0.21    3.24    1.97    69.67898    77.35713    64.44477
   556  C   4.0    0.03    4.25    4.10    68.03022    78.84233    66.05577
   557  C   4.0    0.08    3.21    3.04    66.56200    77.08157    67.80724
   558  O   6.0   -0.29    1.11    1.80    66.44347    77.45890    70.09448
   559  C   4.0   -0.04    4.31    4.21    66.22084    80.44528    64.45851
   560  C   4.0   -0.02    3.54    3.13    67.52694    82.29240    62.71955
   561  C   4.0   -0.05    3.47    3.10    66.12813    83.62716    60.93357
   562  C   4.0   -0.05    3.52    3.12    70.12821    82.59626    62.72621
   563  C   4.0   -0.05    3.38    3.07    67.31051    85.13859    59.15781
   564  C   4.0   -0.05    3.40    3.08    71.31934    83.97373    60.85615
   565  C   4.0   -0.04    3.37    3.07    69.92144    85.28200    59.08254
   566  H   1.0    0.08    1.03    1.43    69.51222    77.60151    62.55350
   567  H   1.0    0.05    1.05    1.44    69.19565    80.04257    67.28852
   568  H   1.0    0.04    1.03    1.43    65.08984    79.16690    63.28885
   569  H   1.0    0.04    1.03    1.43    64.92235    81.44613    65.71253
   570  H   1.0    0.05    1.03    1.43    64.09028    83.50679    60.94122
   571  H   1.0    0.04    1.04    1.44    71.27406    81.72915    64.16292
   572  H   1.0    0.05    1.03    1.43    66.20021    86.15903    57.78504
   573  H   1.0    0.04    1.03    1.43    73.35193    83.94193    60.75252
   574  H   1.0    0.05    1.03    1.43    70.87029    86.44039    57.69575
   575  H   1.0    0.09    1.07    1.44    77.74009   113.83360    58.60505
   576  H   1.0    0.05    1.05    1.44    71.98173   116.02674    56.69948
   577  H   1.0    0.09    1.07    1.44    72.01686   110.65582    49.70324
   578  H   1.0    0.06    1.05    1.44    69.26571   116.08569    46.73592
   579  H   1.0    0.09    1.07    1.44    73.37795    97.60051    47.71094
   580  H   1.0    0.08    1.05    1.44    68.93981    95.70032    81.11622
   581  H   1.0    0.09    1.07    1.44    55.43841   116.40062    77.46476
   582  H   1.0    0.07    1.05    1.44    54.64433    97.01341    38.04435
   583  H   1.0    0.09    1.07    1.44    48.19308   128.47092    59.28233
   584  H   1.0    0.05    1.05    1.44    53.51295   127.26423    62.59500
   585  H   1.0    0.09    1.07    1.44    44.95456    89.55242    71.39318
   586  H   1.0    0.05    1.04    1.43    51.02439    88.68258    69.35508
   587  H   1.0    0.09    1.07    1.44    47.07392    89.04089    60.87746
   588  H   1.0    0.05    1.04    1.43    52.21852    85.47253    59.11644
   589  H   1.0    0.09    1.07    1.44    71.30126    77.71847    64.80559
   590  H   1.0    0.06    1.05    1.44    65.66564    75.57627    67.09895

  Z AO/shell   Hii/eV     exponent
  1     Wed Apr 25 08:07:45 CEST 2018   EN: 2.200 GM2: 0.406  GM3: 0.0800  RAES: 1.40
     1s    -10.707211    1.230000
  6     Wed Apr 25 08:07:45 CEST 2018   EN: 2.550 GM2: 0.538  GM3: 0.1500  RAES: 3.00
     2s    -13.970922    2.096432
     2p    -10.063292    1.800000
  7     Wed Apr 25 08:07:45 CEST 2018   EN: 3.040 GM2: 0.461  GM3:-0.0640  RAES: 1.90
     2s    -16.686243    2.339881
     2p    -12.523956    2.014332
  8     Wed Apr 25 08:07:45 CEST 2018   EN: 3.440 GM2: 0.452  GM3:-0.0517  RAES: 1.80
     2s    -20.229985    2.439742
     2p    -15.503117    2.137023
 16     Tue Apr 24 11:44:34 CEST 2018   EN: 2.580 GM2: 0.340  GM3:-0.0502  RAES: 3.10
     3s    -20.029654    1.981333
     3p    -11.377694    2.025643
     3d     -0.420282    1.702555
 no old-style atom pair restraining (fixing) potential

molecular fragmentation (1/2 indicates fragments):
111111111111111111112222222222222222222222222222222222222222222222222222
222222222222222222222222222222222222222222222222222222222222222222222222
222222222222222222222222222222222222222222222222222222222222222222222222
222222222222222222222222222222222222222222222222222222222222222222222222
222222222222222222222222222222222222222222222222222222222222222222222222
222222222222222222222222222222222222222222222222222222222222222222222222
222222222222222222222222222222222222222222222222222222222222222222222222
222222222222222222222222222222222222222222222222222222222222222222222211
22222222222222
# atoms in fragment 1/2:    22   568
 fragment masses (1/2) :      149.19     3601.71
CMA distance (Bohr)    :  13.771
constraining FC (au)   :  0.0500
           ------------------------------------------------- 
          |        Self-Consistent Charge Iterations        |
           ------------------------------------------------- 

 Ncao       : 1388
 Nao        : 1387
 Nshell     : 855
 Nel        : 1500
 T(el)      :   500.0
 intcut     :    35.0
 scfconv/Eh :  0.100E-06
   qconv/e  :  0.100E-04
 intneglect :  0.100E-08
 broydamp   :      0.400
 iter      E             dE          RMSdq      gap      omega  full diag
   1   -847.6629116 -0.847663E+03  0.414E+00    2.86       0.0  T
   2   -849.3155541 -0.165264E+01  0.198E+00    1.73       1.0  T
   3   -849.4039423 -0.883883E-01  0.110E+00    2.12       1.0  T
   4   -849.5258991 -0.121957E+00  0.208E-01    1.52       1.0  T
   5   -849.5319488 -0.604975E-02  0.957E-02    1.71       1.0  T
   6   -849.5328550 -0.906203E-03  0.392E-02    1.68       1.0  T
   7   -849.5331580 -0.302946E-03  0.166E-02    1.68       1.0  T
   8   -849.5331838 -0.258554E-04  0.748E-03    1.67       1.0  T
   9   -849.5331915 -0.764359E-05  0.338E-03    1.67       1.2  T
  10   -849.5331928 -0.129808E-05  0.157E-03    1.67       2.6  T
  11   -849.5331930 -0.231030E-06  0.755E-04    1.67       5.5  T
  12   -849.5331931 -0.547828E-07  0.354E-04    1.67      11.6  T
  13   -849.5331931 -0.222389E-07  0.185E-04    1.67      22.2  T
  14   -849.5331931 -0.431453E-08  0.911E-05    1.67      45.2  T
  15   -849.5331931 -0.110197E-08  0.353E-05    1.67     116.7  T
speedup  1.00
cpu  time for SCC   15.97 s
wall time for SCC   15.97 s

   *** convergence criteria satisfied after 15 iterations ***

          eigenvalues
 #    :         738        739        740        741        742        743        744        745
 occ. :        2.000      2.000      2.000      2.000      2.000      2.000      2.000      2.000
 eps  :       -10.543    -10.524    -10.464    -10.454    -10.446    -10.366    -10.131    -10.064
 #    :         746        747        748        749        750        751        752        753
 occ. :        2.000      2.000      2.000      2.000      2.000      0.000      0.000      0.000
 eps  :       -10.058    -10.016     -9.803     -9.745     -9.653     -7.985     -7.900     -7.771
 #    :         754        755        756        757        758        759        760        761
 occ. :        0.000      0.000      0.000      0.000      0.000      0.000      0.000      0.000
 eps  :        -7.735     -7.694     -7.572     -7.514     -7.473     -7.016     -6.930     -6.911


   #   Z            q   n(s)   n(p)   n(d)      C6AA      α(0)
   1   7 N     -0.396  1.324  4.072  0.000    30.261     8.170
   2   6 C      0.043  1.051  2.906  0.000    19.866     6.349
   3   6 C      0.200  1.097  2.703  0.000    23.738     7.979
   4   8 O     -0.379  1.745  4.634  0.000    21.263     6.182
   5   6 C     -0.075  1.057  3.017  0.000    21.911     6.662
   6   6 C     -0.001  1.080  2.921  0.000    28.047     8.687
   7   6 C     -0.045  1.080  2.965  0.000    29.105     8.847
   8   6 C     -0.047  1.078  2.968  0.000    29.160     8.856
   9   6 C     -0.034  1.082  2.951  0.000    28.835     8.806
  10   6 C     -0.042  1.081  2.961  0.000    29.042     8.837
  11   6 C     -0.039  1.083  2.956  0.000    28.959     8.825
  12   1 H      0.171  0.829  0.000  0.000     1.268     1.764
  13   1 H      0.060  0.940  0.000  0.000     2.198     2.319
  14   1 H      0.069  0.931  0.000  0.000     2.095     2.264
  15   1 H      0.060  0.940  0.000  0.000     2.196     2.317
  16   1 H      0.035  0.965  0.000  0.000     2.518     2.481
  17   1 H      0.044  0.956  0.000  0.000     2.393     2.419
  18   1 H      0.050  0.950  0.000  0.000     2.315     2.379
  19   1 H      0.046  0.954  0.000  0.000     2.370     2.407
  20   1 H      0.049  0.951  0.000  0.000     2.330     2.387
  21   7 N     -0.406  1.322  4.084  0.000    30.534     8.207
  22   6 C      0.023  1.060  2.917  0.000    20.201     6.402
  23   6 C      0.206  1.088  2.706  0.000    23.632     7.962
  24   8 O     -0.389  1.757  4.632  0.000    21.471     6.213
  25   6 C      0.114  1.044  2.842  0.000    18.802     6.190
  26   8 O     -0.484  1.730  4.755  0.000    22.560     6.412
  27   6 C     -0.132  1.044  3.089  0.000    23.102     6.854
  28   1 H      0.202  0.798  0.000  0.000     1.097     1.641
  29   1 H      0.055  0.945  0.000  0.000     2.257     2.349
  30   1 H      0.024  0.976  0.000  0.000     2.678     2.559
  31   1 H      0.333  0.667  0.000  0.000     0.631     1.247
  32   1 H      0.056  0.944  0.000  0.000     2.250     2.346
  33   1 H      0.052  0.948  0.000  0.000     2.295     2.369
  34   1 H      0.069  0.931  0.000  0.000     2.092     2.262
  35   7 N     -0.394  1.306  4.088  0.000    30.205     8.162
  36   6 C      0.027  1.057  2.916  0.000    20.131     6.390
  37   6 C      0.262  1.050  2.688  0.000    22.592     7.784
  38   8 O     -0.509  1.739  4.770  0.000    23.991     6.567
  39   6 C     -0.075  1.060  3.015  0.000    21.920     6.664
  40   6 C     -0.011  1.056  2.955  0.000    20.735     6.477
  41   6 C     -0.123  1.042  3.081  0.000    22.916     6.825
  42   6 C     -0.118  1.039  3.079  0.000    22.813     6.810
  43   1 H      0.169  0.831  0.000  0.000     1.276     1.770
  44   1 H      0.040  0.960  0.000  0.000     2.450     2.448
  45   1 H      0.050  0.950  0.000  0.000     2.321     2.382
  46   1 H      0.045  0.955  0.000  0.000     2.388     2.417
  47   1 H      0.039  0.961  0.000  0.000     2.457     2.451
  48   1 H      0.045  0.955  0.000  0.000     2.382     2.413
  49   1 H      0.044  0.956  0.000  0.000     2.399     2.422
  50   1 H      0.042  0.958  0.000  0.000     2.421     2.433
  51   1 H      0.043  0.957  0.000  0.000     2.407     2.426
  52   1 H      0.034  0.966  0.000  0.000     2.530     2.487
  53   1 H      0.042  0.958  0.000  0.000     2.418     2.432
  54   7 N     -0.165  1.242  3.923  0.000    24.563     7.361
  55   6 C      0.016  1.061  2.923  0.000    20.301     6.415
  56   6 C      0.277  1.041  2.682  0.000    22.323     7.737
  57   8 O     -0.468  1.739  4.729  0.000    23.095     6.443
  58   6 C     -0.085  1.061  3.024  0.000    22.113     6.694
  59   6 C     -0.014  1.057  2.957  0.000    20.786     6.485
  60   6 C     -0.120  1.041  3.079  0.000    22.853     6.816
  61   6 C     -0.122  1.038  3.084  0.000    22.890     6.822
  62   1 H      0.226  0.774  0.000  0.000     0.983     1.553
  63   1 H      0.083  0.917  0.000  0.000     1.949     2.183
  64   1 H      0.060  0.940  0.000  0.000     2.204     2.322
  65   1 H      0.069  0.931  0.000  0.000     2.095     2.264
  66   1 H      0.041  0.959  0.000  0.000     2.436     2.441
  67   1 H      0.046  0.954  0.000  0.000     2.367     2.406
  68   1 H      0.045  0.955  0.000  0.000     2.379     2.412
  69   1 H      0.045  0.955  0.000  0.000     2.384     2.414
  70   1 H      0.048  0.952  0.000  0.000     2.348     2.396
  71   1 H      0.046  0.954  0.000  0.000     2.373     2.409
  72   1 H      0.039  0.961  0.000  0.000     2.460     2.453
  73   7 N     -0.187  1.243  3.944  0.000    25.063     7.435
  74   6 C      0.000  1.067  2.933  0.000    20.576     6.459
  75   6 C      0.281  1.034  2.685  0.000    22.250     7.724
  76   8 O     -0.473  1.741  4.732  0.000    23.206     6.459
  77   6 C      0.063  1.039  2.898  0.000    19.735     6.363
  78   8 O     -0.455  1.722  4.732  0.000    21.942     6.323
  79   1 H      0.220  0.780  0.000  0.000     1.011     1.575
  80   1 H      0.086  0.914  0.000  0.000     1.923     2.169
  81   1 H      0.075  0.925  0.000  0.000     2.032     2.229
  82   1 H      0.063  0.937  0.000  0.000     2.163     2.300
  83   1 H      0.325  0.675  0.000  0.000     0.651     1.268
  84   7 N     -0.172  1.240  3.933  0.000    24.730     7.386
  85   6 C      0.016  1.063  2.922  0.000    20.311     6.417
  86   6 C      0.280  1.036  2.683  0.000    22.252     7.725
  87   8 O     -0.485  1.734  4.751  0.000    23.465     6.495
  88   6 C     -0.086  1.065  3.021  0.000    22.123     6.694
  89   6 C     -0.011  1.055  2.956  0.000    20.737     6.477
  90   6 C     -0.130  1.037  3.093  0.000    23.055     6.846
  91   6 C     -0.123  1.042  3.081  0.000    22.904     6.823
  92   1 H      0.204  0.796  0.000  0.000     1.084     1.631
  93   1 H      0.083  0.917  0.000  0.000     1.946     2.181
  94   1 H      0.066  0.934  0.000  0.000     2.125     2.280
  95   1 H      0.053  0.947  0.000  0.000     2.279     2.361
  96   1 H      0.035  0.965  0.000  0.000     2.515     2.480
  97   1 H      0.059  0.941  0.000  0.000     2.211     2.325
  98   1 H      0.040  0.960  0.000  0.000     2.454     2.450
  99   1 H      0.041  0.959  0.000  0.000     2.434     2.440
 100   1 H      0.055  0.945  0.000  0.000     2.264     2.353
 101   1 H      0.045  0.955  0.000  0.000     2.379     2.412
 102   1 H      0.036  0.964  0.000  0.000     2.504     2.475
 103   7 N     -0.184  1.246  3.938  0.000    24.996     7.425
 104   6 C      0.014  1.066  2.920  0.000    20.341     6.422
 105   6 C      0.271  1.043  2.685  0.000    22.415     7.753
 106   8 O     -0.490  1.735  4.756  0.000    23.567     6.509
 107   6 C      0.118  1.045  2.837  0.000    18.747     6.182
 108   8 O     -0.470  1.718  4.752  0.000    22.259     6.369
 109   6 C     -0.126  1.040  3.086  0.000    22.971     6.834
 110   1 H      0.230  0.770  0.000  0.000     0.966     1.539
 111   1 H      0.072  0.928  0.000  0.000     2.063     2.246
 112   1 H      0.033  0.967  0.000  0.000     2.542     2.493
 113   1 H      0.330  0.670  0.000  0.000     0.638     1.255
 114   1 H      0.071  0.929  0.000  0.000     2.072     2.251
 115   1 H      0.050  0.950  0.000  0.000     2.324     2.384
 116   1 H      0.059  0.941  0.000  0.000     2.210     2.325
 117   7 N     -0.188  1.253  3.934  0.000    25.070     7.436
 118   6 C      0.028  1.064  2.909  0.000    20.101     6.382
 119   6 C      0.283  1.041  2.676  0.000    22.211     7.718
 120   8 O     -0.505  1.739  4.766  0.000    23.897     6.554
 121   6 C     -0.018  1.061  2.958  0.000    20.866     6.497
 122   6 C     -0.118  1.042  3.077  0.000    22.819     6.810
 123   6 C     -0.131  1.039  3.092  0.000    23.077     6.849
 124   1 H      0.237  0.763  0.000  0.000     0.938     1.517
 125   1 H      0.056  0.944  0.000  0.000     2.246     2.343
 126   1 H      0.044  0.956  0.000  0.000     2.398     2.422
 127   1 H      0.059  0.941  0.000  0.000     2.212     2.326
 128   1 H      0.036  0.964  0.000  0.000     2.501     2.473
 129   1 H      0.047  0.953  0.000  0.000     2.356     2.400
 130   1 H      0.058  0.942  0.000  0.000     2.228     2.334
 131   1 H      0.060  0.940  0.000  0.000     2.200     2.320
 132   1 H      0.052  0.948  0.000  0.000     2.290     2.366
 133   7 N     -0.189  1.250  3.939  0.000    25.091     7.439
 134   6 C      0.033  1.056  2.911  0.000    20.028     6.372
 135   6 C      0.276  1.040  2.684  0.000    22.341     7.740
 136   8 O     -0.500  1.741  4.759  0.000    23.786     6.539
 137   6 C     -0.081  1.054  3.026  0.000    22.028     6.680
 138   6 C      0.017  1.081  2.902  0.000    27.634     8.623
 139   6 C     -0.043  1.079  2.964  0.000    29.058     8.840
 140   6 C     -0.037  1.077  2.960  0.000    28.924     8.820
 141   6 C     -0.034  1.080  2.953  0.000    28.837     8.806
 142   6 C     -0.033  1.079  2.954  0.000    28.822     8.804
 143   6 C     -0.039  1.079  2.961  0.000    28.981     8.828
 144   1 H      0.236  0.764  0.000  0.000     0.938     1.517
 145   1 H      0.057  0.943  0.000  0.000     2.232     2.336
 146   1 H      0.077  0.923  0.000  0.000     2.008     2.216
 147   1 H      0.065  0.935  0.000  0.000     2.142     2.289
 148   1 H      0.039  0.961  0.000  0.000     2.465     2.455
 149   1 H      0.027  0.973  0.000  0.000     2.631     2.536
 150   1 H      0.045  0.955  0.000  0.000     2.387     2.416
 151   1 H      0.037  0.963  0.000  0.000     2.494     2.469
 152   1 H      0.038  0.962  0.000  0.000     2.470     2.458
 153   7 N     -0.186  1.249  3.937  0.000    25.033     7.431
 154   6 C      0.028  1.058  2.914  0.000    20.110     6.385
 155   6 C      0.271  1.043  2.686  0.000    22.415     7.753
 156   8 O     -0.505  1.739  4.766  0.000    23.892     6.554
 157   6 C     -0.075  1.058  3.016  0.000    21.918     6.664
 158   6 C     -0.016  1.057  2.960  0.000    20.830     6.492
 159   6 C     -0.118  1.041  3.078  0.000    22.817     6.810
 160   6 C     -0.119  1.040  3.079  0.000    22.827     6.812
 161   1 H      0.234  0.766  0.000  0.000     0.947     1.525
 162   1 H      0.070  0.930  0.000  0.000     2.088     2.260
 163   1 H      0.047  0.953  0.000  0.000     2.360     2.402
 164   1 H      0.061  0.939  0.000  0.000     2.190     2.314
 165   1 H      0.048  0.952  0.000  0.000     2.347     2.396
 166   1 H      0.052  0.948  0.000  0.000     2.290     2.367
 167   1 H      0.033  0.967  0.000  0.000     2.549     2.497
 168   1 H      0.046  0.954  0.000  0.000     2.366     2.405
 169   1 H      0.051  0.949  0.000  0.000     2.311     2.377
 170   1 H      0.046  0.954  0.000  0.000     2.374     2.409
 171   1 H      0.032  0.968  0.000  0.000     2.564     2.504
 172   7 N     -0.187  1.252  3.935  0.000    25.050     7.433
 173   6 C      0.027  1.061  2.912  0.000    20.116     6.386
 174   6 C      0.277  1.043  2.680  0.000    22.312     7.735
 175   8 O     -0.513  1.754  4.760  0.000    24.081     6.579
 176   6 C     -0.070  1.057  3.012  0.000    21.826     6.650
 177   6 C     -0.016  1.057  2.959  0.000    20.829     6.492
 178   6 C     -0.110  1.041  3.069  0.000    22.648     6.785
 179   6 C     -0.121  1.041  3.080  0.000    22.881     6.820
 180   1 H      0.237  0.763  0.000  0.000     0.935     1.515
 181   1 H      0.071  0.929  0.000  0.000     2.080     2.255
 182   1 H      0.049  0.951  0.000  0.000     2.336     2.390
 183   1 H      0.047  0.953  0.000  0.000     2.358     2.402
 184   1 H      0.054  0.946  0.000  0.000     2.266     2.354
 185   1 H      0.050  0.950  0.000  0.000     2.315     2.379
 186   1 H      0.025  0.975  0.000  0.000     2.652     2.547
 187   1 H      0.041  0.959  0.000  0.000     2.441     2.443
 188   1 H      0.054  0.946  0.000  0.000     2.270     2.356
 189   1 H      0.042  0.958  0.000  0.000     2.422     2.434
 190   1 H      0.039  0.961  0.000  0.000     2.468     2.457
 191   7 N     -0.195  1.251  3.943  0.000    25.223     7.459
 192   6 C      0.030  1.060  2.910  0.000    20.069     6.378
 193   6 C      0.278  1.043  2.679  0.000    22.301     7.734
 194   8 O     -0.528  1.759  4.769  0.000    24.414     6.625
 195   6 C     -0.011  1.060  2.952  0.000    20.743     6.478
 196   6 C     -0.114  1.040  3.074  0.000    22.733     6.798
 197   6 C     -0.122  1.042  3.080  0.000    22.881     6.820
 198   1 H      0.230  0.770  0.000  0.000     0.966     1.540
 199   1 H      0.060  0.940  0.000  0.000     2.204     2.322
 200   1 H      0.037  0.963  0.000  0.000     2.483     2.464
 201   1 H      0.058  0.942  0.000  0.000     2.224     2.332
 202   1 H      0.034  0.966  0.000  0.000     2.531     2.488
 203   1 H      0.045  0.955  0.000  0.000     2.387     2.416
 204   1 H      0.056  0.944  0.000  0.000     2.245     2.343
 205   1 H      0.044  0.956  0.000  0.000     2.392     2.418
 206   1 H      0.057  0.943  0.000  0.000     2.229     2.335
 207   7 N     -0.192  1.254  3.938  0.000    25.157     7.449
 208   6 C      0.030  1.066  2.904  0.000    20.068     6.377
 209   6 C      0.281  1.044  2.675  0.000    22.238     7.722
 210   8 O     -0.518  1.753  4.765  0.000    24.180     6.593
 211   6 C     -0.020  1.065  2.955  0.000    20.903     6.503
 212   6 C     -0.068  1.051  3.017  0.000    21.794     6.646
 213   6 C     -0.115  1.039  3.076  0.000    22.755     6.801
 214   6 C     -0.106  1.037  3.069  0.000    22.591     6.778
 215   1 H      0.226  0.774  0.000  0.000     0.983     1.553
 216   1 H      0.056  0.944  0.000  0.000     2.250     2.346
 217   1 H      0.049  0.951  0.000  0.000     2.333     2.389
 218   1 H      0.035  0.965  0.000  0.000     2.523     2.484
 219   1 H      0.049  0.951  0.000  0.000     2.327     2.386
 220   1 H      0.065  0.935  0.000  0.000     2.137     2.286
 221   1 H      0.035  0.965  0.000  0.000     2.521     2.483
 222   1 H      0.043  0.957  0.000  0.000     2.411     2.428
 223   1 H      0.042  0.958  0.000  0.000     2.425     2.435
 224   1 H      0.035  0.965  0.000  0.000     2.521     2.483
 225   1 H      0.050  0.950  0.000  0.000     2.319     2.382
 226   7 N     -0.187  1.246  3.941  0.000    25.064     7.435
 227   6 C      0.033  1.063  2.904  0.000    20.035     6.375
 228   6 C      0.216  1.084  2.700  0.000    23.438     7.928
 229   8 O     -0.367  1.744  4.623  0.000    21.039     6.150
 230   6 C     -0.008  1.059  2.948  0.000    20.683     6.469
 231   6 C     -0.129  1.043  3.085  0.000    23.020     6.840
 232   6 C     -0.129  1.043  3.086  0.000    23.033     6.842
 233   1 H      0.228  0.772  0.000  0.000     0.975     1.547
 234   1 H      0.087  0.913  0.000  0.000     1.911     2.162
 235   1 H      0.043  0.957  0.000  0.000     2.414     2.430
 236   1 H      0.061  0.939  0.000  0.000     2.190     2.314
 237   1 H      0.059  0.941  0.000  0.000     2.210     2.325
 238   1 H      0.052  0.948  0.000  0.000     2.297     2.370
 239   1 H      0.057  0.943  0.000  0.000     2.230     2.335
 240   1 H      0.050  0.950  0.000  0.000     2.319     2.381
 241   1 H      0.063  0.937  0.000  0.000     2.159     2.298
 242   7 N     -0.392  1.303  4.089  0.000    30.141     8.154
 243   6 C      0.011  1.065  2.924  0.000    20.414     6.435
 244   6 C      0.266  1.048  2.686  0.000    22.510     7.770
 245   8 O     -0.492  1.735  4.757  0.000    23.607     6.514
 246   6 C      0.112  1.045  2.843  0.000    18.849     6.199
 247   8 O     -0.481  1.733  4.747  0.000    22.477     6.400
 248   6 C     -0.132  1.043  3.089  0.000    23.099     6.854
 249   1 H      0.166  0.834  0.000  0.000     1.299     1.785
 250   1 H      0.050  0.950  0.000  0.000     2.325     2.385
 251   1 H      0.041  0.959  0.000  0.000     2.436     2.441
 252   1 H      0.328  0.672  0.000  0.000     0.643     1.259
 253   1 H      0.056  0.944  0.000  0.000     2.243     2.342
 254   1 H      0.054  0.946  0.000  0.000     2.276     2.359
 255   1 H      0.056  0.944  0.000  0.000     2.249     2.345
 256   7 N     -0.167  1.246  3.921  0.000    24.621     7.369
 257   6 C      0.012  1.064  2.924  0.000    20.375     6.427
 258   6 C      0.273  1.043  2.684  0.000    22.385     7.748
 259   8 O     -0.469  1.732  4.737  0.000    23.100     6.444
 260   6 C     -0.079  1.056  3.023  0.000    21.982     6.671
 261   6 C     -0.015  1.066  2.950  0.000    20.854     6.503
 262  16 S     -0.227  1.927  4.249  0.051   150.774    20.667
 263   6 C     -0.063  1.056  3.006  0.000    21.779     6.657
 264   1 H      0.221  0.779  0.000  0.000     1.004     1.570
 265   1 H      0.091  0.909  0.000  0.000     1.873     2.140
 266   1 H      0.079  0.921  0.000  0.000     1.991     2.207
 267   1 H      0.081  0.919  0.000  0.000     1.970     2.195
 268   1 H      0.057  0.943  0.000  0.000     2.229     2.335
 269   1 H      0.051  0.949  0.000  0.000     2.308     2.376
 270   1 H      0.064  0.936  0.000  0.000     2.153     2.294
 271   1 H      0.064  0.936  0.000  0.000     2.148     2.292
 272   1 H      0.059  0.941  0.000  0.000     2.214     2.327
 273   7 N     -0.174  1.241  3.933  0.000    24.766     7.391
 274   6 C      0.014  1.065  2.922  0.000    20.341     6.421
 275   6 C      0.273  1.041  2.686  0.000    22.389     7.749
 276   8 O     -0.481  1.737  4.744  0.000    23.363     6.480
 277   6 C     -0.027  1.066  2.961  0.000    21.010     6.519
 278   6 C     -0.074  1.049  3.025  0.000    21.904     6.663
 279   6 C     -0.121  1.040  3.082  0.000    22.881     6.821
 280   6 C     -0.114  1.036  3.078  0.000    22.736     6.800
 281   1 H      0.215  0.785  0.000  0.000     1.035     1.593
 282   1 H      0.083  0.917  0.000  0.000     1.948     2.183
 283   1 H      0.058  0.942  0.000  0.000     2.228     2.334
 284   1 H      0.047  0.953  0.000  0.000     2.364     2.404
 285   1 H      0.042  0.958  0.000  0.000     2.428     2.437
 286   1 H      0.065  0.935  0.000  0.000     2.141     2.288
 287   1 H      0.050  0.950  0.000  0.000     2.323     2.384
 288   1 H      0.049  0.951  0.000  0.000     2.328     2.386
 289   1 H      0.047  0.953  0.000  0.000     2.352     2.398
 290   1 H      0.040  0.960  0.000  0.000     2.443     2.444
 291   1 H      0.049  0.951  0.000  0.000     2.335     2.389
 292   7 N     -0.175  1.247  3.928  0.000    24.784     7.394
 293   6 C      0.017  1.061  2.923  0.000    20.295     6.413
 294   6 C      0.276  1.041  2.684  0.000    22.340     7.741
 295   8 O     -0.506  1.734  4.772  0.000    23.924     6.558
 296   6 C     -0.085  1.056  3.029  0.000    22.113     6.694
 297   6 C      0.008  1.080  2.913  0.000    27.843     8.655
 298   6 C     -0.044  1.081  2.963  0.000    29.096     8.846
 299   6 C     -0.049  1.078  2.971  0.000    29.217     8.864
 300   6 C     -0.032  1.080  2.952  0.000    28.805     8.801
 301   6 C     -0.034  1.081  2.953  0.000    28.835     8.806
 302   6 C     -0.034  1.080  2.954  0.000    28.844     8.807
 303   1 H      0.210  0.790  0.000  0.000     1.058     1.612
 304   1 H      0.094  0.906  0.000  0.000     1.837     2.120
 305   1 H      0.084  0.916  0.000  0.000     1.934     2.175
 306   1 H      0.070  0.930  0.000  0.000     2.083     2.257
 307   1 H      0.043  0.957  0.000  0.000     2.411     2.428
 308   1 H      0.036  0.964  0.000  0.000     2.500     2.473
 309   1 H      0.041  0.959  0.000  0.000     2.436     2.441
 310   1 H      0.040  0.960  0.000  0.000     2.447     2.446
 311   1 H      0.039  0.961  0.000  0.000     2.464     2.455
 312   7 N     -0.171  1.253  3.918  0.000    24.700     7.381
 313   6 C      0.012  1.070  2.918  0.000    20.372     6.426
 314   6 C      0.283  1.040  2.677  0.000    22.213     7.718
 315   8 O     -0.502  1.737  4.764  0.000    23.820     6.544
 316   6 C     -0.025  1.065  2.961  0.000    20.987     6.516
 317   6 C     -0.126  1.040  3.086  0.000    22.975     6.834
 318   6 C     -0.121  1.041  3.080  0.000    22.863     6.817
 319   1 H      0.245  0.755  0.000  0.000     0.904     1.489
 320   1 H      0.083  0.917  0.000  0.000     1.951     2.184
 321   1 H      0.070  0.930  0.000  0.000     2.086     2.259
 322   1 H      0.056  0.944  0.000  0.000     2.249     2.345
 323   1 H      0.058  0.942  0.000  0.000     2.226     2.333
 324   1 H      0.042  0.958  0.000  0.000     2.416     2.431
 325   1 H      0.054  0.946  0.000  0.000     2.273     2.358
 326   1 H      0.048  0.952  0.000  0.000     2.346     2.395
 327   1 H      0.049  0.951  0.000  0.000     2.339     2.391
 328   7 N     -0.182  1.249  3.932  0.000    24.933     7.416
 329   6 C      0.021  1.062  2.918  0.000    20.224     6.402
 330   6 C      0.276  1.042  2.682  0.000    22.341     7.741
 331   8 O     -0.494  1.728  4.766  0.000    23.640     6.519
 332   6 C     -0.023  1.065  2.958  0.000    20.943     6.509
 333   6 C     -0.069  1.052  3.017  0.000    21.815     6.649
 334   6 C     -0.117  1.038  3.079  0.000    22.787     6.806
 335   6 C     -0.108  1.036  3.071  0.000    22.615     6.781
 336   1 H      0.245  0.755  0.000  0.000     0.905     1.490
 337   1 H      0.074  0.926  0.000  0.000     2.040     2.234
 338   1 H      0.052  0.948  0.000  0.000     2.301     2.372
 339   1 H      0.043  0.957  0.000  0.000     2.409     2.427
 340   1 H      0.054  0.946  0.000  0.000     2.275     2.358
 341   1 H      0.061  0.939  0.000  0.000     2.185     2.312
 342   1 H      0.035  0.965  0.000  0.000     2.521     2.483
 343   1 H      0.049  0.951  0.000  0.000     2.330     2.387
 344   1 H      0.047  0.953  0.000  0.000     2.362     2.404
 345   1 H      0.035  0.965  0.000  0.000     2.514     2.479
 346   1 H      0.043  0.957  0.000  0.000     2.408     2.427
 347   7 N     -0.187  1.252  3.935  0.000    25.054     7.434
 348   6 C      0.005  1.060  2.935  0.000    20.499     6.446
 349   6 C      0.279  1.037  2.683  0.000    22.279     7.730
 350   8 O     -0.490  1.738  4.752  0.000    23.562     6.508
 351   6 C      0.070  1.037  2.893  0.000    19.613     6.344
 352   8 O     -0.480  1.718  4.762  0.000    22.459     6.397
 353   1 H      0.241  0.759  0.000  0.000     0.918     1.501
 354   1 H      0.083  0.917  0.000  0.000     1.951     2.184
 355   1 H      0.058  0.942  0.000  0.000     2.221     2.330
 356   1 H      0.060  0.940  0.000  0.000     2.198     2.318
 357   1 H      0.328  0.672  0.000  0.000     0.643     1.260
 358   7 N     -0.195  1.252  3.943  0.000    25.231     7.460
 359   6 C      0.016  1.060  2.924  0.000    20.300     6.414
 360   6 C      0.280  1.036  2.684  0.000    22.265     7.727
 361   8 O     -0.492  1.735  4.757  0.000    23.612     6.515
 362   6 C      0.074  1.034  2.892  0.000    19.550     6.332
 363   8 O     -0.469  1.703  4.766  0.000    22.246     6.367
 364   1 H      0.246  0.754  0.000  0.000     0.897     1.484
 365   1 H      0.070  0.930  0.000  0.000     2.088     2.260
 366   1 H      0.065  0.935  0.000  0.000     2.146     2.291
 367   1 H      0.044  0.956  0.000  0.000     2.393     2.419
 368   1 H      0.327  0.673  0.000  0.000     0.646     1.263
 369   7 N     -0.182  1.248  3.934  0.000    24.932     7.416
 370   6 C      0.019  1.063  2.918  0.000    20.271     6.412
 371   6 C      0.271  1.047  2.683  0.000    22.430     7.756
 372   8 O     -0.511  1.741  4.769  0.000    24.022     6.571
 373   6 C     -0.027  1.065  2.963  0.000    21.024     6.521
 374   6 C     -0.066  1.051  3.015  0.000    21.765     6.642
 375   6 C     -0.120  1.039  3.081  0.000    22.848     6.815
 376   6 C     -0.113  1.035  3.078  0.000    22.726     6.799
 377   1 H      0.233  0.767  0.000  0.000     0.954     1.530
 378   1 H      0.083  0.917  0.000  0.000     1.951     2.184
 379   1 H      0.060  0.940  0.000  0.000     2.205     2.322
 380   1 H      0.054  0.946  0.000  0.000     2.268     2.355
 381   1 H      0.046  0.954  0.000  0.000     2.367     2.406
 382   1 H      0.059  0.941  0.000  0.000     2.206     2.323
 383   1 H      0.040  0.960  0.000  0.000     2.452     2.449
 384   1 H      0.056  0.944  0.000  0.000     2.251     2.346
 385   1 H      0.041  0.959  0.000  0.000     2.432     2.439
 386   1 H      0.047  0.953  0.000  0.000     2.352     2.398
 387   1 H      0.037  0.963  0.000  0.000     2.492     2.469
 388   7 N     -0.195  1.260  3.935  0.000    25.231     7.460
 389   6 C      0.022  1.061  2.917  0.000    20.196     6.397
 390   6 C      0.273  1.041  2.686  0.000    22.382     7.748
 391   8 O     -0.500  1.739  4.762  0.000    23.789     6.539
 392   6 C     -0.023  1.065  2.958  0.000    20.947     6.509
 393   6 C     -0.081  1.052  3.029  0.000    22.049     6.685
 394   6 C     -0.124  1.043  3.081  0.000    22.930     6.827
 395   6 C     -0.113  1.039  3.075  0.000    22.731     6.799
 396   1 H      0.261  0.739  0.000  0.000     0.841     1.436
 397   1 H      0.068  0.932  0.000  0.000     2.104     2.269
 398   1 H      0.050  0.950  0.000  0.000     2.325     2.385
 399   1 H      0.050  0.950  0.000  0.000     2.326     2.385
 400   1 H      0.056  0.944  0.000  0.000     2.240     2.341
 401   1 H      0.062  0.938  0.000  0.000     2.180     2.309
 402   1 H      0.045  0.955  0.000  0.000     2.381     2.413
 403   1 H      0.058  0.942  0.000  0.000     2.219     2.329
 404   1 H      0.042  0.958  0.000  0.000     2.416     2.431
 405   1 H      0.035  0.965  0.000  0.000     2.523     2.484
 406   1 H      0.048  0.952  0.000  0.000     2.349     2.397
 407   7 N     -0.191  1.256  3.935  0.000    25.142     7.447
 408   6 C      0.029  1.060  2.911  0.000    20.082     6.379
 409   6 C      0.281  1.045  2.674  0.000    22.249     7.727
 410   8 O     -0.484  1.732  4.753  0.000    23.439     6.491
 411   6 C     -0.021  1.062  2.959  0.000    20.920     6.505
 412   6 C     -0.066  1.051  3.015  0.000    21.765     6.642
 413   6 C     -0.121  1.041  3.080  0.000    22.876     6.819
 414   6 C     -0.109  1.037  3.072  0.000    22.649     6.787
 415   1 H      0.233  0.767  0.000  0.000     0.952     1.528
 416   1 H      0.064  0.936  0.000  0.000     2.150     2.293
 417   1 H      0.050  0.950  0.000  0.000     2.321     2.382
 418   1 H      0.039  0.961  0.000  0.000     2.467     2.456
 419   1 H      0.056  0.944  0.000  0.000     2.250     2.346
 420   1 H      0.061  0.939  0.000  0.000     2.185     2.311
 421   1 H      0.035  0.965  0.000  0.000     2.523     2.484
 422   1 H      0.049  0.951  0.000  0.000     2.333     2.389
 423   1 H      0.046  0.954  0.000  0.000     2.372     2.409
 424   1 H      0.034  0.966  0.000  0.000     2.529     2.487
 425   1 H      0.045  0.955  0.000  0.000     2.385     2.415
 426   7 N     -0.214  1.270  3.945  0.000    25.674     7.525
 427   6 C      0.010  1.065  2.925  0.000    20.398     6.428
 428   6 C      0.289  1.041  2.671  0.000    22.107     7.701
 429   8 O     -0.502  1.736  4.766  0.000    23.819     6.543
 430   6 C      0.118  1.045  2.836  0.000    18.752     6.184
 431   8 O     -0.494  1.715  4.778  0.000    22.754     6.439
 432   6 C     -0.141  1.046  3.095  0.000    23.280     6.881
 433   1 H      0.237  0.763  0.000  0.000     0.934     1.514
 434   1 H      0.072  0.928  0.000  0.000     2.063     2.246
 435   1 H      0.035  0.965  0.000  0.000     2.512     2.478
 436   1 H      0.324  0.676  0.000  0.000     0.653     1.269
 437   1 H      0.067  0.933  0.000  0.000     2.122     2.278
 438   1 H      0.047  0.953  0.000  0.000     2.357     2.401
 439   1 H      0.072  0.928  0.000  0.000     2.062     2.246
 440   7 N     -0.196  1.258  3.939  0.000    25.266     7.465
 441   6 C      0.033  1.061  2.906  0.000    20.010     6.366
 442   6 C      0.289  1.037  2.674  0.000    22.108     7.700
 443   8 O     -0.526  1.755  4.772  0.000    24.372     6.619
 444   6 C     -0.017  1.060  2.957  0.000    20.834     6.492
 445   6 C     -0.114  1.038  3.076  0.000    22.745     6.800
 446   6 C     -0.126  1.043  3.083  0.000    22.960     6.831
 447   1 H      0.232  0.768  0.000  0.000     0.958     1.533
 448   1 H      0.060  0.940  0.000  0.000     2.201     2.320
 449   1 H      0.042  0.958  0.000  0.000     2.425     2.435
 450   1 H      0.059  0.941  0.000  0.000     2.206     2.323
 451   1 H      0.029  0.971  0.000  0.000     2.604     2.524
 452   1 H      0.047  0.953  0.000  0.000     2.353     2.399
 453   1 H      0.064  0.936  0.000  0.000     2.157     2.296
 454   1 H      0.047  0.953  0.000  0.000     2.361     2.403
 455   1 H      0.056  0.944  0.000  0.000     2.252     2.346
 456   7 N     -0.200  1.256  3.944  0.000    25.340     7.476
 457   6 C      0.031  1.060  2.909  0.000    20.046     6.373
 458   6 C      0.276  1.042  2.682  0.000    22.328     7.738
 459   8 O     -0.535  1.759  4.777  0.000    24.582     6.647
 460   6 C     -0.013  1.061  2.952  0.000    20.767     6.481
 461   6 C     -0.113  1.039  3.074  0.000    22.719     6.796
 462   6 C     -0.121  1.041  3.079  0.000    22.866     6.817
 463   1 H      0.233  0.767  0.000  0.000     0.954     1.530
 464   1 H      0.055  0.945  0.000  0.000     2.262     2.352
 465   1 H      0.039  0.961  0.000  0.000     2.467     2.456
 466   1 H      0.060  0.940  0.000  0.000     2.202     2.320
 467   1 H      0.032  0.968  0.000  0.000     2.556     2.500
 468   1 H      0.044  0.956  0.000  0.000     2.392     2.418
 469   1 H      0.058  0.942  0.000  0.000     2.221     2.330
 470   1 H      0.043  0.957  0.000  0.000     2.408     2.427
 471   1 H      0.054  0.946  0.000  0.000     2.270     2.356
 472   7 N     -0.206  1.253  3.953  0.000    25.479     7.497
 473   6 C      0.028  1.057  2.915  0.000    20.103     6.383
 474   6 C      0.277  1.042  2.681  0.000    22.310     7.736
 475   8 O     -0.525  1.751  4.773  0.000    24.338     6.614
 476   6 C     -0.013  1.061  2.952  0.000    20.765     6.480
 477   6 C     -0.124  1.041  3.082  0.000    22.928     6.827
 478   6 C     -0.128  1.040  3.087  0.000    23.007     6.839
 479   1 H      0.253  0.747  0.000  0.000     0.870     1.461
 480   1 H      0.057  0.943  0.000  0.000     2.237     2.339
 481   1 H      0.045  0.955  0.000  0.000     2.384     2.414
 482   1 H      0.061  0.939  0.000  0.000     2.191     2.315
 483   1 H      0.043  0.957  0.000  0.000     2.407     2.426
 484   1 H      0.055  0.945  0.000  0.000     2.254     2.348
 485   1 H      0.045  0.955  0.000  0.000     2.388     2.417
 486   1 H      0.074  0.926  0.000  0.000     2.044     2.236
 487   1 H      0.036  0.964  0.000  0.000     2.500     2.473
 488   7 N     -0.184  1.244  3.940  0.000    24.993     7.425
 489   6 C      0.028  1.059  2.912  0.000    20.093     6.381
 490   6 C      0.208  1.085  2.707  0.000    23.598     7.956
 491   8 O     -0.380  1.753  4.628  0.000    21.292     6.187
 492   6 C     -0.014  1.067  2.948  0.000    20.793     6.486
 493   6 C     -0.063  1.046  3.016  0.000    21.706     6.633
 494   6 C     -0.130  1.040  3.090  0.000    23.053     6.844
 495   6 C     -0.106  1.034  3.072  0.000    22.589     6.778
 496   1 H      0.236  0.764  0.000  0.000     0.941     1.520
 497   1 H      0.086  0.914  0.000  0.000     1.919     2.166
 498   1 H      0.050  0.950  0.000  0.000     2.322     2.383
 499   1 H      0.051  0.949  0.000  0.000     2.302     2.373
 500   1 H      0.020  0.980  0.000  0.000     2.732     2.585
 501   1 H      0.077  0.923  0.000  0.000     2.015     2.220
 502   1 H      0.040  0.960  0.000  0.000     2.444     2.445
 503   1 H      0.059  0.941  0.000  0.000     2.211     2.326
 504   1 H      0.037  0.963  0.000  0.000     2.492     2.469
 505   1 H      0.048  0.952  0.000  0.000     2.345     2.395
 506   1 H      0.045  0.955  0.000  0.000     2.387     2.416
 507   7 N     -0.392  1.315  4.078  0.000    30.164     8.157
 508   6 C      0.038  1.058  2.904  0.000    19.946     6.361
 509   6 C      0.201  1.093  2.706  0.000    23.715     7.975
 510   8 O     -0.388  1.759  4.628  0.000    21.437     6.208
 511   6 C     -0.020  1.067  2.953  0.000    20.900     6.502
 512   6 C     -0.060  1.049  3.011  0.000    21.658     6.625
 513   6 C     -0.116  1.038  3.078  0.000    22.768     6.804
 514   6 C     -0.110  1.035  3.075  0.000    22.667     6.790
 515   1 H      0.164  0.836  0.000  0.000     1.311     1.793
 516   1 H      0.052  0.948  0.000  0.000     2.293     2.368
 517   1 H      0.041  0.959  0.000  0.000     2.434     2.440
 518   1 H      0.035  0.965  0.000  0.000     2.521     2.483
 519   1 H      0.046  0.954  0.000  0.000     2.377     2.411
 520   1 H      0.054  0.946  0.000  0.000     2.268     2.355
 521   1 H      0.032  0.968  0.000  0.000     2.560     2.502
 522   1 H      0.050  0.950  0.000  0.000     2.314     2.379
 523   1 H      0.041  0.959  0.000  0.000     2.434     2.440
 524   1 H      0.045  0.955  0.000  0.000     2.388     2.417
 525   1 H      0.035  0.965  0.000  0.000     2.513     2.479
 526   7 N     -0.396  1.322  4.074  0.000    30.267     8.171
 527   6 C      0.043  1.053  2.905  0.000    19.878     6.351
 528   6 C      0.197  1.096  2.707  0.000    23.798     7.989
 529   8 O     -0.372  1.753  4.619  0.000    21.123     6.162
 530   6 C     -0.124  1.043  3.080  0.000    22.926     6.827
 531   1 H      0.174  0.826  0.000  0.000     1.250     1.752
 532   1 H      0.042  0.958  0.000  0.000     2.421     2.433
 533   1 H      0.057  0.943  0.000  0.000     2.240     2.341
 534   1 H      0.069  0.931  0.000  0.000     2.100     2.266
 535   1 H      0.061  0.939  0.000  0.000     2.191     2.315
 536   7 N     -0.410  1.320  4.090  0.000    30.654     8.223
 537   6 C      0.039  1.053  2.908  0.000    19.941     6.361
 538   6 C      0.202  1.092  2.706  0.000    23.704     7.974
 539   8 O     -0.394  1.762  4.632  0.000    21.565     6.226
 540   6 C     -0.073  1.062  3.011  0.000    21.889     6.660
 541   6 C     -0.022  1.057  2.964  0.000    20.929     6.507
 542   6 C     -0.113  1.041  3.072  0.000    22.709     6.795
 543   6 C     -0.120  1.042  3.078  0.000    22.853     6.816
 544   1 H      0.183  0.817  0.000  0.000     1.197     1.714
 545   1 H      0.060  0.940  0.000  0.000     2.203     2.321
 546   1 H      0.065  0.935  0.000  0.000     2.139     2.287
 547   1 H      0.044  0.956  0.000  0.000     2.392     2.419
 548   1 H      0.049  0.951  0.000  0.000     2.332     2.388
 549   1 H      0.040  0.960  0.000  0.000     2.449     2.447
 550   1 H      0.037  0.963  0.000  0.000     2.485     2.465
 551   1 H      0.032  0.968  0.000  0.000     2.559     2.502
 552   1 H      0.042  0.958  0.000  0.000     2.417     2.431
 553   1 H      0.046  0.954  0.000  0.000     2.374     2.409
 554   1 H      0.035  0.965  0.000  0.000     2.521     2.483
 555   7 N     -0.387  1.312  4.075  0.000    30.023     8.138
 556   6 C      0.043  1.054  2.903  0.000    19.869     6.350
 557   6 C      0.200  1.093  2.707  0.000    23.740     7.979
 558   8 O     -0.386  1.764  4.622  0.000    21.412     6.204
 559   6 C     -0.073  1.055  3.018  0.000    21.882     6.659
 560   6 C      0.015  1.082  2.903  0.000    27.676     8.629
 561   6 C     -0.042  1.081  2.961  0.000    29.046     8.838
 562   6 C     -0.044  1.076  2.968  0.000    29.099     8.846
 563   6 C     -0.034  1.081  2.953  0.000    28.844     8.807
 564   6 C     -0.043  1.081  2.962  0.000    29.057     8.840
 565   6 C     -0.039  1.078  2.961  0.000    28.966     8.826
 566   1 H      0.173  0.827  0.000  0.000     1.253     1.754
 567   1 H      0.046  0.954  0.000  0.000     2.366     2.405
 568   1 H      0.066  0.934  0.000  0.000     2.129     2.282
 569   1 H      0.054  0.946  0.000  0.000     2.272     2.357
 570   1 H      0.037  0.963  0.000  0.000     2.487     2.466
 571   1 H      0.037  0.963  0.000  0.000     2.486     2.466
 572   1 H      0.039  0.961  0.000  0.000     2.458     2.452
 573   1 H      0.048  0.952  0.000  0.000     2.350     2.397
 574   1 H      0.036  0.964  0.000  0.000     2.506     2.475
 575   1 H      0.187  0.813  0.000  0.000     1.172     1.696
 576   1 H      0.077  0.923  0.000  0.000     2.007     2.215
 577   1 H      0.186  0.814  0.000  0.000     1.182     1.703
 578   1 H      0.072  0.928  0.000  0.000     2.060     2.244
 579   1 H      0.179  0.821  0.000  0.000     1.217     1.728
 580   1 H      0.050  0.950  0.000  0.000     2.314     2.379
 581   1 H      0.189  0.811  0.000  0.000     1.163     1.689
 582   1 H      0.062  0.938  0.000  0.000     2.181     2.309
 583   1 H      0.181  0.819  0.000  0.000     1.207     1.721
 584   1 H      0.070  0.930  0.000  0.000     2.081     2.256
 585   1 H      0.181  0.819  0.000  0.000     1.208     1.721
 586   1 H      0.076  0.924  0.000  0.000     2.022     2.223
 587   1 H      0.179  0.821  0.000  0.000     1.219     1.730
 588   1 H      0.066  0.934  0.000  0.000     2.128     2.281
 589   1 H      0.181  0.819  0.000  0.000     1.207     1.721
 590   1 H      0.077  0.923  0.000  0.000     2.007     2.215

 Mol. C6AA /au·bohr⁶  :    3030031.024620
 Mol. C8AA /au·bohr⁸  :   67253411.589293
 Mol. α(0) /au        :       2610.699589

 
molecular dipole:
                 x           y           z       tot (Debye)
 q only:       -0.052       7.706      11.025
   full:       -0.191       8.635      11.864      37.301
molecular quadrupole (traceless):
                xx          xy          yy          xz          yz          zz
 q only:    -1026.595     489.549    1191.863     318.288    2758.975    -165.269
  q+dip:    -1138.613     513.682    1327.970     350.737    3026.827    -189.357
   full:    -1136.013     513.744    1332.562     354.308    3021.647    -196.550
speedup  1.00
cpu  time for grad   20.39 s
wall time for grad   20.40 s

SCC energy    :    -849.5644062
rep           :      10.8470923
ES            :       1.7601982
AES           :      -0.0157734
AXC           :       0.3115750
disp          :      -0.8053760
XB            :       0.0000000
fix           :       0.0000000
Gborn         :       0.0000000
Gsasa         :       0.0000000
Ghb           :       0.0000000
Gshift        :       0.0000000
Gsolv         :      -0.2692585     -168.96
Etot ala COSMO:    -849.5644062
grad norm     :       0.6334354
total E       :    -838.6351959
atomizationE  :     161.6733295   101451.55
(atE without considering molecular charge,
 total energy contains solvation terms)
H-L gap (eV)  :          1.6680

------------------------------------------------------------------------
 * finished run on 2019/03/14 at 15:08:42.229     
------------------------------------------------------------------------
 total:
 * wall-time:     0 d,  0 h,  0 min, 21.665 sec
 *  cpu-time:     0 d,  0 h,  0 min, 21.536 sec
 * ratio c/w:     0.994 speedup
 SCF:
 * wall-time:     0 d,  0 h,  0 min, 21.211 sec
 *  cpu-time:     0 d,  0 h,  0 min, 21.206 sec
 * ratio c/w:     1.000 speedup

