      -----------------------------------------------------------      
     |                   =====================                   |     
     |                           x T B                           |     
     |                   =====================                   |     
     |                         S. Grimme                         |     
     |          Mulliken Center for Theoretical Chemistry        |     
     |                    University of Bonn                     |     
     |                 Version 6.0.1 (SAW181210)                 |     
      -----------------------------------------------------------      

   This program is distributed in the hope that it will be useful,
   but WITHOUT ANY WARRANTY; without even the implied warranty of
   MERCHANTABILITY or FITNESS FOR A PARTICULAR PURPOSE.
   
   FOR NON-COMMERCIAL, ACADEMIA USE ONLY.
   
   Cite this work as:
   S. Grimme, C. Bannwarth, P. Shushkov, J. Comput. Theory Chem., 2017,
   13, 1989-2009.
   C. Bannwarth, S. Ehlert and S. Grimme., ChemRxiv, 2018, preprint.
   http://doi.org/10.26434/chemrxiv.7246238.v1
   
   for sTDA-xTB:
   S. Grimme and C. Bannwarth, J. Chem. Phys., 2016, 145, 054103.
   
   in the mass-spec context:
   V. Asgeirsson, C. Bauer and S. Grimme, Chem. Sci., 2017, 8, 4879.
   
   if GBSA is used:
   P. Shushkov, F. März and S. Grimme, unpublished.
   
   for ANC optimizer:
   S. Grimme, unpublished.
   Rational Function algorithm used in ANCopt:
   F. Eckert, P. Pulay, H.-J. Werner, J. Comput. Chem., 1997, 18, 1473.
   
   with help from (in alphabetical order)
   C. Bannwarth, F. Bohle, G. Brandenburg, E. Caldeweyher, M. Checinski,
   S. Dohm, S. Ehlert, S. Ehrlich, F. März, H. Neugebauer, J. Pisarek,
   P. Pracht, P. Shushkov, and S. Spicher.
   
 * started run on 2019/03/14 at 15:08:19.762     
========================================================================
 # omp threads = 1
========================================================================
number of atoms            : 462
number of electrons        : 1170
charge                     : 1
spin                       : .0
first test random number   : .1603
           ------------------------------------------------- 
          |                 G F N 2 - x T B                 |
          | Geometry, Frequencies, Noncovalent interactions |
          |            JCTC 2018 parametrisation            |
           ------------------------------------------------- 
 
      method parameters     
 k(s)        :  1.8500
 k(p)        :  2.2300
 k(d)        :  2.2300
 k(f)        :  2.0000
 kEN (H0ij)  : -2.0000
 D4 a1       :  0.5200
 D4 a2       :  5.0000
 D4 s6       :  1.0000
 D4 s8       :  2.7000
 D4 s9       :  5.0000
 alphaj      :  2.0000

 Solvent             : h2o
 Using internal parameter file: .param_gbsa2_h2o
 Gsolv ref. state (COSMO-RS): gsolv [1 M gas/solution]
 temperature (mdtemp)       :    298.150000000000     
 dielectric constant        :    80.2000000000000     
 rho                        :    1.00000000000000     
 mass                       :    18.0000000000000     
 surface tension            :    15.5689454083859     
 probe radius               :   0.975313790000000     
 vdW radii scaling          :    1.00000000000000     
 Gshift (Eh)                :   1.857443126794793E-003
 c1                         :    1.55243817000000     
 soset                      :   0.130326360000000     
 HB correction              :  T

            Z     q(EN)     CN     RAES       Cart. coordinates
     1  N   5.0   -0.21    3.20    1.96    41.48837    88.87687    95.61882
     2  C   4.0    0.03    4.21    4.01    43.03271    88.59107    93.37867
     3  C   4.0    0.07    3.20    3.04    43.14382    91.09546    91.88458
     4  O   6.0   -0.30    1.15    1.80    41.55864    91.73842    90.35785
     5  C   4.0   -0.04    4.35    4.29    42.09004    86.45951    91.65995
     6  C   4.0   -0.02    4.17    3.94    42.11740    83.81112    92.83689
     7  C   4.0   -0.08    4.11    3.83    41.17677    81.90086    90.88448
     8  C   4.0   -0.08    4.11    3.82    44.75657    83.04083    93.70709
     9  H   1.0    0.09    1.02    1.43    42.35576    89.66883    97.12577
    10  H   1.0    0.04    1.05    1.44    44.94408    88.15517    94.03242
    11  H   1.0    0.05    1.03    1.43    40.18498    86.92485    91.03130
    12  H   1.0    0.03    1.04    1.43    43.31188    86.40396    90.00756
    13  H   1.0    0.05    1.05    1.44    40.82248    83.76852    94.44351
    14  H   1.0    0.04    1.00    1.43    41.04039    80.03081    91.72407
    15  H   1.0    0.04    1.00    1.43    39.32621    82.43737    90.17148
    16  H   1.0    0.03    1.00    1.43    42.48356    81.76516    89.30013
    17  H   1.0    0.04    1.00    1.43    44.71931    81.10253    94.38170
    18  H   1.0    0.04    1.00    1.43    46.07987    83.11943    92.13489
    19  H   1.0    0.04    1.00    1.43    45.44396    84.22939    95.23100
    20  N   5.0   -0.21    3.18    1.95    45.90357    87.72134    85.98769
    21  C   4.0    0.03    4.29    4.17    44.15891    86.89817    84.01616
    22  C   4.0    0.08    3.26    3.04    44.01067    88.81673    81.88262
    23  O   6.0   -0.30    1.13    1.80    43.84967    88.09239    79.68425
    24  C   4.0   -0.03    4.33    4.26    41.47113    86.36137    85.00664
    25  C   4.0   -0.04    4.19    3.98    39.87653    84.94451    83.04053
    26  C   4.0   -0.06    4.15    3.91    40.11662    88.77336    85.80924
    27  C   4.0   -0.07    4.03    3.67    37.39397    84.01319    84.17029
    28  H   1.0    0.08    1.03    1.43    45.23879    88.01747    87.75247
    29  H   1.0    0.04    1.05    1.44    44.90449    85.16344    83.14075
    30  H   1.0    0.03    1.06    1.44    41.67726    85.10198    86.62742
    31  H   1.0    0.06    1.02    1.43    39.47682    86.16920    81.42802
    32  H   1.0    0.04    1.03    1.43    40.93279    83.31810    82.33818
    33  H   1.0    0.05    1.00    1.43    38.56696    88.31744    87.06930
    34  H   1.0    0.07    1.02    1.43    41.34887    90.06921    86.80798
    35  H   1.0    0.05    1.00    1.43    39.34998    89.74910    84.17308
    36  H   1.0    0.05    1.00    1.43    36.33034    82.96627    82.76240
    37  H   1.0    0.04    1.00    1.43    37.76643    82.74800    85.74296
    38  H   1.0    0.04    1.00    1.43    36.23403    85.57520    84.82295
    39  N   5.0   -0.20    3.19    1.95    49.46227    87.45840    78.33174
    40  C   4.0    0.03    4.30    4.19    49.66526    84.84223    77.49942
    41  C   4.0    0.09    3.24    3.04    47.80522    84.35899    75.32396
    42  O   6.0   -0.28    1.12    1.80    48.25357    82.84760    73.62198
    43  C   4.0   -0.02    4.31    4.22    49.24405    82.84760    79.58443
    44  C   4.0   -0.05    4.19    3.97    51.27452    83.08502    81.63234
    45  C   4.0   -0.07    4.16    3.91    49.30034    80.21260    78.40217
    46  C   4.0   -0.08    4.01    3.64    50.66199    81.56047    83.99678
    47  H   1.0    0.10    1.04    1.43    48.03397    87.89543    79.52350
    48  H   1.0    0.05    1.06    1.44    51.56552    84.58483    76.73157
    49  H   1.0    0.04    1.05    1.44    47.37744    83.20032    80.40787
    50  H   1.0    0.04    1.03    1.43    53.07631    82.45190    80.85393
    51  H   1.0    0.04    1.03    1.43    51.46192    85.07248    82.13798
    52  H   1.0    0.04    1.00    1.43    48.99367    78.76081    79.81582
    53  H   1.0    0.06    1.01    1.43    47.86145    80.00566    76.95414
    54  H   1.0    0.05    1.00    1.43    51.13090    79.88520    77.52645
    55  H   1.0    0.04    1.00    1.43    52.13826    81.80986    85.40348
    56  H   1.0    0.03    1.00    1.43    48.87478    82.17311    84.80500
    57  H   1.0    0.04    1.00    1.43    50.53324    79.55849    83.56571
    58  N   5.0   -0.21    3.20    1.96    63.34459    74.69602    86.40914
    59  C   4.0    0.03    4.30    4.21    61.16465    73.48422    87.54379
    60  C   4.0    0.08    3.21    3.04    61.82937    71.55890    89.60115
    61  O   6.0   -0.32    1.18    1.80    60.51170    71.48623    91.51810
    62  C   4.0   -0.02    4.26    4.12    59.50232    72.34599    85.43846
    63  C   4.0   -0.07    4.13    3.87    57.49325    70.57914    86.50607
    64  C   4.0   -0.08    4.12    3.84    58.22472    74.47815    83.96886
    65  H   1.0    0.08    1.03    1.43    63.57149    74.44877    84.51402
    66  H   1.0    0.05    1.06    1.44    60.03845    74.92291    88.53561
    67  H   1.0    0.04    1.05    1.44    60.75341    71.28610    84.17494
    68  H   1.0    0.03    1.00    1.43    56.34155    69.84335    84.97362
    69  H   1.0    0.05    1.00    1.43    58.34775    69.01020    87.51749
    70  H   1.0    0.04    1.00    1.43    56.27592    71.59099    87.81506
    71  H   1.0    0.04    1.00    1.43    57.05951    73.68595    82.47662
    72  H   1.0    0.04    1.00    1.43    57.01678    75.57938    85.21289
    73  H   1.0    0.04    1.00    1.43    59.62689    75.70807    83.12257
    74  N   5.0   -0.20    3.21    1.96    60.11003    72.11232    96.83654
    75  C   4.0    0.03    4.18    3.96    58.42489    70.26479    97.94516
    76  C   4.0    0.09    3.19    3.03    59.47789    69.16275   100.41841
    77  O   6.0   -0.29    1.12    1.80    58.07059    68.71512   102.18614
    78  C   4.0    0.03    4.15    3.90    57.84086    68.22094    95.95677
    79  O   6.0   -0.25    2.04    1.83    59.62980    66.27359    95.82601
    80  H   1.0    0.12    1.07    1.44    60.61811    71.83606    95.00557
    81  H   1.0    0.05    1.05    1.44    56.64875    71.19218    98.49434
    82  H   1.0    0.04    1.02    1.43    56.04206    67.31383    96.38231
    83  H   1.0    0.06    1.02    1.43    57.69957    69.18682    94.12484
    84  H   1.0    0.13    1.02    1.43    61.29848    67.04313    95.67897
    85  N   5.0   -0.14    3.45    2.05    52.60676    72.30079   107.00580
    86  C   4.0    0.03    4.50    4.53    51.54410    69.78323   107.32967
    87  C   4.0    0.15    3.40    3.08    51.22368    68.52185   104.74030
    88  O   6.0   -0.29    1.23    1.80    51.46823    69.65608   102.75010
    89  C   4.0   -0.04    4.33    4.25    49.02436    70.25332   108.65773
    90  C   4.0   -0.04    4.27    4.13    48.17871    72.75173   107.49046
    91  C   4.0    0.00    4.24    4.08    50.63816    74.22137   107.04092
    92  H   1.0    0.04    1.05    1.44    52.86290    68.62224   108.42225
    93  H   1.0    0.04    1.02    1.43    47.67520    68.73997   108.32150
    94  H   1.0    0.04    1.02    1.43    49.33159    70.44262   110.68520
    95  H   1.0    0.05    1.03    1.43    47.26209    72.37145   105.68718
    96  H   1.0    0.04    1.02    1.43    46.88811    73.77510   108.71509
    97  H   1.0    0.05    1.02    1.43    50.56554    75.23883   105.24939
    98  H   1.0    0.04    1.02    1.43    51.03241    75.55726   108.56832
    99  N   5.0   -0.15    3.44    2.04    50.53939    66.07372   104.89160
   100  C   4.0    0.03    4.41    4.40    50.46378    64.43889   102.69880
   101  C   4.0    0.14    3.40    3.08    47.83825    63.25420   102.29885
   102  O   6.0   -0.30    1.23    1.80    46.96579    61.70588   103.76219
   103  C   4.0   -0.04    4.38    4.35    52.30949    62.21842   102.95036
   104  C   4.0   -0.02    4.17    3.94    55.08988    62.93145   102.59571
   105  C   4.0   -0.07    4.10    3.81    56.72704    60.58679   102.96657
   106  C   4.0   -0.06    4.13    3.87    55.51098    64.04612    99.96853
   107  H   1.0    0.08    1.07    1.44    50.48954    65.23305   106.60312
   108  H   1.0    0.05    1.07    1.44    50.98595    65.63875   101.10365
   109  H   1.0    0.05    1.03    1.43    52.00583    61.35532   104.80053
   110  H   1.0    0.05    1.04    1.43    51.81226    60.81625   101.51909
   111  H   1.0    0.06    1.05    1.44    55.63063    64.37332   103.98194
   112  H   1.0    0.05    1.00    1.43    58.71494    61.08371   102.81630
   113  H   1.0    0.05    1.00    1.43    56.41292    59.73869   104.81172
   114  H   1.0    0.04    1.00    1.43    56.28396    59.20073   101.51578
   115  H   1.0    0.06    1.00    1.43    57.51338    64.18155    99.53303
   116  H   1.0    0.04    1.00    1.43    54.62159    62.90526    98.50773
   117  H   1.0    0.06    1.00    1.43    54.75974    65.95644    99.91131
   118  N   5.0   -0.15    3.45    2.05    46.71273    63.93400   100.12205
   119  C   4.0    0.03    4.47    4.49    44.33603    62.86007    99.26250
   120  C   4.0    0.14    3.39    3.08    44.45826    62.40176    96.39761
   121  O   6.0   -0.32    1.24    1.80    44.47489    64.05702    94.79083
   122  C   4.0   -0.02    4.31    4.21    42.01603    64.45158   100.06898
   123  C   4.0   -0.04    4.19    3.98    42.02080    67.10713    98.91959
   124  C   4.0   -0.07    4.13    3.87    41.90356    64.57113   102.95137
   125  C   4.0   -0.08    4.02    3.65    39.53554    68.49104    99.38940
   126  H   1.0    0.08    1.07    1.44    47.43752    65.39807    99.14122
   127  H   1.0    0.05    1.07    1.44    44.18949    61.02188   100.20668
   128  H   1.0    0.04    1.06    1.44    40.35335    63.44482    99.36205
   129  H   1.0    0.04    1.02    1.43    43.58696    68.19820    99.70550
   130  H   1.0    0.06    1.04    1.43    42.31759    66.94504    96.88982
   131  H   1.0    0.04    1.00    1.43    40.10886    65.34066   103.57696
   132  H   1.0    0.06    1.00    1.43    42.17143    62.71535   103.78913
   133  H   1.0    0.05    1.00    1.43    43.40036    65.78931   103.66416
   134  H   1.0    0.04    1.00    1.43    39.49589    70.27590    98.37289
   135  H   1.0    0.04    1.00    1.43    37.95685    67.35028    98.73842
   136  H   1.0    0.04    1.00    1.43    39.27297    68.90101   101.38419
   137  N   5.0   -0.15    3.35    2.00    44.50263    59.93785    95.76962
   138  C   4.0    0.01    4.25    4.10    44.80802    59.12867    93.17257
   139  C   4.0    0.14    3.28    3.05    42.28923    58.34832    91.93988
   140  O   6.0   -0.31    1.20    1.80    41.49254    56.19792    91.98213
   141  H   1.0    0.08    1.06    1.44    44.52623    58.60175    97.12635
   142  H   1.0    0.05    1.04    1.43    45.62911    60.72509    92.15026
   143  H   1.0    0.05    1.02    1.43    46.08725    57.51209    93.09310
   144  N   5.0   -0.14    3.48    2.06    41.08354    60.29455    90.83344
   145  C   4.0    0.03    4.37    4.33    38.94203    60.05811    89.11373
   146  C   4.0    0.14    3.46    3.10    39.49602    61.95173    86.99551
   147  O   6.0   -0.32    1.31    1.80    40.17094    61.33106    84.87100
   148  C   4.0   -0.05    4.23    4.07    36.37482    60.55028    90.37736
   149  C   4.0   -0.05    4.17    3.93    35.44128    58.40773    92.09000
   150  C   4.0   -0.04    4.15    3.90    36.37902    58.57146    94.83377
   151  C   4.0   -0.04    4.13    3.86    34.31948    57.61270    96.61551
   152  N   5.0   -0.12    4.01    2.88    35.19888    57.56082    99.29027
   153  H   1.0    0.08    1.08    1.44    41.81772    62.04166    91.07843
   154  H   1.0    0.05    1.05    1.44    38.97118    58.14631    88.31870
   155  H   1.0    0.04    1.03    1.43    36.46645    62.28897    91.48023
   156  H   1.0    0.04    1.03    1.43    35.00891    60.81990    88.85707
   157  H   1.0    0.04    1.04    1.43    33.38378    58.48826    92.09232
   158  H   1.0    0.05    1.03    1.43    35.99482    56.59518    91.28736
   159  H   1.0    0.06    1.03    1.43    38.08362    57.43235    95.01940
   160  H   1.0    0.04    1.03    1.43    36.83809    60.52715    95.29344
   161  H   1.0    0.04    1.02    1.43    32.66815    58.84187    96.49995
   162  H   1.0    0.04    1.02    1.43    33.76757    55.70532    96.06846
   163  H   1.0    0.06    1.02    1.43    33.77330    56.93960   100.46412
   164  H   1.0    0.06    1.02    1.43    36.71754    56.35411    99.46782
   165  H   1.0    0.05    1.02    1.43    35.73537    59.34283    99.86646
   166  N   5.0   -0.15    3.53    2.10    39.49346    64.36146    87.77114
   167  C   4.0    0.03    4.41    4.39    40.21995    66.42952    86.11716
   168  C   4.0    0.16    3.47    3.10    42.80803    65.85351    84.95703
   169  O   6.0   -0.32    1.30    1.80    43.23575    66.27917    82.72774
   170  C   4.0   -0.04    4.30    4.19    40.18094    68.93498    87.59600
   171  C   4.0   -0.02    3.52    3.12    39.13780    71.19657    86.19671
   172  C   4.0   -0.05    3.46    3.10    39.93954    73.61606    86.84564
   173  C   4.0   -0.04    3.48    3.11    37.26093    70.96161    84.38360
   174  C   4.0   -0.04    3.43    3.09    38.94937    75.72596    85.67086
   175  C   4.0   -0.04    3.44    3.09    36.29828    73.04670    83.14812
   176  C   4.0    0.07    3.45    3.10    37.13001    75.45393    83.78695
   177  O   6.0   -0.25    2.11    1.84    36.17432    77.54210    82.64989
   178  H   1.0    0.07    1.07    1.44    38.62267    64.82450    89.40809
   179  H   1.0    0.05    1.06    1.44    38.93098    66.49766    84.49812
   180  H   1.0    0.04    1.04    1.43    38.98814    68.68199    89.26644
   181  H   1.0    0.04    1.03    1.43    42.08813    69.37526    88.24366
   182  H   1.0    0.04    1.03    1.43    41.31852    73.87641    88.32846
   183  H   1.0    0.05    1.04    1.43    36.48400    69.13620    83.93814
   184  H   1.0    0.05    1.03    1.43    39.56095    77.59970    86.19370
   185  H   1.0    0.06    1.03    1.43    34.87321    72.84249    81.69973
   186  H   1.0    0.13    1.05    1.44    34.94942    77.03049    81.38156
   187  N   5.0   -0.14    3.49    2.07    44.51262    64.75515    86.48502
   188  C   4.0    0.03    4.41    4.40    47.01471    64.07357    85.57966
   189  C   4.0    0.16    3.48    3.11    46.87214    62.27483    83.32202
   190  O   6.0   -0.33    1.29    1.80    48.35647    62.49411    81.55478
   191  C   4.0   -0.05    4.35    4.30    48.57783    62.77044    87.64645
   192  C   4.0   -0.02    4.17    3.94    49.11257    64.40057    89.98849
   193  C   4.0   -0.07    4.11    3.81    50.73997    62.90535    91.84965
   194  C   4.0   -0.08    4.11    3.83    50.44846    66.85218    89.27440
   195  H   1.0    0.08    1.07    1.44    44.27815    64.80272    88.37926
   196  H   1.0    0.05    1.05    1.44    48.00159    65.76227    84.89177
   197  H   1.0    0.04    1.03    1.43    47.61676    61.02903    88.19931
   198  H   1.0    0.04    1.03    1.43    50.38845    62.24657    86.80800
   199  H   1.0    0.05    1.05    1.44    47.33870    64.87702    90.94333
   200  H   1.0    0.04    1.00    1.43    51.04695    64.00412    93.55802
   201  H   1.0    0.04    1.00    1.43    49.84373    61.13409    92.37068
   202  H   1.0    0.04    1.00    1.43    52.57567    62.48202    91.03153
   203  H   1.0    0.04    1.00    1.43    50.93924    67.89937    90.96964
   204  H   1.0    0.04    1.00    1.43    52.18403    66.46348    88.24403
   205  H   1.0    0.04    1.00    1.43    49.24536    68.04056    88.11197
   206  N   5.0   -0.14    3.52    2.09    45.21113    60.37281    83.49159
   207  C   4.0    0.03    4.52    4.56    44.86599    58.65768    81.37787
   208  C   4.0    0.16    3.52    3.12    43.91153    60.11983    79.09297
   209  O   6.0   -0.33    1.37    1.80    44.66614    59.64018    76.95480
   210  C   4.0   -0.02    4.33    4.26    43.03339    56.48241    82.00753
   211  C   4.0   -0.05    4.19    3.98    44.09124    54.89465    84.18764
   212  C   4.0   -0.07    4.14    3.88    42.60836    54.85582    79.65911
   213  C   4.0   -0.07    4.01    3.64    42.18228    53.00032    85.21781
   214  H   1.0    0.10    1.10    1.44    43.74726    60.48005    84.72338
   215  H   1.0    0.05    1.06    1.44    46.71554    57.87899    80.85375
   216  H   1.0    0.05    1.05    1.44    41.23333    57.32447    82.58330
   217  H   1.0    0.04    1.03    1.43    45.76642    53.88738    83.53063
   218  H   1.0    0.05    1.03    1.43    44.66151    56.15670    85.71410
   219  H   1.0    0.04    1.00    1.43    41.26815    53.35223    80.04548
   220  H   1.0    0.05    1.01    1.43    41.87794    55.97163    78.09775
   221  H   1.0    0.04    1.00    1.43    44.37930    54.00934    79.04920
   222  H   1.0    0.05    1.00    1.43    42.93474    52.07712    86.89052
   223  H   1.0    0.05    1.00    1.43    40.43793    53.95465    85.72911
   224  H   1.0    0.04    1.00    1.43    41.75474    51.54999    83.83022
   225  N   5.0   -0.13    3.56    2.12    42.20584    61.92160    79.53112
   226  C   4.0    0.04    4.47    4.50    41.17855    63.34684    77.42563
   227  C   4.0    0.16    3.49    3.11    43.32014    64.75433    76.09000
   228  O   6.0   -0.32    1.32    1.80    43.50823    64.72552    73.77942
   229  C   4.0   -0.04    4.32    4.24    39.13277    65.17819    78.30344
   230  C   4.0   -0.01    3.55    3.14    37.00155    63.90760    79.71125
   231  C   4.0   -0.04    3.48    3.11    35.28346    65.44033    80.98262
   232  C   4.0   -0.03    3.50    3.12    36.71928    61.30326    79.87786
   233  C   4.0   -0.04    3.37    3.07    33.46354    64.41267    82.54951
   234  C   4.0   -0.04    3.38    3.07    34.88506    60.26722    81.43150
   235  C   4.0   -0.04    3.37    3.07    33.29202    61.81331    82.81218
   236  H   1.0    0.11    1.09    1.44    41.42848    62.17011    81.26267
   237  H   1.0    0.05    1.05    1.44    40.39502    62.03064    76.02109
   238  H   1.0    0.06    1.03    1.43    39.99448    66.58594    79.54964
   239  H   1.0    0.04    1.03    1.43    38.40432    66.18456    76.65344
   240  H   1.0    0.05    1.03    1.43    35.36847    67.45878    80.69931
   241  H   1.0    0.05    1.04    1.43    37.89318    60.04599    78.78476
   242  H   1.0    0.05    1.03    1.43    32.18721    65.64267    83.56397
   243  H   1.0    0.05    1.03    1.43    34.71263    58.23853    81.56014
   244  H   1.0    0.05    1.03    1.43    31.86812    60.99918    84.02278
   245  N   5.0   -0.14    3.53    2.10    44.91724    65.99263    77.59157
   246  C   4.0    0.04    4.51    4.55    47.07913    67.31007    76.53944
   247  C   4.0    0.16    3.54    3.13    48.62855    65.40324    75.02528
   248  O   6.0   -0.32    1.31    1.80    49.34651    65.81484    72.86028
   249  C   4.0   -0.02    4.27    4.13    48.72528    68.52314    78.60591
   250  C   4.0   -0.07    4.14    3.87    51.13210    69.60189    77.43268
   251  C   4.0   -0.07    4.11    3.82    47.30321    70.61362    79.99302
   252  H   1.0    0.11    1.10    1.44    44.61967    66.05241    79.48551
   253  H   1.0    0.05    1.05    1.44    46.43633    68.75975    75.19767
   254  H   1.0    0.05    1.05    1.44    49.23843    67.03774    79.95272
   255  H   1.0    0.04    1.00    1.43    52.29638    70.48435    78.87471
   256  H   1.0    0.05    1.00    1.43    52.22886    68.13168    76.50744
   257  H   1.0    0.04    1.00    1.43    50.66064    71.02833    76.03002
   258  H   1.0    0.04    1.00    1.43    48.53510    71.44686    81.40928
   259  H   1.0    0.04    1.00    1.43    46.75190    72.09504    78.68128
   260  H   1.0    0.06    1.00    1.43    45.62406    69.88203    80.91711
   261  N   5.0   -0.14    3.53    2.10    49.16925    63.27462    76.26481
   262  C   4.0    0.04    4.51    4.55    50.85883    61.42703    75.17358
   263  C   4.0    0.16    3.44    3.09    49.80769    60.41965    72.68863
   264  O   6.0   -0.33    1.34    1.80    51.24682    60.10339    70.89478
   265  C   4.0   -0.04    4.31    4.22    51.47911    59.30834    77.04897
   266  C   4.0   -0.04    4.05    3.70    54.26513    58.57583    76.94331
   267  S   6.0   -0.04    2.56    3.10    56.40708    61.26253    77.25443
   268  C   4.0   -0.07    3.88    3.43    55.57494    62.38870    80.40197
   269  H   1.0    0.11    1.10    1.44    48.62586    63.03285    78.09049
   270  H   1.0    0.06    1.11    1.45    52.63892    62.37559    74.65189
   271  H   1.0    0.06    1.04    1.43    51.01789    59.98500    78.94001
   272  H   1.0    0.04    1.03    1.43    50.33929    57.62796    76.67848
   273  H   1.0    0.04    1.06    1.44    54.72110    57.23026    78.43251
   274  H   1.0    0.05    1.07    1.44    54.76034    57.75324    75.11867
   275  H   1.0    0.04    1.05    1.44    56.83252    63.96228    80.77795
   276  H   1.0    0.05    1.04    1.43    53.62478    63.02204    80.41259
   277  H   1.0    0.04    1.04    1.43    55.88741    60.89077    81.76651
   278  N   5.0   -0.14    3.52    2.09    47.36382    59.86045    72.67945
   279  C   4.0    0.04    4.40    4.38    45.99045    58.85692    70.54147
   280  C   4.0    0.16    3.52    3.12    45.86518    60.81224    68.42050
   281  O   6.0   -0.32    1.32    1.80    46.43412    60.21517    66.25472
   282  C   4.0   -0.04    4.32    4.24    43.34399    57.96949    71.37675
   283  C   4.0   -0.01    3.59    3.16    41.41890    58.13922    69.29112
   284  C   4.0   -0.04    3.46    3.10    41.01527    56.14968    67.62893
   285  C   4.0   -0.04    3.49    3.11    39.98183    60.32257    69.03630
   286  C   4.0   -0.04    3.38    3.07    39.20916    56.34986    65.74816
   287  C   4.0   -0.04    3.37    3.07    38.20594    60.54009    67.13261
   288  C   4.0   -0.04    3.37    3.07    37.82413    58.55166    65.47728
   289  H   1.0    0.12    1.15    1.45    46.33462    60.13111    74.27865
   290  H   1.0    0.05    1.06    1.44    47.03205    57.24997    69.74374
   291  H   1.0    0.04    1.03    1.43    43.50066    56.02636    72.04773
   292  H   1.0    0.06    1.04    1.43    42.72640    59.15175    72.94699
   293  H   1.0    0.05    1.03    1.43    42.10790    54.43403    67.80637
   294  H   1.0    0.05    1.03    1.43    40.27324    61.86195    70.34155
   295  H   1.0    0.05    1.03    1.43    38.87417    54.77889    64.49241
   296  H   1.0    0.05    1.03    1.43    37.10423    62.25166    66.96375
   297  H   1.0    0.04    1.03    1.43    36.45321    58.71085    63.97774
   298  N   5.0   -0.14    3.53    2.10    45.10300    63.12846    69.04039
   299  C   4.0    0.04    4.54    4.59    44.90437    65.00142    67.04892
   300  C   4.0    0.16    3.56    3.14    47.54924    65.38162    65.98102
   301  O   6.0   -0.29    1.27    1.80    47.96929    65.21129    63.71249
   302  C   4.0   -0.02    4.26    4.11    43.72637    67.50565    67.90951
   303  C   4.0   -0.07    4.14    3.89    43.95835    69.45408    65.79404
   304  C   4.0   -0.07    4.11    3.82    40.94907    67.17327    68.60194
   305  H   1.0    0.12    1.11    1.45    44.67181    63.64465    70.83726
   306  H   1.0    0.05    1.06    1.44    43.76839    64.19448    65.50659
   307  H   1.0    0.05    1.05    1.44    44.76477    68.16197    69.57132
   308  H   1.0    0.04    1.00    1.43    43.12230    71.23893    66.36687
   309  H   1.0    0.06    1.01    1.43    45.92117    69.79143    65.30319
   310  H   1.0    0.04    1.00    1.43    42.97404    68.79370    64.11607
   311  H   1.0    0.04    1.00    1.43    40.12547    69.00907    69.01144
   312  H   1.0    0.04    1.00    1.43    39.90426    66.34049    67.04006
   313  H   1.0    0.05    1.00    1.43    40.75404    65.98208    70.25733
   314  N   5.0   -0.14    3.51    2.09    49.37133    65.85812    67.65207
   315  C   4.0    0.05    4.42    4.41    51.95845    66.10051    66.80702
   316  C   4.0    0.18    3.53    3.13    52.68292    63.81705    65.19711
   317  O   6.0   -0.26    1.26    1.80    53.60158    64.07465    63.08704
   318  C   4.0    0.04    4.16    3.91    53.75437    66.38143    69.05617
   319  O   6.0   -0.24    2.06    1.83    56.17180    66.92758    68.09410
   320  H   1.0    0.12    1.12    1.45    49.03626    65.89801    69.53931
   321  H   1.0    0.07    1.05    1.44    52.17617    67.75006    65.56233
   322  H   1.0    0.05    1.01    1.43    53.07590    67.92038    70.27252
   323  H   1.0    0.06    1.01    1.43    53.75786    64.62091    70.15129
   324  H   1.0    0.12    1.02    1.43    57.37376    66.92750    69.46434
   325  N   5.0   -0.13    3.52    2.09    52.24722    61.54687    66.18564
   326  C   4.0    0.05    4.46    4.47    53.05362    59.33144    64.81649
   327  C   4.0    0.16    3.51    3.12    51.81827    59.19925    62.22767
   328  O   6.0   -0.27    1.24    1.80    52.97031    58.16752    60.48644
   329  C   4.0   -0.04    4.35    4.29    52.41366    56.85199    66.16722
   330  C   4.0   -0.03    4.05    3.71    54.39331    56.11081    68.11302
   331  S   6.0   -0.03    2.46    3.10    53.77744    53.05244    69.56826
   332  C   4.0   -0.06    3.88    3.44    51.14757    53.89222    71.60941
   333  H   1.0    0.12    1.14    1.45    51.67824    61.27909    68.00061
   334  H   1.0    0.06    1.05    1.44    55.10444    59.46707    64.49020
   335  H   1.0    0.06    1.03    1.43    50.55457    57.06471    67.02447
   336  H   1.0    0.05    1.04    1.43    52.29768    55.36021    64.74369
   337  H   1.0    0.05    1.08    1.44    56.21554    55.86606    67.18991
   338  H   1.0    0.06    1.07    1.44    54.53839    57.51168    69.61243
   339  H   1.0    0.04    1.04    1.43    50.88023    52.34745    72.92708
   340  H   1.0    0.05    1.05    1.44    51.64052    55.62083    72.59127
   341  H   1.0    0.04    1.04    1.43    49.45739    54.14790    70.47624
   342  N   5.0   -0.13    3.49    2.07    49.48992    60.09937    61.97984
   343  C   4.0    0.05    4.38    4.35    48.23379    59.92223    59.57104
   344  C   4.0    0.10    3.23    3.04    48.82003    62.17276    57.88181
   345  O   6.0   -0.26    1.12    1.80    48.82522    61.86756    55.57373
   346  C   4.0   -0.04    4.34    4.27    45.36888    59.65462    59.75982
   347  C   4.0   -0.02    4.17    3.93    44.41195    57.30443    61.18522
   348  C   4.0   -0.08    4.12    3.84    41.86899    56.52609    60.06745
   349  C   4.0   -0.07    4.12    3.85    46.20771    55.04840    61.10440
   350  H   1.0    0.12    1.11    1.45    48.46017    60.68757    63.48850
   351  H   1.0    0.07    1.07    1.44    49.01522    58.28154    58.56496
   352  H   1.0    0.05    1.03    1.43    44.62137    61.35222    60.65985
   353  H   1.0    0.05    1.04    1.43    44.68099    59.59574    57.81374
   354  H   1.0    0.06    1.06    1.44    44.14579    57.82362    63.16827
   355  H   1.0    0.04    1.00    1.43    41.16106    54.85221    61.01526
   356  H   1.0    0.04    1.00    1.43    40.49833    58.03932    60.27788
   357  H   1.0    0.05    1.00    1.43    42.07161    56.07167    58.07201
   358  H   1.0    0.04    1.00    1.43    45.36264    53.49412    62.14727
   359  H   1.0    0.05    1.00    1.43    46.53453    54.41256    59.17679
   360  H   1.0    0.05    1.00    1.43    48.01484    55.48617    61.97367
   361  N   5.0   -0.21    3.22    1.96    31.44707    65.99649    59.42898
   362  C   4.0    0.03    4.30    4.19    32.93799    65.47525    61.66427
   363  C   4.0    0.08    3.24    3.04    32.96037    67.82084    63.34128
   364  O   6.0   -0.33    1.21    1.80    32.96174    67.64023    65.64606
   365  C   4.0   -0.03    4.31    4.21    35.66658    64.59285    61.08678
   366  C   4.0   -0.05    4.19    3.99    37.25336    66.73115    59.94929
   367  C   4.0   -0.08    4.12    3.85    35.59331    62.27207    59.37979
   368  C   4.0   -0.07    4.01    3.63    40.01437    66.05780    59.45959
   369  H   1.0    0.08    1.03    1.43    32.38272    66.30099    57.79260
   370  H   1.0    0.05    1.05    1.44    32.00066    63.97964    62.75530
   371  H   1.0    0.04    1.06    1.44    36.49308    64.04693    62.90344
   372  H   1.0    0.04    1.03    1.43    36.36784    67.29771    58.18587
   373  H   1.0    0.04    1.03    1.43    37.22041    68.34565    61.23071
   374  H   1.0    0.04    1.00    1.43    37.48223    61.51525    59.11244
   375  H   1.0    0.04    1.00    1.43    34.42552    60.80593    60.21767
   376  H   1.0    0.04    1.00    1.43    34.80819    62.76732    57.55135
   377  H   1.0    0.05    1.00    1.43    41.00666    67.68310    58.68777
   378  H   1.0    0.04    1.00    1.43    40.93296    65.53427    61.21927
   379  H   1.0    0.04    1.00    1.43    40.22272    64.52253    58.11388
   380  N   5.0   -0.21    3.22    1.96    30.03488    68.17758    69.84511
   381  C   4.0    0.03    4.15    3.89    31.52540    69.13673    71.93198
   382  C   4.0    0.08    3.21    3.04    30.20669    71.32155    73.27521
   383  O   6.0   -0.33    1.23    1.80    30.37004    71.55833    75.59127
   384  C   4.0   -0.06    4.12    3.83    34.08657    70.03281    70.95803
   385  H   1.0    0.12    1.09    1.44    30.91405    68.12429    68.13420
   386  H   1.0    0.04    1.05    1.44    31.77988    67.63722    73.34594
   387  H   1.0    0.05    1.00    1.43    35.24303    70.70700    72.51369
   388  H   1.0    0.05    1.00    1.43    35.03981    68.47949    70.01449
   389  H   1.0    0.05    1.00    1.43    33.80543    71.55931    69.61423
   390  N   5.0   -0.20    3.25    1.97    25.00095    68.55219    76.72042
   391  C   4.0    0.03    4.32    4.24    26.04261    67.37695    78.94825
   392  C   4.0    0.15    3.45    3.09    26.63819    69.45070    80.86601
   393  O   6.0   -0.33    1.34    1.80    26.20462    69.11887    83.11583
   394  C   4.0   -0.05    4.35    4.28    28.42183    65.83740    78.40469
   395  C   4.0   -0.03    4.17    3.95    28.02610    63.53895    76.68343
   396  C   4.0   -0.08    4.11    3.82    30.55064    62.20341    76.26600
   397  C   4.0   -0.08    4.11    3.82    26.12338    61.67235    77.77535
   398  H   1.0    0.09    1.02    1.43    25.90800    68.31735    75.04223
   399  H   1.0    0.05    1.05    1.44    24.59746    66.17621    79.83059
   400  H   1.0    0.05    1.03    1.43    29.80837    67.10473    77.55162
   401  H   1.0    0.04    1.03    1.43    29.15848    65.19343    80.22049
   402  H   1.0    0.04    1.06    1.44    27.31393    64.21156    74.86754
   403  H   1.0    0.04    1.00    1.43    30.31937    60.63891    74.95546
   404  H   1.0    0.04    1.00    1.43    31.94741    63.50213    75.50529
   405  H   1.0    0.04    1.00    1.43    31.25949    61.45501    78.04219
   406  H   1.0    0.04    1.00    1.43    26.03353    60.00416    76.58132
   407  H   1.0    0.04    1.00    1.43    26.67946    61.08258    79.66394
   408  H   1.0    0.04    1.00    1.43    24.24857    62.50150    77.86336
   409  N   5.0   -0.14    3.48    2.07    27.60663    71.59915    79.96017
   410  C   4.0    0.04    4.36    4.31    28.08468    73.72943    81.62159
   411  C   4.0    0.09    3.26    3.05    25.57029    74.62200    82.74141
   412  O   6.0   -0.29    1.12    1.80    25.34472    75.08204    84.99880
   413  C   4.0    0.05    4.22    4.04    29.41257    75.89998    80.18037
   414  O   6.0   -0.26    2.13    1.84    31.84444    75.17512    79.37526
   415  C   4.0   -0.06    4.10    3.80    29.70830    78.22253    81.85754
   416  H   1.0    0.11    1.12    1.45    28.30909    71.67432    78.16882
   417  H   1.0    0.06    1.05    1.44    29.28245    73.14893    83.21714
   418  H   1.0    0.05    1.04    1.43    28.23643    76.39185    78.54056
   419  H   1.0    0.15    1.05    1.44    31.69775    73.88819    78.07154
   420  H   1.0    0.05    1.00    1.43    30.68463    79.70406    80.82426
   421  H   1.0    0.05    1.00    1.43    27.87117    78.91317    82.45358
   422  H   1.0    0.05    1.00    1.43    30.81239    77.75445    83.52464
   423  N   5.0   -0.19    3.21    1.96    23.05647    69.56919    87.15902
   424  C   4.0    0.04    4.24    4.08    24.76267    69.76247    89.28482
   425  C   4.0    0.09    3.23    3.04    24.24721    72.11880    90.88999
   426  O   6.0   -0.28    1.14    1.80    24.81199    72.10906    93.12177
   427  C   4.0   -0.02    4.34    4.28    27.53246    69.85401    88.39726
   428  C   4.0   -0.01    3.57    3.15    29.30610    69.58508    90.59835
   429  C   4.0   -0.04    3.47    3.10    30.02494    67.19184    91.41392
   430  C   4.0   -0.02    3.48    3.10    30.17379    71.68950    91.90869
   431  C   4.0   -0.04    3.37    3.07    31.53809    66.90403    93.52607
   432  C   4.0   -0.03    3.37    3.07    31.66294    71.40173    94.03953
   433  C   4.0   -0.04    3.37    3.07    32.33413    69.00938    94.85960
   434  H   1.0    0.13    1.09    1.44    23.87487    69.60359    85.41951
   435  H   1.0    0.05    1.05    1.44    24.50031    68.12948    90.54502
   436  H   1.0    0.06    1.04    1.43    27.82759    68.32049    87.05408
   437  H   1.0    0.06    1.03    1.43    27.81414    71.64860    87.42200
   438  H   1.0    0.05    1.03    1.43    29.37201    65.54703    90.39592
   439  H   1.0    0.06    1.03    1.43    29.64891    73.56765    91.29296
   440  H   1.0    0.05    1.03    1.43    32.06464    65.03273    94.14296
   441  H   1.0    0.05    1.03    1.43    32.26485    73.05893    95.07234
   442  H   1.0    0.05    1.03    1.43    33.45421    68.81286    96.55149
   443  H   1.0    0.11    1.08    1.44    40.15111    89.86604    95.26408
   444  H   1.0    0.06    1.05    1.44    44.58180    92.29209    92.15175
   445  H   1.0    0.09    1.07    1.44    47.12708    86.55668    86.18554
   446  H   1.0    0.06    1.04    1.44    44.04435    90.66587    82.27070
   447  H   1.0    0.09    1.07    1.44    50.88409    87.90548    79.15095
   448  H   1.0    0.07    1.05    1.44    46.16246    85.29087    75.26079
   449  H   1.0    0.09    1.07    1.44    63.24989    76.37679    86.65124
   450  H   1.0    0.06    1.04    1.43    63.30344    70.39939    89.36939
   451  H   1.0    0.10    1.07    1.44    59.37898    73.64725    96.88253
   452  H   1.0    0.06    1.04    1.44    61.32688    68.80915   100.58353
   453  H   1.0    0.09    1.10    1.44    54.09016    72.40143   107.83162
   454  H   1.0    0.08    1.04    1.43    49.19143    63.85908    58.64958
   455  H   1.0    0.09    1.07    1.44    30.41458    64.68176    59.11591
   456  H   1.0    0.06    1.05    1.44    32.97422    69.54121    62.55949
   457  H   1.0    0.09    1.07    1.44    29.55389    66.58055    70.17782
   458  H   1.0    0.06    1.04    1.43    29.20145    72.57418    72.27948
   459  H   1.0    0.09    1.07    1.44    23.43056    67.95909    76.44722
   460  H   1.0    0.06    1.05    1.44    24.06292    74.84183    81.62312
   461  H   1.0    0.10    1.07    1.44    22.19995    68.10269    87.25002
   462  H   1.0    0.07    1.04    1.43    23.45488    73.64331    90.10311

  Z AO/shell   Hii/eV     exponent
  1     Wed Apr 25 08:07:45 CEST 2018   EN: 2.200 GM2: 0.406  GM3: 0.0800  RAES: 1.40
     1s    -10.707211    1.230000
  6     Wed Apr 25 08:07:45 CEST 2018   EN: 2.550 GM2: 0.538  GM3: 0.1500  RAES: 3.00
     2s    -13.970922    2.096432
     2p    -10.063292    1.800000
  7     Wed Apr 25 08:07:45 CEST 2018   EN: 3.040 GM2: 0.461  GM3:-0.0640  RAES: 1.90
     2s    -16.686243    2.339881
     2p    -12.523956    2.014332
  8     Wed Apr 25 08:07:45 CEST 2018   EN: 3.440 GM2: 0.452  GM3:-0.0517  RAES: 1.80
     2s    -20.229985    2.439742
     2p    -15.503117    2.137023
 16     Tue Apr 24 11:44:34 CEST 2018   EN: 2.580 GM2: 0.340  GM3:-0.0502  RAES: 3.10
     3s    -20.029654    1.981333
     3p    -11.377694    2.025643
     3d     -0.420282    1.702555
 no old-style atom pair restraining (fixing) potential

molecular fragmentation (1/2 indicates fragments):
111111111111111111122222222222222222222222222222222222222222222222222222
222222222222222222222222222222222222222222222222222222222222222222222222
222222222222222222222222222222222222222222222222222222222222222222222222
222222222222222222222222222222222222222222222222222222222222222222222222
222222222222222222222222222222222222222222222222222222222222222222222222
222222222222222222222222222222222222222222222222222222222222222222222222
222222222211222222222222222222
# atoms in fragment 1/2:    21   441
 fragment masses (1/2) :      115.17     2830.75
CMA distance (Bohr)    :  23.337
constraining FC (au)   :  0.0500
           ------------------------------------------------- 
          |        Self-Consistent Charge Iterations        |
           ------------------------------------------------- 

 Ncao       : 1092
 Nao        : 1090
 Nshell     : 670
 Nel        : 1170
 T(el)      :   500.0
 intcut     :    35.0
 scfconv/Eh :  0.100E-06
   qconv/e  :  0.100E-04
 intneglect :  0.100E-08
 broydamp   :      0.400
 iter      E             dE          RMSdq      gap      omega  full diag
   1   -659.5805978 -0.659581E+03  0.426E+00    2.84       0.0  T
   2   -660.8768778 -0.129628E+01  0.205E+00    1.33       1.0  T
   3   -660.9463942 -0.695163E-01  0.115E+00    1.34       1.0  T
   4   -661.0485314 -0.102137E+00  0.219E-01    0.78       1.0  T
   5   -661.0533037 -0.477230E-02  0.102E-01    0.97       1.0  T
   6   -661.0541451 -0.841470E-03  0.444E-02    0.96       1.0  T
   7   -661.0543512 -0.206067E-03  0.196E-02    0.95       1.0  T
   8   -661.0543840 -0.328224E-04  0.905E-03    0.95       1.0  T
   9   -661.0543916 -0.754065E-05  0.425E-03    0.95       1.1  T
  10   -661.0543932 -0.159599E-05  0.182E-03    0.95       2.6  T
  11   -661.0543934 -0.186920E-06  0.907E-04    0.95       5.1  T
  12   -661.0543934 -0.507537E-07  0.387E-04    0.95      12.0  T
  13   -661.0543934 -0.187110E-07  0.197E-04    0.95      23.6  T
  14   -661.0543934 -0.239254E-08  0.885E-05    0.95      52.6  T
  15   -661.0543934 -0.582531E-09  0.337E-05    0.95     138.2  T
speedup  1.00
cpu  time for SCC    8.19 s
wall time for SCC    8.19 s

   *** convergence criteria satisfied after 15 iterations ***

          eigenvalues
 #    :         573        574        575        576        577        578        579        580
 occ. :        2.000      2.000      2.000      2.000      2.000      2.000      2.000      2.000
 eps  :       -10.217    -10.185    -10.173    -10.105    -10.102    -10.036    -10.031     -9.982
 #    :         581        582        583        584        585        586        587        588
 occ. :        2.000      2.000      2.000      2.000      2.000      0.000      0.000      0.000
 eps  :        -9.929     -9.890     -9.818     -9.574     -9.215     -8.268     -7.966     -7.872
 #    :         589        590        591        592        593        594        595        596
 occ. :        0.000      0.000      0.000      0.000      0.000      0.000      0.000      0.000
 eps  :        -7.815     -7.768     -7.739     -7.730     -7.621     -7.610     -7.336     -7.131


   #   Z            q   n(s)   n(p)   n(d)      C6AA      α(0)
   1   7 N     -0.360  1.321  4.038  0.000    29.279     8.036
   2   6 C      0.034  1.056  2.910  0.000    20.021     6.374
   3   6 C      0.186  1.090  2.724  0.000    24.010     8.025
   4   8 O     -0.374  1.756  4.618  0.000    21.170     6.169
   5   6 C     -0.069  1.057  3.013  0.000    21.818     6.649
   6   6 C     -0.013  1.057  2.956  0.000    20.768     6.482
   7   6 C     -0.110  1.042  3.069  0.000    22.664     6.787
   8   6 C     -0.117  1.040  3.076  0.000    22.791     6.807
   9   1 H      0.167  0.833  0.000  0.000     1.291     1.780
  10   1 H      0.051  0.949  0.000  0.000     2.304     2.374
  11   1 H      0.054  0.946  0.000  0.000     2.271     2.356
  12   1 H      0.041  0.959  0.000  0.000     2.436     2.441
  13   1 H      0.046  0.954  0.000  0.000     2.374     2.409
  14   1 H      0.046  0.954  0.000  0.000     2.371     2.408
  15   1 H      0.035  0.965  0.000  0.000     2.516     2.480
  16   1 H      0.036  0.964  0.000  0.000     2.506     2.476
  17   1 H      0.046  0.954  0.000  0.000     2.373     2.409
  18   1 H      0.038  0.962  0.000  0.000     2.482     2.464
  19   1 H      0.037  0.963  0.000  0.000     2.484     2.465
  20   7 N     -0.389  1.313  4.076  0.000    30.071     8.144
  21   6 C      0.040  1.060  2.900  0.000    19.917     6.357
  22   6 C      0.201  1.089  2.709  0.000    23.714     7.975
  23   8 O     -0.383  1.761  4.623  0.000    21.353     6.195
  24   6 C     -0.022  1.069  2.953  0.000    20.928     6.506
  25   6 C     -0.056  1.050  3.006  0.000    21.576     6.613
  26   6 C     -0.115  1.037  3.078  0.000    22.754     6.801
  27   6 C     -0.110  1.037  3.073  0.000    22.664     6.789
  28   1 H      0.155  0.845  0.000  0.000     1.369     1.833
  29   1 H      0.046  0.954  0.000  0.000     2.373     2.409
  30   1 H      0.060  0.940  0.000  0.000     2.203     2.321
  31   1 H      0.023  0.977  0.000  0.000     2.694     2.567
  32   1 H      0.035  0.965  0.000  0.000     2.513     2.479
  33   1 H      0.051  0.949  0.000  0.000     2.305     2.374
  34   1 H      0.058  0.942  0.000  0.000     2.226     2.333
  35   1 H      0.029  0.971  0.000  0.000     2.603     2.523
  36   1 H      0.046  0.954  0.000  0.000     2.364     2.404
  37   1 H      0.045  0.955  0.000  0.000     2.386     2.415
  38   1 H      0.039  0.961  0.000  0.000     2.467     2.456
  39   7 N     -0.392  1.323  4.068  0.000    30.142     8.154
  40   6 C      0.033  1.062  2.904  0.000    20.028     6.374
  41   6 C      0.205  1.092  2.703  0.000    23.643     7.963
  42   8 O     -0.387  1.760  4.627  0.000    21.421     6.205
  43   6 C     -0.017  1.067  2.950  0.000    20.835     6.492
  44   6 C     -0.060  1.049  3.011  0.000    21.650     6.624
  45   6 C     -0.115  1.038  3.077  0.000    22.764     6.803
  46   6 C     -0.110  1.037  3.073  0.000    22.673     6.790
  47   1 H      0.151  0.849  0.000  0.000     1.393     1.849
  48   1 H      0.063  0.937  0.000  0.000     2.169     2.303
  49   1 H      0.032  0.968  0.000  0.000     2.562     2.503
  50   1 H      0.041  0.959  0.000  0.000     2.437     2.441
  51   1 H      0.033  0.967  0.000  0.000     2.547     2.496
  52   1 H      0.056  0.944  0.000  0.000     2.243     2.342
  53   1 H      0.032  0.968  0.000  0.000     2.556     2.500
  54   1 H      0.044  0.956  0.000  0.000     2.400     2.423
  55   1 H      0.046  0.954  0.000  0.000     2.370     2.408
  56   1 H      0.034  0.966  0.000  0.000     2.530     2.487
  57   1 H      0.050  0.950  0.000  0.000     2.319     2.381
  58   7 N     -0.393  1.318  4.075  0.000    30.187     8.160
  59   6 C      0.034  1.060  2.905  0.000    20.011     6.372
  60   6 C      0.198  1.095  2.707  0.000    23.777     7.985
  61   8 O     -0.375  1.748  4.627  0.000    21.182     6.170
  62   6 C     -0.015  1.066  2.949  0.000    20.808     6.488
  63   6 C     -0.117  1.039  3.077  0.000    22.788     6.806
  64   6 C     -0.117  1.041  3.076  0.000    22.785     6.805
  65   1 H      0.162  0.838  0.000  0.000     1.320     1.800
  66   1 H      0.054  0.946  0.000  0.000     2.273     2.358
  67   1 H      0.041  0.959  0.000  0.000     2.432     2.439
  68   1 H      0.053  0.947  0.000  0.000     2.281     2.362
  69   1 H      0.033  0.967  0.000  0.000     2.537     2.491
  70   1 H      0.052  0.948  0.000  0.000     2.289     2.366
  71   1 H      0.051  0.949  0.000  0.000     2.309     2.376
  72   1 H      0.050  0.950  0.000  0.000     2.314     2.379
  73   1 H      0.040  0.960  0.000  0.000     2.445     2.445
  74   7 N     -0.408  1.317  4.091  0.000    30.600     8.216
  75   6 C      0.027  1.059  2.913  0.000    20.134     6.392
  76   6 C      0.205  1.087  2.708  0.000    23.639     7.962
  77   8 O     -0.367  1.755  4.612  0.000    21.036     6.149
  78   6 C      0.073  1.041  2.886  0.000    19.571     6.337
  79   8 O     -0.473  1.722  4.751  0.000    22.316     6.377
  80   1 H      0.188  0.812  0.000  0.000     1.167     1.692
  81   1 H      0.049  0.951  0.000  0.000     2.329     2.386
  82   1 H      0.058  0.942  0.000  0.000     2.228     2.334
  83   1 H      0.056  0.944  0.000  0.000     2.252     2.347
  84   1 H      0.330  0.670  0.000  0.000     0.638     1.255
  85   7 N     -0.281  1.240  4.041  0.000    27.254     7.754
  86   6 C      0.024  1.064  2.912  0.000    20.146     6.387
  87   6 C      0.274  1.048  2.678  0.000    22.374     7.746
  88   8 O     -0.472  1.745  4.727  0.000    23.175     6.454
  89   6 C     -0.064  1.054  3.010  0.000    21.700     6.629
  90   6 C     -0.062  1.052  3.010  0.000    21.663     6.622
  91   6 C      0.017  1.047  2.936  0.000    20.344     6.430
  92   1 H      0.023  0.977  0.000  0.000     2.683     2.561
  93   1 H      0.040  0.960  0.000  0.000     2.443     2.444
  94   1 H      0.046  0.954  0.000  0.000     2.375     2.410
  95   1 H      0.043  0.957  0.000  0.000     2.407     2.426
  96   1 H      0.046  0.954  0.000  0.000     2.371     2.408
  97   1 H      0.036  0.964  0.000  0.000     2.502     2.473
  98   1 H      0.020  0.980  0.000  0.000     2.737     2.587
  99   7 N     -0.188  1.248  3.940  0.000    25.074     7.437
 100   6 C      0.015  1.063  2.922  0.000    20.326     6.420
 101   6 C      0.271  1.045  2.685  0.000    22.425     7.755
 102   8 O     -0.465  1.741  4.725  0.000    23.033     6.435
 103   6 C     -0.071  1.061  3.010  0.000    21.845     6.652
 104   6 C     -0.007  1.055  2.952  0.000    20.667     6.466
 105   6 C     -0.115  1.042  3.073  0.000    22.757     6.801
 106   6 C     -0.111  1.040  3.071  0.000    22.678     6.790
 107   1 H      0.193  0.807  0.000  0.000     1.143     1.675
 108   1 H      0.071  0.929  0.000  0.000     2.077     2.254
 109   1 H      0.053  0.947  0.000  0.000     2.282     2.362
 110   1 H      0.055  0.945  0.000  0.000     2.259     2.351
 111   1 H      0.025  0.975  0.000  0.000     2.657     2.549
 112   1 H      0.037  0.963  0.000  0.000     2.494     2.470
 113   1 H      0.037  0.963  0.000  0.000     2.485     2.465
 114   1 H      0.047  0.953  0.000  0.000     2.353     2.399
 115   1 H      0.041  0.959  0.000  0.000     2.431     2.438
 116   1 H      0.042  0.958  0.000  0.000     2.416     2.431
 117   1 H      0.035  0.965  0.000  0.000     2.515     2.480
 118   7 N     -0.168  1.240  3.928  0.000    24.641     7.373
 119   6 C      0.004  1.072  2.924  0.000    20.525     6.451
 120   6 C      0.263  1.046  2.692  0.000    22.569     7.779
 121   8 O     -0.457  1.737  4.720  0.000    22.849     6.409
 122   6 C     -0.024  1.069  2.954  0.000    20.958     6.512
 123   6 C     -0.067  1.047  3.020  0.000    21.780     6.644
 124   6 C     -0.115  1.038  3.077  0.000    22.751     6.801
 125   6 C     -0.113  1.038  3.075  0.000    22.719     6.797
 126   1 H      0.196  0.804  0.000  0.000     1.128     1.664
 127   1 H      0.080  0.920  0.000  0.000     1.981     2.201
 128   1 H      0.062  0.938  0.000  0.000     2.174     2.306
 129   1 H      0.024  0.976  0.000  0.000     2.673     2.557
 130   1 H      0.063  0.937  0.000  0.000     2.160     2.298
 131   1 H      0.057  0.943  0.000  0.000     2.234     2.338
 132   1 H      0.053  0.947  0.000  0.000     2.279     2.361
 133   1 H      0.022  0.978  0.000  0.000     2.698     2.569
 134   1 H      0.036  0.964  0.000  0.000     2.503     2.474
 135   1 H      0.050  0.950  0.000  0.000     2.317     2.380
 136   1 H      0.036  0.964  0.000  0.000     2.507     2.476
 137   7 N     -0.166  1.242  3.924  0.000    24.587     7.364
 138   6 C     -0.045  1.056  2.989  0.000    21.449     6.606
 139   6 C      0.273  1.037  2.690  0.000    22.392     7.748
 140   8 O     -0.438  1.742  4.696  0.000    22.446     6.352
 141   1 H      0.218  0.782  0.000  0.000     1.016     1.579
 142   1 H      0.085  0.915  0.000  0.000     1.926     2.171
 143   1 H      0.089  0.911  0.000  0.000     1.891     2.151
 144   7 N     -0.174  1.242  3.932  0.000    24.765     7.391
 145   6 C      0.005  1.070  2.925  0.000    20.506     6.449
 146   6 C      0.262  1.048  2.690  0.000    22.580     7.782
 147   8 O     -0.477  1.744  4.733  0.000    23.286     6.470
 148   6 C     -0.084  1.059  3.026  0.000    22.110     6.695
 149   6 C     -0.078  1.051  3.027  0.000    21.987     6.676
 150   6 C     -0.093  1.055  3.039  0.000    22.281     6.721
 151   6 C     -0.053  1.062  2.991  0.000    21.622     6.637
 152   7 N     -0.146  1.229  3.917  0.000    24.148     7.299
 153   1 H      0.199  0.801  0.000  0.000     1.111     1.651
 154   1 H      0.095  0.905  0.000  0.000     1.828     2.115
 155   1 H      0.071  0.929  0.000  0.000     2.076     2.253
 156   1 H      0.064  0.936  0.000  0.000     2.153     2.295
 157   1 H      0.069  0.931  0.000  0.000     2.098     2.265
 158   1 H      0.067  0.933  0.000  0.000     2.121     2.277
 159   1 H      0.076  0.924  0.000  0.000     2.016     2.220
 160   1 H      0.073  0.927  0.000  0.000     2.049     2.239
 161   1 H      0.118  0.882  0.000  0.000     1.629     1.996
 162   1 H      0.118  0.882  0.000  0.000     1.632     1.998
 163   1 H      0.301  0.699  0.000  0.000     0.710     1.320
 164   1 H      0.297  0.703  0.000  0.000     0.722     1.331
 165   1 H      0.293  0.707  0.000  0.000     0.734     1.343
 166   7 N     -0.184  1.254  3.930  0.000    24.984     7.424
 167   6 C      0.011  1.065  2.925  0.000    20.404     6.433
 168   6 C      0.277  1.043  2.680  0.000    22.322     7.737
 169   8 O     -0.478  1.739  4.739  0.000    23.311     6.473
 170   6 C     -0.085  1.059  3.026  0.000    22.118     6.695
 171   6 C     -0.004  1.074  2.930  0.000    28.133     8.700
 172   6 C     -0.046  1.083  2.963  0.000    29.135     8.852
 173   6 C     -0.050  1.079  2.971  0.000    29.249     8.869
 174   6 C     -0.060  1.074  2.986  0.000    29.494     8.906
 175   6 C     -0.079  1.080  2.999  0.000    29.972     8.978
 176   6 C      0.144  1.047  2.809  0.000    24.863     8.172
 177   8 O     -0.426  1.716  4.710  0.000    21.360     6.239
 178   1 H      0.229  0.771  0.000  0.000     0.970     1.543
 179   1 H      0.087  0.913  0.000  0.000     1.907     2.160
 180   1 H      0.090  0.910  0.000  0.000     1.883     2.146
 181   1 H      0.070  0.930  0.000  0.000     2.084     2.258
 182   1 H      0.047  0.953  0.000  0.000     2.353     2.399
 183   1 H      0.051  0.949  0.000  0.000     2.311     2.377
 184   1 H      0.043  0.957  0.000  0.000     2.411     2.428
 185   1 H      0.050  0.950  0.000  0.000     2.322     2.383
 186   1 H      0.337  0.663  0.000  0.000     0.619     1.236
 187   7 N     -0.184  1.247  3.937  0.000    24.979     7.423
 188   6 C      0.016  1.063  2.922  0.000    20.320     6.419
 189   6 C      0.274  1.045  2.681  0.000    22.368     7.745
 190   8 O     -0.495  1.741  4.755  0.000    23.679     6.524
 191   6 C     -0.082  1.061  3.021  0.000    22.062     6.686
 192   6 C     -0.017  1.059  2.958  0.000    20.841     6.494
 193   6 C     -0.119  1.041  3.078  0.000    22.828     6.812
 194   6 C     -0.122  1.040  3.082  0.000    22.892     6.822
 195   1 H      0.216  0.784  0.000  0.000     1.029     1.589
 196   1 H      0.081  0.919  0.000  0.000     1.964     2.192
 197   1 H      0.056  0.944  0.000  0.000     2.245     2.343
 198   1 H      0.067  0.933  0.000  0.000     2.117     2.275
 199   1 H      0.052  0.948  0.000  0.000     2.291     2.367
 200   1 H      0.042  0.958  0.000  0.000     2.416     2.431
 201   1 H      0.045  0.955  0.000  0.000     2.378     2.411
 202   1 H      0.044  0.956  0.000  0.000     2.397     2.421
 203   1 H      0.048  0.952  0.000  0.000     2.341     2.393
 204   1 H      0.042  0.958  0.000  0.000     2.421     2.433
 205   1 H      0.042  0.958  0.000  0.000     2.420     2.433
 206   7 N     -0.181  1.256  3.925  0.000    24.924     7.415
 207   6 C      0.015  1.066  2.920  0.000    20.328     6.419
 208   6 C      0.275  1.043  2.682  0.000    22.359     7.744
 209   8 O     -0.497  1.738  4.760  0.000    23.728     6.531
 210   6 C     -0.027  1.068  2.959  0.000    21.019     6.521
 211   6 C     -0.065  1.051  3.014  0.000    21.753     6.640
 212   6 C     -0.115  1.037  3.078  0.000    22.756     6.802
 213   6 C     -0.114  1.037  3.076  0.000    22.733     6.799
 214   1 H      0.220  0.780  0.000  0.000     1.007     1.572
 215   1 H      0.077  0.923  0.000  0.000     2.011     2.218
 216   1 H      0.064  0.936  0.000  0.000     2.151     2.294
 217   1 H      0.043  0.957  0.000  0.000     2.406     2.425
 218   1 H      0.043  0.957  0.000  0.000     2.416     2.431
 219   1 H      0.062  0.938  0.000  0.000     2.180     2.309
 220   1 H      0.033  0.967  0.000  0.000     2.547     2.496
 221   1 H      0.043  0.957  0.000  0.000     2.404     2.425
 222   1 H      0.050  0.950  0.000  0.000     2.320     2.382
 223   1 H      0.047  0.953  0.000  0.000     2.355     2.400
 224   1 H      0.041  0.959  0.000  0.000     2.435     2.440
 225   7 N     -0.178  1.247  3.931  0.000    24.848     7.403
 226   6 C      0.029  1.057  2.913  0.000    20.081     6.380
 227   6 C      0.273  1.042  2.684  0.000    22.379     7.747
 228   8 O     -0.499  1.739  4.760  0.000    23.766     6.536
 229   6 C     -0.081  1.053  3.028  0.000    22.045     6.683
 230   6 C      0.011  1.081  2.908  0.000    27.756     8.642
 231   6 C     -0.046  1.079  2.966  0.000    29.134     8.852
 232   6 C     -0.038  1.077  2.961  0.000    28.950     8.824
 233   6 C     -0.032  1.078  2.953  0.000    28.794     8.799
 234   6 C     -0.031  1.081  2.950  0.000    28.762     8.795
 235   6 C     -0.037  1.078  2.959  0.000    28.927     8.820
 236   1 H      0.231  0.769  0.000  0.000     0.959     1.534
 237   1 H      0.065  0.935  0.000  0.000     2.139     2.287
 238   1 H      0.078  0.922  0.000  0.000     1.997     2.210
 239   1 H      0.067  0.933  0.000  0.000     2.115     2.274
 240   1 H      0.045  0.955  0.000  0.000     2.379     2.412
 241   1 H      0.031  0.969  0.000  0.000     2.567     2.505
 242   1 H      0.040  0.960  0.000  0.000     2.447     2.446
 243   1 H      0.045  0.955  0.000  0.000     2.390     2.417
 244   1 H      0.044  0.956  0.000  0.000     2.400     2.423
 245   7 N     -0.186  1.251  3.935  0.000    25.021     7.429
 246   6 C      0.020  1.065  2.915  0.000    20.239     6.405
 247   6 C      0.283  1.040  2.676  0.000    22.201     7.716
 248   8 O     -0.508  1.745  4.763  0.000    23.966     6.564
 249   6 C     -0.021  1.063  2.958  0.000    20.913     6.504
 250   6 C     -0.116  1.039  3.078  0.000    22.782     6.805
 251   6 C     -0.127  1.042  3.085  0.000    22.990     6.836
 252   1 H      0.239  0.761  0.000  0.000     0.926     1.508
 253   1 H      0.068  0.932  0.000  0.000     2.111     2.272
 254   1 H      0.054  0.946  0.000  0.000     2.272     2.357
 255   1 H      0.064  0.936  0.000  0.000     2.156     2.296
 256   1 H      0.030  0.970  0.000  0.000     2.593     2.518
 257   1 H      0.045  0.955  0.000  0.000     2.379     2.412
 258   1 H      0.064  0.936  0.000  0.000     2.154     2.295
 259   1 H      0.049  0.951  0.000  0.000     2.331     2.388
 260   1 H      0.060  0.940  0.000  0.000     2.199     2.319
 261   7 N     -0.192  1.255  3.937  0.000    25.160     7.450
 262   6 C      0.031  1.056  2.913  0.000    20.057     6.376
 263   6 C      0.275  1.040  2.685  0.000    22.345     7.741
 264   8 O     -0.507  1.742  4.765  0.000    23.950     6.561
 265   6 C     -0.072  1.054  3.018  0.000    21.858     6.653
 266   6 C     -0.009  1.064  2.946  0.000    20.752     6.487
 267  16 S     -0.244  1.928  4.261  0.055   151.501    20.716
 268   6 C     -0.067  1.056  3.011  0.000    21.865     6.670
 269   1 H      0.233  0.767  0.000  0.000     0.951     1.528
 270   1 H      0.070  0.930  0.000  0.000     2.084     2.258
 271   1 H      0.087  0.913  0.000  0.000     1.912     2.162
 272   1 H      0.056  0.944  0.000  0.000     2.245     2.343
 273   1 H      0.067  0.933  0.000  0.000     2.116     2.275
 274   1 H      0.044  0.956  0.000  0.000     2.396     2.421
 275   1 H      0.077  0.923  0.000  0.000     2.010     2.217
 276   1 H      0.069  0.931  0.000  0.000     2.099     2.266
 277   1 H      0.070  0.930  0.000  0.000     2.082     2.256
 278   7 N     -0.195  1.256  3.939  0.000    25.240     7.461
 279   6 C      0.033  1.060  2.907  0.000    20.025     6.373
 280   6 C      0.278  1.040  2.682  0.000    22.304     7.734
 281   8 O     -0.501  1.746  4.756  0.000    23.814     6.543
 282   6 C     -0.080  1.057  3.023  0.000    22.026     6.680
 283   6 C      0.006  1.081  2.913  0.000    27.883     8.661
 284   6 C     -0.038  1.081  2.958  0.000    28.949     8.823
 285   6 C     -0.045  1.083  2.963  0.000    29.127     8.851
 286   6 C     -0.031  1.082  2.949  0.000    28.770     8.796
 287   6 C     -0.033  1.079  2.954  0.000    28.820     8.803
 288   6 C     -0.035  1.080  2.955  0.000    28.863     8.810
 289   1 H      0.250  0.750  0.000  0.000     0.883     1.472
 290   1 H      0.056  0.944  0.000  0.000     2.249     2.345
 291   1 H      0.069  0.931  0.000  0.000     2.101     2.267
 292   1 H      0.072  0.928  0.000  0.000     2.060     2.245
 293   1 H      0.035  0.965  0.000  0.000     2.516     2.480
 294   1 H      0.041  0.959  0.000  0.000     2.439     2.442
 295   1 H      0.043  0.957  0.000  0.000     2.409     2.427
 296   1 H      0.039  0.961  0.000  0.000     2.467     2.456
 297   1 H      0.043  0.957  0.000  0.000     2.415     2.430
 298   7 N     -0.191  1.255  3.937  0.000    25.149     7.448
 299   6 C      0.030  1.062  2.908  0.000    20.069     6.377
 300   6 C      0.286  1.038  2.676  0.000    22.161     7.710
 301   8 O     -0.505  1.754  4.751  0.000    23.899     6.554
 302   6 C     -0.018  1.060  2.957  0.000    20.853     6.495
 303   6 C     -0.116  1.039  3.077  0.000    22.769     6.803
 304   6 C     -0.119  1.041  3.079  0.000    22.837     6.813
 305   1 H      0.241  0.759  0.000  0.000     0.918     1.501
 306   1 H      0.062  0.938  0.000  0.000     2.181     2.309
 307   1 H      0.046  0.954  0.000  0.000     2.375     2.410
 308   1 H      0.064  0.936  0.000  0.000     2.155     2.296
 309   1 H      0.025  0.975  0.000  0.000     2.655     2.548
 310   1 H      0.048  0.952  0.000  0.000     2.345     2.395
 311   1 H      0.062  0.938  0.000  0.000     2.174     2.306
 312   1 H      0.045  0.955  0.000  0.000     2.385     2.415
 313   1 H      0.060  0.940  0.000  0.000     2.202     2.321
 314   7 N     -0.207  1.255  3.952  0.000    25.507     7.501
 315   6 C      0.030  1.058  2.911  0.000    20.064     6.377
 316   6 C      0.294  1.036  2.671  0.000    22.022     7.685
 317   8 O     -0.517  1.757  4.760  0.000    24.155     6.589
 318   6 C      0.080  1.039  2.881  0.000    19.451     6.318
 319   8 O     -0.493  1.734  4.760  0.000    22.749     6.439
 320   1 H      0.235  0.765  0.000  0.000     0.946     1.523
 321   1 H      0.067  0.933  0.000  0.000     2.119     2.277
 322   1 H      0.055  0.945  0.000  0.000     2.257     2.350
 323   1 H      0.035  0.965  0.000  0.000     2.513     2.479
 324   1 H      0.360  0.640  0.000  0.000     0.565     1.181
 325   7 N     -0.208  1.258  3.950  0.000    25.524     7.503
 326   6 C      0.040  1.055  2.905  0.000    19.896     6.350
 327   6 C      0.284  1.039  2.677  0.000    22.199     7.717
 328   8 O     -0.530  1.752  4.778  0.000    24.463     6.631
 329   6 C     -0.052  1.048  3.004  0.000    21.486     6.595
 330   6 C     -0.005  1.065  2.940  0.000    20.680     6.476
 331  16 S     -0.222  1.915  4.258  0.049   150.514    20.649
 332   6 C     -0.058  1.053  3.005  0.000    21.683     6.642
 333   1 H      0.236  0.764  0.000  0.000     0.939     1.518
 334   1 H      0.048  0.952  0.000  0.000     2.351     2.398
 335   1 H      0.059  0.941  0.000  0.000     2.211     2.325
 336   1 H      0.048  0.952  0.000  0.000     2.349     2.397
 337   1 H      0.046  0.954  0.000  0.000     2.371     2.408
 338   1 H      0.060  0.940  0.000  0.000     2.198     2.318
 339   1 H      0.085  0.915  0.000  0.000     1.927     2.171
 340   1 H      0.053  0.947  0.000  0.000     2.277     2.360
 341   1 H      0.049  0.951  0.000  0.000     2.331     2.388
 342   7 N     -0.174  1.245  3.929  0.000    24.758     7.390
 343   6 C      0.037  1.053  2.910  0.000    19.949     6.359
 344   6 C      0.208  1.088  2.705  0.000    23.597     7.956
 345   8 O     -0.377  1.752  4.624  0.000    21.219     6.176
 346   6 C     -0.065  1.058  3.007  0.000    21.736     6.636
 347   6 C     -0.009  1.056  2.953  0.000    20.696     6.471
 348   6 C     -0.117  1.045  3.073  0.000    22.798     6.807
 349   6 C     -0.111  1.038  3.073  0.000    22.676     6.790
 350   1 H      0.231  0.769  0.000  0.000     0.960     1.535
 351   1 H      0.091  0.909  0.000  0.000     1.866     2.136
 352   1 H      0.048  0.952  0.000  0.000     2.351     2.398
 353   1 H      0.063  0.937  0.000  0.000     2.167     2.302
 354   1 H      0.045  0.955  0.000  0.000     2.377     2.411
 355   1 H      0.055  0.945  0.000  0.000     2.258     2.350
 356   1 H      0.043  0.957  0.000  0.000     2.408     2.427
 357   1 H      0.045  0.955  0.000  0.000     2.387     2.416
 358   1 H      0.052  0.948  0.000  0.000     2.297     2.370
 359   1 H      0.040  0.960  0.000  0.000     2.451     2.448
 360   1 H      0.021  0.979  0.000  0.000     2.714     2.576
 361   7 N     -0.388  1.315  4.074  0.000    30.048     8.141
 362   6 C      0.033  1.061  2.906  0.000    20.036     6.376
 363   6 C      0.196  1.094  2.710  0.000    23.823     7.993
 364   8 O     -0.369  1.739  4.630  0.000    21.078     6.155
 365   6 C     -0.019  1.067  2.952  0.000    20.880     6.499
 366   6 C     -0.060  1.048  3.012  0.000    21.651     6.625
 367   6 C     -0.109  1.036  3.073  0.000    22.637     6.784
 368   6 C     -0.102  1.034  3.068  0.000    22.509     6.766
 369   1 H      0.161  0.839  0.000  0.000     1.329     1.806
 370   1 H      0.062  0.938  0.000  0.000     2.181     2.310
 371   1 H      0.037  0.963  0.000  0.000     2.489     2.467
 372   1 H      0.043  0.957  0.000  0.000     2.406     2.426
 373   1 H      0.033  0.967  0.000  0.000     2.542     2.494
 374   1 H      0.045  0.955  0.000  0.000     2.390     2.417
 375   1 H      0.043  0.957  0.000  0.000     2.409     2.427
 376   1 H      0.045  0.955  0.000  0.000     2.387     2.416
 377   1 H      0.035  0.965  0.000  0.000     2.515     2.480
 378   1 H      0.026  0.974  0.000  0.000     2.642     2.542
 379   1 H      0.040  0.960  0.000  0.000     2.452     2.449
 380   7 N     -0.407  1.319  4.087  0.000    30.560     8.210
 381   6 C      0.050  1.050  2.900  0.000    19.757     6.332
 382   6 C      0.197  1.103  2.700  0.000    23.797     7.989
 383   8 O     -0.382  1.737  4.645  0.000    21.322     6.191
 384   6 C     -0.120  1.043  3.076  0.000    22.842     6.814
 385   1 H      0.196  0.804  0.000  0.000     1.125     1.662
 386   1 H      0.049  0.951  0.000  0.000     2.333     2.389
 387   1 H      0.053  0.947  0.000  0.000     2.281     2.362
 388   1 H      0.073  0.927  0.000  0.000     2.056     2.242
 389   1 H      0.059  0.941  0.000  0.000     2.206     2.323
 390   7 N     -0.393  1.312  4.081  0.000    30.169     8.158
 391   6 C      0.035  1.056  2.909  0.000    20.006     6.371
 392   6 C      0.266  1.051  2.683  0.000    22.516     7.771
 393   8 O     -0.493  1.741  4.752  0.000    23.626     6.517
 394   6 C     -0.072  1.058  3.014  0.000    21.875     6.658
 395   6 C     -0.007  1.055  2.953  0.000    20.674     6.467
 396   6 C     -0.114  1.041  3.073  0.000    22.725     6.796
 397   6 C     -0.113  1.039  3.074  0.000    22.713     6.795
 398   1 H      0.152  0.848  0.000  0.000     1.389     1.846
 399   1 H      0.041  0.959  0.000  0.000     2.439     2.442
 400   1 H      0.043  0.957  0.000  0.000     2.405     2.425
 401   1 H      0.048  0.952  0.000  0.000     2.340     2.392
 402   1 H      0.024  0.976  0.000  0.000     2.676     2.558
 403   1 H      0.041  0.959  0.000  0.000     2.442     2.444
 404   1 H      0.031  0.969  0.000  0.000     2.566     2.505
 405   1 H      0.046  0.954  0.000  0.000     2.373     2.409
 406   1 H      0.041  0.959  0.000  0.000     2.435     2.440
 407   1 H      0.044  0.956  0.000  0.000     2.392     2.419
 408   1 H      0.031  0.969  0.000  0.000     2.570     2.507
 409   7 N     -0.183  1.251  3.933  0.000    24.975     7.422
 410   6 C      0.017  1.066  2.917  0.000    20.296     6.415
 411   6 C      0.202  1.084  2.713  0.000    23.697     7.972
 412   8 O     -0.356  1.755  4.601  0.000    20.815     6.117
 413   6 C      0.116  1.046  2.838  0.000    18.779     6.188
 414   8 O     -0.462  1.709  4.753  0.000    22.090     6.345
 415   6 C     -0.129  1.040  3.089  0.000    23.027     6.843
 416   1 H      0.237  0.763  0.000  0.000     0.936     1.515
 417   1 H      0.088  0.912  0.000  0.000     1.903     2.157
 418   1 H      0.036  0.964  0.000  0.000     2.508     2.477
 419   1 H      0.334  0.666  0.000  0.000     0.628     1.245
 420   1 H      0.073  0.927  0.000  0.000     2.056     2.242
 421   1 H      0.046  0.954  0.000  0.000     2.370     2.408
 422   1 H      0.071  0.929  0.000  0.000     2.079     2.255
 423   7 N     -0.416  1.327  4.089  0.000    30.820     8.245
 424   6 C      0.051  1.057  2.892  0.000    19.734     6.328
 425   6 C      0.205  1.090  2.705  0.000    23.653     7.965
 426   8 O     -0.386  1.752  4.635  0.000    21.408     6.203
 427   6 C     -0.065  1.056  3.009  0.000    21.729     6.635
 428   6 C      0.010  1.085  2.905  0.000    27.785     8.646
 429   6 C     -0.045  1.081  2.964  0.000    29.116     8.849
 430   6 C     -0.030  1.080  2.950  0.000    28.759     8.794
 431   6 C     -0.041  1.080  2.960  0.000    29.007     8.832
 432   6 C     -0.032  1.081  2.951  0.000    28.799     8.800
 433   6 C     -0.040  1.079  2.960  0.000    28.983     8.828
 434   1 H      0.187  0.813  0.000  0.000     1.173     1.696
 435   1 H      0.043  0.957  0.000  0.000     2.415     2.430
 436   1 H      0.070  0.930  0.000  0.000     2.086     2.259
 437   1 H      0.043  0.957  0.000  0.000     2.414     2.429
 438   1 H      0.043  0.957  0.000  0.000     2.410     2.428
 439   1 H      0.007  0.993  0.000  0.000     2.945     2.683
 440   1 H      0.062  0.938  0.000  0.000     2.170     2.304
 441   1 H      0.025  0.975  0.000  0.000     2.654     2.548
 442   1 H      0.048  0.952  0.000  0.000     2.350     2.397
 443   1 H      0.177  0.823  0.000  0.000     1.233     1.739
 444   1 H      0.053  0.947  0.000  0.000     2.280     2.361
 445   1 H      0.181  0.819  0.000  0.000     1.207     1.721
 446   1 H      0.069  0.931  0.000  0.000     2.097     2.264
 447   1 H      0.185  0.815  0.000  0.000     1.183     1.704
 448   1 H      0.070  0.930  0.000  0.000     2.082     2.257
 449   1 H      0.183  0.817  0.000  0.000     1.195     1.712
 450   1 H      0.072  0.928  0.000  0.000     2.059     2.244
 451   1 H      0.180  0.820  0.000  0.000     1.216     1.727
 452   1 H      0.070  0.930  0.000  0.000     2.083     2.257
 453   1 H      0.162  0.838  0.000  0.000     1.321     1.800
 454   1 H      0.067  0.933  0.000  0.000     2.119     2.276
 455   1 H      0.186  0.814  0.000  0.000     1.180     1.701
 456   1 H      0.072  0.928  0.000  0.000     2.059     2.244
 457   1 H      0.175  0.825  0.000  0.000     1.244     1.747
 458   1 H      0.082  0.918  0.000  0.000     1.954     2.186
 459   1 H      0.178  0.822  0.000  0.000     1.222     1.732
 460   1 H      0.072  0.928  0.000  0.000     2.059     2.244
 461   1 H      0.178  0.822  0.000  0.000     1.226     1.735
 462   1 H      0.061  0.939  0.000  0.000     2.189     2.314

 Mol. C6AA /au·bohr⁶  :    1884050.228478
 Mol. C8AA /au·bohr⁸  :   42301280.969012
 Mol. α(0) /au        :       2068.484165

 
molecular dipole:
                 x           y           z       tot (Debye)
 q only:       27.511      57.566     113.952
   full:       27.602      58.648     115.131     335.833
molecular quadrupole (traceless):
                xx          xy          yy          xz          yz          zz
 q only:    -7097.999    2423.521   -2921.608    5650.698    9972.879   10019.606
  q+dip:    -7268.647    2527.587   -2866.654    5794.004   10238.999   10135.301
   full:    -7258.533    2532.149   -2872.730    5789.486   10238.477   10131.263
speedup  1.00
cpu  time for grad   10.52 s
wall time for grad   10.52 s

SCC energy    :    -661.0868371
rep           :       8.6334104
ES            :       1.4193196
AES           :       0.0048896
AXC           :       0.2756050
disp          :      -0.5616656
XB            :       0.0000000
fix           :       0.0000000
Gborn         :       0.0000000
Gsasa         :       0.0000000
Ghb           :       0.0000000
Gshift        :       0.0000000
Gsolv         :      -0.3466052     -217.50
Etot ala COSMO:    -661.0868371
grad norm     :       0.7013314
total E       :    -652.4079125
atomizationE  :     125.5217107    78766.06
(atE without considering molecular charge,
 total energy contains solvation terms)
H-L gap (eV)  :          0.9468

------------------------------------------------------------------------
 * finished run on 2019/03/14 at 15:08:31.404     
------------------------------------------------------------------------
 total:
 * wall-time:     0 d,  0 h,  0 min, 11.640 sec
 *  cpu-time:     0 d,  0 h,  0 min, 11.476 sec
 * ratio c/w:     0.986 speedup
 SCF:
 * wall-time:     0 d,  0 h,  0 min, 11.253 sec
 *  cpu-time:     0 d,  0 h,  0 min, 11.251 sec
 * ratio c/w:     1.000 speedup

