      -----------------------------------------------------------      
     |                   =====================                   |     
     |                           x T B                           |     
     |                   =====================                   |     
     |                         S. Grimme                         |     
     |          Mulliken Center for Theoretical Chemistry        |     
     |                    University of Bonn                     |     
     |                Version 6.1 RC1 (SAW190329)                |     
      -----------------------------------------------------------      

   This program is distributed in the hope that it will be useful,
   but WITHOUT ANY WARRANTY; without even the implied warranty of
   MERCHANTABILITY or FITNESS FOR A PARTICULAR PURPOSE.
   
   FOR NON-COMMERCIAL, ACADEMIA USE ONLY.
   
   Cite this work as:
   S. Grimme, C. Bannwarth, P. Shushkov, J. Comput. Theory Chem., 2017,
   13, 1989-2009. DOI: 10.1021/acs.jctc.7b00118
   C. Bannwarth, S. Ehlert and S. Grimme., J. Comput. Theory Chem., 2019,
   just accepted. DOI: 10.1021/acs.jctc.8b01176
   
   for sTDA-xTB:
   S. Grimme and C. Bannwarth, J. Chem. Phys., 2016, 145, 054103.
   DOI: 10.1063/1.4959605
   
   in the mass-spec context:
   V. Asgeirsson, C. Bauer and S. Grimme, Chem. Sci., 2017, 8, 4879.
   DOI: 10.1039/c7sc00601b
   
   for metadynamics refer to:
   S. Grimme, ChemRxiv, Preprint. DOI: 10.26434/chemrxiv.7660532.v1
   
   with help from (in alphabetical order)
   C. Bannwarth, F. Bohle, G. Brandenburg, E. Caldeweyher, M. Checinski,
   S. Dohm, S. Ehlert, S. Ehrlich, F. März, H. Neugebauer, J. Pisarek,
   P. Pracht, P. Shushkov, and S. Spicher.
   
 * started run on 2019/05/31 at 02:07:10.824     

           -------------------------------------------------
          |                Calculation Setup                |
           -------------------------------------------------

          program call               : /home/lum/qr/xtb-190329/bin/xtb xtb_tmp.xyz --chrg 0 --grad --gfn 2 --etemp 500 --acc 0.1 --gbsa h2o --parallel 4
          hostname                   : cu39
          coordinate file            : xtb_tmp.xyz
          omp threads                :                     4
          number of atoms            :                   446
          number of electrons        :                  1180
          charge                     :                     0
          spin                       :                   0.0
          first test random number   :      0.69479003225320


molecular fragmentation (1/2 indicates fragments):
111111111122222222222222222222222222222222222222222222222222222222222222
222222222222222222222222222222222222222222222222222222222222222222222222
222222222222222222222222222222222222222222222222222222222222222222222222
222222222222222222222222222222222222222222222222222222222222222222222222
222222222222222222222222222222222222222222222222222222222222222222222222
222222222222222222222222222222222222222222222222222222222222222222221122
22222222222222
# atoms in fragment 1/2:    12   434
 fragment masses (1/2) :       73.09     2905.57
CMA distance (Bohr)    :  23.070
constraining FC (au)   :  0.0500

########################################################################
# WARNING! Please study the warnings concerning your input carefully
#  - XTBPATH is not set, using XTBHOME instead
#  - Process number higher than OMP_NUM_THREADS, I hope you know what you are doing.
########################################################################

           ------------------------------------------------- 
          |                 G F N 2 - x T B                 |
          | Geometry, Frequencies, Noncovalent interactions |
          |            JCTC 2018 parametrisation            |
           ------------------------------------------------- 
 
             k(s)              :                1.8500
             k(p)              :                2.2300
             k(d)              :                2.2300
             k(f)              :                2.0000
             kEN (H0ij)        :               -2.0000
             D4 a1             :                0.5200
             D4 a2             :                5.0000
             D4 s6             :                1.0000
             D4 s8             :                2.7000
             D4 s9             :                5.0000
             alphaj            :                2.0000

  Z AO/shell   Hii/eV     exponent
  1     Wed Apr 25 08:07:45 CEST 2018   EN: 2.200 GM2: 0.406  GM3: 0.0800  RAES: 1.40
     1s    -10.707211    1.230000
  6     Wed Apr 25 08:07:45 CEST 2018   EN: 2.550 GM2: 0.538  GM3: 0.1500  RAES: 3.00
     2s    -13.970922    2.096432
     2p    -10.063292    1.800000
  7     Wed Apr 25 08:07:45 CEST 2018   EN: 3.040 GM2: 0.461  GM3:-0.0640  RAES: 1.90
     2s    -16.686243    2.339881
     2p    -12.523956    2.014332
  8     Wed Apr 25 08:07:45 CEST 2018   EN: 3.440 GM2: 0.452  GM3:-0.0517  RAES: 1.80
     2s    -20.229985    2.439742
     2p    -15.503117    2.137023
 16     Tue Apr 24 11:44:34 CEST 2018   EN: 2.580 GM2: 0.340  GM3:-0.0502  RAES: 3.10
     3s    -20.029654    1.981333
     3p    -11.377694    2.025643
     3d     -0.420282    1.702555

 Solvent             : h2o
 Using internal parameter file: .param_gbsa2_h2o
 Gsolv ref. state (COSMO-RS): gsolv [1 M gas/solution]
 temperature (mdtemp)       :    298.150000000000     
 dielectric constant        :    80.2000000000000     
 rho                        :    1.00000000000000     
 mass                       :    18.0000000000000     
 surface tension            :    15.5689454083859     
 probe radius               :   0.975313790000000     
 vdW radii scaling          :    1.00000000000000     
 Gshift (Eh)                :   1.857443126794793E-003
 c1                         :    1.55243817000000     
 soset                      :   0.130326360000000     
 HB correction              :  T
 Number of grid points      :          230

            Z     q(EN)     CN     RAES       Cart. coordinates
     1  N   5.0   -0.66    3.00    1.93    49.11375    42.18902    44.97968
     2  C   4.0    0.07    3.98    3.58    51.49028    42.62986    43.70762
     3  C   4.0    0.08    3.00    3.02    53.31948    40.46970    44.25716
     4  O   6.0   -0.37    1.00    1.80    53.13524    39.14597    46.14851
     5  C   4.0   -0.22    3.98    3.59    52.70692    45.11755    44.55390
     6  H   1.0    0.28    1.00    1.43    49.09568    42.18758    46.89631
     7  H   1.0    0.13    0.99    1.43    51.07882    42.73918    41.68031
     8  H   1.0    0.10    0.99    1.43    54.49782    45.39430    43.58320
     9  H   1.0    0.11    0.99    1.43    51.46380    46.67961    44.07294
    10  H   1.0    0.11    0.99    1.43    53.05039    45.10740    46.58123
    11  N   5.0   -0.71    3.00    1.93    65.49354    41.94387    41.16286
    12  C   4.0    0.07    3.98    3.59    65.01431    44.01475    39.45029
    13  C   4.0    0.28    3.01    3.02    64.74485    46.49515    40.89047
    14  O   6.0   -0.46    1.00    1.80    65.85729    48.41342    40.19732
    15  C   4.0   -0.13    3.99    3.60    62.60133    43.46958    37.96939
    16  C   4.0   -0.11    3.97    3.58    61.89539    45.50956    36.07656
    17  C   4.0    0.31    2.99    3.02    59.50009    44.58905    34.60496
    18  O   6.0   -0.40    1.00    1.80    57.60610    44.08431    35.91079
    19  O   6.0   -0.38    1.00    1.80    59.70050    44.39276    32.27073
    20  H   1.0    0.26    1.00    1.43    64.66873    40.25295    40.71879
    21  H   1.0    0.11    0.99    1.43    66.61024    44.24273    38.13199
    22  H   1.0    0.12    0.99    1.43    62.84341    41.67156    36.97837
    23  H   1.0    0.13    0.99    1.43    61.04250    43.23734    39.30282
    24  H   1.0    0.12    0.99    1.43    61.45252    47.28099    37.04303
    25  H   1.0    0.12    0.99    1.43    63.42122    45.84719    34.73133
    26  N   5.0   -0.49    3.01    1.93    63.13534    46.46398    42.82331
    27  C   4.0    0.06    3.99    3.60    62.51441    48.75045    44.19818
    28  C   4.0    0.09    3.00    3.02    64.87192    49.87182    45.44599
    29  O   6.0   -0.45    1.00    1.80    65.42255    52.10803    45.16307
    30  C   4.0   -0.15    3.99    3.60    60.45537    48.18578    46.13694
    31  C   4.0   -0.10    3.98    3.58    59.70408    50.46517    47.76414
    32  C   4.0   -0.23    3.98    3.59    58.80015    52.68886    46.16473
    33  C   4.0   -0.23    3.99    3.59    57.63792    49.65809    49.61010
    34  H   1.0    0.24    1.00    1.43    62.25694    44.83884    43.31504
    35  H   1.0    0.13    0.99    1.43    61.86440    50.15992    42.81847
    36  H   1.0    0.10    0.99    1.43    58.80598    47.48428    45.10946
    37  H   1.0    0.11    0.99    1.43    61.14188    46.65726    47.34405
    38  H   1.0    0.13    0.99    1.43    61.37029    51.07968    48.82408
    39  H   1.0    0.09    0.99    1.43    58.02967    54.15806    47.37402
    40  H   1.0    0.11    0.99    1.43    60.35654    53.50056    45.09801
    41  H   1.0    0.09    0.99    1.43    57.33817    52.08807    44.85025
    42  H   1.0    0.10    0.99    1.43    57.11904    51.23104    50.82140
    43  H   1.0    0.10    0.99    1.43    55.97581    49.04509    48.57001
    44  H   1.0    0.11    0.99    1.43    58.29700    48.10626    50.78125
    45  N   5.0   -0.69    3.00    1.93    68.99374    52.75975    40.68485
    46  C   4.0    0.08    3.99    3.59    68.01488    55.16800    39.81373
    47  C   4.0    0.29    3.01    3.02    68.80402    57.25092    41.65283
    48  O   6.0   -0.46    1.00    1.80    69.93144    59.14319    40.93898
    49  C   4.0   -0.13    3.99    3.60    65.13974    55.06798    39.56726
    50  C   4.0   -0.10    3.98    3.58    63.93940    57.66086    39.06198
    51  C   4.0   -0.21    3.98    3.59    65.02075    58.90388    36.69389
    52  C   4.0   -0.22    3.98    3.59    61.07844    57.37536    38.83362
    53  H   1.0    0.33    1.00    1.43    67.76198    51.30108    40.86518
    54  H   1.0    0.11    0.99    1.43    68.89521    55.61451    37.99030
    55  H   1.0    0.11    0.99    1.43    64.65602    53.75887    38.04657
    56  H   1.0    0.14    0.99    1.43    64.37789    54.29507    41.32195
    57  H   1.0    0.13    0.99    1.43    64.32476    58.89206    40.68050
    58  H   1.0    0.12    0.99    1.43    64.01142    60.64480    36.28476
    59  H   1.0    0.12    0.99    1.43    67.00147    59.37659    36.95343
    60  H   1.0    0.11    0.99    1.43    64.83354    57.64340    35.08137
    61  H   1.0    0.12    0.99    1.43    60.21198    59.21370    38.54476
    62  H   1.0    0.11    0.99    1.43    60.58297    56.16059    37.24886
    63  H   1.0    0.10    0.99    1.43    60.29886    56.54963    40.54602
    64  N   5.0   -0.48    3.01    1.93    68.12618    56.84848    44.04122
    65  C   4.0    0.07    4.01    3.65    68.67998    58.64055    46.02871
    66  C   4.0    0.09    3.00    3.02    71.46099    59.47665    45.92475
    67  O   6.0   -0.42    1.00    1.80    72.08203    61.69186    46.03620
    68  C   4.0   -0.12    3.98    3.59    68.15602    57.43721    48.59007
    69  S   6.0   -0.19    2.02    3.10    64.80784    56.77852    49.08812
    70  H   1.0    0.30    1.00    1.43    67.19049    55.24463    44.52255
    71  H   1.0    0.12    0.99    1.43    67.51914    60.34310    45.76948
    72  H   1.0    0.13    0.99    1.43    69.09930    55.60911    48.69730
    73  H   1.0    0.11    0.99    1.43    68.80335    58.65143    50.11467
    74  H   1.0    0.10    1.00    1.43    64.19894    59.12321    49.78942
    75  N   5.0   -0.69    3.00    1.93    73.23822    63.41928    40.09222
    76  C   4.0    0.07    3.98    3.58    72.04589    65.88120    40.26916
    77  C   4.0    0.08    3.00    3.02    73.71102    67.78035    41.65193
    78  O   6.0   -0.42    1.00    1.80    73.72490    70.02685    41.07843
    79  C   4.0   -0.20    3.99    3.60    69.53963    65.58395    41.65614
    80  H   1.0    0.33    1.00    1.43    72.17022    61.91095    40.59840
    81  H   1.0    0.12    0.99    1.43    71.74633    66.64796    38.36383
    82  H   1.0    0.09    0.99    1.43    68.62964    67.40699    41.89418
    83  H   1.0    0.11    0.99    1.43    68.30526    64.33626    40.58898
    84  H   1.0    0.14    0.99    1.43    69.88967    64.74448    43.49909
    85  N   5.0   -0.72    3.00    1.93    63.32396    79.58950    32.80621
    86  C   4.0    0.06    3.98    3.59    61.12759    79.36501    34.43734
    87  C   4.0    0.28    3.01    3.02    59.13424    77.67742    33.17585
    88  O   6.0   -0.46    1.00    1.80    58.20346    75.85214    34.25422
    89  C   4.0   -0.13    3.98    3.59    60.02191    81.96690    35.05300
    90  C   4.0   -0.15    3.98    3.58    61.77966    83.52623    36.74358
    91  C   4.0   -0.03    3.98    3.59    60.41411    85.76059    37.98819
    92  N   5.0   -0.47    3.02    1.93    59.66630    87.71337    36.20832
    93  C   4.0    0.37    3.00    3.02    61.14424    89.59575    35.42178
    94  N   5.0   -0.64    3.01    1.93    63.57431    89.72436    36.02558
    95  N   5.0   -0.64    3.02    1.93    60.13821    91.34322    33.91149
    96  H   1.0    0.25    1.00    1.43    64.02574    81.34044    32.47640
    97  H   1.0    0.10    0.99    1.43    61.68558    78.37613    36.17406
    98  H   1.0    0.13    0.99    1.43    59.66009    82.96234    33.28790
    99  H   1.0    0.12    0.99    1.43    58.22408    81.68349    36.02207
   100  H   1.0    0.09    0.99    1.43    62.50224    82.33896    38.26463
   101  H   1.0    0.11    0.99    1.43    63.39476    84.21687    35.66977
   102  H   1.0    0.13    0.99    1.43    58.68710    85.08223    38.88614
   103  H   1.0    0.11    0.99    1.43    61.64744    86.56498    39.43660
   104  H   1.0    0.25    1.00    1.43    57.78289    87.97131    35.93431
   105  H   1.0    0.25    1.00    1.43    64.47567    88.34553    37.00235
   106  H   1.0    0.26    1.00    1.43    64.69936    91.08447    35.29225
   107  H   1.0    0.26    1.00    1.43    58.26618    91.28763    33.48672
   108  H   1.0    0.27    1.00    1.43    61.16433    92.85214    33.37953
   109  N   5.0   -0.47    3.01    1.93    58.44880    78.45722    30.87801
   110  C   4.0    0.10    4.00    3.61    56.49466    77.20459    29.42966
   111  C   4.0    0.28    3.01    3.02    57.08389    74.38684    29.09856
   112  O   6.0   -0.44    1.00    1.80    55.57689    72.72709    29.67776
   113  C   4.0    0.02    3.98    3.59    56.26717    78.50006    26.83958
   114  O   6.0   -0.47    1.99    1.82    55.71588    81.08017    27.26998
   115  C   4.0   -0.21    3.98    3.59    54.21970    77.24914    25.23829
   116  H   1.0    0.26    1.00    1.43    59.34235    79.94336    30.05397
   117  H   1.0    0.15    0.99    1.43    54.69503    77.33450    30.45374
   118  H   1.0    0.11    0.99    1.43    58.11488    78.34495    25.89783
   119  H   1.0    0.25    0.99    1.43    55.38933    81.83543    25.63855
   120  H   1.0    0.11    0.99    1.43    54.15483    78.10439    23.37289
   121  H   1.0    0.12    0.99    1.43    54.62204    75.24857    25.03646
   122  H   1.0    0.13    0.99    1.43    52.39893    77.45827    26.16589
   123  N   5.0   -0.50    3.01    1.93    59.30089    73.92118    27.98122
   124  C   4.0    0.07    4.00    3.62    60.06482    71.36626    27.35951
   125  C   4.0    0.30    3.01    3.02    59.81602    69.63528    29.65538
   126  O   6.0   -0.47    1.00    1.80    58.74204    67.57976    29.49618
   127  C   4.0   -0.10    3.98    3.59    62.78665    71.32746    26.33890
   128  C   4.0   -0.22    3.98    3.59    63.78971    68.62521    26.18778
   129  C   4.0   -0.23    3.98    3.59    62.89216    72.57823    23.74021
   130  H   1.0    0.23    1.00    1.43    60.59065    75.32087    27.74021
   131  H   1.0    0.12    0.99    1.43    58.77418    70.60542    25.92092
   132  H   1.0    0.11    0.99    1.43    63.96035    72.39651    27.66311
   133  H   1.0    0.10    0.99    1.43    65.65982    68.61261    25.34062
   134  H   1.0    0.13    0.99    1.43    63.93291    67.77086    28.05194
   135  H   1.0    0.11    0.99    1.43    62.54746    67.45806    25.03934
   136  H   1.0    0.10    0.99    1.43    64.81063    72.49301    23.01542
   137  H   1.0    0.10    0.99    1.43    61.66092    71.59075    22.42731
   138  H   1.0    0.10    0.99    1.43    62.33180    74.54600    23.86234
   139  N   5.0   -0.48    3.01    1.93    60.91193    70.49468    31.74567
   140  C   4.0    0.08    4.00    3.62    61.16977    68.92762    33.97065
   141  C   4.0    0.29    3.01    3.02    58.60316    68.52412    35.21955
   142  O   6.0   -0.45    1.00    1.80    57.94199    66.43211    35.98417
   143  C   4.0   -0.09    3.98    3.59    63.16181    70.04327    35.75582
   144  C   4.0   -0.23    3.99    3.60    63.38142    68.41825    38.11937
   145  C   4.0   -0.22    3.99    3.59    65.70867    70.14692    34.39595
   146  H   1.0    0.24    1.00    1.43    61.70609    72.23821    31.78537
   147  H   1.0    0.15    0.99    1.43    61.82024    67.04635    33.38063
   148  H   1.0    0.12    0.99    1.43    62.54519    71.94789    36.28543
   149  H   1.0    0.09    0.99    1.43    64.73836    69.23795    39.42362
   150  H   1.0    0.11    0.99    1.43    61.56862    68.26612    39.06742
   151  H   1.0    0.11    0.99    1.43    64.00973    66.52807    37.61065
   152  H   1.0    0.10    0.99    1.43    67.22373    70.51692    35.73158
   153  H   1.0    0.13    0.99    1.43    66.08058    68.33273    33.50703
   154  H   1.0    0.10    0.99    1.43    65.71726    71.61628    32.96601
   155  N   5.0   -0.47    3.01    1.93    57.10164    70.54908    35.37052
   156  C   4.0    0.07    4.00    3.62    54.55675    70.29961    36.35634
   157  C   4.0    0.30    3.01    3.02    53.21391    68.12070    34.99599
   158  O   6.0   -0.45    1.00    1.80    52.09544    66.44397    36.14133
   159  C   4.0   -0.13    3.99    3.60    53.12054    72.77549    35.99516
   160  C   4.0   -0.12    3.98    3.59    50.54226    72.73805    37.29653
   161  C   4.0    0.28    3.00    3.02    48.97403    74.99996    36.46464
   162  O   6.0   -0.38    1.00    1.80    48.65452    75.52149    34.24211
   163  N   5.0   -0.65    3.00    1.93    47.95674    76.36501    38.34276
   164  H   1.0    0.30    1.00    1.43    57.66044    72.30502    34.83596
   165  H   1.0    0.12    0.99    1.43    54.64315    69.81221    38.37303
   166  H   1.0    0.13    0.99    1.43    54.26477    74.30112    36.77421
   167  H   1.0    0.16    0.99    1.43    52.85133    73.13159    33.98198
   168  H   1.0    0.12    0.99    1.43    49.52160    71.03384    36.73447
   169  H   1.0    0.10    0.99    1.43    50.75644    72.72081    39.34172
   170  H   1.0    0.30    1.00    1.43    48.27121    75.98903    40.18540
   171  H   1.0    0.30    1.00    1.43    46.88398    77.87626    37.89972
   172  N   5.0   -0.47    3.01    1.93    53.29687    68.28276    32.47919
   173  C   4.0    0.08    4.00    3.61    52.16139    66.37361    30.87383
   174  C   4.0    0.31    3.02    3.02    53.20610    63.77796    31.57476
   175  O   6.0   -0.45    1.00    1.80    51.79929    62.04958    32.24893
   176  C   4.0   -0.14    3.98    3.59    52.64712    66.93818    28.08977
   177  C   4.0   -0.15    3.98    3.59    51.04516    69.16199    27.18156
   178  C   4.0   -0.04    3.99    3.60    51.58083    69.75248    24.41222
   179  N   5.0   -0.48    3.02    1.93    49.96915    71.81178    23.58173
   180  C   4.0    0.37    3.00    3.02    50.11035    72.96539    21.35547
   181  N   5.0   -0.65    3.02    1.93    51.88759    72.34446    19.69457
   182  N   5.0   -0.65    3.02    1.93    48.50849    74.83276    20.82814
   183  H   1.0    0.29    1.00    1.43    54.26853    69.69765    31.62531
   184  H   1.0    0.13    0.99    1.43    50.11960    66.29991    31.24976
   185  H   1.0    0.14    0.99    1.43    54.65303    67.35067    27.85818
   186  H   1.0    0.14    0.99    1.43    52.22017    65.22690    27.01547
   187  H   1.0    0.12    0.99    1.43    49.05682    68.67512    27.42742
   188  H   1.0    0.14    0.99    1.43    51.47628    70.81681    28.33341
   189  H   1.0    0.12    0.99    1.43    53.56557    70.30039    24.22380
   190  H   1.0    0.12    0.99    1.43    51.24416    68.04530    23.28976
   191  H   1.0    0.24    1.00    1.43    48.56607    72.30138    24.78365
   192  H   1.0    0.26    1.00    1.43    53.00250    70.83225    19.97921
   193  H   1.0    0.26    1.00    1.43    51.93904    73.17889    17.97852
   194  H   1.0    0.26    1.00    1.43    47.15508    75.33934    22.06537
   195  H   1.0    0.26    1.00    1.43    48.55506    75.70816    19.13960
   196  N   5.0   -0.46    3.01    1.93    55.70449    63.54941    31.50576
   197  C   4.0    0.08    4.00    3.62    56.88727    61.12213    31.94917
   198  C   4.0    0.30    3.01    3.02    55.69153    59.85012    34.25586
   199  O   6.0   -0.43    1.00    1.80    54.92710    57.66492    34.17863
   200  C   4.0   -0.14    3.99    3.60    59.72858    61.40387    32.36208
   201  C   4.0   -0.12    3.98    3.59    61.13544    61.99120    29.90716
   202  C   4.0    0.26    3.00    3.02    63.88560    62.61685    30.43823
   203  O   6.0   -0.45    1.00    1.80    64.51370    64.18249    32.01438
   204  N   5.0   -0.66    3.00    1.93    65.58386    61.41624    28.99579
   205  H   1.0    0.30    1.00    1.43    56.80384    64.99912    30.88387
   206  H   1.0    0.14    0.99    1.43    56.50938    59.86755    30.33085
   207  H   1.0    0.15    0.99    1.43    60.04398    62.91555    33.72904
   208  H   1.0    0.10    0.99    1.43    60.44186    59.64303    33.16710
   209  H   1.0    0.11    0.99    1.43    60.96201    60.41003    28.60139
   210  H   1.0    0.14    0.99    1.43    60.28784    63.65710    29.03150
   211  H   1.0    0.26    1.00    1.43    65.07402    60.05531    27.77263
   212  H   1.0    0.28    1.00    1.43    67.43671    61.73463    29.30478
   213  N   5.0   -0.48    3.01    1.93    55.67740    61.24328    36.36633
   214  C   4.0    0.07    4.00    3.62    54.57020    60.23628    38.66183
   215  C   4.0    0.29    3.01    3.02    51.86058    59.36663    38.18013
   216  O   6.0   -0.46    1.00    1.80    51.16787    57.21180    38.66400
   217  C   4.0   -0.14    3.99    3.60    54.61249    62.17973    40.81304
   218  C   4.0   -0.04    3.03    3.02    57.10028    62.16255    42.18817
   219  C   4.0   -0.12    3.03    3.02    57.63118    60.24333    43.90211
   220  C   4.0   -0.10    3.03    3.02    58.90181    64.01628    41.75320
   221  C   4.0   -0.12    3.03    3.02    59.92013    60.18048    45.16073
   222  C   4.0   -0.12    3.03    3.02    61.19363    63.96138    43.01591
   223  C   4.0   -0.12    3.03    3.02    61.70072    62.04637    44.72135
   224  H   1.0    0.30    1.00    1.43    56.26135    63.06717    36.32828
   225  H   1.0    0.12    0.99    1.43    55.61859    58.52852    39.20496
   226  H   1.0    0.13    0.99    1.43    54.22085    64.03752    40.00952
   227  H   1.0    0.10    0.99    1.43    53.10397    61.69009    42.13388
   228  H   1.0    0.10    0.99    1.43    56.24114    58.78453    44.23053
   229  H   1.0    0.13    1.00    1.43    58.50480    65.48715    40.39638
   230  H   1.0    0.11    1.00    1.43    60.31691    58.67544    46.47632
   231  H   1.0    0.10    1.00    1.43    62.59012    65.40488    42.66293
   232  H   1.0    0.10    1.00    1.43    63.48578    62.01306    45.70805
   233  N   5.0   -0.49    3.01    1.93    50.26826    61.14392    37.35760
   234  C   4.0    0.08    3.99    3.61    47.61434    60.56072    37.02689
   235  C   4.0    0.31    3.01    3.02    47.21301    57.99378    35.73488
   236  O   6.0   -0.42    1.00    1.80    45.49654    56.57964    36.37894
   237  C   4.0   -0.01    3.98    3.58    46.28811    62.68394    35.55325
   238  O   6.0   -0.47    1.99    1.82    46.74081    62.67893    32.94741
   239  H   1.0    0.29    1.00    1.43    50.90827    62.88092    36.85670
   240  H   1.0    0.10    0.99    1.43    46.71236    60.41614    38.89322
   241  H   1.0    0.12    0.99    1.43    44.24546    62.48050    35.77692
   242  H   1.0    0.12    0.99    1.43    46.89053    64.49246    36.38938
   243  H   1.0    0.31    0.99    1.43    48.56803    62.53330    32.65765
   244  N   5.0   -0.47    3.01    1.93    48.79345    57.49818    33.83621
   245  C   4.0    0.08    3.99    3.60    48.53159    55.37601    32.15393
   246  C   4.0    0.28    3.01    3.02    49.18531    52.79700    33.28517
   247  O   6.0   -0.44    1.00    1.80    48.74751    50.88937    32.03444
   248  C   4.0   -0.13    3.99    3.60    50.21184    55.83295    29.83654
   249  C   4.0   -0.10    3.97    3.58    49.24409    57.96571    28.15971
   250  C   4.0    0.32    2.99    3.02    51.27737    58.65157    26.13564
   251  O   6.0   -0.38    1.00    1.80    51.93624    56.93603    24.65974
   252  O   6.0   -0.40    1.00    1.80    52.08733    60.86569    26.14118
   253  H   1.0    0.30    1.00    1.43    50.21046    58.70928    33.42494
   254  H   1.0    0.14    0.99    1.43    46.54128    55.24226    31.56483
   255  H   1.0    0.15    0.99    1.43    52.11439    56.28413    30.51337
   256  H   1.0    0.14    0.99    1.43    50.35099    54.10604    28.72081
   257  H   1.0    0.12    0.99    1.43    47.52315    57.37429    27.18534
   258  H   1.0    0.15    0.99    1.43    48.83985    59.65576    29.26420
   259  N   5.0   -0.48    3.00    1.93    50.17763    52.69530    35.59984
   260  C   4.0    0.09    4.00    3.62    51.01087    50.29992    36.62111
   261  C   4.0    0.27    3.01    3.02    48.92598    48.84112    37.98773
   262  O   6.0   -0.44    1.00    1.80    49.16776    46.58717    38.45636
   263  C   4.0   -0.09    3.98    3.59    53.29358    50.51780    38.41568
   264  C   4.0   -0.21    3.98    3.59    55.49689    51.83699    37.10703
   265  C   4.0   -0.21    3.98    3.59    52.59603    51.82368    40.88803
   266  H   1.0    0.30    1.00    1.43    50.58997    54.29283    36.57264
   267  H   1.0    0.15    0.99    1.43    51.58836    49.11802    35.01494
   268  H   1.0    0.12    0.99    1.43    53.86248    48.56462    38.81432
   269  H   1.0    0.10    0.99    1.43    57.08454    52.00741    38.39988
   270  H   1.0    0.12    0.99    1.43    56.12195    50.74462    35.47816
   271  H   1.0    0.15    0.99    1.43    54.97698    53.71882    36.46509
   272  H   1.0    0.09    0.99    1.43    54.22680    51.85364    42.13396
   273  H   1.0    0.15    0.99    1.43    51.99837    53.75585    40.55694
   274  H   1.0    0.13    0.99    1.43    51.06991    50.82617    41.83052
   275  N   5.0   -0.47    3.01    1.93    46.88674    50.14971    38.71339
   276  C   4.0    0.08    4.00    3.63    44.91987    48.94390    40.19816
   277  C   4.0    0.28    3.01    3.02    42.96595    47.75286    38.42353
   278  O   6.0   -0.39    1.00    1.80    41.30929    49.00736    37.38205
   279  C   4.0   -0.12    3.98    3.59    43.74489    50.84476    42.03190
   280  C   4.0   -0.03    3.12    3.03    45.60164    51.44629    44.07117
   281  C   4.0    0.01    3.21    3.04    46.40909    49.85139    45.94011
   282  C   4.0    0.02    3.18    3.03    47.02377    53.72547    44.34321
   283  N   5.0   -0.49    3.10    1.94    48.23951    50.99835    47.35976
   284  C   4.0    0.11    3.22    3.04    48.66173    53.36421    46.43179
   285  C   4.0   -0.09    3.02    3.02    47.05785    56.02646    43.05374
   286  C   4.0   -0.11    3.02    3.02    50.35183    55.22096    47.19880
   287  C   4.0   -0.10    3.03    3.02    48.70298    57.87138    43.85944
   288  C   4.0   -0.12    3.03    3.02    50.35108    57.46609    45.88427
   289  H   1.0    0.28    1.00    1.43    46.65026    51.97421    38.20659
   290  H   1.0    0.13    0.99    1.43    45.83964    47.41481    41.24949
   291  H   1.0    0.13    0.99    1.43    43.21742    52.54441    40.99244
   292  H   1.0    0.12    0.99    1.43    42.01511    50.02656    42.80126
   293  H   1.0    0.11    1.00    1.43    45.80831    47.96070    46.36156
   294  H   1.0    0.23    1.00    1.43    49.11363    50.23511    48.86435
   295  H   1.0    0.14    1.00    1.43    45.83534    56.33787    41.44987
   296  H   1.0    0.10    1.00    1.43    51.61592    54.91704    48.76754
   297  H   1.0    0.11    0.99    1.43    48.74979    59.67865    42.90796
   298  H   1.0    0.10    1.00    1.43    51.64449    58.95074    46.42178
   299  N   5.0   -0.45    3.01    1.93    43.30059    45.28429    38.06916
   300  C   4.0    0.06    3.99    3.60    41.84860    43.78524    36.30274
   301  C   4.0    0.06    3.00    3.02    40.04232    42.04369    37.72139
   302  O   6.0   -0.37    1.00    1.80    40.31940    41.56309    39.98083
   303  C   4.0   -0.15    3.98    3.59    43.66479    42.19096    34.69456
   304  C   4.0   -0.14    3.98    3.58    45.26332    43.78795    32.89017
   305  C   4.0   -0.15    3.98    3.58    43.70147    44.96283    30.75692
   306  C   4.0   -0.05    3.98    3.58    45.18732    46.87186    29.19395
   307  N   5.0   -0.72    3.98    2.82    47.26159    45.62250    27.74889
   308  H   1.0    0.25    1.00    1.43    44.66906    44.34275    39.04637
   309  H   1.0    0.13    0.99    1.43    40.74713    45.08875    35.14396
   310  H   1.0    0.13    0.99    1.43    44.90954    41.19110    35.99872
   311  H   1.0    0.10    0.99    1.43    42.59035    40.78984    33.63962
   312  H   1.0    0.15    0.99    1.43    46.19397    45.27635    33.97214
   313  H   1.0    0.11    0.99    1.43    46.70545    42.53868    32.11437
   314  H   1.0    0.11    0.99    1.43    42.93491    43.48056    29.54598
   315  H   1.0    0.11    0.99    1.43    42.10491    45.98595    31.55743
   316  H   1.0    0.11    0.99    1.43    43.92962    47.80806    27.85883
   317  H   1.0    0.16    0.99    1.43    46.02883    48.30846    30.41287
   318  H   1.0    0.25    1.00    1.43    48.20382    46.93872    26.67113
   319  H   1.0    0.25    1.00    1.43    48.53183    44.83473    28.99398
   320  H   1.0    0.24    1.00    1.43    46.53822    44.22903    26.59579
   321  N   5.0   -0.71    3.00    1.93    51.83605    71.47012    53.62455
   322  C   4.0    0.07    3.98    3.59    53.71688    71.48734    51.62553
   323  C   4.0    0.28    3.01    3.02    52.53083    72.36274    49.13724
   324  O   6.0   -0.43    1.00    1.80    53.41623    74.10321    47.89695
   325  C   4.0   -0.15    3.99    3.60    54.82767    68.82804    51.40690
   326  C   4.0   -0.10    3.98    3.58    56.56294    68.41744    49.12642
   327  C   4.0   -0.23    3.98    3.59    58.72883    70.31707    49.05776
   328  C   4.0   -0.24    3.99    3.59    57.59643    65.72412    49.20286
   329  H   1.0    0.25    1.00    1.43    51.68756    69.86126    54.65998
   330  H   1.0    0.11    0.99    1.43    55.18828    72.87303    52.09096
   331  H   1.0    0.09    0.99    1.43    55.86406    68.42677    53.14734
   332  H   1.0    0.10    0.99    1.43    53.25010    67.50714    51.28784
   333  H   1.0    0.12    0.99    1.43    55.43996    68.64346    47.40289
   334  H   1.0    0.09    0.99    1.43    60.02650    69.83507    47.54273
   335  H   1.0    0.12    0.99    1.43    58.02844    72.21724    48.71211
   336  H   1.0    0.09    0.99    1.43    59.75275    70.29312    50.83767
   337  H   1.0    0.11    0.99    1.43    58.77407    65.35265    47.56312
   338  H   1.0    0.09    0.99    1.43    58.72495    65.45462    50.89885
   339  H   1.0    0.09    0.99    1.43    56.06887    64.35209    49.20679
   340  N   5.0   -0.49    3.01    1.93    50.49583    71.05523    48.41425
   341  C   4.0    0.06    3.99    3.61    49.22873    71.64527    46.06164
   342  C   4.0    0.09    3.00    3.02    48.64615    74.47253    45.90874
   343  O   6.0   -0.46    1.00    1.80    49.04984    75.70979    43.98742
   344  C   4.0   -0.15    3.99    3.60    46.79252    70.11699    45.79243
   345  C   4.0   -0.11    3.98    3.58    47.24009    67.27828    45.37931
   346  C   4.0   -0.23    3.98    3.59    44.71212    65.89268    45.54313
   347  C   4.0   -0.23    3.98    3.59    48.49308    66.74696    42.83416
   348  H   1.0    0.23    1.00    1.43    49.76503    69.68546    49.53638
   349  H   1.0    0.12    0.99    1.43    50.51431    71.23197    44.48734
   350  H   1.0    0.11    0.99    1.43    45.68173    70.40892    47.50707
   351  H   1.0    0.11    0.99    1.43    45.71914    70.88137    44.20369
   352  H   1.0    0.11    0.99    1.43    48.47045    66.58422    46.88753
   353  H   1.0    0.10    0.99    1.43    45.00532    63.87565    45.30502
   354  H   1.0    0.10    0.99    1.43    43.83811    66.24666    47.36784
   355  H   1.0    0.11    0.99    1.43    43.44597    66.55809    44.06798
   356  H   1.0    0.10    0.99    1.43    48.63645    64.72330    42.51951
   357  H   1.0    0.11    0.99    1.43    47.38868    67.56405    41.30513
   358  H   1.0    0.10    0.99    1.43    50.39122    67.52415    42.74740
   359  N   5.0   -0.71    3.00    1.93    54.00614    79.97697    44.78890
   360  C   4.0    0.08    3.98    3.59    54.80300    80.56115    42.24928
   361  C   4.0    0.27    3.01    3.02    53.32685    82.68399    40.95753
   362  O   6.0   -0.44    1.00    1.80    54.29975    83.78261    39.14982
   363  C   4.0   -0.12    4.00    3.61    54.48900    78.23644    40.53946
   364  C   4.0   -0.03    3.03    3.02    56.32718    76.16634    41.17130
   365  C   4.0   -0.09    3.03    3.02    58.88057    76.46845    40.65187
   366  C   4.0   -0.08    3.03    3.02    55.50212    73.92292    42.24330
   367  C   4.0   -0.10    3.03    3.02    60.58132    74.56601    41.20378
   368  C   4.0   -0.10    3.03    3.02    57.19858    72.00430    42.77396
   369  C   4.0   -0.11    3.03    3.02    59.74226    72.33090    42.27233
   370  H   1.0    0.31    1.00    1.43    53.03330    78.36196    45.08739
   371  H   1.0    0.11    0.99    1.43    56.78870    81.15314    42.31326
   372  H   1.0    0.14    0.99    1.43    52.54869    77.56982    40.74315
   373  H   1.0    0.13    0.99    1.43    54.75365    78.84187    38.58180
   374  H   1.0    0.10    1.00    1.43    59.50624    78.21674    39.81700
   375  H   1.0    0.13    1.00    1.43    53.52333    73.70659    42.68567
   376  H   1.0    0.10    1.00    1.43    62.56547    74.82067    40.81695
   377  H   1.0    0.11    1.00    1.43    56.53873    70.25623    43.59133
   378  H   1.0    0.10    1.00    1.43    61.06828    70.85146    42.72541
   379  N   5.0   -0.48    3.00    1.93    50.96295    83.05118    41.71897
   380  C   4.0    0.08    3.99    3.60    49.10130    84.46414    40.28345
   381  C   4.0    0.10    3.00    3.02    49.40165    87.34334    40.55332
   382  O   6.0   -0.36    1.00    1.80    47.87768    88.69759    41.62750
   383  C   4.0   -0.08    3.98    3.59    46.45734    83.66944    41.03057
   384  C   4.0    0.33    2.99    3.02    44.44448    84.60999    39.07176
   385  O   6.0   -0.36    1.00    1.80    45.24209    85.47211    37.03519
   386  O   6.0   -0.35    1.00    1.80    42.19626    84.35525    39.71670
   387  H   1.0    0.26    1.00    1.43    50.35133    82.35621    43.40008
   388  H   1.0    0.15    0.99    1.43    49.38295    84.04301    38.26742
   389  H   1.0    0.12    0.99    1.43    46.32088    81.61381    41.13773
   390  H   1.0    0.14    0.99    1.43    45.95287    84.43696    42.87558
   391  N   5.0   -0.72    3.00    1.93    64.14516    69.52820    54.86775
   392  C   4.0    0.06    3.98    3.59    65.29276    67.25982    53.85254
   393  C   4.0    0.07    3.00    3.02    66.65653    65.87429    55.99601
   394  O   6.0   -0.43    1.00    1.80    66.40371    63.59963    56.32810
   395  C   4.0   -0.09    3.98    3.59    67.10293    67.82577    51.65007
   396  C   4.0   -0.17    3.98    3.59    65.64680    68.90415    49.38799
   397  C   4.0   -0.21    3.98    3.59    68.48346    65.39671    50.92760
   398  C   4.0   -0.24    3.98    3.58    67.38103    69.82842    47.28011
   399  H   1.0    0.25    1.00    1.43    64.52764    71.21922    54.03842
   400  H   1.0    0.10    0.99    1.43    63.79242    65.97516    53.20587
   401  H   1.0    0.12    0.99    1.43    68.47653    69.22250    52.31052
   402  H   1.0    0.09    0.99    1.43    64.37971    67.45206    48.65298
   403  H   1.0    0.10    0.99    1.43    64.49115    70.48609    50.01995
   404  H   1.0    0.12    0.99    1.43    69.77587    65.70524    49.36707
   405  H   1.0    0.13    0.99    1.43    69.56241    64.66839    52.51168
   406  H   1.0    0.10    0.99    1.43    67.12517    63.95488    50.37504
   407  H   1.0    0.09    0.99    1.43    66.26135    70.65326    45.76908
   408  H   1.0    0.11    0.99    1.43    68.66886    71.26006    47.99313
   409  H   1.0    0.10    0.99    1.43    68.49037    68.29295    46.49378
   410  N   5.0   -0.69    3.00    1.93    62.33626    62.59804    60.59254
   411  C   4.0    0.07    3.98    3.58    61.35187    60.28933    59.49082
   412  C   4.0    0.09    3.00    3.02    63.35629    58.20928    59.64260
   413  O   6.0   -0.41    1.00    1.80    62.87347    56.11086    60.51810
   414  C   4.0   -0.14    3.99    3.60    60.51367    60.80597    56.77852
   415  C   4.0   -0.10    3.98    3.58    59.46288    58.48556    55.39554
   416  C   4.0   -0.22    3.98    3.59    57.23697    57.30891    56.80823
   417  C   4.0   -0.24    3.98    3.59    58.64551    59.25404    52.73586
   418  H   1.0    0.27    1.00    1.43    62.40563    64.17530    59.50560
   419  H   1.0    0.12    0.99    1.43    59.75635    59.63897    60.64812
   420  H   1.0    0.09    0.99    1.43    59.07201    62.28296    56.84072
   421  H   1.0    0.13    0.99    1.43    62.14127    61.54484    55.74753
   422  H   1.0    0.13    0.99    1.43    60.96607    57.07110    55.25225
   423  H   1.0    0.10    0.99    1.43    56.36906    55.84344    55.66003
   424  H   1.0    0.12    0.99    1.43    57.85052    56.44686    58.57053
   425  H   1.0    0.10    0.99    1.43    55.81400    58.73090    57.23298
   426  H   1.0    0.09    0.99    1.43    58.03978    57.60826    51.66884
   427  H   1.0    0.09    0.99    1.43    57.08379    60.58410    52.83456
   428  H   1.0    0.09    0.99    1.43    60.19214    60.14460    51.72212
   429  H   1.0    0.29    1.00    1.43    47.99894    43.39342    44.53335
   430  H   1.0    0.13    1.00    1.43    54.72746    40.09461    43.05385
   431  H   1.0    0.30    1.00    1.43    67.16570    41.64170    41.23444
   432  H   1.0    0.14    1.00    1.43    65.98848    48.77926    46.50933
   433  H   1.0    0.30    1.00    1.43    70.18119    52.20418    39.60141
   434  H   1.0    0.15    1.00    1.43    72.83048    58.18491    45.76046
   435  H   1.0    0.30    1.00    1.43    73.71199    63.13218    38.48422
   436  H   1.0    0.15    1.00    1.43    74.82772    67.20574    43.06397
   437  H   1.0    0.29    1.00    1.43    64.61983    78.71453    33.47532
   438  H   1.0    0.12    1.00    1.43    38.58280    41.25589    36.81572
   439  H   1.0    0.30    1.00    1.43    52.18348    72.70465    54.74160
   440  H   1.0    0.14    1.00    1.43    47.91370    75.36846    47.40269
   441  H   1.0    0.31    1.00    1.43    55.36976    79.85574    45.79805
   442  H   1.0    0.15    1.00    1.43    50.91572    88.20782    39.82440
   443  H   1.0    0.28    1.00    1.43    62.45170    69.39074    54.79136
   444  H   1.0    0.14    1.00    1.43    67.78887    66.82992    57.16889
   445  H   1.0    0.29    1.00    1.43    61.38592    63.03774    61.93271
   446  H   1.0    0.15    1.00    1.43    65.10994    58.53982    59.02089

           ------------------------------------------------- 
          |        Self-Consistent Charge Iterations        |
           ------------------------------------------------- 

          ...................................................
          :                      SETUP                      :
          :.................................................:
          :  # basis functions                1079          :
          :  # atomic orbitals                1078          :
          :  # shells                          656          :
          :  # electrons                      1180          :
          :  max. iterations                   250          :
          :  Hamiltonian                  GFN2-xTB          :
          :  restarted?                      false          :
          :  GBSA solvation                   true          :
          :  PC potential                    false          :
          :  electronic temp.          500.0000000     K    :
          :  accuracy                    0.1000000          :
          :  -> integral cutoff          0.3500000E+02      :
          :  -> integral neglect         0.1000000E-08      :
          :  -> SCF convergence          0.1000000E-06 Eh   :
          :  -> wf. convergence          0.1000000E-04 e    :
          :  Broyden damping             0.4000000          :
          ...................................................

 iter      E             dE          RMSdq      gap      omega  full diag
   1   -671.2598930 -0.671260E+03  0.414E+00    1.48       0.0  T
   2   -672.9134053 -0.165351E+01  0.215E+00    1.38       1.0  T
   3   -672.9821909 -0.687856E-01  0.116E+00    1.96       1.0  T
   4   -673.0127238 -0.305330E-01  0.304E-01    1.25       1.0  T
   5   -673.0351625 -0.224387E-01  0.129E-01    1.38       1.0  T
   6   -673.0368366 -0.167409E-02  0.683E-02    1.44       1.0  T
   7   -673.0374487 -0.612079E-03  0.310E-02    1.46       1.0  T
   8   -673.0375421 -0.934389E-04  0.113E-02    1.48       1.0  T
   9   -673.0375525 -0.103795E-04  0.580E-03    1.47       1.0  T
  10   -673.0375559 -0.339075E-05  0.290E-03    1.47       1.6  T
  11   -673.0375567 -0.775615E-06  0.144E-03    1.46       3.3  T
  12   -673.0375569 -0.271689E-06  0.677E-04    1.46       7.0  T
  13   -673.0375570 -0.475056E-07  0.335E-04    1.46      14.1  T
  14   -673.0375570 -0.108449E-07  0.162E-04    1.46      29.3  T
  15   -673.0375570 -0.339412E-08  0.652E-05    1.46      72.7  T
  16   -673.0375570 -0.402906E-09  0.307E-05    1.46     154.0  T

   *** convergence criteria satisfied after 16 iterations ***

         #    Occupation            Energy/Eh            Energy/eV
      -------------------------------------------------------------
         1        2.0000           -0.7401670             -20.1410
       ...           ...                  ...                  ...
       584        2.0000           -0.3629944              -9.8776
       585        2.0000           -0.3595727              -9.7845
       586        2.0000           -0.3590748              -9.7709
       587        2.0000           -0.3590132              -9.7692
       588        2.0000           -0.3545053              -9.6466
       589        2.0000           -0.3541374              -9.6366
       590        2.0000           -0.3539210              -9.6307 (HOMO)
       591        0.0000           -0.3001756              -8.1682 (LUMO)
       592                         -0.2972197              -8.0878
       593                         -0.2893672              -7.8741
       594                         -0.2890801              -7.8663
       595                         -0.2878297              -7.8322
       ...                                ...                  ...
      1078                          0.7213256              19.6283
      -------------------------------------------------------------
                  HL-Gap            0.0537455 Eh            1.4625 eV
             Fermi-level           -0.3263849 Eh           -8.8814 eV

 SCC (total)                   0 d,  0 h,  0 min, 10.607 sec
 SCC setup                      ...        0 min,  0.087 sec (  0.818%)
 Dispersion                     ...        0 min,  0.067 sec (  0.630%)
 integral evaluation            ...        0 min,  0.146 sec (  1.379%)
 zeroth order Hamiltonian       ...        0 min,  0.009 sec (  0.087%)
 iterations                     ...        0 min,  8.394 sec ( 79.140%)
 molecular gradient             ...        0 min,  1.840 sec ( 17.349%)
 printout                       ...        0 min,  0.063 sec (  0.597%)

         :::::::::::::::::::::::::::::::::::::::::::::::::::::
         ::                     SUMMARY                     ::
         :::::::::::::::::::::::::::::::::::::::::::::::::::::
         :: total energy             -664.528854243424 Eh   ::
         :: total w/o Gsasa/hb       -664.443553349116 Eh   ::
         :: gradient norm               0.665204126687 Eh/α ::
         :: HOMO-LUMO gap               1.462488697742 eV   ::
         ::.................................................::
         :: SCC energy               -673.057389030400 Eh   ::
         :: -> isotropic ES             2.059128166319 Eh   ::
         :: -> anisotropic ES          -0.070071566563 Eh   ::
         :: -> anisotropic XC           0.249466424108 Eh   ::
         :: -> dispersion              -0.575076154667 Eh   ::
         :: -> Gsolv                   -0.575748331404 Eh   ::
         ::    -> Gborn                -0.490447437096 Eh   ::
         ::    -> Gsasa                -0.021689467976 Eh   ::
         ::    -> Ghb                  -0.065468869459 Eh   ::
         ::    -> Gshift                0.001857443127 Eh   ::
         :: repulsion energy            8.471881749066 Eh   ::
         :: add. restraining            0.000000000000 Eh   ::
         :::::::::::::::::::::::::::::::::::::::::::::::::::::

           -------------------------------------------------
          |                Property Printout                |
           -------------------------------------------------

    * Orbital Energies and Occupations

         #    Occupation            Energy/Eh            Energy/eV
      -------------------------------------------------------------
         1        2.0000           -0.7401670             -20.1410
       ...           ...                  ...                  ...
       578        2.0000           -0.3736812             -10.1684
       579        2.0000           -0.3735495             -10.1648
       580        2.0000           -0.3729705             -10.1490
       581        2.0000           -0.3702943             -10.0762
       582        2.0000           -0.3679161             -10.0115
       583        2.0000           -0.3657008              -9.9512
       584        2.0000           -0.3629944              -9.8776
       585        2.0000           -0.3595727              -9.7845
       586        2.0000           -0.3590748              -9.7709
       587        2.0000           -0.3590132              -9.7692
       588        2.0000           -0.3545053              -9.6466
       589        2.0000           -0.3541374              -9.6366
       590        2.0000           -0.3539210              -9.6307 (HOMO)
       591        0.0000           -0.3001756              -8.1682 (LUMO)
       592                         -0.2972197              -8.0878
       593                         -0.2893672              -7.8741
       594                         -0.2890801              -7.8663
       595                         -0.2878297              -7.8322
       596                         -0.2791948              -7.5973
       597                         -0.2780185              -7.5653
       598                         -0.2774960              -7.5511
       599                         -0.2774360              -7.5494
       600                         -0.2467469              -6.7143
       601                         -0.2410232              -6.5586
       ...                                ...                  ...
      1078                          0.7213256              19.6283
      -------------------------------------------------------------
                  HL-Gap            0.0537455 Eh            1.4625 eV
             Fermi-level           -0.3263849 Eh           -8.8814 eV

   #   Z        covCN         q      C6AA      α(0)
   1   7 N      2.636    -0.378    29.778     8.104
   2   6 C      3.781     0.042    19.884     6.352
   3   6 C      2.768     0.201    23.715     7.975
   4   8 O      0.856    -0.369    21.073     6.155
   5   6 C      3.756    -0.111    22.680     6.790
   6   1 H      0.860     0.169     1.281     1.773
   7   1 H      0.924     0.065     2.138     2.287
   8   1 H      0.925     0.037     2.491     2.468
   9   1 H      0.925     0.056     2.243     2.342
  10   1 H      0.925     0.058     2.219     2.329
  11   7 N      2.637    -0.396    30.251     8.169
  12   6 C      3.787     0.038    19.953     6.362
  13   6 C      2.760     0.272    22.397     7.750
  14   8 O      0.859    -0.501    23.799     6.541
  15   6 C      3.812    -0.044    21.361     6.579
  16   6 C      3.797    -0.085    22.129     6.698
  17   6 C      2.686     0.370    20.721     7.449
  18   8 O      0.856    -0.636    27.033     6.971
  19   8 O      0.856    -0.651    27.418     7.020
  20   1 H      0.859     0.166     1.300     1.786
  21   1 H      0.923     0.019     2.754     2.595
  22   1 H      0.924     0.026     2.648     2.545
  23   1 H      0.924     0.043     2.404     2.424
  24   1 H      0.924     0.005     2.970     2.695
  25   1 H      0.924     0.007     2.945     2.684
  26   7 N      2.691    -0.168    24.640     7.372
  27   6 C      3.794     0.034    20.014     6.371
  28   6 C      2.765     0.206    23.629     7.961
  29   8 O      0.856    -0.344    20.587     6.083
  30   6 C      3.810    -0.077    21.965     6.671
  31   6 C      3.849    -0.010    20.715     6.474
  32   6 C      3.755    -0.110    22.660     6.787
  33   6 C      3.758    -0.119    22.839     6.814
  34   1 H      0.860     0.219     1.016     1.579
  35   1 H      0.923     0.072     2.063     2.246
  36   1 H      0.924     0.059     2.210     2.325
  37   1 H      0.924     0.065     2.143     2.289
  38   1 H      0.924     0.039     2.457     2.451
  39   1 H      0.925     0.054     2.269     2.356
  40   1 H      0.925     0.034     2.526     2.485
  41   1 H      0.925     0.033     2.545     2.495
  42   1 H      0.925     0.054     2.274     2.358
  43   1 H      0.925     0.046     2.371     2.408
  44   1 H      0.925     0.046     2.369     2.407
  45   7 N      2.636    -0.408    30.594     8.215
  46   6 C      3.788     0.040    19.911     6.355
  47   6 C      2.758     0.273    22.386     7.748
  48   8 O      0.858    -0.494    23.659     6.521
  49   6 C      3.809    -0.067    21.769     6.642
  50   6 C      3.849    -0.008    20.684     6.469
  51   6 C      3.755    -0.107    22.607     6.779
  52   6 C      3.757    -0.101    22.489     6.761
  53   1 H      0.860     0.176     1.239     1.743
  54   1 H      0.924     0.024     2.679     2.560
  55   1 H      0.924     0.027     2.625     2.534
  56   1 H      0.924     0.050     2.315     2.379
  57   1 H      0.924     0.031     2.569     2.506
  58   1 H      0.925     0.040     2.445     2.445
  59   1 H      0.925     0.046     2.377     2.411
  60   1 H      0.925     0.025     2.659     2.550
  61   1 H      0.925     0.035     2.519     2.482
  62   1 H      0.925     0.019     2.755     2.596
  63   1 H      0.925     0.038     2.479     2.462
  64   7 N      2.692    -0.171    24.704     7.382
  65   6 C      3.817     0.035    19.979     6.362
  66   6 C      2.766     0.204    23.657     7.965
  67   8 O      0.856    -0.343    20.583     6.083
  68   6 C      3.802    -0.020    20.933     6.514
  69  16 S      1.917    -0.255   151.996    20.750
  70   1 H      0.860     0.236     0.939     1.518
  71   1 H      0.923     0.081     1.974     2.197
  72   1 H      0.925     0.073     2.054     2.241
  73   1 H      0.925     0.078     1.995     2.209
  74   1 H      0.923     0.180     1.204     1.716
  75   7 N      2.637    -0.406    30.535     8.207
  76   6 C      3.782     0.050    19.764     6.333
  77   6 C      2.767     0.202    23.702     7.973
  78   8 O      0.856    -0.385    21.393     6.201
  79   6 C      3.759    -0.108    22.614     6.779
  80   1 H      0.860     0.180     1.215     1.727
  81   1 H      0.923     0.041     2.430     2.438
  82   1 H      0.925     0.051     2.308     2.376
  83   1 H      0.925     0.057     2.235     2.338
  84   1 H      0.925     0.061     2.183     2.311
  85   7 N      2.635    -0.398    30.331     8.179
  86   6 C      3.788     0.024    20.183     6.399
  87   6 C      2.755     0.263    22.563     7.778
  88   8 O      0.858    -0.505    23.895     6.554
  89   6 C      3.805    -0.081    22.044     6.684
  90   6 C      3.801    -0.077    21.974     6.674
  91   6 C      3.738    -0.028    21.154     6.563
  92   7 N      2.699    -0.138    23.995     7.275
  93   6 C      2.736     0.234    23.101     7.869
  94   7 N      2.649    -0.241    26.287     7.615
  95   7 N      2.655    -0.260    26.740     7.680
  96   1 H      0.860     0.180     1.212     1.724
  97   1 H      0.923     0.037     2.486     2.466
  98   1 H      0.925     0.070     2.087     2.259
  99   1 H      0.924     0.048     2.350     2.397
 100   1 H      0.924     0.060     2.195     2.317
 101   1 H      0.925     0.071     2.077     2.254
 102   1 H      0.924     0.086     1.923     2.168
 103   1 H      0.924     0.079     1.984     2.203
 104   1 H      0.860     0.223     0.996     1.563
 105   1 H      0.860     0.245     0.901     1.487
 106   1 H      0.860     0.255     0.864     1.456
 107   1 H      0.860     0.245     0.905     1.490
 108   1 H      0.860     0.257     0.855     1.449
 109   7 N      2.692    -0.170    24.680     7.378
 110   6 C      3.798     0.009    20.430     6.436
 111   6 C      2.757     0.271    22.428     7.755
 112   8 O      0.858    -0.477    23.289     6.470
 113   6 C      3.728     0.105    18.939     6.213
 114   8 O      1.655    -0.485    22.573     6.414
 115   6 C      3.753    -0.150    23.452     6.906
 116   1 H      0.860     0.235     0.943     1.521
 117   1 H      0.924     0.080     1.975     2.198
 118   1 H      0.923     0.041     2.429     2.437
 119   1 H      0.805     0.354     0.579     1.195
 120   1 H      0.925     0.083     1.950     2.184
 121   1 H      0.925     0.054     2.267     2.355
 122   1 H      0.925     0.067     2.119     2.276
 123   7 N      2.690    -0.179    24.869     7.407
 124   6 C      3.803     0.010    20.413     6.432
 125   6 C      2.758     0.281    22.241     7.723
 126   8 O      0.858    -0.499    23.769     6.537
 127   6 C      3.853    -0.024    20.974     6.514
 128   6 C      3.756    -0.118    22.808     6.810
 129   6 C      3.757    -0.133    23.117     6.855
 130   1 H      0.860     0.221     1.006     1.571
 131   1 H      0.923     0.083     1.951     2.184
 132   1 H      0.924     0.054     2.271     2.357
 133   1 H      0.925     0.064     2.157     2.297
 134   1 H      0.925     0.029     2.603     2.523
 135   1 H      0.925     0.045     2.388     2.417
 136   1 H      0.925     0.066     2.133     2.284
 137   1 H      0.925     0.061     2.186     2.312
 138   1 H      0.925     0.063     2.161     2.299
 139   7 N      2.692    -0.170    24.687     7.379
 140   6 C      3.805     0.011    20.382     6.427
 141   6 C      2.759     0.277    22.314     7.736
 142   8 O      0.859    -0.505    23.904     6.555
 143   6 C      3.853    -0.017    20.835     6.492
 144   6 C      3.758    -0.110    22.661     6.787
 145   6 C      3.758    -0.127    22.995     6.837
 146   1 H      0.860     0.207     1.072     1.622
 147   1 H      0.923     0.094     1.843     2.123
 148   1 H      0.924     0.045     2.383     2.414
 149   1 H      0.925     0.054     2.267     2.355
 150   1 H      0.925     0.036     2.499     2.472
 151   1 H      0.925     0.046     2.371     2.408
 152   1 H      0.925     0.061     2.187     2.313
 153   1 H      0.925     0.061     2.190     2.314
 154   1 H      0.925     0.049     2.328     2.386
 155   7 N      2.691    -0.187    25.052     7.434
 156   6 C      3.802     0.029    20.080     6.380
 157   6 C      2.757     0.282    22.230     7.721
 158   8 O      0.858    -0.504    23.868     6.550
 159   6 C      3.809    -0.069    21.815     6.649
 160   6 C      3.806    -0.093    22.270     6.718
 161   6 C      2.745     0.292    22.050     7.689
 162   8 O      0.859    -0.491    23.596     6.513
 163   7 N      2.638    -0.279    27.199     7.746
 164   1 H      0.860     0.234     0.946     1.524
 165   1 H      0.923     0.061     2.184     2.311
 166   1 H      0.925     0.073     2.050     2.239
 167   1 H      0.924     0.075     2.034     2.231
 168   1 H      0.924     0.062     2.177     2.307
 169   1 H      0.925     0.059     2.208     2.324
 170   1 H      0.860     0.223     0.995     1.562
 171   1 H      0.860     0.203     1.090     1.635
 172   7 N      2.692    -0.184    24.991     7.425
 173   6 C      3.799     0.028    20.098     6.383
 174   6 C      2.762     0.290    22.088     7.697
 175   8 O      0.859    -0.511    24.024     6.572
 176   6 C      3.808    -0.082    22.058     6.686
 177   6 C      3.805    -0.083    22.077     6.689
 178   6 C      3.739    -0.020    21.004     6.539
 179   7 N      2.702    -0.139    24.015     7.278
 180   6 C      2.736     0.230    23.166     7.880
 181   7 N      2.651    -0.244    26.377     7.628
 182   7 N      2.654    -0.254    26.594     7.659
 183   1 H      0.860     0.235     0.946     1.523
 184   1 H      0.923     0.067     2.119     2.277
 185   1 H      0.924     0.073     2.051     2.240
 186   1 H      0.924     0.068     2.102     2.268
 187   1 H      0.924     0.061     2.188     2.313
 188   1 H      0.924     0.082     1.963     2.191
 189   1 H      0.924     0.081     1.968     2.194
 190   1 H      0.924     0.077     2.008     2.216
 191   1 H      0.860     0.228     0.974     1.546
 192   1 H      0.860     0.241     0.919     1.502
 193   1 H      0.860     0.264     0.833     1.430
 194   1 H      0.860     0.247     0.896     1.483
 195   1 H      0.860     0.264     0.832     1.429
 196   7 N      2.691    -0.183    24.968     7.421
 197   6 C      3.801     0.039    19.916     6.354
 198   6 C      2.761     0.289    22.096     7.698
 199   8 O      0.858    -0.516    24.136     6.587
 200   6 C      3.808    -0.061    21.673     6.627
 201   6 C      3.806    -0.100    22.398     6.737
 202   6 C      2.745     0.289    22.105     7.698
 203   8 O      0.859    -0.483    23.401     6.486
 204   7 N      2.638    -0.288    27.439     7.780
 205   1 H      0.860     0.243     0.909     1.494
 206   1 H      0.923     0.040     2.455     2.451
 207   1 H      0.924     0.076     2.026     2.226
 208   1 H      0.924     0.045     2.380     2.413
 209   1 H      0.925     0.048     2.344     2.394
 210   1 H      0.924     0.091     1.874     2.141
 211   1 H      0.860     0.223     0.995     1.562
 212   1 H      0.860     0.241     0.919     1.502
 213   7 N      2.689    -0.190    25.131     7.445
 214   6 C      3.801     0.037    19.958     6.360
 215   6 C      2.761     0.284    22.194     7.715
 216   8 O      0.859    -0.486    23.476     6.496
 217   6 C      3.812    -0.075    21.923     6.665
 218   6 C      2.971     0.012    27.749     8.641
 219   6 C      2.926    -0.038    28.942     8.822
 220   6 C      2.924    -0.038    28.936     8.822
 221   6 C      2.919    -0.031    28.781     8.797
 222   6 C      2.919    -0.033    28.817     8.803
 223   6 C      2.921    -0.033    28.815     8.803
 224   1 H      0.860     0.228     0.975     1.547
 225   1 H      0.923     0.067     2.117     2.275
 226   1 H      0.924     0.063     2.165     2.301
 227   1 H      0.924     0.061     2.191     2.315
 228   1 H      0.926     0.036     2.500     2.472
 229   1 H      0.926     0.034     2.536     2.490
 230   1 H      0.926     0.054     2.265     2.354
 231   1 H      0.926     0.042     2.418     2.432
 232   1 H      0.926     0.037     2.490     2.468
 233   7 N      2.689    -0.187    25.060     7.435
 234   6 C      3.798     0.018    20.268     6.410
 235   6 C      2.752     0.290    22.086     7.695
 236   8 O      0.858    -0.501    23.801     6.541
 237   6 C      3.677     0.076    19.527     6.331
 238   8 O      1.654    -0.489    22.650     6.425
 239   1 H      0.860     0.225     0.989     1.558
 240   1 H      0.923     0.070     2.089     2.261
 241   1 H      0.924     0.066     2.135     2.285
 242   1 H      0.923     0.047     2.356     2.401
 243   1 H      0.803     0.320     0.663     1.279
 244   7 N      2.691    -0.179    24.884     7.409
 245   6 C      3.793     0.032    20.042     6.375
 246   6 C      2.761     0.266    22.511     7.770
 247   8 O      0.859    -0.496    23.694     6.526
 248   6 C      3.810    -0.039    21.269     6.565
 249   6 C      3.798    -0.095    22.314     6.726
 250   6 C      2.684     0.370    20.730     7.451
 251   8 O      0.856    -0.647    27.312     7.007
 252   8 O      0.856    -0.637    27.046     6.973
 253   1 H      0.860     0.212     1.047     1.603
 254   1 H      0.923     0.068     2.103     2.268
 255   1 H      0.924     0.020     2.730     2.584
 256   1 H      0.924     0.051     2.313     2.378
 257   1 H      0.924     0.025     2.664     2.552
 258   1 H      0.925     0.027     2.627     2.534
 259   7 N      2.685    -0.179    24.880     7.408
 260   6 C      3.803     0.026    20.131     6.388
 261   6 C      2.759     0.273    22.389     7.749
 262   8 O      0.859    -0.485    23.458     6.494
 263   6 C      3.853    -0.006    20.656     6.464
 264   6 C      3.755    -0.102    22.512     6.765
 265   6 C      3.755    -0.118    22.821     6.812
 266   1 H      0.860     0.217     1.023     1.584
 267   1 H      0.923     0.067     2.119     2.277
 268   1 H      0.924     0.045     2.384     2.414
 269   1 H      0.925     0.041     2.435     2.440
 270   1 H      0.925     0.015     2.804     2.619
 271   1 H      0.925     0.049     2.333     2.388
 272   1 H      0.925     0.050     2.321     2.383
 273   1 H      0.925     0.065     2.137     2.286
 274   1 H      0.925     0.037     2.494     2.469
 275   7 N      2.690    -0.165    24.564     7.361
 276   6 C      3.806     0.024    20.165     6.393
 277   6 C      2.753     0.269    22.462     7.761
 278   8 O      0.858    -0.490    23.566     6.509
 279   6 C      3.808    -0.065    21.742     6.638
 280   6 C      3.058    -0.036    28.842     8.807
 281   6 C      3.032    -0.014    28.334     8.731
 282   6 C      3.115    -0.019    28.324     8.718
 283   7 N      2.776    -0.108    23.359     7.178
 284   6 C      3.088     0.044    26.921     8.505
 285   6 C      2.911    -0.035    28.864     8.810
 286   6 C      2.909    -0.057    29.421     8.894
 287   6 C      2.920    -0.038    28.946     8.823
 288   6 C      2.925    -0.042    29.044     8.838
 289   1 H      0.860     0.197     1.124     1.661
 290   1 H      0.924     0.064     2.148     2.292
 291   1 H      0.924     0.058     2.227     2.334
 292   1 H      0.924     0.058     2.226     2.333
 293   1 H      0.926     0.044     2.392     2.418
 294   1 H      0.860     0.200     1.107     1.648
 295   1 H      0.926     0.013     2.839     2.635
 296   1 H      0.926     0.046     2.369     2.407
 297   1 H      0.926     0.000     3.057     2.734
 298   1 H      0.926     0.034     2.532     2.488
 299   7 N      2.693    -0.150    24.240     7.312
 300   6 C      3.791     0.019    20.257     6.410
 301   6 C      2.767     0.195    23.847     7.998
 302   8 O      0.856    -0.371    21.106     6.159
 303   6 C      3.807    -0.078    21.984     6.674
 304   6 C      3.801    -0.078    21.993     6.677
 305   6 C      3.802    -0.095    22.304     6.724
 306   6 C      3.730    -0.051    21.581     6.631
 307   7 N      3.483    -0.144    24.104     7.292
 308   1 H      0.860     0.208     1.067     1.618
 309   1 H      0.924     0.108     1.715     2.048
 310   1 H      0.924     0.066     2.130     2.283
 311   1 H      0.925     0.085     1.927     2.171
 312   1 H      0.924     0.045     2.379     2.412
 313   1 H      0.925     0.070     2.088     2.260
 314   1 H      0.924     0.094     1.843     2.123
 315   1 H      0.925     0.080     1.983     2.202
 316   1 H      0.925     0.118     1.630     1.997
 317   1 H      0.924     0.112     1.679     2.026
 318   1 H      0.859     0.291     0.742     1.349
 319   1 H      0.859     0.283     0.767     1.372
 320   1 H      0.859     0.308     0.689     1.300
 321   7 N      2.637    -0.402    30.422     8.192
 322   6 C      3.786     0.031    20.061     6.380
 323   6 C      2.758     0.273    22.388     7.748
 324   8 O      0.859    -0.491    23.576     6.510
 325   6 C      3.812    -0.075    21.928     6.665
 326   6 C      3.849    -0.008    20.693     6.470
 327   6 C      3.756    -0.110    22.667     6.788
 328   6 C      3.758    -0.113    22.721     6.796
 329   1 H      0.860     0.170     1.273     1.768
 330   1 H      0.924     0.037     2.485     2.465
 331   1 H      0.924     0.051     2.306     2.375
 332   1 H      0.924     0.046     2.370     2.407
 333   1 H      0.924     0.017     2.786     2.610
 334   1 H      0.925     0.045     2.385     2.415
 335   1 H      0.925     0.035     2.517     2.481
 336   1 H      0.925     0.039     2.459     2.452
 337   1 H      0.925     0.040     2.446     2.446
 338   1 H      0.925     0.043     2.409     2.427
 339   1 H      0.925     0.037     2.484     2.465
 340   7 N      2.691    -0.170    24.670     7.377
 341   6 C      3.795     0.034    20.016     6.371
 342   6 C      2.766     0.208    23.587     7.954
 343   8 O      0.856    -0.382    21.326     6.192
 344   6 C      3.810    -0.078    21.988     6.675
 345   6 C      3.849    -0.013    20.774     6.483
 346   6 C      3.758    -0.121    22.873     6.819
 347   6 C      3.755    -0.110    22.658     6.787
 348   1 H      0.860     0.219     1.012     1.576
 349   1 H      0.924     0.074     2.042     2.234
 350   1 H      0.924     0.069     2.099     2.266
 351   1 H      0.924     0.060     2.202     2.320
 352   1 H      0.924     0.048     2.346     2.395
 353   1 H      0.925     0.047     2.355     2.400
 354   1 H      0.925     0.051     2.313     2.378
 355   1 H      0.925     0.044     2.393     2.419
 356   1 H      0.925     0.037     2.494     2.470
 357   1 H      0.925     0.037     2.484     2.465
 358   1 H      0.925     0.036     2.497     2.471
 359   7 N      2.634    -0.391    30.136     8.153
 360   6 C      3.787     0.037    19.965     6.364
 361   6 C      2.759     0.261    22.598     7.785
 362   8 O      0.858    -0.491    23.592     6.512
 363   6 C      3.819    -0.065    21.728     6.634
 364   6 C      2.971     0.013    27.711     8.635
 365   6 C      2.926    -0.040    29.006     8.832
 366   6 C      2.925    -0.034    28.849     8.808
 367   6 C      2.920    -0.035    28.879     8.813
 368   6 C      2.920    -0.029    28.734     8.790
 369   6 C      2.922    -0.036    28.893     8.815
 370   1 H      0.860     0.157     1.357     1.825
 371   1 H      0.924     0.057     2.232     2.336
 372   1 H      0.924     0.040     2.446     2.446
 373   1 H      0.924     0.044     2.396     2.421
 374   1 H      0.926     0.047     2.361     2.403
 375   1 H      0.926     0.024     2.679     2.560
 376   1 H      0.926     0.045     2.384     2.414
 377   1 H      0.926     0.023     2.689     2.564
 378   1 H      0.926     0.036     2.508     2.476
 379   7 N      2.688    -0.170    24.674     7.377
 380   6 C      3.790     0.039    19.931     6.358
 381   6 C      2.764     0.210    23.555     7.948
 382   8 O      0.856    -0.371    21.117     6.161
 383   6 C      3.803    -0.101    22.417     6.741
 384   6 C      2.683     0.377    20.620     7.431
 385   8 O      0.856    -0.640    27.114     6.981
 386   8 O      0.856    -0.648    27.330     7.009
 387   1 H      0.860     0.215     1.034     1.593
 388   1 H      0.923     0.087     1.913     2.163
 389   1 H      0.924     0.035     2.510     2.478
 390   1 H      0.924     0.040     2.445     2.445
 391   7 N      2.636    -0.386    29.996     8.134
 392   6 C      3.787     0.038    19.943     6.361
 393   6 C      2.766     0.198    23.774     7.985
 394   8 O      0.856    -0.371    21.101     6.159
 395   6 C      3.853    -0.021    20.917     6.505
 396   6 C      3.804    -0.059    21.636     6.622
 397   6 C      3.757    -0.109    22.634     6.783
 398   6 C      3.752    -0.109    22.644     6.786
 399   1 H      0.860     0.167     1.292     1.781
 400   1 H      0.923     0.044     2.401     2.423
 401   1 H      0.924     0.045     2.381     2.413
 402   1 H      0.924     0.042     2.421     2.433
 403   1 H      0.925     0.042     2.423     2.434
 404   1 H      0.925     0.053     2.284     2.363
 405   1 H      0.925     0.028     2.620     2.531
 406   1 H      0.925     0.037     2.493     2.469
 407   1 H      0.925     0.039     2.468     2.457
 408   1 H      0.925     0.039     2.461     2.453
 409   1 H      0.925     0.039     2.460     2.453
 410   7 N      2.637    -0.387    30.019     8.137
 411   6 C      3.782     0.043    19.863     6.349
 412   6 C      2.765     0.206    23.630     7.961
 413   8 O      0.856    -0.390    21.485     6.215
 414   6 C      3.810    -0.071    21.849     6.654
 415   6 C      3.849    -0.010    20.719     6.474
 416   6 C      3.755    -0.114    22.732     6.798
 417   6 C      3.758    -0.114    22.733     6.798
 418   1 H      0.860     0.158     1.350     1.820
 419   1 H      0.923     0.046     2.365     2.405
 420   1 H      0.924     0.051     2.311     2.377
 421   1 H      0.924     0.055     2.254     2.348
 422   1 H      0.924     0.024     2.672     2.556
 423   1 H      0.925     0.041     2.432     2.439
 424   1 H      0.925     0.033     2.541     2.493
 425   1 H      0.925     0.043     2.414     2.430
 426   1 H      0.925     0.041     2.442     2.444
 427   1 H      0.925     0.047     2.355     2.400
 428   1 H      0.925     0.039     2.461     2.453
 429   1 H      0.862     0.173     1.252     1.753
 430   1 H      0.930     0.055     2.253     2.347
 431   1 H      0.862     0.189     1.162     1.689
 432   1 H      0.930     0.081     1.965     2.192
 433   1 H      0.862     0.172     1.262     1.759
 434   1 H      0.930     0.070     2.082     2.256
 435   1 H      0.862     0.172     1.260     1.758
 436   1 H      0.930     0.070     2.087     2.259
 437   1 H      0.862     0.178     1.222     1.732
 438   1 H      0.930     0.091     1.866     2.136
 439   1 H      0.862     0.181     1.207     1.721
 440   1 H      0.930     0.074     2.047     2.237
 441   1 H      0.862     0.185     1.185     1.705
 442   1 H      0.930     0.088     1.901     2.156
 443   1 H      0.862     0.176     1.236     1.741
 444   1 H      0.930     0.070     2.088     2.260
 445   1 H      0.862     0.185     1.188     1.707
 446   1 H      0.930     0.073     2.053     2.240

 Mol. C6AA /au·bohr⁶  :    1814592.012114
 Mol. C8AA /au·bohr⁸  :   40495061.702734
 Mol. α(0) /au        :       2025.265755


Wiberg/Mayer (AO) data.
largest (>0.10) Wiberg bond orders for each atom
          total WBO             WBO to atom ...
     1  N   2.999        C    2 1.026    H  429 0.956    H    6 0.953
     2  C   3.988        N    1 1.026    C    3 0.990    C    5 0.959    H    7 0.948
     3  C   3.904        O    4 1.891    C    2 0.990    H  430 0.957
     4  O   2.034        C    3 1.891
     5  C   3.993        H   10 0.985    H    8 0.984    H    9 0.979    C    2 0.959
     6  H   0.972        N    1 0.953
     7  H   0.996        C    2 0.948
     8  H   0.999        C    5 0.984
     9  H   0.997        C    5 0.979
    10  H   0.997        C    5 0.985
    11  N   2.988        C   12 1.014    H  431 0.954    H   20 0.953
    12  C   3.987        N   11 1.014    C   15 0.976    H   21 0.962    C   13 0.941
    13  C   3.945        O   14 1.607    N   26 1.314    C   12 0.941
    14  O   1.952        C   13 1.607    N   26 0.193
    15  C   3.994        C   16 1.006    C   12 0.976    H   22 0.973    H   23 0.972
    16  C   3.989        C   15 1.006    H   25 0.982    H   24 0.973    C   17 0.906
    17  C   3.935        O   18 1.507    O   19 1.501    C   16 0.906
    18  O   1.798        C   17 1.507    O   19 0.218
    19  O   1.791        C   17 1.501    O   18 0.218
    20  H   0.972        N   11 0.953
    21  H   0.999        C   12 0.962
    22  H   0.999        C   15 0.973
    23  H   0.998        C   15 0.972
    24  H   1.000        C   16 0.973
    25  H   1.000        C   16 0.982
    26  N   3.476        C   13 1.314    C   27 0.970    H   34 0.917    O   14 0.193
    27  C   3.960        C   28 0.973    N   26 0.970    C   30 0.967    H   35 0.949
    28  C   3.899        O   29 1.888    C   27 0.973    H  432 0.953
    29  O   2.070        C   28 1.888
    30  C   3.981        C   31 0.992    H   37 0.971    H   36 0.968    C   27 0.967
    31  C   3.992        C   32 1.009    C   33 1.008    C   30 0.992    H   38 0.966
    32  C   3.995        C   31 1.009    H   40 0.984    H   39 0.983    H   41 0.980
    33  C   3.994        C   31 1.008    H   44 0.986    H   43 0.985    H   42 0.985
    34  H   0.952        N   26 0.917
    35  H   0.995        C   27 0.949
    36  H   0.996        C   30 0.968
    37  H   0.996        C   30 0.971
    38  H   0.998        C   31 0.966
    39  H   0.997        C   32 0.983
    40  H   0.999        C   32 0.984
    41  H   0.999        C   32 0.980
    42  H   0.997        C   33 0.985
    43  H   0.998        C   33 0.985
    44  H   0.998        C   33 0.986
    45  N   2.987        C   46 1.011    H  433 0.960    H   53 0.924
    46  C   3.986        N   45 1.011    C   49 0.981    H   54 0.965    C   47 0.936
    47  C   3.944        O   48 1.606    N   64 1.317    C   46 0.936
    48  O   1.962        C   47 1.606    N   64 0.194
    49  C   3.994        C   50 0.994    C   46 0.981    H   55 0.974    H   56 0.966
    50  C   3.996        C   51 1.010    C   52 1.008    C   49 0.994    H   57 0.966
    51  C   3.996        C   50 1.010    H   60 0.987    H   58 0.984    H   59 0.983
    52  C   3.996        C   50 1.008    H   62 0.987    H   63 0.984    H   61 0.983
    53  H   0.969        N   45 0.924
    54  H   0.999        C   46 0.965
    55  H   0.999        C   49 0.974
    56  H   0.997        C   49 0.966
    57  H   0.999        C   50 0.966
    58  H   0.998        C   51 0.984
    59  H   0.998        C   51 0.983
    60  H   0.999        C   51 0.987
    61  H   0.998        C   52 0.983
    62  H   1.000        C   52 0.987
    63  H   0.999        C   52 0.984
    64  N   3.474        C   47 1.317    C   65 0.982    H   70 0.888    O   48 0.194
    65  C   3.971        N   64 0.982    C   68 0.980    C   66 0.960    H   71 0.944
    66  C   3.909        O   67 1.902    C   65 0.960    H  434 0.954
    67  O   2.059        C   66 1.902
    68  C   3.977        S   69 0.997    C   65 0.980    H   73 0.972    H   72 0.971
    69  S   2.036        C   68 0.997    H   74 0.954
    70  H   0.944        N   64 0.888
    71  H   0.993        C   65 0.944
    72  H   0.994        C   68 0.971
    73  H   0.993        C   68 0.972
    74  H   0.967        S   69 0.954
    75  N   2.989        C   76 1.015    H  435 0.959    H   80 0.928
    76  C   3.988        N   75 1.015    C   77 0.983    C   79 0.973    H   81 0.955
    77  C   3.892        O   78 1.882    C   76 0.983    H  436 0.954
    78  O   2.021        C   77 1.882
    79  C   3.990        H   82 0.982    H   83 0.979    H   84 0.978    C   76 0.973
    80  H   0.968        N   75 0.928
    81  H   0.998        C   76 0.955
    82  H   0.997        C   79 0.982
    83  H   0.997        C   79 0.979
    84  H   0.996        C   79 0.978
    85  N   2.988        C   86 1.013    H  437 0.958    H   96 0.947
    86  C   3.985        N   85 1.013    C   89 0.981    H   97 0.960    C   87 0.932
    87  C   3.936        O   88 1.613    N  109 1.309    C   86 0.932
    88  O   1.961        C   87 1.613    N  109 0.194
    89  C   3.990        C   90 1.005    C   86 0.981    H   99 0.972    H   98 0.970
    90  C   3.992        C   89 1.005    C   91 0.995    H  100 0.971    H  101 0.970
    91  C   3.953        C   90 0.995    N   92 0.985    H  102 0.965    H  103 0.961
    92  N   3.467        C   93 1.309    C   91 0.985    H  104 0.920    N   94 0.100
    93  C   3.977        N   94 1.327    N   95 1.312    N   92 1.309
    94  N   3.403        C   93 1.327    H  106 0.915    H  105 0.915    N   95 0.102    N   92 0.100
    95  N   3.387        C   93 1.312    H  107 0.920    H  108 0.914    N   94 0.102
    96  H   0.967        N   85 0.947
    97  H   0.998        C   86 0.960
    98  H   0.995        C   89 0.970
    99  H   0.998        C   89 0.972
   100  H   0.996        C   90 0.971
   101  H   0.995        C   90 0.970
   102  H   0.993        C   91 0.965
   103  H   0.993        C   91 0.961
   104  H   0.950        N   92 0.920
   105  H   0.940        N   94 0.915
   106  H   0.935        N   94 0.915
   107  H   0.940        N   95 0.920
   108  H   0.934        N   95 0.914
   109  N   3.473        C   87 1.309    C  110 0.982    H  116 0.909    O   88 0.194
   110  C   3.968        N  109 0.982    C  113 0.964    H  117 0.951    C  111 0.933
   111  C   3.947        O  112 1.633    N  123 1.295    C  110 0.933
   112  O   1.983        C  111 1.633    N  123 0.195
   113  C   3.958        C  115 1.002    O  114 0.994    C  110 0.964    H  118 0.954
   114  O   1.927        C  113 0.994    H  119 0.858
   115  C   3.987        C  113 1.002    H  122 0.983    H  121 0.980    H  120 0.979
   116  H   0.944        N  109 0.909
   117  H   0.993        C  110 0.951
   118  H   0.998        C  113 0.954
   119  H   0.875        O  114 0.858
   120  H   0.993        C  115 0.979
   121  H   0.997        C  115 0.980
   122  H   0.995        C  115 0.983
   123  N   3.461        C  111 1.295    C  124 0.978    H  130 0.912    O  112 0.195
   124  C   3.961        N  123 0.978    C  127 0.963    H  131 0.949    C  125 0.938
   125  C   3.941        O  126 1.594    N  139 1.313    C  124 0.938
   126  O   1.969        C  125 1.594    N  139 0.189
   127  C   3.986        C  128 1.008    C  129 1.007    C  124 0.963    H  132 0.963
   128  C   3.992        C  127 1.008    H  135 0.986    H  134 0.983    H  133 0.982
   129  C   3.988        C  127 1.007    H  137 0.984    H  138 0.982    H  136 0.981
   130  H   0.951        N  123 0.912
   131  H   0.993        C  124 0.949
   132  H   0.997        C  127 0.963
   133  H   0.996        C  128 0.982
   134  H   0.999        C  128 0.983
   135  H   0.998        C  128 0.986
   136  H   0.995        C  129 0.981
   137  H   0.996        C  129 0.984
   138  H   0.996        C  129 0.982
   139  N   3.480        C  125 1.313    C  140 0.976    H  146 0.918    O  126 0.189
   140  C   3.955        N  139 0.976    C  143 0.964    C  141 0.940    H  147 0.934
   141  C   3.942        O  142 1.599    N  155 1.315    C  140 0.940
   142  O   1.954        C  141 1.599    N  155 0.194
   143  C   3.988        C  144 1.009    C  145 1.006    H  148 0.965    C  140 0.964
   144  C   3.993        C  143 1.009    H  151 0.985    H  149 0.983    H  150 0.978
   145  C   3.990        C  143 1.006    H  154 0.983    H  152 0.982    H  153 0.982
   146  H   0.957        N  139 0.918
   147  H   0.991        C  140 0.934
   148  H   0.998        C  143 0.965
   149  H   0.997        C  144 0.983
   150  H   0.999        C  144 0.978
   151  H   0.998        C  144 0.985
   152  H   0.995        C  145 0.982
   153  H   0.996        C  145 0.982
   154  H   0.998        C  145 0.983
   155  N   3.470        C  141 1.315    C  156 0.980    H  164 0.886    O  142 0.194
   156  C   3.969        C  159 0.983    N  155 0.980    H  165 0.952    C  157 0.934
   157  C   3.945        O  158 1.608    N  172 1.317    C  156 0.934
   158  O   1.949        C  157 1.608    N  172 0.194
   159  C   3.985        C  160 0.997    C  156 0.983    H  167 0.967    H  166 0.965
   160  C   3.994        C  159 0.997    H  169 0.970    C  161 0.966    H  168 0.955
   161  C   3.944        O  162 1.649    N  163 1.303    C  160 0.966
   162  O   1.950        C  161 1.649    N  163 0.200
   163  N   3.401        C  161 1.303    H  171 0.936    H  170 0.913    O  162 0.200
   164  H   0.945        N  155 0.886
   165  H   0.996        C  156 0.952
   166  H   0.994        C  159 0.965
   167  H   0.994        C  159 0.967
   168  H   0.996        C  160 0.955
   169  H   0.996        C  160 0.970
   170  H   0.950        N  163 0.913
   171  H   0.958        N  163 0.936
   172  N   3.472        C  157 1.317    C  173 0.978    H  183 0.891    O  158 0.194
   173  C   3.966        C  176 0.981    N  172 0.978    H  184 0.950    C  174 0.939
   174  C   3.937        O  175 1.566    N  196 1.344    C  173 0.939
   175  O   1.981        C  174 1.566    N  196 0.186
   176  C   3.981        C  177 1.003    C  173 0.981    H  186 0.966    H  185 0.962
   177  C   3.988        C  178 1.008    C  176 1.003    H  187 0.973    H  188 0.968
   178  C   3.962        C  177 1.008    N  179 0.989    H  189 0.961    H  190 0.960
   179  N   3.470        C  180 1.310    C  178 0.989    H  191 0.915    N  182 0.102    N  181 0.100
   180  C   3.977        N  181 1.322    N  182 1.316    N  179 1.310
   181  N   3.397        C  180 1.322    H  192 0.919    H  193 0.911    N  182 0.102    N  179 0.100
   182  N   3.389        C  180 1.316    H  194 0.920    H  195 0.911    N  181 0.102    N  179 0.102
   183  H   0.945        N  172 0.891
   184  H   0.995        C  173 0.950
   185  H   0.995        C  176 0.962
   186  H   0.995        C  176 0.966
   187  H   0.996        C  177 0.973
   188  H   0.993        C  177 0.968
   189  H   0.993        C  178 0.961
   190  H   0.994        C  178 0.960
   191  H   0.948        N  179 0.915
   192  H   0.942        N  181 0.919
   193  H   0.930        N  181 0.911
   194  H   0.939        N  182 0.920
   195  H   0.930        N  182 0.911
   196  N   3.480        C  174 1.344    C  197 0.980    H  205 0.871    O  175 0.186
   197  C   3.969        C  200 0.981    N  196 0.980    H  206 0.954    C  198 0.936
   198  C   3.947        O  199 1.615    N  213 1.308    C  197 0.936
   199  O   1.936        C  198 1.615    N  213 0.192
   200  C   3.988        C  201 0.996    C  197 0.981    H  208 0.973    H  207 0.964
   201  C   3.992        C  200 0.996    H  209 0.975    C  202 0.971    H  210 0.940
   202  C   3.949        O  203 1.637    N  204 1.312    C  201 0.971
   203  O   1.957        C  202 1.637    N  204 0.198
   204  N   3.395        C  202 1.312    H  211 0.930    H  212 0.920    O  203 0.198
   205  H   0.940        N  196 0.871
   206  H   0.998        C  197 0.954
   207  H   0.994        C  200 0.964
   208  H   0.997        C  200 0.973
   209  H   0.998        C  201 0.975
   210  H   0.992        C  201 0.940
   211  H   0.950        N  204 0.930
   212  H   0.941        N  204 0.920
   213  N   3.460        C  198 1.308    C  214 0.974    H  224 0.895    O  199 0.192
   214  C   3.960        N  213 0.974    C  217 0.966    H  225 0.952    C  215 0.936
   215  C   3.943        O  216 1.607    N  233 1.309    C  214 0.936
   216  O   1.972        C  215 1.607    N  233 0.189
   217  C   3.984        C  218 1.006    H  226 0.966    C  214 0.966    H  227 0.963
   218  C   3.986        C  220 1.419    C  219 1.408    C  217 1.006    C  223 0.109
   219  C   3.991        C  221 1.449    C  218 1.408    H  228 0.968    C  222 0.112
   220  C   3.990        C  222 1.437    C  218 1.419    H  229 0.962    C  221 0.111
   221  C   3.990        C  219 1.449    C  223 1.433    H  230 0.965    C  220 0.111
   222  C   3.991        C  223 1.442    C  220 1.437    H  231 0.968    C  219 0.112
   223  C   3.991        C  222 1.442    C  221 1.433    H  232 0.965    C  218 0.109
   224  H   0.948        N  213 0.895
   225  H   0.995        C  214 0.952
   226  H   0.996        C  217 0.966
   227  H   0.996        C  217 0.963
   228  H   0.999        C  219 0.968
   229  H   0.999        C  220 0.962
   230  H   0.997        C  221 0.965
   231  H   0.998        C  222 0.968
   232  H   0.998        C  223 0.965
   233  N   3.467        C  215 1.309    C  234 0.982    H  239 0.895    O  216 0.189
   234  C   3.967        N  233 0.982    C  237 0.967    H  240 0.948    C  235 0.935
   235  C   3.950        O  236 1.618    N  244 1.310    C  234 0.935
   236  O   1.932        C  235 1.618    N  244 0.194
   237  C   3.959        O  238 1.017    H  241 0.970    C  234 0.967    H  242 0.959
   238  O   1.935        C  237 1.017    H  243 0.821
   239  H   0.949        N  233 0.895
   240  H   0.995        C  234 0.948
   241  H   0.995        C  237 0.970
   242  H   0.997        C  237 0.959
   243  H   0.897        O  238 0.821
   244  N   3.482        C  235 1.310    C  245 0.987    H  253 0.902    O  236 0.194
   245  C   3.966        N  244 0.987    C  248 0.973    H  254 0.943    C  246 0.941
   246  C   3.953        O  247 1.599    N  259 1.323    C  245 0.941
   247  O   1.919        C  246 1.599    N  259 0.191
   248  C   3.990        C  249 1.002    C  245 0.973    H  256 0.973    H  255 0.972
   249  C   3.987        C  248 1.002    H  258 0.976    H  257 0.973    C  250 0.911
   250  C   3.935        O  251 1.504    O  252 1.499    C  249 0.911
   251  O   1.791        C  250 1.504    O  252 0.217
   252  O   1.793        C  250 1.499    O  251 0.217
   253  H   0.955        N  244 0.902
   254  H   0.995        C  245 0.943
   255  H   1.000        C  248 0.972
   256  H   0.997        C  248 0.973
   257  H   0.999        C  249 0.973
   258  H   0.999        C  249 0.976
   259  N   3.485        C  246 1.323    C  260 0.982    H  266 0.891    O  247 0.191
   260  C   3.960        N  259 0.982    C  263 0.957    H  267 0.945    C  261 0.941
   261  C   3.954        O  262 1.623    N  275 1.303    C  260 0.941
   262  O   1.943        C  261 1.623    N  275 0.195
   263  C   3.988        C  265 1.010    C  264 1.008    H  268 0.965    C  260 0.957
   264  C   3.994        C  263 1.008    H  270 0.988    H  269 0.984    H  271 0.980
   265  C   3.991        C  263 1.010    H  274 0.981    H  272 0.978    H  273 0.972
   266  H   0.953        N  259 0.891
   267  H   0.995        C  260 0.945
   268  H   0.997        C  263 0.965
   269  H   0.998        C  264 0.984
   270  H   1.000        C  264 0.988
   271  H   0.998        C  264 0.980
   272  H   0.997        C  265 0.978
   273  H   0.996        C  265 0.972
   274  H   0.999        C  265 0.981
   275  N   3.482        C  261 1.303    C  276 0.970    H  289 0.924    O  262 0.195
   276  C   3.957        C  279 0.974    N  275 0.970    H  290 0.952    C  277 0.926
   277  C   3.952        O  278 1.633    N  299 1.316    C  276 0.926
   278  O   1.950        C  277 1.633    N  299 0.204
   279  C   3.988        C  280 1.013    C  276 0.974    H  291 0.969    H  292 0.965
   280  C   3.975        C  281 1.575    C  282 1.211    C  279 1.013
   281  C   3.954        C  280 1.575    N  283 1.206    H  293 0.968
   282  C   3.985        C  285 1.329    C  284 1.245    C  280 1.211
   283  N   3.549        C  281 1.206    C  284 1.186    H  294 0.933
   284  C   3.962        C  286 1.335    C  282 1.245    N  283 1.186
   285  C   3.993        C  287 1.506    C  282 1.329    H  295 0.967    C  286 0.114
   286  C   3.987        C  288 1.496    C  284 1.335    H  296 0.967    C  285 0.114
   287  C   3.989        C  285 1.506    C  288 1.368    H  297 0.968
   288  C   3.990        C  286 1.496    C  287 1.368    H  298 0.970
   289  H   0.961        N  275 0.924
   290  H   0.996        C  276 0.952
   291  H   0.996        C  279 0.969
   292  H   0.995        C  279 0.965
   293  H   0.997        C  281 0.968
   294  H   0.959        N  283 0.933
   295  H   0.999        C  285 0.967
   296  H   0.997        C  286 0.967
   297  H   1.000        C  287 0.968
   298  H   0.998        C  288 0.970
   299  N   3.495        C  277 1.316    C  300 0.983    H  308 0.920    O  278 0.204
   300  C   3.961        C  301 0.986    N  299 0.983    C  303 0.953    H  309 0.928
   301  C   3.901        O  302 1.893    C  300 0.986    H  438 0.951
   302  O   2.035        C  301 1.893
   303  C   3.982        C  304 1.003    H  310 0.971    H  311 0.968    C  300 0.953
   304  C   3.993        C  305 1.008    C  303 1.003    H  312 0.975    H  313 0.968
   305  C   3.984        C  306 1.012    C  304 1.008    H  314 0.967    H  315 0.960
   306  C   3.909        C  305 1.012    H  316 0.964    H  317 0.957    N  307 0.948
   307  N   3.667        C  306 0.948    H  318 0.902    H  319 0.902    H  320 0.891
   308  H   0.957        N  299 0.920
   309  H   0.988        C  300 0.928
   310  H   0.995        C  303 0.971
   311  H   0.992        C  303 0.968
   312  H   0.998        C  304 0.975
   313  H   0.994        C  304 0.968
   314  H   0.991        C  305 0.967
   315  H   0.994        C  305 0.960
   316  H   0.986        C  306 0.964
   317  H   0.987        C  306 0.957
   318  H   0.915        N  307 0.902
   319  H   0.920        N  307 0.902
   320  H   0.905        N  307 0.891
   321  N   2.988        C  322 1.009    H  439 0.957    H  329 0.952
   322  C   3.984        N  321 1.009    C  325 0.981    H  330 0.964    C  323 0.935
   323  C   3.939        O  324 1.633    N  340 1.294    C  322 0.935
   324  O   1.970        C  323 1.633    N  340 0.193
   325  C   3.992        C  326 0.995    C  322 0.981    H  331 0.972    H  332 0.971
   326  C   3.996        C  327 1.010    C  328 1.008    C  325 0.995    H  333 0.965
   327  C   3.996        C  326 1.010    H  335 0.985    H  336 0.984    H  334 0.983
   328  C   3.995        C  326 1.008    H  339 0.986    H  338 0.985    H  337 0.982
   329  H   0.971        N  321 0.952
   330  H   0.998        C  322 0.964
   331  H   0.997        C  325 0.972
   332  H   0.998        C  325 0.971
   333  H   1.000        C  326 0.965
   334  H   0.998        C  327 0.983
   335  H   0.999        C  327 0.985
   336  H   0.998        C  327 0.984
   337  H   0.998        C  328 0.982
   338  H   0.998        C  328 0.985
   339  H   0.999        C  328 0.986
   340  N   3.465        C  323 1.294    C  341 0.981    H  348 0.915    O  324 0.193
   341  C   3.970        N  340 0.981    C  342 0.978    C  344 0.964    H  349 0.940
   342  C   3.896        O  343 1.858    C  341 0.978    H  440 0.955
   343  O   2.034        C  342 1.858
   344  C   3.983        C  345 0.989    H  351 0.971    H  350 0.970    C  341 0.964
   345  C   3.994        C  347 1.011    C  346 1.006    C  344 0.989    H  352 0.965
   346  C   3.992        C  345 1.006    H  355 0.986    H  354 0.985    H  353 0.984
   347  C   3.995        C  345 1.011    H  357 0.986    H  356 0.983    H  358 0.982
   348  H   0.952        N  340 0.915
   349  H   0.994        C  341 0.940
   350  H   0.995        C  344 0.970
   351  H   0.996        C  344 0.971
   352  H   0.998        C  345 0.965
   353  H   0.996        C  346 0.984
   354  H   0.997        C  346 0.985
   355  H   0.998        C  346 0.986
   356  H   0.998        C  347 0.983
   357  H   0.999        C  347 0.986
   358  H   0.999        C  347 0.982
   359  N   3.005        C  360 1.025    H  441 0.954    H  370 0.953
   360  C   3.982        N  359 1.025    H  371 0.957    C  363 0.951    C  361 0.938
   361  C   3.940        O  362 1.614    N  379 1.303    C  360 0.938
   362  O   1.927        C  361 1.614    N  379 0.187
   363  C   3.993        C  364 1.009    H  372 0.970    H  373 0.962    C  360 0.951
   364  C   3.987        C  366 1.415    C  365 1.405    C  363 1.009    C  369 0.109
   365  C   3.990        C  367 1.452    C  364 1.405    H  374 0.963    C  368 0.112
   366  C   3.990        C  368 1.438    C  364 1.415    H  375 0.961    C  367 0.109
   367  C   3.991        C  365 1.452    C  369 1.432    H  376 0.969    C  366 0.109
   368  C   3.992        C  369 1.442    C  366 1.438    H  377 0.967    C  365 0.112
   369  C   3.991        C  368 1.442    C  367 1.432    H  378 0.968    C  364 0.109
   370  H   0.975        N  359 0.953
   371  H   0.996        C  360 0.957
   372  H   0.998        C  363 0.970
   373  H   0.998        C  363 0.962
   374  H   0.998        C  365 0.963
   375  H   0.999        C  366 0.961
   376  H   0.998        C  367 0.969
   377  H   0.999        C  368 0.967
   378  H   0.998        C  369 0.968
   379  N   3.470        C  361 1.303    C  380 0.971    H  387 0.917    O  362 0.187
   380  C   3.970        C  383 1.005    N  379 0.971    C  381 0.962    H  388 0.931
   381  C   3.889        O  382 1.910    C  380 0.962    H  442 0.951
   382  O   2.043        C  381 1.910
   383  C   3.985        C  380 1.005    H  390 0.970    H  389 0.965    C  384 0.902
   384  C   3.934        O  386 1.505    O  385 1.504    C  383 0.902
   385  O   1.802        C  384 1.504    O  386 0.216
   386  O   1.797        C  384 1.505    O  385 0.216
   387  H   0.954        N  379 0.917
   388  H   0.992        C  380 0.931
   389  H   0.999        C  383 0.965
   390  H   0.998        C  383 0.970
   391  N   3.003        C  392 1.012    H  443 0.957    H  399 0.949
   392  C   3.984        N  391 1.012    C  393 0.972    H  400 0.958    C  395 0.952
   393  C   3.893        O  394 1.893    C  392 0.972    H  444 0.954
   394  O   2.036        C  393 1.893
   395  C   3.991        C  397 1.009    C  396 0.994    H  401 0.965    C  392 0.952
   396  C   3.996        C  398 1.018    C  395 0.994    H  402 0.976    H  403 0.970
   397  C   3.995        C  395 1.009    H  406 0.985    H  405 0.983    H  404 0.980
   398  C   3.994        C  396 1.018    H  408 0.987    H  407 0.986    H  409 0.981
   399  H   0.972        N  391 0.949
   400  H   0.998        C  392 0.958
   401  H   0.998        C  395 0.965
   402  H   0.998        C  396 0.976
   403  H   0.998        C  396 0.970
   404  H   0.997        C  397 0.980
   405  H   0.999        C  397 0.983
   406  H   0.999        C  397 0.985
   407  H   0.998        C  398 0.986
   408  H   0.998        C  398 0.987
   409  H   0.998        C  398 0.981
   410  N   3.000        C  411 1.007    H  445 0.955    H  418 0.955
   411  C   3.983        N  410 1.007    C  412 0.974    C  414 0.967    H  419 0.960
   412  C   3.884        O  413 1.888    C  411 0.974    H  446 0.955
   413  O   2.022        C  412 1.888
   414  C   3.991        C  415 0.995    H  420 0.970    H  421 0.970    C  411 0.967
   415  C   3.996        C  416 1.009    C  417 1.008    C  414 0.995    H  422 0.968
   416  C   3.996        C  415 1.009    H  425 0.986    H  423 0.985    H  424 0.985
   417  C   3.995        C  415 1.008    H  426 0.985    H  427 0.985    H  428 0.983
   418  H   0.975        N  410 0.955
   419  H   0.998        C  411 0.960
   420  H   0.997        C  414 0.970
   421  H   0.997        C  414 0.970
   422  H   0.999        C  415 0.968
   423  H   0.998        C  416 0.985
   424  H   0.999        C  416 0.985
   425  H   0.998        C  416 0.986
   426  H   0.998        C  417 0.985
   427  H   0.998        C  417 0.985
   428  H   0.998        C  417 0.983
   429  H   0.970        N    1 0.956
   430  H   0.997        C    3 0.957
   431  H   0.964        N   11 0.954
   432  H   0.993        C   28 0.953
   433  H   0.970        N   45 0.960
   434  H   0.995        C   66 0.954
   435  H   0.970        N   75 0.959
   436  H   0.995        C   77 0.954
   437  H   0.968        N   85 0.958
   438  H   0.991        C  301 0.951
   439  H   0.967        N  321 0.957
   440  H   0.994        C  342 0.955
   441  H   0.966        N  359 0.954
   442  H   0.992        C  381 0.951
   443  H   0.969        N  391 0.957
   444  H   0.995        C  393 0.954
   445  H   0.966        N  410 0.955
   446  H   0.995        C  412 0.955
 
molecular dipole:
                 x           y           z       tot (Debye)
 q only:        8.756      26.397     -13.376
   full:       10.086      26.606     -13.977      80.578
molecular quadrupole (traceless):
                xx          xy          yy          xz          yz          zz
 q only:     -572.513    3812.261    3485.080    -548.477    -125.482   -2912.567
  q+dip:     -416.508    3905.345    3462.852    -544.250    -135.906   -3046.344
   full:     -416.823    3900.276    3457.992    -548.938    -130.706   -3041.169


           -------------------------------------------------
          | TOTAL ENERGY             -664.528854243424 Eh   |
          | GRADIENT NORM               0.665204126687 Eh/α |
          | HOMO-LUMO GAP               1.462488697742 eV   |
           -------------------------------------------------

------------------------------------------------------------------------
 * finished run on 2019/05/31 at 02:07:21.852     
------------------------------------------------------------------------
 total:
 * wall-time:     0 d,  0 h,  0 min, 11.027 sec
 *  cpu-time:     0 d,  0 h,  0 min, 43.250 sec
 * ratio c/w:     3.922 speedup
 SCF:
 * wall-time:     0 d,  0 h,  0 min, 10.609 sec
 *  cpu-time:     0 d,  0 h,  0 min, 41.751 sec
 * ratio c/w:     3.935 speedup

