      -----------------------------------------------------------      
     |                   =====================                   |     
     |                           x T B                           |     
     |                   =====================                   |     
     |                         S. Grimme                         |     
     |          Mulliken Center for Theoretical Chemistry        |     
     |                    University of Bonn                     |     
     |                 Version 6.0.1 (SAW181210)                 |     
      -----------------------------------------------------------      

   This program is distributed in the hope that it will be useful,
   but WITHOUT ANY WARRANTY; without even the implied warranty of
   MERCHANTABILITY or FITNESS FOR A PARTICULAR PURPOSE.
   
   FOR NON-COMMERCIAL, ACADEMIA USE ONLY.
   
   Cite this work as:
   S. Grimme, C. Bannwarth, P. Shushkov, J. Comput. Theory Chem., 2017,
   13, 1989-2009.
   C. Bannwarth, S. Ehlert and S. Grimme., ChemRxiv, 2018, preprint.
   http://doi.org/10.26434/chemrxiv.7246238.v1
   
   for sTDA-xTB:
   S. Grimme and C. Bannwarth, J. Chem. Phys., 2016, 145, 054103.
   
   in the mass-spec context:
   V. Asgeirsson, C. Bauer and S. Grimme, Chem. Sci., 2017, 8, 4879.
   
   if GBSA is used:
   P. Shushkov, F. März and S. Grimme, unpublished.
   
   for ANC optimizer:
   S. Grimme, unpublished.
   Rational Function algorithm used in ANCopt:
   F. Eckert, P. Pulay, H.-J. Werner, J. Comput. Chem., 1997, 18, 1473.
   
   with help from (in alphabetical order)
   C. Bannwarth, F. Bohle, G. Brandenburg, E. Caldeweyher, M. Checinski,
   S. Dohm, S. Ehlert, S. Ehrlich, F. März, H. Neugebauer, J. Pisarek,
   P. Pracht, P. Shushkov, and S. Spicher.
   
 * started run on 2019/03/14 at 15:08:20.393     
========================================================================
 # omp threads = 1
========================================================================
number of atoms            : 307
number of electrons        : 808
charge                     : 1
spin                       : .0
first test random number   : .2793
           ------------------------------------------------- 
          |                 G F N 2 - x T B                 |
          | Geometry, Frequencies, Noncovalent interactions |
          |            JCTC 2018 parametrisation            |
           ------------------------------------------------- 
 
      method parameters     
 k(s)        :  1.8500
 k(p)        :  2.2300
 k(d)        :  2.2300
 k(f)        :  2.0000
 kEN (H0ij)  : -2.0000
 D4 a1       :  0.5200
 D4 a2       :  5.0000
 D4 s6       :  1.0000
 D4 s8       :  2.7000
 D4 s9       :  5.0000
 alphaj      :  2.0000

 Solvent             : h2o
 Using internal parameter file: .param_gbsa2_h2o
 Gsolv ref. state (COSMO-RS): gsolv [1 M gas/solution]
 temperature (mdtemp)       :    298.150000000000     
 dielectric constant        :    80.2000000000000     
 rho                        :    1.00000000000000     
 mass                       :    18.0000000000000     
 surface tension            :    15.5689454083859     
 probe radius               :   0.975313790000000     
 vdW radii scaling          :    1.00000000000000     
 Gshift (Eh)                :   1.857443126794793E-003
 c1                         :    1.55243817000000     
 soset                      :   0.130326360000000     
 HB correction              :  T

            Z     q(EN)     CN     RAES       Cart. coordinates
     1  N   5.0   -0.21    3.25    1.97    91.64923    34.20739    79.57048
     2  C   4.0    0.03    4.26    4.12    89.95147    33.66199    77.48362
     3  C   4.0    0.08    3.21    3.04    89.23618    36.11673    76.16149
     4  O   6.0   -0.31    1.15    1.80    89.20970    36.33951    73.85983
     5  C   4.0   -0.04    4.31    4.22    87.61264    32.21218    78.35128
     6  C   4.0   -0.02    3.56    3.14    88.26373    29.92086    79.92254
     7  C   4.0   -0.04    3.47    3.10    86.38596    28.88047    81.43876
     8  C   4.0   -0.04    3.51    3.12    90.65913    28.83922    79.96750
     9  C   4.0   -0.04    3.37    3.07    86.91471    26.89083    83.04760
    10  C   4.0   -0.04    3.38    3.07    91.19400    26.85879    81.59083
    11  C   4.0   -0.03    3.37    3.07    89.33678    25.90442    83.16030
    12  H   1.0    0.09    1.03    1.43    91.06376    33.72748    81.32174
    13  H   1.0    0.04    1.06    1.44    90.95943    32.52363    76.08162
    14  H   1.0    0.05    1.03    1.43    86.37847    33.44648    79.45866
    15  H   1.0    0.05    1.03    1.43    86.56187    31.65744    76.65850
    16  H   1.0    0.05    1.03    1.43    84.48926    29.63042    81.34070
    17  H   1.0    0.05    1.04    1.43    92.14404    29.51126    78.74110
    18  H   1.0    0.06    1.03    1.43    85.42126    26.12923    84.20861
    19  H   1.0    0.05    1.03    1.43    93.07789    26.07404    81.61860
    20  H   1.0    0.06    1.03    1.43    89.76543    24.37425    84.43543
    21  N   5.0   -0.20    3.24    1.97    95.01514    37.77079    72.31625
    22  C   4.0    0.03    4.41    4.39    95.51502    36.34661    70.03240
    23  C   4.0    0.15    3.48    3.11    93.57582    36.96522    68.01583
    24  O   6.0   -0.32    1.33    1.80    94.20066    37.03506    65.78333
    25  C   4.0   -0.02    4.33    4.25    95.62585    33.45692    70.40910
    26  C   4.0   -0.04    4.22    4.05    93.11299    32.49567    71.46506
    27  C   4.0   -0.07    4.11    3.82    97.86331    32.75961    72.07928
    28  C   4.0   -0.08    4.00    3.63    92.89199    29.63794    71.75186
    29  H   1.0    0.09    1.02    1.43    94.61479    36.83545    73.93889
    30  H   1.0    0.05    1.06    1.44    97.32434    36.99754    69.23518
    31  H   1.0    0.05    1.06    1.44    95.92270    32.64600    68.52749
    32  H   1.0    0.05    1.04    1.43    92.79338    33.41755    73.27026
    33  H   1.0    0.05    1.05    1.44    91.61000    33.09494    70.19520
    34  H   1.0    0.04    1.00    1.43    98.01948    30.72019    72.22403
    35  H   1.0    0.05    1.00    1.43    99.60507    33.48665    71.26806
    36  H   1.0    0.04    1.00    1.43    97.58835    33.55057    73.95103
    37  H   1.0    0.04    1.00    1.43    90.99135    29.17166    72.38560
    38  H   1.0    0.04    1.00    1.43    93.19145    28.74708    69.92809
    39  H   1.0    0.04    1.00    1.43    94.23415    28.85953    73.09593
    40  N   5.0   -0.14    3.51    2.08    91.20185    37.32769    68.77836
    41  C   4.0    0.04    4.36    4.31    89.30505    38.02743    66.92833
    42  C   4.0    0.09    3.31    3.06    89.97400    40.64541    65.93730
    43  O   6.0   -0.30    1.23    1.80    90.56137    40.87159    63.69253
    44  C   4.0   -0.04    4.30    4.21    86.67657    37.77696    68.08222
    45  C   4.0   -0.01    3.54    3.13    84.55336    39.25835    66.88822
    46  C   4.0   -0.04    3.48    3.11    82.30445    39.43274    68.24023
    47  C   4.0   -0.03    3.50    3.12    84.71591    40.48557    64.57372
    48  C   4.0   -0.03    3.38    3.07    80.35463    40.93673    67.38292
    49  C   4.0   -0.03    3.38    3.07    82.79426    42.06874    63.75520
    50  C   4.0   -0.03    3.37    3.07    80.63185    42.33640    65.18872
    51  H   1.0    0.11    1.09    1.44    90.72533    37.36041    70.63683
    52  H   1.0    0.06    1.06    1.44    89.52607    36.77283    65.28527
    53  H   1.0    0.05    1.03    1.43    86.21069    35.76560    68.07491
    54  H   1.0    0.06    1.04    1.43    86.79759    38.37594    70.05573
    55  H   1.0    0.05    1.03    1.43    82.06805    38.37507    69.97190
    56  H   1.0    0.07    1.05    1.44    86.33765    40.19278    63.38634
    57  H   1.0    0.06    1.03    1.43    78.64838    41.02698    68.48901
    58  H   1.0    0.06    1.03    1.43    82.95551    43.11933    62.01035
    59  H   1.0    0.06    1.03    1.43    79.18562    43.61933    64.54133
    60  N   5.0   -0.18    3.25    1.97    95.18556    40.26789    61.90208
    61  C   4.0    0.04    4.20    4.00    94.66142    38.97469    59.55202
    62  C   4.0    0.10    3.23    3.04    93.13199    40.68152    57.81844
    63  O   6.0   -0.27    1.12    1.80    93.76003    40.97499    55.61081
    64  C   4.0    0.04    4.15    3.89    93.29795    36.44862    59.95174
    65  O   6.0   -0.25    2.05    1.83    90.72102    36.69789    60.49300
    66  H   1.0    0.13    1.09    1.44    94.49894    39.46583    63.50353
    67  H   1.0    0.05    1.06    1.44    96.45596    38.60697    58.58450
    68  H   1.0    0.05    1.02    1.43    93.40812    35.34649    58.20700
    69  H   1.0    0.06    1.01    1.43    94.28260    35.43158    61.47023
    70  H   1.0    0.15    1.07    1.44    90.53290    38.04771    61.73802
    71  N   5.0   -0.21    3.23    1.96    79.78163    26.40569    45.25288
    72  C   4.0    0.02    4.32    4.23    80.45155    23.99926    46.36184
    73  C   4.0    0.14    3.44    3.09    82.08214    24.43839    48.71132
    74  O   6.0   -0.33    1.32    1.80    81.54034    23.39748    50.71553
    75  C   4.0   -0.05    4.33    4.26    81.84525    22.31628    44.47492
    76  C   4.0   -0.04    4.05    3.72    80.08586    21.30820    42.43410
    77  S   6.0   -0.03    2.47    3.10    81.57822    18.90439    40.47008
    78  C   4.0   -0.06    3.88    3.44    83.64142    20.85284    38.55002
    79  H   1.0    0.08    1.03    1.43    80.43137    26.76638    43.48438
    80  H   1.0    0.04    1.05    1.44    78.71706    23.06452    47.02711
    81  H   1.0    0.04    1.03    1.43    83.35458    23.42024    43.61175
    82  H   1.0    0.04    1.04    1.43    82.68210    20.72649    45.48697
    83  H   1.0    0.05    1.08    1.44    78.47229    20.35051    43.27791
    84  H   1.0    0.04    1.06    1.44    79.43387    22.81529    41.19316
    85  H   1.0    0.05    1.04    1.43    84.38537    19.67075    37.05132
    86  H   1.0    0.05    1.04    1.43    82.52799    22.38137    37.75961
    87  H   1.0    0.04    1.04    1.43    85.16990    21.59197    39.69953
    88  N   5.0   -0.15    3.46    2.05    84.08711    25.93311    48.46351
    89  C   4.0    0.03    4.44    4.44    85.73426    26.30761    50.61115
    90  C   4.0    0.15    3.46    3.10    84.42037    27.66588    52.79417
    91  O   6.0   -0.34    1.39    1.80    84.92958    27.00771    54.96063
    92  C   4.0   -0.05    4.36    4.30    88.14111    27.77660    49.98013
    93  C   4.0   -0.03    4.17    3.95    89.91338    26.48429    48.08563
    94  C   4.0   -0.07    4.11    3.82    92.01123    28.33343    47.37197
    95  C   4.0   -0.08    4.10    3.80    91.04219    24.04454    49.12293
    96  H   1.0    0.07    1.06    1.44    84.55378    26.81533    46.82391
    97  H   1.0    0.05    1.06    1.44    86.23141    24.43677    51.36807
    98  H   1.0    0.04    1.03    1.43    87.57260    29.61121    49.23181
    99  H   1.0    0.04    1.03    1.43    89.15550    28.07085    51.75513
   100  H   1.0    0.04    1.06    1.44    88.83204    26.05796    46.38396
   101  H   1.0    0.04    1.00    1.43    93.22266    27.52170    45.92532
   102  H   1.0    0.04    1.00    1.43    91.19493    30.06772    46.63326
   103  H   1.0    0.04    1.00    1.43    93.15489    28.78019    49.01871
   104  H   1.0    0.04    1.00    1.43    92.32086    23.22206    47.74150
   105  H   1.0    0.04    1.00    1.43    92.09826    24.40469    50.84888
   106  H   1.0    0.04    1.00    1.43    89.57619    22.66527    49.52912
   107  N   5.0   -0.15    3.49    2.07    82.86490    29.57850    52.31991
   108  C   4.0    0.03    4.51    4.55    81.59372    30.89956    54.35961
   109  C   4.0    0.15    3.51    3.12    79.51241    29.21649    55.44043
   110  O   6.0   -0.32    1.35    1.80    79.08882    29.09824    57.71946
   111  C   4.0   -0.03    4.32    4.23    80.55084    33.49343    53.54035
   112  C   4.0   -0.05    4.19    3.98    82.72904    35.24070    52.76335
   113  C   4.0   -0.07    4.14    3.89    79.04427    34.65671    55.71235
   114  C   4.0   -0.07    4.02    3.65    81.82335    37.77407    51.73149
   115  H   1.0    0.07    1.06    1.44    82.54849    30.15039    50.51715
   116  H   1.0    0.05    1.06    1.44    82.95235    31.18858    55.90429
   117  H   1.0    0.04    1.05    1.44    79.31076    33.19389    51.90885
   118  H   1.0    0.04    1.03    1.43    83.93979    35.56320    54.40044
   119  H   1.0    0.04    1.03    1.43    83.83553    34.28471    51.31153
   120  H   1.0    0.04    1.00    1.43    78.22036    36.45086    55.15843
   121  H   1.0    0.06    1.01    1.43    77.52441    33.41746    56.31911
   122  H   1.0    0.05    1.00    1.43    80.28065    34.97245    57.32270
   123  H   1.0    0.05    1.00    1.43    83.41207    38.84193    50.98689
   124  H   1.0    0.04    1.00    1.43    80.47165    37.47070    50.21660
   125  H   1.0    0.04    1.00    1.43    80.93111    38.91339    53.18410
   126  N   5.0   -0.14    3.50    2.08    78.18157    27.87099    53.77808
   127  C   4.0    0.04    4.51    4.55    76.43896    25.99885    54.72641
   128  C   4.0    0.16    3.52    3.12    77.83000    24.15625    56.46179
   129  O   6.0   -0.32    1.36    1.80    76.76916    23.41968    58.38546
   130  C   4.0   -0.04    4.13    3.86    75.15256    24.34612    52.75080
   131  S   6.0   -0.05    2.27    3.10    72.73266    25.98472    50.94697
   132  H   1.0    0.08    1.06    1.44    78.55117    27.94405    51.89980
   133  H   1.0    0.06    1.06    1.44    74.98205    26.94724    55.87194
   134  H   1.0    0.05    1.07    1.44    76.50681    23.63486    51.37791
   135  H   1.0    0.05    1.08    1.44    74.22592    22.78509    53.72883
   136  H   1.0    0.05    0.99    1.43    74.46401    27.25219    49.64828
   137  N   5.0   -0.14    3.49    2.07    80.08939    23.31446    55.74083
   138  C   4.0    0.03    4.52    4.57    81.42004    21.44601    57.25795
   139  C   4.0    0.15    3.52    3.12    82.52983    22.70838    59.59811
   140  O   6.0   -0.33    1.41    1.80    81.96921    21.91902    61.70607
   141  C   4.0   -0.02    4.33    4.26    83.45064    20.02329    55.74812
   142  C   4.0   -0.04    4.19    3.99    82.17009    18.27465    53.82782
   143  C   4.0   -0.08    4.15    3.89    85.13571    18.52927    57.55553
   144  C   4.0   -0.07    4.01    3.64    84.00510    17.24990    51.86195
   145  H   1.0    0.12    1.11    1.45    80.82115    23.71676    54.00822
   146  H   1.0    0.05    1.06    1.44    80.04492    20.07530    57.99742
   147  H   1.0    0.05    1.05    1.44    84.60143    21.41182    54.73950
   148  H   1.0    0.04    1.03    1.43    81.27826    16.71209    54.83649
   149  H   1.0    0.06    1.03    1.43    80.70292    19.33999    52.85066
   150  H   1.0    0.04    1.00    1.43    86.60764    17.53647    56.52890
   151  H   1.0    0.04    1.01    1.43    86.04309    19.76958    58.91726
   152  H   1.0    0.04    1.00    1.43    84.01404    17.14898    58.58486
   153  H   1.0    0.04    1.00    1.43    83.00983    16.07534    50.50219
   154  H   1.0    0.05    1.00    1.43    84.87903    18.81130    50.85254
   155  H   1.0    0.04    1.00    1.43    85.47949    16.11537    52.72831
   156  N   5.0   -0.15    3.54    2.11    84.09099    24.63680    59.28068
   157  C   4.0    0.03    4.52    4.57    85.18234    25.91776    61.44310
   158  C   4.0    0.16    3.51    3.12    83.07557    26.70128    63.25004
   159  O   6.0   -0.33    1.33    1.80    83.28304    26.41135    65.54760
   160  C   4.0   -0.02    4.34    4.27    86.71840    28.22023    60.55965
   161  C   4.0   -0.04    4.19    3.98    89.00040    27.46064    58.93573
   162  C   4.0   -0.07    4.13    3.86    87.54281    29.84241    62.79262
   163  C   4.0   -0.08    4.02    3.65    90.85948    25.64595    60.17091
   164  H   1.0    0.12    1.16    1.45    84.49447    25.33565    57.54225
   165  H   1.0    0.05    1.05    1.44    86.38560    24.59176    62.49651
   166  H   1.0    0.05    1.06    1.44    85.46172    29.34591    59.36138
   167  H   1.0    0.06    1.04    1.43    88.31910    26.60186    57.19690
   168  H   1.0    0.04    1.03    1.43    89.99543    29.19673    58.43384
   169  H   1.0    0.05    1.00    1.43    88.67594    31.41728    62.11620
   170  H   1.0    0.05    1.00    1.43    85.92382    30.59934    63.80353
   171  H   1.0    0.04    1.00    1.43    88.66071    28.73012    64.10411
   172  H   1.0    0.04    1.00    1.43    92.37590    25.24362    58.84629
   173  H   1.0    0.04    1.00    1.43    91.69055    26.44701    61.86743
   174  H   1.0    0.04    1.00    1.43    89.95038    23.86872    60.65029
   175  N   5.0   -0.13    3.45    2.04    81.04303    27.71265    62.17007
   176  C   4.0    0.02    4.25    4.10    78.77521    28.38916    63.52402
   177  C   4.0    0.16    3.36    3.07    77.56925    26.09468    64.77611
   178  O   6.0   -0.33    1.36    1.80    76.92916    26.20975    67.00091
   179  H   1.0    0.12    1.12    1.45    80.93489    28.01666    60.28122
   180  H   1.0    0.05    1.02    1.43    79.18255    29.76232    65.02145
   181  H   1.0    0.06    1.03    1.43    77.45700    29.22692    62.17913
   182  N   5.0   -0.13    3.51    2.09    77.31559    24.00523    63.40093
   183  C   4.0    0.05    4.47    4.50    76.23447    21.72940    64.47422
   184  C   4.0    0.16    3.49    3.11    77.88919    20.73923    66.61903
   185  O   6.0   -0.32    1.35    1.80    76.91476    19.66148    68.42454
   186  C   4.0    0.06    4.22    4.04    75.73549    19.65085    62.46783
   187  O   6.0   -0.25    2.10    1.84    73.26233    18.72154    62.89285
   188  C   4.0   -0.07    4.11    3.82    77.69673    17.53442    62.52122
   189  H   1.0    0.12    1.12    1.45    77.66016    23.99031    61.51439
   190  H   1.0    0.07    1.06    1.44    74.38815    22.16097    65.32296
   191  H   1.0    0.07    1.07    1.44    75.79052    20.57327    60.61848
   192  H   1.0    0.12    1.03    1.43    72.94119    17.37121    61.70631
   193  H   1.0    0.04    1.00    1.43    77.36109    16.20241    60.99126
   194  H   1.0    0.05    1.01    1.43    79.55779    18.35895    62.29157
   195  H   1.0    0.06    1.00    1.43    77.61418    16.52581    64.30969
   196  N   5.0   -0.14    3.57    2.13    80.36618    21.08503    66.37439
   197  C   4.0    0.04    4.50    4.54    82.22205    20.21836    68.18041
   198  C   4.0    0.15    3.47    3.10    82.21904    21.91437    70.50470
   199  O   6.0   -0.33    1.34    1.80    82.60781    21.02862    72.61005
   200  C   4.0   -0.02    4.27    4.14    84.89633    20.16656    67.02714
   201  C   4.0   -0.07    4.14    3.88    86.85273    19.50421    69.04158
   202  C   4.0   -0.07    4.12    3.85    85.04133    18.25061    64.88177
   203  H   1.0    0.12    1.15    1.45    81.04135    21.95881    64.80716
   204  H   1.0    0.05    1.05    1.44    81.72125    18.31450    68.83882
   205  H   1.0    0.06    1.05    1.44    85.28592    22.05824    66.28344
   206  H   1.0    0.04    1.00    1.43    88.72575    19.40656    68.20632
   207  H   1.0    0.06    1.00    1.43    86.88534    20.89263    70.55227
   208  H   1.0    0.05    1.00    1.43    86.41134    17.67549    69.86766
   209  H   1.0    0.04    1.00    1.43    86.95481    18.19887    64.13925
   210  H   1.0    0.04    1.00    1.43    84.54826    16.37666    65.55754
   211  H   1.0    0.06    1.02    1.43    83.76129    18.76885    63.37124
   212  N   5.0   -0.14    3.55    2.11    81.79924    24.35719    70.07121
   213  C   4.0    0.04    4.39    4.36    81.73371    26.22406    72.07036
   214  C   4.0    0.15    3.43    3.09    79.21991    26.05646    73.48586
   215  O   6.0   -0.31    1.27    1.80    79.10999    26.28185    75.79218
   216  C   4.0    0.04    4.16    3.92    82.06315    28.89442    70.96880
   217  O   6.0   -0.26    2.04    1.83    84.44562    29.28048    69.89731
   218  H   1.0    0.12    1.12    1.45    81.72536    24.98703    68.25772
   219  H   1.0    0.06    1.05    1.44    83.24633    25.83516    73.43396
   220  H   1.0    0.05    1.01    1.43    80.54624    29.21188    69.58738
   221  H   1.0    0.05    1.02    1.43    81.87388    30.27577    72.49241
   222  H   1.0    0.14    1.06    1.44    84.58201    28.23067    68.39654
   223  N   5.0   -0.14    3.55    2.12    77.23488    25.66988    71.99992
   224  C   4.0    0.04    4.51    4.55    74.73755    25.17171    72.97180
   225  C   4.0    0.16    3.51    3.12    74.75264    22.61382    74.29773
   226  O   6.0   -0.33    1.38    1.80    73.63384    22.42590    76.31626
   227  C   4.0   -0.02    4.26    4.13    72.68992    25.30075    70.91724
   228  C   4.0   -0.07    4.15    3.89    70.22854    24.16142    71.89722
   229  C   4.0   -0.06    4.11    3.83    72.25225    28.03025    70.10509
   230  H   1.0    0.12    1.15    1.45    77.43163    25.61766    70.09248
   231  H   1.0    0.06    1.06    1.44    74.31697    26.54981    74.46948
   232  H   1.0    0.06    1.06    1.44    73.35549    24.20554    69.29582
   233  H   1.0    0.05    1.00    1.43    68.73992    24.41935    70.50870
   234  H   1.0    0.05    1.00    1.43    70.44798    22.15489    72.26596
   235  H   1.0    0.05    1.00    1.43    69.67690    25.09732    73.64010
   236  H   1.0    0.05    1.00    1.43    70.79411    28.10247    68.66094
   237  H   1.0    0.04    1.00    1.43    71.63927    29.15282    71.71197
   238  H   1.0    0.06    1.00    1.43    73.97479    28.83397    69.33750
   239  N   5.0   -0.14    3.52    2.09    76.04549    20.72826    73.24064
   240  C   4.0    0.04    4.42    4.41    76.47665    18.36414    74.58924
   241  C   4.0    0.16    3.59    3.16    77.83808    19.04104    77.02476
   242  O   6.0   -0.29    1.40    1.80    76.82768    18.57852    79.06582
   243  C   4.0   -0.03    4.32    4.24    77.89613    16.49672    72.89795
   244  C   4.0   -0.01    3.53    3.13    79.26813    14.29426    74.09068
   245  C   4.0   -0.04    3.49    3.11    80.90296    12.93573    72.53380
   246  C   4.0   -0.03    3.48    3.11    79.11807    13.59607    76.60878
   247  C   4.0   -0.04    3.38    3.07    82.46151    11.07976    73.49685
   248  C   4.0   -0.03    3.38    3.07    80.72338    11.76403    77.58822
   249  C   4.0   -0.03    3.36    3.07    82.43337    10.52545    76.05247
   250  H   1.0    0.12    1.15    1.45    76.49165    20.69095    71.36228
   251  H   1.0    0.05    1.06    1.44    74.67275    17.55216    75.20712
   252  H   1.0    0.05    1.03    1.43    76.54339    15.79500    71.50508
   253  H   1.0    0.06    1.05    1.44    79.35207    17.55384    71.89580
   254  H   1.0    0.05    1.03    1.43    80.94742    13.31578    70.52962
   255  H   1.0    0.07    1.04    1.44    77.72984    14.46662    77.81566
   256  H   1.0    0.05    1.03    1.43    83.74110    10.10208    72.25025
   257  H   1.0    0.06    1.03    1.43    80.66543    11.33684    79.57527
   258  H   1.0    0.06    1.03    1.43    83.71575     9.12528    76.80616
   259  N   5.0   -0.14    3.54    2.11    80.04911    20.18932    76.88360
   260  C   4.0    0.04    4.37    4.33    81.41044    20.75451    79.19155
   261  C   4.0    0.18    3.56    3.14    79.47532    21.70425    81.13059
   262  O   6.0   -0.26    1.24    1.80    79.27863    20.74257    83.22582
   263  C   4.0   -0.07    4.11    3.82    83.47133    22.67145    78.60463
   264  H   1.0    0.12    1.15    1.45    80.96118    20.58654    75.23530
   265  H   1.0    0.06    1.05    1.44    82.20098    18.98473    79.94818
   266  H   1.0    0.05    1.00    1.43    84.62236    23.03738    80.25977
   267  H   1.0    0.06    1.00    1.43    84.67685    21.96776    77.09489
   268  H   1.0    0.06    1.01    1.43    82.60495    24.42924    77.99429
   269  N   5.0   -0.13    3.42    2.03    78.06802    23.66085    80.36145
   270  C   4.0    0.03    4.25    4.10    76.04827    24.64950    81.90861
   271  C   4.0    0.17    3.33    3.06    74.25052    22.58762    82.88215
   272  O   6.0   -0.26    1.21    1.80    73.86787    22.40493    85.16822
   273  H   1.0    0.12    1.10    1.44    78.32410    24.45229    78.63163
   274  H   1.0    0.06    1.02    1.43    76.80415    25.62339    83.57962
   275  H   1.0    0.05    1.03    1.43    74.94733    25.98843    80.80045
   276  N   5.0   -0.12    3.47    2.06    73.18881    21.12807    81.13371
   277  C   4.0    0.05    4.28    4.17    71.34727    19.12978    81.50349
   278  C   4.0    0.10    3.24    3.04    72.20695    16.99358    83.24525
   279  O   6.0   -0.27    1.12    1.80    70.63056    15.81900    84.49608
   280  C   4.0   -0.04    4.31    4.21    70.72639    17.79817    78.99387
   281  C   4.0   -0.04    4.16    3.92    68.88898    19.18674    77.25167
   282  C   4.0   -0.01    4.18    3.97    66.20796    19.39585    78.31590
   283  N   5.0   -0.14    3.41    2.03    65.24134    16.92060    79.01637
   284  C   4.0    0.10    3.33    3.06    63.96750    16.27849    81.08112
   285  N   5.0   -0.17    3.24    1.97    63.06096    17.98841    82.69137
   286  N   5.0   -0.17    3.25    1.97    63.34659    13.85917    81.42971
   287  H   1.0    0.13    1.17    1.46    73.61712    21.46909    79.28152
   288  H   1.0    0.06    1.05    1.44    69.62446    19.90034    82.35317
   289  H   1.0    0.06    1.04    1.43    72.52177    17.54025    78.02806
   290  H   1.0    0.06    1.04    1.43    69.98771    15.93094    79.45924
   291  H   1.0    0.06    1.04    1.43    69.61310    21.08191    76.90813
   292  H   1.0    0.04    1.03    1.43    68.83366    18.18071    75.45276
   293  H   1.0    0.05    1.03    1.43    66.23533    20.63633    79.95916
   294  H   1.0    0.05    1.02    1.43    64.96212    20.22573    76.88997
   295  H   1.0    0.08    1.07    1.44    65.65299    15.52659    77.77041
   296  H   1.0    0.09    1.03    1.43    63.56358    19.81423    82.52540
   297  H   1.0    0.10    1.03    1.43    62.53991    17.44015    84.45114
   298  H   1.0    0.09    1.03    1.43    64.14805    12.48583    80.38801
   299  H   1.0    0.10    1.03    1.43    62.52248    13.36049    83.07608
   300  H   1.0    0.09    1.07    1.44    93.11612    33.37796    79.34061
   301  H   1.0    0.06    1.05    1.44    88.76129    37.63537    77.18093
   302  H   1.0    0.10    1.07    1.44    96.37306    38.71911    72.70262
   303  H   1.0    0.06    1.04    1.43    89.93129    42.13498    67.09938
   304  H   1.0    0.10    1.07    1.44    96.86782    40.37598    62.12766
   305  H   1.0    0.07    1.05    1.44    91.60239    41.57293    58.47934
   306  H   1.0    0.09    1.07    1.44    78.08871    26.53126    45.14890
   307  H   1.0    0.08    1.04    1.43    74.04073    16.55369    83.36691

  Z AO/shell   Hii/eV     exponent
  1     Wed Apr 25 08:07:45 CEST 2018   EN: 2.200 GM2: 0.406  GM3: 0.0800  RAES: 1.40
     1s    -10.707211    1.230000
  6     Wed Apr 25 08:07:45 CEST 2018   EN: 2.550 GM2: 0.538  GM3: 0.1500  RAES: 3.00
     2s    -13.970922    2.096432
     2p    -10.063292    1.800000
  7     Wed Apr 25 08:07:45 CEST 2018   EN: 3.040 GM2: 0.461  GM3:-0.0640  RAES: 1.90
     2s    -16.686243    2.339881
     2p    -12.523956    2.014332
  8     Wed Apr 25 08:07:45 CEST 2018   EN: 3.440 GM2: 0.452  GM3:-0.0517  RAES: 1.80
     2s    -20.229985    2.439742
     2p    -15.503117    2.137023
 16     Tue Apr 24 11:44:34 CEST 2018   EN: 2.580 GM2: 0.340  GM3:-0.0502  RAES: 3.10
     3s    -20.029654    1.981333
     3p    -11.377694    2.025643
     3d     -0.420282    1.702555
 no old-style atom pair restraining (fixing) potential

molecular fragmentation (1/2 indicates fragments):
111111111111111111112222222222222222222222222222222222222222222222222222
222222222222222222222222222222222222222222222222222222222222222222222222
222222222222222222222222222222222222222222222222222222222222222222222222
222222222222222222222222222222222222222222222222222222222222222222222222
2222222222211222222
# atoms in fragment 1/2:    22   285
 fragment masses (1/2) :      149.19     1916.43
CMA distance (Bohr)    :  17.334
constraining FC (au)   :  0.0500
           ------------------------------------------------- 
          |        Self-Consistent Charge Iterations        |
           ------------------------------------------------- 

 Ncao       : 751
 Nao        : 749
 Nshell     : 453
 Nel        : 808
 T(el)      :   500.0
 intcut     :    35.0
 scfconv/Eh :  0.100E-06
   qconv/e  :  0.100E-04
 intneglect :  0.100E-08
 broydamp   :      0.400
 iter      E             dE          RMSdq      gap      omega  full diag
   1   -457.9568102 -0.457957E+03  0.436E+00    2.82       0.0  T
   2   -458.8685620 -0.911752E+00  0.209E+00    1.70       1.0  T
   3   -458.9158206 -0.472586E-01  0.115E+00    2.12       1.0  T
   4   -458.9865117 -0.706911E-01  0.228E-01    1.52       1.0  T
   5   -458.9897732 -0.326149E-02  0.108E-01    1.76       1.0  T
   6   -458.9905003 -0.727124E-03  0.453E-02    1.72       1.0  T
   7   -458.9907038 -0.203495E-03  0.192E-02    1.72       1.0  T
   8   -458.9907180 -0.142096E-04  0.884E-03    1.71       1.0  T
   9   -458.9907238 -0.580782E-05  0.361E-03    1.71       1.6  T
  10   -458.9907246 -0.734847E-06  0.157E-03    1.71       3.6  T
  11   -458.9907247 -0.132869E-06  0.688E-04    1.71       8.3  T
  12   -458.9907247 -0.218355E-07  0.312E-04    1.71      18.3  T
  13   -458.9907247 -0.810132E-08  0.144E-04    1.71      39.7  T
  14   -458.9907247 -0.911371E-09  0.713E-05    1.71      80.0  T
  15   -458.9907247 -0.266084E-09  0.299E-05    1.71     191.2  T
speedup  1.00
cpu  time for SCC    4.01 s
wall time for SCC    4.01 s

   *** convergence criteria satisfied after 15 iterations ***

          eigenvalues
 #    :         392        393        394        395        396        397        398        399
 occ. :        2.000      2.000      2.000      2.000      2.000      2.000      2.000      2.000
 eps  :       -10.817    -10.800    -10.651    -10.642    -10.637    -10.604    -10.600    -10.482
 #    :         400        401        402        403        404        405        406        407
 occ. :        2.000      2.000      2.000      2.000      2.000      0.000      0.000      0.000
 eps  :       -10.441    -10.130    -10.017     -9.900     -9.735     -8.021     -7.841     -7.661
 #    :         408        409        410        411        412        413        414        415
 occ. :        0.000      0.000      0.000      0.000      0.000      0.000      0.000      0.000
 eps  :        -7.576     -7.056     -6.878     -6.792     -6.723     -6.691     -6.536     -6.439


   #   Z            q   n(s)   n(p)   n(d)      C6AA      α(0)
   1   7 N     -0.386  1.308  4.077  0.000    29.980     8.132
   2   6 C      0.037  1.053  2.910  0.000    19.963     6.364
   3   6 C      0.194  1.094  2.711  0.000    23.849     7.998
   4   8 O     -0.363  1.742  4.621  0.000    20.960     6.138
   5   6 C     -0.072  1.054  3.017  0.000    21.860     6.655
   6   6 C      0.015  1.082  2.904  0.000    27.679     8.630
   7   6 C     -0.042  1.082  2.961  0.000    29.050     8.839
   8   6 C     -0.042  1.077  2.964  0.000    29.034     8.836
   9   6 C     -0.032  1.079  2.952  0.000    28.786     8.798
  10   6 C     -0.035  1.081  2.954  0.000    28.876     8.812
  11   6 C     -0.035  1.079  2.957  0.000    28.882     8.813
  12   1 H      0.166  0.834  0.000  0.000     1.298     1.785
  13   1 H      0.062  0.938  0.000  0.000     2.180     2.309
  14   1 H      0.059  0.941  0.000  0.000     2.216     2.328
  15   1 H      0.060  0.940  0.000  0.000     2.194     2.316
  16   1 H      0.035  0.965  0.000  0.000     2.518     2.481
  17   1 H      0.045  0.955  0.000  0.000     2.389     2.417
  18   1 H      0.024  0.976  0.000  0.000     2.667     2.554
  19   1 H      0.038  0.962  0.000  0.000     2.477     2.461
  20   1 H      0.029  0.971  0.000  0.000     2.594     2.519
  21   7 N     -0.392  1.310  4.081  0.000    30.141     8.154
  22   6 C      0.030  1.061  2.909  0.000    20.079     6.382
  23   6 C      0.265  1.049  2.686  0.000    22.523     7.772
  24   8 O     -0.505  1.743  4.761  0.000    23.889     6.553
  25   6 C     -0.020  1.064  2.956  0.000    20.888     6.500
  26   6 C     -0.071  1.049  3.021  0.000    21.846     6.654
  27   6 C     -0.111  1.037  3.074  0.000    22.682     6.791
  28   6 C     -0.108  1.035  3.073  0.000    22.634     6.785
  29   1 H      0.156  0.844  0.000  0.000     1.360     1.827
  30   1 H      0.034  0.966  0.000  0.000     2.528     2.487
  31   1 H      0.030  0.970  0.000  0.000     2.592     2.518
  32   1 H      0.045  0.955  0.000  0.000     2.381     2.413
  33   1 H      0.044  0.956  0.000  0.000     2.396     2.420
  34   1 H      0.050  0.950  0.000  0.000     2.320     2.382
  35   1 H      0.035  0.965  0.000  0.000     2.510     2.478
  36   1 H      0.042  0.958  0.000  0.000     2.422     2.434
  37   1 H      0.044  0.956  0.000  0.000     2.397     2.421
  38   1 H      0.037  0.963  0.000  0.000     2.489     2.467
  39   1 H      0.038  0.962  0.000  0.000     2.482     2.464
  40   7 N     -0.170  1.252  3.919  0.000    24.683     7.379
  41   6 C      0.027  1.057  2.915  0.000    20.115     6.386
  42   6 C      0.201  1.087  2.712  0.000    23.718     7.976
  43   8 O     -0.350  1.757  4.593  0.000    20.706     6.101
  44   6 C     -0.087  1.056  3.031  0.000    22.151     6.699
  45   6 C      0.012  1.081  2.907  0.000    27.743     8.640
  46   6 C     -0.044  1.081  2.963  0.000    29.086     8.844
  47   6 C     -0.048  1.078  2.970  0.000    29.182     8.859
  48   6 C     -0.033  1.079  2.954  0.000    28.823     8.804
  49   6 C     -0.033  1.080  2.952  0.000    28.814     8.802
  50   6 C     -0.036  1.079  2.958  0.000    28.902     8.816
  51   1 H      0.240  0.760  0.000  0.000     0.923     1.505
  52   1 H      0.089  0.911  0.000  0.000     1.887     2.148
  53   1 H      0.085  0.915  0.000  0.000     1.926     2.170
  54   1 H      0.085  0.915  0.000  0.000     1.925     2.170
  55   1 H      0.042  0.958  0.000  0.000     2.417     2.431
  56   1 H      0.037  0.963  0.000  0.000     2.493     2.469
  57   1 H      0.039  0.961  0.000  0.000     2.460     2.453
  58   1 H      0.036  0.964  0.000  0.000     2.502     2.474
  59   1 H      0.035  0.965  0.000  0.000     2.512     2.479
  60   7 N     -0.401  1.316  4.086  0.000    30.413     8.191
  61   6 C      0.033  1.056  2.911  0.000    20.035     6.376
  62   6 C      0.210  1.089  2.701  0.000    23.559     7.949
  63   8 O     -0.387  1.756  4.632  0.000    21.425     6.206
  64   6 C      0.080  1.038  2.881  0.000    19.451     6.318
  65   8 O     -0.485  1.712  4.772  0.000    22.568     6.413
  66   1 H      0.192  0.808  0.000  0.000     1.147     1.678
  67   1 H      0.040  0.960  0.000  0.000     2.443     2.444
  68   1 H      0.039  0.961  0.000  0.000     2.463     2.454
  69   1 H      0.045  0.955  0.000  0.000     2.385     2.415
  70   1 H      0.329  0.671  0.000  0.000     0.641     1.258
  71   7 N     -0.391  1.310  4.081  0.000    30.110     8.150
  72   6 C      0.028  1.059  2.913  0.000    20.117     6.388
  73   6 C      0.261  1.050  2.689  0.000    22.596     7.785
  74   8 O     -0.490  1.738  4.752  0.000    23.559     6.508
  75   6 C     -0.067  1.054  3.014  0.000    21.765     6.638
  76   6 C     -0.007  1.063  2.945  0.000    20.715     6.481
  77  16 S     -0.243  1.926  4.264  0.053   151.471    20.714
  78   6 C     -0.057  1.052  3.005  0.000    21.669     6.640
  79   1 H      0.167  0.833  0.000  0.000     1.290     1.779
  80   1 H      0.045  0.955  0.000  0.000     2.388     2.417
  81   1 H      0.054  0.946  0.000  0.000     2.267     2.355
  82   1 H      0.054  0.946  0.000  0.000     2.265     2.354
  83   1 H      0.060  0.940  0.000  0.000     2.204     2.322
  84   1 H      0.053  0.947  0.000  0.000     2.282     2.362
  85   1 H      0.061  0.939  0.000  0.000     2.188     2.313
  86   1 H      0.059  0.941  0.000  0.000     2.211     2.325
  87   1 H      0.060  0.940  0.000  0.000     2.196     2.317
  88   7 N     -0.164  1.240  3.923  0.000    24.539     7.357
  89   6 C      0.017  1.060  2.923  0.000    20.292     6.413
  90   6 C      0.267  1.045  2.688  0.000    22.485     7.765
  91   8 O     -0.479  1.731  4.749  0.000    23.332     6.476
  92   6 C     -0.080  1.060  3.019  0.000    22.010     6.678
  93   6 C     -0.013  1.057  2.956  0.000    20.765     6.482
  94   6 C     -0.119  1.042  3.077  0.000    22.834     6.813
  95   6 C     -0.118  1.039  3.078  0.000    22.807     6.809
  96   1 H      0.221  0.779  0.000  0.000     1.003     1.569
  97   1 H      0.085  0.915  0.000  0.000     1.928     2.171
  98   1 H      0.059  0.941  0.000  0.000     2.211     2.325
  99   1 H      0.068  0.932  0.000  0.000     2.110     2.272
 100   1 H      0.041  0.959  0.000  0.000     2.440     2.443
 101   1 H      0.044  0.956  0.000  0.000     2.392     2.419
 102   1 H      0.043  0.957  0.000  0.000     2.414     2.430
 103   1 H      0.044  0.956  0.000  0.000     2.399     2.422
 104   1 H      0.045  0.955  0.000  0.000     2.387     2.416
 105   1 H      0.045  0.955  0.000  0.000     2.380     2.413
 106   1 H      0.039  0.961  0.000  0.000     2.467     2.456
 107   7 N     -0.170  1.240  3.931  0.000    24.681     7.378
 108   6 C      0.010  1.068  2.922  0.000    20.415     6.433
 109   6 C      0.273  1.044  2.683  0.000    22.384     7.748
 110   8 O     -0.478  1.741  4.737  0.000    23.298     6.472
 111   6 C     -0.026  1.069  2.957  0.000    21.002     6.518
 112   6 C     -0.066  1.052  3.015  0.000    21.771     6.643
 113   6 C     -0.120  1.037  3.082  0.000    22.844     6.815
 114   6 C     -0.115  1.037  3.078  0.000    22.753     6.802
 115   1 H      0.217  0.783  0.000  0.000     1.025     1.586
 116   1 H      0.090  0.910  0.000  0.000     1.881     2.145
 117   1 H      0.055  0.945  0.000  0.000     2.254     2.348
 118   1 H      0.048  0.952  0.000  0.000     2.346     2.395
 119   1 H      0.044  0.956  0.000  0.000     2.391     2.418
 120   1 H      0.062  0.938  0.000  0.000     2.172     2.305
 121   1 H      0.041  0.959  0.000  0.000     2.439     2.442
 122   1 H      0.052  0.948  0.000  0.000     2.297     2.370
 123   1 H      0.043  0.957  0.000  0.000     2.411     2.428
 124   1 H      0.046  0.954  0.000  0.000     2.376     2.410
 125   1 H      0.044  0.956  0.000  0.000     2.392     2.419
 126   7 N     -0.168  1.237  3.930  0.000    24.631     7.371
 127   6 C      0.023  1.058  2.919  0.000    20.171     6.391
 128   6 C      0.271  1.042  2.686  0.000    22.419     7.755
 129   8 O     -0.489  1.738  4.751  0.000    23.539     6.505
 130   6 C     -0.018  1.065  2.954  0.000    20.899     6.508
 131  16 S     -0.285  1.946  4.297  0.042   153.386    20.845
 132   1 H      0.208  0.792  0.000  0.000     1.065     1.617
 133   1 H      0.093  0.907  0.000  0.000     1.852     2.128
 134   1 H      0.078  0.922  0.000  0.000     2.004     2.214
 135   1 H      0.074  0.926  0.000  0.000     2.043     2.235
 136   1 H      0.193  0.807  0.000  0.000     1.134     1.665
 137   7 N     -0.186  1.255  3.931  0.000    25.038     7.432
 138   6 C      0.015  1.066  2.918  0.000    20.315     6.417
 139   6 C      0.271  1.042  2.687  0.000    22.424     7.755
 140   8 O     -0.498  1.734  4.764  0.000    23.749     6.534
 141   6 C     -0.024  1.067  2.958  0.000    20.972     6.513
 142   6 C     -0.065  1.051  3.015  0.000    21.749     6.639
 143   6 C     -0.118  1.039  3.079  0.000    22.816     6.811
 144   6 C     -0.107  1.036  3.071  0.000    22.603     6.780
 145   1 H      0.237  0.763  0.000  0.000     0.938     1.517
 146   1 H      0.076  0.924  0.000  0.000     2.023     2.225
 147   1 H      0.054  0.946  0.000  0.000     2.275     2.359
 148   1 H      0.041  0.959  0.000  0.000     2.432     2.439
 149   1 H      0.049  0.951  0.000  0.000     2.331     2.387
 150   1 H      0.062  0.938  0.000  0.000     2.173     2.305
 151   1 H      0.038  0.962  0.000  0.000     2.469     2.457
 152   1 H      0.048  0.952  0.000  0.000     2.346     2.395
 153   1 H      0.041  0.959  0.000  0.000     2.434     2.440
 154   1 H      0.035  0.965  0.000  0.000     2.510     2.478
 155   1 H      0.043  0.957  0.000  0.000     2.403     2.424
 156   7 N     -0.193  1.257  3.937  0.000    25.193     7.455
 157   6 C      0.020  1.064  2.916  0.000    20.235     6.404
 158   6 C      0.278  1.043  2.679  0.000    22.299     7.733
 159   8 O     -0.502  1.732  4.771  0.000    23.839     6.546
 160   6 C     -0.022  1.066  2.956  0.000    20.935     6.508
 161   6 C     -0.071  1.051  3.020  0.000    21.862     6.657
 162   6 C     -0.117  1.037  3.080  0.000    22.800     6.808
 163   6 C     -0.113  1.036  3.078  0.000    22.731     6.799
 164   1 H      0.252  0.748  0.000  0.000     0.876     1.466
 165   1 H      0.076  0.924  0.000  0.000     2.025     2.225
 166   1 H      0.045  0.955  0.000  0.000     2.383     2.414
 167   1 H      0.061  0.939  0.000  0.000     2.188     2.313
 168   1 H      0.048  0.952  0.000  0.000     2.344     2.394
 169   1 H      0.058  0.942  0.000  0.000     2.220     2.330
 170   1 H      0.037  0.963  0.000  0.000     2.484     2.465
 171   1 H      0.051  0.949  0.000  0.000     2.308     2.376
 172   1 H      0.045  0.955  0.000  0.000     2.389     2.417
 173   1 H      0.041  0.959  0.000  0.000     2.439     2.442
 174   1 H      0.036  0.964  0.000  0.000     2.502     2.474
 175   7 N     -0.174  1.242  3.932  0.000    24.776     7.393
 176   6 C     -0.032  1.051  2.981  0.000    21.221     6.572
 177   6 C      0.273  1.040  2.687  0.000    22.386     7.748
 178   8 O     -0.491  1.730  4.761  0.000    23.582     6.511
 179   1 H      0.229  0.771  0.000  0.000     0.967     1.541
 180   1 H      0.089  0.911  0.000  0.000     1.892     2.151
 181   1 H      0.103  0.897  0.000  0.000     1.753     2.071
 182   7 N     -0.185  1.254  3.931  0.000    25.003     7.426
 183   6 C      0.019  1.065  2.916  0.000    20.259     6.409
 184   6 C      0.276  1.041  2.683  0.000    22.339     7.740
 185   8 O     -0.488  1.732  4.756  0.000    23.519     6.502
 186   6 C      0.106  1.050  2.843  0.000    18.934     6.214
 187   8 O     -0.490  1.730  4.760  0.000    22.675     6.428
 188   6 C     -0.138  1.044  3.094  0.000    23.221     6.872
 189   1 H      0.232  0.768  0.000  0.000     0.955     1.531
 190   1 H      0.087  0.913  0.000  0.000     1.904     2.158
 191   1 H      0.062  0.938  0.000  0.000     2.172     2.305
 192   1 H      0.342  0.658  0.000  0.000     0.606     1.223
 193   1 H      0.056  0.944  0.000  0.000     2.250     2.346
 194   1 H      0.065  0.935  0.000  0.000     2.146     2.291
 195   1 H      0.050  0.950  0.000  0.000     2.317     2.381
 196   7 N     -0.190  1.250  3.940  0.000    25.121     7.444
 197   6 C      0.021  1.063  2.916  0.000    20.221     6.403
 198   6 C      0.271  1.043  2.686  0.000    22.418     7.754
 199   8 O     -0.487  1.735  4.752  0.000    23.499     6.499
 200   6 C     -0.016  1.062  2.954  0.000    20.817     6.489
 201   6 C     -0.118  1.039  3.079  0.000    22.812     6.810
 202   6 C     -0.126  1.041  3.084  0.000    22.960     6.832
 203   1 H      0.241  0.759  0.000  0.000     0.920     1.502
 204   1 H      0.070  0.930  0.000  0.000     2.083     2.257
 205   1 H      0.047  0.953  0.000  0.000     2.356     2.401
 206   1 H      0.058  0.942  0.000  0.000     2.222     2.331
 207   1 H      0.038  0.962  0.000  0.000     2.482     2.463
 208   1 H      0.049  0.951  0.000  0.000     2.330     2.387
 209   1 H      0.054  0.946  0.000  0.000     2.271     2.357
 210   1 H      0.047  0.953  0.000  0.000     2.359     2.402
 211   1 H      0.062  0.938  0.000  0.000     2.171     2.304
 212   7 N     -0.190  1.250  3.939  0.000    25.113     7.443
 213   6 C      0.007  1.065  2.927  0.000    20.463     6.441
 214   6 C      0.265  1.042  2.693  0.000    22.522     7.771
 215   8 O     -0.498  1.740  4.758  0.000    23.749     6.534
 216   6 C      0.074  1.036  2.890  0.000    19.558     6.335
 217   8 O     -0.456  1.709  4.747  0.000    21.958     6.326
 218   1 H      0.231  0.769  0.000  0.000     0.959     1.534
 219   1 H      0.081  0.919  0.000  0.000     1.969     2.194
 220   1 H      0.039  0.961  0.000  0.000     2.469     2.457
 221   1 H      0.064  0.936  0.000  0.000     2.157     2.297
 222   1 H      0.333  0.667  0.000  0.000     0.629     1.246
 223   7 N     -0.192  1.254  3.938  0.000    25.161     7.450
 224   6 C      0.017  1.065  2.917  0.000    20.281     6.412
 225   6 C      0.273  1.043  2.683  0.000    22.378     7.747
 226   8 O     -0.478  1.726  4.753  0.000    23.307     6.473
 227   6 C     -0.017  1.061  2.957  0.000    20.850     6.495
 228   6 C     -0.126  1.042  3.084  0.000    22.966     6.833
 229   6 C     -0.125  1.042  3.082  0.000    22.944     6.829
 230   1 H      0.240  0.760  0.000  0.000     0.922     1.504
 231   1 H      0.076  0.924  0.000  0.000     2.017     2.221
 232   1 H      0.045  0.955  0.000  0.000     2.380     2.412
 233   1 H      0.065  0.935  0.000  0.000     2.145     2.290
 234   1 H      0.045  0.955  0.000  0.000     2.382     2.413
 235   1 H      0.057  0.943  0.000  0.000     2.232     2.337
 236   1 H      0.056  0.944  0.000  0.000     2.241     2.341
 237   1 H      0.050  0.950  0.000  0.000     2.314     2.379
 238   1 H      0.051  0.949  0.000  0.000     2.308     2.376
 239   7 N     -0.207  1.265  3.942  0.000    25.499     7.500
 240   6 C      0.028  1.061  2.911  0.000    20.104     6.385
 241   6 C      0.281  1.036  2.683  0.000    22.248     7.725
 242   8 O     -0.500  1.753  4.747  0.000    23.787     6.539
 243   6 C     -0.084  1.056  3.029  0.000    22.095     6.691
 244   6 C      0.011  1.083  2.906  0.000    27.770     8.644
 245   6 C     -0.043  1.080  2.963  0.000    29.067     8.842
 246   6 C     -0.043  1.078  2.965  0.000    29.068     8.842
 247   6 C     -0.035  1.080  2.955  0.000    28.864     8.810
 248   6 C     -0.032  1.079  2.952  0.000    28.791     8.799
 249   6 C     -0.037  1.079  2.957  0.000    28.915     8.818
 250   1 H      0.237  0.763  0.000  0.000     0.936     1.515
 251   1 H      0.069  0.931  0.000  0.000     2.099     2.266
 252   1 H      0.084  0.916  0.000  0.000     1.940     2.178
 253   1 H      0.069  0.931  0.000  0.000     2.097     2.265
 254   1 H      0.036  0.964  0.000  0.000     2.502     2.474
 255   1 H      0.031  0.969  0.000  0.000     2.566     2.505
 256   1 H      0.042  0.958  0.000  0.000     2.428     2.437
 257   1 H      0.030  0.970  0.000  0.000     2.580     2.512
 258   1 H      0.036  0.964  0.000  0.000     2.500     2.473
 259   7 N     -0.203  1.262  3.941  0.000    25.414     7.487
 260   6 C      0.033  1.060  2.907  0.000    20.023     6.370
 261   6 C      0.297  1.037  2.666  0.000    21.957     7.674
 262   8 O     -0.514  1.754  4.760  0.000    24.088     6.580
 263   6 C     -0.129  1.041  3.088  0.000    23.036     6.843
 264   1 H      0.240  0.760  0.000  0.000     0.924     1.506
 265   1 H      0.050  0.950  0.000  0.000     2.320     2.382
 266   1 H      0.057  0.943  0.000  0.000     2.232     2.336
 267   1 H      0.072  0.928  0.000  0.000     2.061     2.245
 268   1 H      0.065  0.935  0.000  0.000     2.141     2.288
 269   7 N     -0.188  1.242  3.946  0.000    25.073     7.437
 270   6 C     -0.021  1.052  2.969  0.000    21.016     6.539
 271   6 C      0.283  1.039  2.678  0.000    22.201     7.715
 272   8 O     -0.526  1.755  4.771  0.000    24.374     6.619
 273   1 H      0.221  0.779  0.000  0.000     1.005     1.571
 274   1 H      0.067  0.933  0.000  0.000     2.125     2.279
 275   1 H      0.077  0.923  0.000  0.000     2.014     2.220
 276   7 N     -0.184  1.250  3.934  0.000    24.990     7.425
 277   6 C      0.032  1.057  2.911  0.000    20.051     6.378
 278   6 C      0.212  1.087  2.701  0.000    23.513     7.942
 279   8 O     -0.373  1.746  4.627  0.000    21.152     6.166
 280   6 C     -0.076  1.055  3.020  0.000    21.932     6.666
 281   6 C     -0.087  1.053  3.034  0.000    22.158     6.702
 282   6 C     -0.029  1.054  2.975  0.000    21.174     6.567
 283   7 N     -0.134  1.206  3.928  0.000    23.904     7.261
 284   6 C      0.233  1.019  2.747  0.000    23.107     7.870
 285   7 N     -0.248  1.241  4.007  0.000    26.466     7.641
 286   7 N     -0.259  1.242  4.017  0.000    26.720     7.677
 287   1 H      0.253  0.747  0.000  0.000     0.873     1.463
 288   1 H      0.089  0.911  0.000  0.000     1.884     2.147
 289   1 H      0.070  0.930  0.000  0.000     2.081     2.256
 290   1 H      0.071  0.929  0.000  0.000     2.071     2.251
 291   1 H      0.086  0.914  0.000  0.000     1.917     2.165
 292   1 H      0.076  0.924  0.000  0.000     2.025     2.225
 293   1 H      0.081  0.919  0.000  0.000     1.973     2.197
 294   1 H      0.101  0.899  0.000  0.000     1.771     2.081
 295   1 H      0.234  0.766  0.000  0.000     0.950     1.527
 296   1 H      0.238  0.762  0.000  0.000     0.933     1.513
 297   1 H      0.251  0.749  0.000  0.000     0.880     1.470
 298   1 H      0.247  0.753  0.000  0.000     0.893     1.480
 299   1 H      0.253  0.747  0.000  0.000     0.872     1.463
 300   1 H      0.179  0.821  0.000  0.000     1.220     1.730
 301   1 H      0.077  0.923  0.000  0.000     2.007     2.215
 302   1 H      0.181  0.819  0.000  0.000     1.206     1.720
 303   1 H      0.083  0.917  0.000  0.000     1.951     2.184
 304   1 H      0.175  0.825  0.000  0.000     1.240     1.744
 305   1 H      0.080  0.920  0.000  0.000     1.982     2.202
 306   1 H      0.181  0.819  0.000  0.000     1.208     1.722
 307   1 H      0.058  0.942  0.000  0.000     2.224     2.332

 Mol. C6AA /au·bohr⁶  :     879097.477202
 Mol. C8AA /au·bohr⁸  :   20065453.245263
 Mol. α(0) /au        :       1416.431706

 
molecular dipole:
                 x           y           z       tot (Debye)
 q only:       69.670      21.575      59.901
   full:       71.258      21.568      57.641     239.327
molecular quadrupole (traceless):
                xx          xy          yy          xz          yz          zz
 q only:     2864.183    2325.982   -3852.219    5925.453    1855.309     988.035
  q+dip:     3258.789    2371.130   -3857.763    5841.591    1781.014     598.974
   full:     3261.365    2375.567   -3854.523    5843.828    1785.825     593.158
speedup  1.00
cpu  time for grad    5.02 s
wall time for grad    5.02 s

SCC energy    :    -459.0138891
rep           :       5.8044503
ES            :       1.0094724
AES           :      -0.0276978
AXC           :       0.1693754
disp          :      -0.3979682
XB            :       0.0000000
fix           :       0.0000000
Gborn         :       0.0000000
Gsasa         :       0.0000000
Ghb           :       0.0000000
Gshift        :       0.0000000
Gsolv         :      -0.2002976     -125.69
Etot ala COSMO:    -459.0138891
grad norm     :       0.4450385
total E       :    -453.1789228
atomizationE  :      85.1874364    53455.92
(atE without considering molecular charge,
 total energy contains solvation terms)
H-L gap (eV)  :          1.7143

------------------------------------------------------------------------
 * finished run on 2019/03/14 at 15:08:26.279     
------------------------------------------------------------------------
 total:
 * wall-time:     0 d,  0 h,  0 min,  5.885 sec
 *  cpu-time:     0 d,  0 h,  0 min,  5.730 sec
 * ratio c/w:     0.974 speedup
 SCF:
 * wall-time:     0 d,  0 h,  0 min,  5.616 sec
 *  cpu-time:     0 d,  0 h,  0 min,  5.614 sec
 * ratio c/w:     1.000 speedup

