      -----------------------------------------------------------      
     |                   =====================                   |     
     |                           x T B                           |     
     |                   =====================                   |     
     |                         S. Grimme                         |     
     |          Mulliken Center for Theoretical Chemistry        |     
     |                    University of Bonn                     |     
     |                 Version 6.0.1 (SAW181210)                 |     
      -----------------------------------------------------------      

   This program is distributed in the hope that it will be useful,
   but WITHOUT ANY WARRANTY; without even the implied warranty of
   MERCHANTABILITY or FITNESS FOR A PARTICULAR PURPOSE.
   
   FOR NON-COMMERCIAL, ACADEMIA USE ONLY.
   
   Cite this work as:
   S. Grimme, C. Bannwarth, P. Shushkov, J. Comput. Theory Chem., 2017,
   13, 1989-2009.
   C. Bannwarth, S. Ehlert and S. Grimme., ChemRxiv, 2018, preprint.
   http://doi.org/10.26434/chemrxiv.7246238.v1
   
   for sTDA-xTB:
   S. Grimme and C. Bannwarth, J. Chem. Phys., 2016, 145, 054103.
   
   in the mass-spec context:
   V. Asgeirsson, C. Bauer and S. Grimme, Chem. Sci., 2017, 8, 4879.
   
   if GBSA is used:
   P. Shushkov, F. März and S. Grimme, unpublished.
   
   for ANC optimizer:
   S. Grimme, unpublished.
   Rational Function algorithm used in ANCopt:
   F. Eckert, P. Pulay, H.-J. Werner, J. Comput. Chem., 1997, 18, 1473.
   
   with help from (in alphabetical order)
   C. Bannwarth, F. Bohle, G. Brandenburg, E. Caldeweyher, M. Checinski,
   S. Dohm, S. Ehlert, S. Ehrlich, F. März, H. Neugebauer, J. Pisarek,
   P. Pracht, P. Shushkov, and S. Spicher.
   
 * started run on 2019/03/14 at 15:08:20.140     
========================================================================
 # omp threads = 1
========================================================================
number of atoms            : 428
number of electrons        : 1134
charge                     : 0
spin                       : .0
first test random number   : .8914
           ------------------------------------------------- 
          |                 G F N 2 - x T B                 |
          | Geometry, Frequencies, Noncovalent interactions |
          |            JCTC 2018 parametrisation            |
           ------------------------------------------------- 
 
      method parameters     
 k(s)        :  1.8500
 k(p)        :  2.2300
 k(d)        :  2.2300
 k(f)        :  2.0000
 kEN (H0ij)  : -2.0000
 D4 a1       :  0.5200
 D4 a2       :  5.0000
 D4 s6       :  1.0000
 D4 s8       :  2.7000
 D4 s9       :  5.0000
 alphaj      :  2.0000

 Solvent             : h2o
 Using internal parameter file: .param_gbsa2_h2o
 Gsolv ref. state (COSMO-RS): gsolv [1 M gas/solution]
 temperature (mdtemp)       :    298.150000000000     
 dielectric constant        :    80.2000000000000     
 rho                        :    1.00000000000000     
 mass                       :    18.0000000000000     
 surface tension            :    15.5689454083859     
 probe radius               :   0.975313790000000     
 vdW radii scaling          :    1.00000000000000     
 Gshift (Eh)                :   1.857443126794793E-003
 c1                         :    1.55243817000000     
 soset                      :   0.130326360000000     
 HB correction              :  T

            Z     q(EN)     CN     RAES       Cart. coordinates
     1  N   5.0   -0.21    3.20    1.96   113.94524   103.72631    56.89863
     2  C   4.0    0.03    4.20    4.00   115.06120   105.33891    55.01445
     3  C   4.0    0.08    3.21    3.04   115.88542   103.72298    52.77300
     4  O   6.0   -0.33    1.28    1.80   115.66188   104.60962    50.64343
     5  C   4.0    0.03    4.13    3.87   117.25256   106.94566    56.03448
     6  O   6.0   -0.26    2.04    1.83   116.48057   108.72595    57.82777
     7  H   1.0    0.08    1.02    1.43   114.76551   103.63722    58.62704
     8  H   1.0    0.05    1.05    1.44   113.59812   106.62718    54.28539
     9  H   1.0    0.04    1.01    1.43   118.70749   105.67881    56.78948
    10  H   1.0    0.05    1.02    1.43   118.03892   108.02262    54.45684
    11  H   1.0    0.12    1.02    1.43   115.99882   107.82987    59.35520
    12  N   5.0   -0.21    3.23    1.96   112.92678   106.05538    46.84024
    13  C   4.0    0.03    4.30    4.20   114.83784   106.52710    44.91828
    14  C   4.0    0.08    3.26    3.05   114.48428   104.59606    42.82154
    15  O   6.0   -0.33    1.25    1.80   114.36607   105.35383    40.63157
    16  C   4.0   -0.02    4.28    4.16   117.57065   106.69405    45.94058
    17  C   4.0   -0.05    4.16    3.92   119.12495   109.01943    45.06976
    18  C   4.0   -0.07    4.16    3.91   119.11997   104.34840    45.29485
    19  C   4.0   -0.08    4.03    3.67   117.68136   111.22840    43.93409
    20  H   1.0    0.12    1.11    1.45   113.53756   105.68108    48.61534
    21  H   1.0    0.04    1.09    1.44   114.34116   108.30917    44.00219
    22  H   1.0    0.06    1.09    1.44   117.42920   106.77708    47.99007
    23  H   1.0    0.04    1.03    1.43   120.17365   109.71435    46.70463
    24  H   1.0    0.04    1.04    1.43   120.51434   108.40226    43.67332
    25  H   1.0    0.04    1.00    1.43   120.99882   104.53552    46.10127
    26  H   1.0    0.05    1.00    1.43   118.24648   102.66067    46.06381
    27  H   1.0    0.04    1.00    1.43   119.30629   104.15874    43.25377
    28  H   1.0    0.04    1.00    1.43   118.99871   112.74455    43.49921
    29  H   1.0    0.04    1.00    1.43   116.77201   110.67242    42.17511
    30  H   1.0    0.03    1.00    1.43   116.28852   111.97639    45.24310
    31  N   5.0   -0.20    3.29    1.98   108.97271   106.20656    39.05837
    32  C   4.0    0.03    4.33    4.26   109.51621   108.37114    37.51294
    33  C   4.0    0.15    3.38    3.07   111.64564   107.89009    35.57919
    34  O   6.0   -0.31    1.21    1.80   111.97256   109.35389    33.81747
    35  C   4.0   -0.03    4.33    4.25   110.30562   110.64507    39.13545
    36  C   4.0   -0.02    3.56    3.15   108.83723   110.91290    41.55686
    37  C   4.0   -0.05    3.53    3.13   110.14403   111.41115    43.77682
    38  C   4.0   -0.05    3.49    3.11   106.24609   110.56069    41.71772
    39  C   4.0   -0.05    3.39    3.07   108.90713   111.90395    46.02388
    40  C   4.0   -0.05    3.42    3.08   105.01816   110.82654    44.02027
    41  C   4.0   -0.05    3.37    3.07   106.30707   111.68332    46.12530
    42  H   1.0    0.10    1.03    1.43   109.99857   106.01778    40.67049
    43  H   1.0    0.04    1.05    1.44   107.80883   108.81376    36.42512
    44  H   1.0    0.05    1.04    1.43   112.30585   110.44769    39.61072
    45  H   1.0    0.05    1.03    1.43   110.10444   112.31645    37.93704
    46  H   1.0    0.04    1.04    1.43   112.18018   111.39439    43.73037
    47  H   1.0    0.04    1.03    1.43   105.18757   110.07627    40.04094
    48  H   1.0    0.04    1.03    1.43   109.98255   112.37895    47.69373
    49  H   1.0    0.04    1.03    1.43   103.05003   110.33188    44.20266
    50  H   1.0    0.04    1.03    1.43   105.29658   112.15233    47.83359
    51  N   5.0   -0.14    3.49    2.07   112.93622   105.73680    35.94833
    52  C   4.0    0.03    4.29    4.18   115.02293   104.84778    34.40631
    53  C   4.0    0.07    3.20    3.04   114.18250   102.60265    32.73910
    54  O   6.0   -0.29    1.13    1.80   115.35456   102.01219    30.82663
    55  C   4.0   -0.02    4.31    4.22   117.31823   104.27366    36.08470
    56  C   4.0   -0.01    3.53    3.13   119.80340   103.80039    34.78321
    57  C   4.0   -0.04    3.47    3.10   121.78766   102.72539    36.13940
    58  C   4.0   -0.03    3.51    3.12   120.24474   104.54736    32.31600
    59  C   4.0   -0.03    3.43    3.09   124.12373   102.35968    35.03719
    60  C   4.0   -0.04    3.43    3.09   122.57392   104.21850    31.19205
    61  C   4.0    0.07    3.46    3.10   124.51826   103.09668    32.54391
    62  O   6.0   -0.24    2.11    1.84   126.85087   102.73906    31.51471
    63  H   1.0    0.11    1.15    1.45   112.90615   105.02504    37.73871
    64  H   1.0    0.05    1.07    1.44   115.53803   106.34263    33.07672
    65  H   1.0    0.06    1.04    1.43   117.54293   105.91516    37.32718
    66  H   1.0    0.05    1.03    1.43   116.87454   102.64646    37.26960
    67  H   1.0    0.05    1.03    1.43   121.52420   102.22382    38.10251
    68  H   1.0    0.06    1.04    1.43   118.75919   105.43212    31.24967
    69  H   1.0    0.06    1.03    1.43   125.67994   101.54850    36.07727
    70  H   1.0    0.05    1.03    1.43   122.87673   104.83995    29.26410
    71  H   1.0    0.12    1.04    1.43   126.87233   103.41919    29.82175
    72  N   5.0   -0.16    3.40    2.02   111.16181   105.91759    26.07657
    73  C   4.0    0.03    4.37    4.32   112.93994   106.32383    24.02628
    74  C   4.0    0.09    3.21    3.04   113.79266   103.78908    22.93355
    75  O   6.0   -0.27    1.11    1.80   114.13020   103.49764    20.66705
    76  C   4.0   -0.04    4.29    4.18   115.17168   107.79110    25.14133
    77  C   4.0   -0.04    4.23    4.06   114.91020   107.51185    28.00467
    78  C   4.0    0.01    4.25    4.11   112.20455   106.62507    28.50799
    79  H   1.0    0.05    1.05    1.44   112.05762   107.36466    22.47305
    80  H   1.0    0.05    1.03    1.43   116.94690   106.99242    24.46077
    81  H   1.0    0.05    1.02    1.43   115.12236   109.76979    24.57631
    82  H   1.0    0.05    1.03    1.43   116.25174   106.08718    28.64422
    83  H   1.0    0.05    1.02    1.43   115.28869   109.28591    28.97453
    84  H   1.0    0.06    1.05    1.44   112.24038   104.99869    29.76121
    85  H   1.0    0.05    1.02    1.43   111.07775   108.10957    29.38923
    86  N   5.0   -0.21    3.22    1.96    98.52404   119.05979    51.83416
    87  C   4.0    0.03    4.26    4.11    99.82440   118.53601    49.49459
    88  C   4.0    0.07    3.24    3.04    98.52720   116.28505    48.27849
    89  O   6.0   -0.34    1.31    1.80    97.82521   116.39600    46.07871
    90  C   4.0   -0.05    4.34    4.27   102.63853   118.00958    49.81119
    91  C   4.0   -0.03    4.19    3.99   104.09387   120.28599    50.84841
    92  C   4.0   -0.08    4.10    3.81   106.88530   119.64511    51.16420
    93  C   4.0   -0.08    4.13    3.85   103.78543   122.59026    49.15512
    94  H   1.0    0.08    1.02    1.43    99.46930   118.80344    53.48340
    95  H   1.0    0.04    1.06    1.44    99.52394   120.13856    48.21152
    96  H   1.0    0.04    1.03    1.43   102.85876   116.41482    51.09721
    97  H   1.0    0.04    1.03    1.43   103.38812   117.47488    47.96046
    98  H   1.0    0.04    1.06    1.44   103.31946   120.72231    52.70387
    99  H   1.0    0.04    1.00    1.43   107.88650   121.25218    51.96218
   100  H   1.0    0.03    1.00    1.43   107.11771   118.04355    52.42867
   101  H   1.0    0.04    1.00    1.43   107.73177   119.19281    49.34813
   102  H   1.0    0.04    1.00    1.43   105.01813   124.09326    49.81605
   103  H   1.0    0.03    1.00    1.43   104.29368   122.10081    47.22671
   104  H   1.0    0.04    1.00    1.43   101.84241   123.25505    49.19952
   105  N   5.0   -0.20    3.25    1.97    92.90123   118.36225    45.31751
   106  C   4.0    0.03    4.40    4.38    93.41270   120.00039    43.18995
   107  C   4.0    0.15    3.50    3.11    94.55975   118.53151    40.99719
   108  O   6.0   -0.29    1.25    1.80    94.23636   119.27247    38.82191
   109  C   4.0   -0.02    4.27    4.14    95.21958   122.17288    43.90245
   110  C   4.0   -0.07    4.15    3.89    96.19303   123.57801    41.57600
   111  C   4.0   -0.08    4.12    3.83    93.88991   124.02575    45.65739
   112  H   1.0    0.09    1.03    1.43    94.01882   118.54415    46.87106
   113  H   1.0    0.05    1.05    1.44    91.60664   120.75072    42.50018
   114  H   1.0    0.05    1.06    1.44    96.81525   121.28842    44.87193
   115  H   1.0    0.04    1.00    1.43    97.32675   125.18589    42.15935
   116  H   1.0    0.05    1.01    1.43    97.33181   122.35966    40.38184
   117  H   1.0    0.05    1.00    1.43    94.62444   124.27692    40.44779
   118  H   1.0    0.04    1.00    1.43    95.17688   125.52184    46.22322
   119  H   1.0    0.04    1.00    1.43    92.29494   124.87457    44.68187
   120  H   1.0    0.04    1.00    1.43    93.21421   123.05043    47.32541
   121  N   5.0   -0.14    3.54    2.11    95.96942   116.53400    41.56607
   122  C   4.0    0.04    4.44    4.44    96.96111   114.95177    39.57036
   123  C   4.0    0.09    3.29    3.05    94.70407   113.47025    38.60563
   124  O   6.0   -0.27    1.12    1.80    94.26486   113.38157    36.33691
   125  C   4.0   -0.03    4.23    4.05    99.24172   113.26380    40.22253
   126  C   4.0   -0.08    4.13    3.87   101.15896   114.83637    41.68972
   127  C   4.0   -0.07    4.11    3.82    98.47772   110.81776    41.54225
   128  H   1.0    0.12    1.17    1.46    96.37370   116.11151    43.38753
   129  H   1.0    0.06    1.06    1.44    97.53647   116.20783    38.01654
   130  H   1.0    0.04    1.06    1.44   100.06186   112.73944    38.39242
   131  H   1.0    0.04    1.03    1.43   102.92769   113.86247    42.01594
   132  H   1.0    0.04    1.00    1.43   101.56820   116.53353    40.61072
   133  H   1.0    0.07    1.03    1.43   100.40155   115.34904    43.51974
   134  H   1.0    0.04    1.00    1.43   100.13961   109.72283    42.03184
   135  H   1.0    0.05    1.00    1.43    97.39389   111.17907    43.24079
   136  H   1.0    0.05    1.00    1.43    97.32654   109.67045    40.28770
   137  N   5.0   -0.22    3.20    1.96   107.48510   119.22574    25.37270
   138  C   4.0    0.03    4.23    4.07   108.60226   117.32974    27.01047
   139  C   4.0    0.15    3.42    3.08   111.33774   117.95579    27.73122
   140  O   6.0   -0.33    1.35    1.80   112.06096   117.50752    29.88957
   141  C   4.0   -0.07    4.11    3.81   108.54843   114.70949    25.81860
   142  H   1.0    0.08    1.03    1.43   107.47399   118.80595    23.51506
   143  H   1.0    0.04    1.05    1.44   107.55183   117.32158    28.80096
   144  H   1.0    0.05    1.00    1.43   109.28769   113.35758    27.17804
   145  H   1.0    0.04    1.00    1.43   106.63831   114.15072    25.31573
   146  H   1.0    0.05    1.00    1.43   109.77589   114.68047    24.17236
   147  N   5.0   -0.14    3.54    2.11   112.81029   119.02765    25.99735
   148  C   4.0    0.04    4.44    4.45   115.42522   119.66594    26.52802
   149  C   4.0    0.15    3.42    3.09   115.48318   121.91161    28.33762
   150  O   6.0   -0.32    1.27    1.80   117.09243   122.16102    29.98949
   151  C   4.0   -0.03    4.26    4.12   116.75255   120.28642    24.04774
   152  C   4.0    0.25    3.10    3.02   116.73544   117.94618    22.19539
   153  O   6.0   -0.29    1.18    1.80   116.79619   115.81372    23.17287
   154  O   6.0   -0.28    1.16    1.80   116.63941   118.46715    19.90350
   155  H   1.0    0.08    1.07    1.44   112.33255   118.99090    24.14736
   156  H   1.0    0.06    1.05    1.44   116.38491   118.06284    27.43522
   157  H   1.0    0.05    1.02    1.43   115.82361   121.86744    23.10809
   158  H   1.0    0.05    1.02    1.43   118.72943   120.76882    24.38460
   159  N   5.0   -0.15    3.53    2.10   113.62982   123.58050    27.93980
   160  C   4.0    0.03    4.43    4.43   113.21529   125.81314    29.46042
   161  C   4.0    0.15    3.44    3.09   112.34325   125.16834    32.14003
   162  O   6.0   -0.33    1.34    1.80   113.03347   126.49858    33.90832
   163  C   4.0   -0.05    4.28    4.17   111.14027   127.43925    28.24040
   164  C   4.0   -0.05    4.17    3.94   110.78410   130.01309    29.51764
   165  C   4.0   -0.01    4.20    4.00   112.53167   132.08667    28.51287
   166  N   5.0   -0.14    3.40    2.02   115.17496   131.60633    29.04608
   167  C   4.0    0.09    3.37    3.07   116.76476   130.36734    27.55160
   168  N   5.0   -0.19    3.26    1.97   116.18510   129.73024    25.19490
   169  N   5.0   -0.19    3.25    1.97   119.04937   129.77733    28.43704
   170  H   1.0    0.08    1.08    1.44   112.53807   123.39457    26.37145
   171  H   1.0    0.06    1.07    1.44   115.00721   126.82069    29.66618
   172  H   1.0    0.04    1.03    1.43   111.56695   127.65203    26.23717
   173  H   1.0    0.04    1.03    1.43   109.39038   126.36103    28.40755
   174  H   1.0    0.04    1.03    1.43   108.85508   130.65654    29.20274
   175  H   1.0    0.06    1.04    1.43   111.05091   129.79665    31.54799
   176  H   1.0    0.04    1.03    1.43   112.26952   132.29357    26.48247
   177  H   1.0    0.04    1.03    1.43   112.03263   133.87638    29.40274
   178  H   1.0    0.08    1.07    1.44   115.72032   131.90903    30.85556
   179  H   1.0    0.08    1.03    1.43   114.52144   130.19562    24.39965
   180  H   1.0    0.08    1.03    1.43   117.47389   128.83317    24.12078
   181  H   1.0    0.08    1.03    1.43   119.51729   130.16431    30.24002
   182  H   1.0    0.08    1.03    1.43   120.28846   128.79636    27.37322
   183  N   5.0   -0.15    3.54    2.11   110.72216   123.26564    32.28566
   184  C   4.0    0.03    4.40    4.37   109.57187   122.25984    34.54607
   185  C   4.0    0.15    3.48    3.10   111.42325   120.52086    35.87884
   186  O   6.0   -0.34    1.37    1.80   111.31085   120.17068    38.15936
   187  C   4.0   -0.05    4.37    4.33   107.18247   120.78269    33.85164
   188  C   4.0   -0.02    4.19    3.98   105.95307   119.27023    35.99760
   189  C   4.0   -0.08    4.10    3.80   104.55282   120.95988    37.86192
   190  C   4.0   -0.08    4.12    3.83   104.14677   117.35558    34.81704
   191  H   1.0    0.08    1.09    1.44   110.21174   122.42941    30.63638
   192  H   1.0    0.05    1.05    1.44   109.07175   123.78269    35.85770
   193  H   1.0    0.04    1.03    1.43   105.82262   122.12982    33.08845
   194  H   1.0    0.05    1.04    1.43   107.70663   119.46526    32.35914
   195  H   1.0    0.05    1.06    1.44   107.40413   118.23615    37.04386
   196  H   1.0    0.04    1.00    1.43   103.32742   119.81853    39.05253
   197  H   1.0    0.04    1.00    1.43   105.88053   121.95286    39.06369
   198  H   1.0    0.04    1.00    1.43   103.39403   122.33760    36.87950
   199  H   1.0    0.04    1.00    1.43   102.98780   116.45314    36.25311
   200  H   1.0    0.04    1.00    1.43   102.88992   118.28213    33.49295
   201  H   1.0    0.04    1.00    1.43   105.20861   115.92792    33.79434
   202  N   5.0   -0.13    3.58    2.14   113.16040   119.44510    34.40030
   203  C   4.0    0.04    4.45    4.46   115.11586   117.83300    35.44834
   204  C   4.0    0.16    3.49    3.11   117.07758   119.58742    36.60479
   205  O   6.0   -0.33    1.36    1.80   117.84374   119.25877    38.76681
   206  C   4.0   -0.03    4.33    4.25   116.21037   116.10400    33.42408
   207  C   4.0   -0.01    3.53    3.13   117.90732   114.00201    34.32893
   208  C   4.0   -0.04    3.48    3.11   118.99964   112.46329    32.49410
   209  C   4.0   -0.03    3.47    3.10   118.41317   113.48634    36.84927
   210  C   4.0   -0.04    3.38    3.07   120.58555   110.50068    33.15496
   211  C   4.0   -0.04    3.38    3.07   119.96724   111.48246    37.51415
   212  C   4.0   -0.04    3.37    3.07   121.06323   109.98673    35.67647
   213  H   1.0    0.12    1.14    1.45   112.83044   119.24295    32.52036
   214  H   1.0    0.05    1.06    1.44   114.33027   116.68586    36.98602
   215  H   1.0    0.07    1.04    1.43   114.60818   115.23825    32.45003
   216  H   1.0    0.06    1.03    1.43   117.23614   117.24973    32.04119
   217  H   1.0    0.05    1.03    1.43   118.59363   112.80902    30.52000
   218  H   1.0    0.06    1.04    1.43   117.61887   114.65411    38.31816
   219  H   1.0    0.05    1.03    1.43   121.45245   109.37004    31.69871
   220  H   1.0    0.04    1.03    1.43   120.33972   111.09073    39.47990
   221  H   1.0    0.05    1.03    1.43   122.27098   108.42300    36.18612
   222  N   5.0   -0.14    3.50    2.08   117.75754   121.57506    35.21614
   223  C   4.0    0.04    4.44    4.45   119.35270   123.49436    36.34868
   224  C   4.0    0.16    3.49    3.11   117.91764   124.71977    38.54248
   225  O   6.0   -0.32    1.41    1.80   118.90347   124.83492    40.63800
   226  C   4.0   -0.05    4.32    4.23   120.28432   125.49280    34.47978
   227  C   4.0   -0.02    4.15    3.91   122.84975   124.94121    33.20568
   228  C   4.0   -0.08    4.11    3.83   123.98491   127.43197    32.27326
   229  C   4.0   -0.08    4.13    3.86   124.73736   123.66492    34.97414
   230  H   1.0    0.11    1.11    1.44   117.37930   121.65765    33.33454
   231  H   1.0    0.05    1.08    1.44   120.96204   122.56284    37.25739
   232  H   1.0    0.06    1.03    1.43   118.84811   125.71570    33.02063
   233  H   1.0    0.04    1.04    1.43   120.47752   127.25869    35.52999
   234  H   1.0    0.05    1.05    1.44   122.53213   123.68565    31.59427
   235  H   1.0    0.04    1.00    1.43   125.89226   127.12756    31.57804
   236  H   1.0    0.04    1.01    1.43   122.88001   128.21812    30.74336
   237  H   1.0    0.04    1.00    1.43   124.08098   128.79392    33.81074
   238  H   1.0    0.04    1.00    1.43   126.60954   123.67802    34.13066
   239  H   1.0    0.04    1.00    1.43   124.84650   124.66024    36.77053
   240  H   1.0    0.04    1.00    1.43   124.23189   121.69869    35.29677
   241  N   5.0   -0.14    3.50    2.08   115.62346   125.65603    38.12268
   242  C   4.0    0.04    4.43    4.43   114.23534   126.87276    40.15971
   243  C   4.0    0.17    3.57    3.15   114.07862   125.07548    42.39892
   244  O   6.0   -0.32    1.41    1.80   114.71392   125.79304    44.50644
   245  C   4.0   -0.03    4.32    4.24   111.61445   127.75309    39.26832
   246  C   4.0   -0.01    3.58    3.15   109.68009   127.90653    41.34764
   247  C   4.0   -0.05    3.45    3.10   109.14599   130.15399    42.59498
   248  C   4.0   -0.04    3.50    3.12   108.28867   125.77106    41.96276
   249  C   4.0   -0.04    3.44    3.09   107.24336   130.26327    44.37890
   250  C   4.0   -0.05    3.42    3.09   106.37874   125.85146    43.73676
   251  C   4.0    0.06    3.45    3.09   105.83406   128.11548    44.95278
   252  O   6.0   -0.25    2.11    1.84   103.95505   128.35208    46.69102
   253  H   1.0    0.12    1.15    1.45   114.83710   125.78423    36.36972
   254  H   1.0    0.05    1.05    1.44   115.31259   128.50208    40.86336
   255  H   1.0    0.04    1.03    1.43   111.81179   129.59570    38.37477
   256  H   1.0    0.06    1.04    1.43   110.94358   126.41886    37.85390
   257  H   1.0    0.05    1.03    1.43   110.20224   131.84393    42.16020
   258  H   1.0    0.05    1.04    1.43   108.70285   124.01124    41.02010
   259  H   1.0    0.06    1.03    1.43   106.77997   132.00482    45.33318
   260  H   1.0    0.04    1.03    1.43   105.29501   124.16434    44.11561
   261  H   1.0    0.11    1.04    1.43   103.07499   126.76621    46.90699
   262  N   5.0   -0.14    3.53    2.10   113.22848   122.75300    41.97242
   263  C   4.0    0.04    4.55    4.60   113.05635   121.00793    44.06161
   264  C   4.0    0.16    3.64    3.19   115.63318   120.70975    45.28496
   265  O   6.0   -0.33    1.43    1.80   115.84430   120.81108    47.58974
   266  C   4.0   -0.02    4.30    4.21   112.16683   118.34305    43.33132
   267  C   4.0   -0.08    4.23    4.06   113.05314   116.48249    45.34360
   268  C   4.0   -0.07    4.11    3.82   109.30337   118.17374    43.08448
   269  H   1.0    0.12    1.14    1.45   112.71852   122.10793    40.23937
   270  H   1.0    0.05    1.05    1.44   111.79946   121.80881    45.51226
   271  H   1.0    0.06    1.06    1.44   113.03352   117.85193    41.52323
   272  H   1.0    0.04    1.05    1.44   112.44875   114.61562    44.82879
   273  H   1.0    0.05    1.02    1.43   115.09494   116.45616    45.52037
   274  H   1.0    0.04    1.00    1.43   112.21811   116.95147    47.16079
   275  H   1.0    0.04    1.00    1.43   108.78617   116.33669    42.32489
   276  H   1.0    0.03    1.00    1.43   108.42866   118.38474    44.92997
   277  H   1.0    0.05    1.00    1.43   108.59304   119.62140    41.82628
   278  N   5.0   -0.14    3.55    2.11   117.56292   120.12266    43.78577
   279  C   4.0    0.03    4.46    4.47   120.00140   119.51191    44.86831
   280  C   4.0    0.17    3.58    3.16   120.91372   121.78189    46.37776
   281  O   6.0   -0.33    1.42    1.80   121.69450   121.53241    48.55029
   282  C   4.0   -0.04    4.32    4.23   121.91381   118.74988    42.81874
   283  C   4.0   -0.01    3.59    3.16   124.57285   119.60887    43.36236
   284  C   4.0   -0.04    3.47    3.10   125.93434   120.88585    41.51534
   285  C   4.0   -0.03    3.51    3.12   125.71525   119.16276    45.68657
   286  C   4.0   -0.04    3.37    3.07   128.34093   121.78587    41.99709
   287  C   4.0   -0.04    3.38    3.07   128.10744   120.09474    46.18775
   288  C   4.0   -0.04    3.37    3.07   129.41660   121.42312    44.35292
   289  H   1.0    0.12    1.13    1.45   117.38197   119.93801    41.88757
   290  H   1.0    0.04    1.05    1.44   119.75571   117.97776    46.25073
   291  H   1.0    0.04    1.03    1.43   121.86617   116.69737    42.60706
   292  H   1.0    0.06    1.05    1.44   121.30585   119.57038    41.03260
   293  H   1.0    0.05    1.03    1.43   125.11178   121.15600    39.66983
   294  H   1.0    0.05    1.03    1.43   124.72396   118.10253    47.12256
   295  H   1.0    0.05    1.03    1.43   129.36665   122.78349    40.54152
   296  H   1.0    0.05    1.03    1.43   128.95464   119.79567    48.02135
   297  H   1.0    0.05    1.03    1.43   131.27607   122.15252    44.76124
   298  N   5.0   -0.14    3.56    2.12   120.80761   123.98673    45.21319
   299  C   4.0    0.04    4.43    4.43   121.46318   126.33523    46.45115
   300  C   4.0    0.16    3.55    3.14   119.93853   126.55859    48.88905
   301  O   6.0   -0.33    1.39    1.80   120.99795   126.89469    50.94673
   302  C   4.0   -0.03    4.33    4.26   120.96557   128.52124    44.60709
   303  C   4.0   -0.01    3.57    3.15   120.20016   130.97981    45.81185
   304  C   4.0   -0.04    3.47    3.10   118.24633   132.38517    44.75654
   305  C   4.0   -0.03    3.49    3.11   121.42964   131.91790    47.93391
   306  C   4.0   -0.04    3.37    3.07   117.53283   134.67576    45.79243
   307  C   4.0   -0.04    3.37    3.07   120.69840   134.19467    48.99588
   308  C   4.0   -0.04    3.37    3.07   118.76066   135.58432    47.91664
   309  H   1.0    0.12    1.16    1.46   120.13852   124.10263    43.41954
   310  H   1.0    0.05    1.05    1.44   123.45860   126.25925    47.02212
   311  H   1.0    0.04    1.03    1.43   122.68269   128.79606    43.49313
   312  H   1.0    0.07    1.05    1.44   119.46057   127.93105    43.32939
   313  H   1.0    0.05    1.03    1.43   117.28751   131.68802    43.09415
   314  H   1.0    0.06    1.03    1.43   122.96605   130.86599    48.77021
   315  H   1.0    0.05    1.03    1.43   116.01057   135.74456    44.95382
   316  H   1.0    0.06    1.03    1.43   121.63962   134.87353    50.67697
   317  H   1.0    0.05    1.03    1.43   118.21588   137.37288    48.73081
   318  N   5.0   -0.14    3.53    2.10   117.46350   126.34303    48.67436
   319  C   4.0    0.04    4.52    4.57   115.85664   126.59252    50.86258
   320  C   4.0    0.16    3.49    3.11   116.48506   124.59967    52.85621
   321  O   6.0   -0.34    1.41    1.80   116.65106   125.31441    55.06223
   322  C   4.0   -0.02    4.26    4.13   113.04581   126.58876    50.14861
   323  C   4.0   -0.08    4.14    3.89   111.40511   126.61425    52.52083
   324  C   4.0   -0.07    4.13    3.87   112.40666   128.92653    48.58681
   325  H   1.0    0.12    1.15    1.45   116.61602   126.00896    46.97963
   326  H   1.0    0.05    1.06    1.44   116.28454   128.40347    51.79683
   327  H   1.0    0.06    1.05    1.44   112.67794   124.88384    49.04211
   328  H   1.0    0.04    1.00    1.43   109.42324   126.60061    51.98802
   329  H   1.0    0.04    1.00    1.43   111.79227   125.01266    53.74378
   330  H   1.0    0.04    1.00    1.43   111.76992   128.32060    53.60748
   331  H   1.0    0.05    1.00    1.43   110.43547   128.84619    48.01778
   332  H   1.0    0.04    1.00    1.43   112.71444   130.60779    49.72488
   333  H   1.0    0.06    1.01    1.43   113.55322   129.05694    46.89492
   334  N   5.0   -0.14    3.52    2.09   116.77445   122.20128    52.18909
   335  C   4.0    0.03    4.50    4.53   117.24714   120.22003    54.04291
   336  C   4.0    0.16    3.54    3.13   119.86869   120.63748    55.15290
   337  O   6.0   -0.32    1.34    1.80   120.33555   120.53964    57.42611
   338  C   4.0   -0.02    4.29    4.18   116.85885   117.53027    52.95698
   339  C   4.0   -0.05    4.16    3.93   115.75369   115.71984    54.95302
   340  C   4.0   -0.07    4.13    3.86   119.24169   116.40574    51.76787
   341  C   4.0   -0.07    4.03    3.67   117.19998   115.62976    57.43944
   342  H   1.0    0.13    1.18    1.46   116.52993   121.67370    50.36218
   343  H   1.0    0.04    1.07    1.44   115.88828   120.49493    55.57181
   344  H   1.0    0.05    1.06    1.44   115.44405   117.72949    51.46001
   345  H   1.0    0.03    1.03    1.43   113.80159   116.25489    55.34967
   346  H   1.0    0.04    1.03    1.43   115.74254   113.81665    54.15742
   347  H   1.0    0.04    1.00    1.43   118.79143   114.62982    50.83458
   348  H   1.0    0.06    1.01    1.43   120.02699   117.69581    50.38122
   349  H   1.0    0.04    1.00    1.43   120.69260   116.02667    53.17293
   350  H   1.0    0.05    1.00    1.43   116.50148   114.08854    58.60203
   351  H   1.0    0.05    1.00    1.43   119.20177   115.31729    57.11033
   352  H   1.0    0.05    1.00    1.43   117.00363   117.38248    58.48892
   353  N   5.0   -0.14    3.60    2.16   121.64393   121.18090    53.45923
   354  C   4.0    0.04    4.50    4.54   124.16916   121.68155    54.31631
   355  C   4.0    0.17    3.62    3.18   124.07810   123.83321    56.22355
   356  O   6.0   -0.32    1.36    1.80   125.55989   123.83240    57.99820
   357  C   4.0   -0.03    4.09    3.79   126.04355   122.24548    52.19134
   358  S   6.0   -0.04    2.43    3.10   126.74683   125.58616    51.68450
   359  H   1.0    0.12    1.17    1.46   121.27095   121.31240    51.58420
   360  H   1.0    0.06    1.06    1.44   124.84607   120.01211    55.36134
   361  H   1.0    0.04    1.08    1.44   127.87913   121.43567    52.64587
   362  H   1.0    0.06    1.08    1.44   125.35109   121.48470    50.41244
   363  H   1.0    0.08    1.03    1.43   124.39174   126.29840    51.08453
   364  N   5.0   -0.13    3.56    2.12   122.32022   125.61664    55.88459
   365  C   4.0    0.04    4.39    4.37   122.31479   127.86941    57.43236
   366  C   4.0    0.15    3.43    3.09   120.62654   127.62579    59.76510
   367  O   6.0   -0.30    1.23    1.80   121.30514   128.60820    61.75723
   368  C   4.0    0.04    4.15    3.90   121.50743   130.18637    55.86478
   369  O   6.0   -0.25    2.04    1.83   122.26818   132.47260    56.94999
   370  H   1.0    0.12    1.12    1.45   121.40074   125.75442    54.20267
   371  H   1.0    0.06    1.06    1.44   124.23705   128.19935    58.15178
   372  H   1.0    0.06    1.02    1.43   122.42374   130.08622    54.01675
   373  H   1.0    0.05    1.01    1.43   119.44910   130.14267    55.60265
   374  H   1.0    0.13    1.02    1.43   121.73753   132.53807    58.70023
   375  N   5.0   -0.14    3.55    2.12   118.47084   126.36784    59.52026
   376  C   4.0    0.04    4.52    4.56   116.84605   125.88891    61.67219
   377  C   4.0    0.16    3.47    3.10   118.06620   123.89214    63.35849
   378  O   6.0   -0.28    1.21    1.80   117.59374   123.83289    65.62695
   379  C   4.0   -0.02    4.31    4.22   114.13588   125.00452    61.00737
   380  C   4.0   -0.04    4.22    4.04   114.24111   122.31780    59.91653
   381  C   4.0   -0.07    4.12    3.83   112.84496   126.94849    59.31584
   382  C   4.0   -0.08    4.02    3.66   111.90263   121.48915    58.45580
   383  H   1.0    0.12    1.17    1.46   117.90055   125.80528    57.77417
   384  H   1.0    0.06    1.06    1.44   116.71979   127.63464    62.78512
   385  H   1.0    0.05    1.06    1.44   113.11741   124.93564    62.80832
   386  H   1.0    0.06    1.04    1.43   115.87291   122.21504    58.67229
   387  H   1.0    0.05    1.03    1.43   114.55965   120.99843    61.47020
   388  H   1.0    0.04    1.00    1.43   110.92584   126.40185    58.83164
   389  H   1.0    0.04    1.00    1.43   112.76318   128.73990    60.31442
   390  H   1.0    0.06    1.01    1.43   113.90539   127.18888    57.58171
   391  H   1.0    0.04    1.00    1.43   112.00265   119.47558    58.05577
   392  H   1.0    0.04    1.00    1.43   110.18918   121.82615    59.53083
   393  H   1.0    0.04    1.00    1.43   111.77737   122.50320    56.67671
   394  N   5.0   -0.14    3.47    2.06   119.55684   122.25489    62.16818
   395  C   4.0    0.03    4.23    4.06   121.09142   120.35546    63.36200
   396  C   4.0    0.16    3.36    3.07   123.58396   121.45384    64.30058
   397  O   6.0   -0.27    1.26    1.80   124.45881   120.75893    66.31537
   398  H   1.0    0.11    1.13    1.45   119.75604   122.35016    60.26621
   399  H   1.0    0.07    1.03    1.43   120.16139   119.58451    65.04402
   400  H   1.0    0.05    1.02    1.43   121.43432   118.84596    61.99749
   401  N   5.0   -0.13    3.47    2.06   124.69475   123.28702    62.94336
   402  C   4.0    0.06    4.40    4.38   126.90028   124.51377    64.02884
   403  C   4.0    0.10    3.30    3.05   125.97967   126.08289    66.26410
   404  O   6.0   -0.26    1.12    1.80   127.17792   126.19394    68.23952
   405  C   4.0    0.06    4.20    4.01   128.49377   126.09531    62.16065
   406  O   6.0   -0.24    2.11    1.84   131.06125   125.59745    62.74598
   407  C   4.0   -0.06    4.09    3.78   127.92596   128.92588    62.26966
   408  H   1.0    0.12    1.12    1.45   124.36594   123.54653    61.07469
   409  H   1.0    0.08    1.06    1.44   128.18041   123.07600    64.81164
   410  H   1.0    0.07    1.07    1.44   128.10571   125.39512    60.25551
   411  H   1.0    0.12    1.02    1.43   132.11436   126.54059    61.58979
   412  H   1.0    0.05    1.00    1.43   128.96345   129.91102    60.79366
   413  H   1.0    0.06    1.00    1.43   125.92235   129.26816    61.99935
   414  H   1.0    0.06    1.00    1.43   128.48991   129.69208    64.09324
   415  H   1.0    0.09    1.07    1.44   112.34863   104.22786    57.20167
   416  H   1.0    0.05    1.04    1.43   116.58523   101.99172    53.06293
   417  H   1.0    0.09    1.07    1.44   111.92111   107.41901    46.98760
   418  H   1.0    0.05    1.04    1.43   114.35383   102.75826    43.24173
   419  H   1.0    0.09    1.08    1.44   107.34541   106.25450    39.55046
   420  H   1.0    0.06    1.04    1.44   112.65410   101.59610    33.21016
   421  H   1.0    0.09    1.11    1.45   109.68014   106.66235    25.69900
   422  H   1.0    0.07    1.05    1.44   114.08851   102.31704    24.08100
   423  H   1.0    0.09    1.07    1.44    98.03848   120.68953    51.86126
   424  H   1.0    0.05    1.05    1.44    98.24414   114.70519    49.27597
   425  H   1.0    0.09    1.07    1.44    91.31634   118.63106    45.87287
   426  H   1.0    0.06    1.05    1.44    93.57628   112.56690    39.82346
   427  H   1.0    0.09    1.07    1.44   105.86188   119.47346    25.81580
   428  H   1.0    0.07    1.05    1.44   124.36237   127.05191    66.13601

  Z AO/shell   Hii/eV     exponent
  1     Wed Apr 25 08:07:45 CEST 2018   EN: 2.200 GM2: 0.406  GM3: 0.0800  RAES: 1.40
     1s    -10.707211    1.230000
  6     Wed Apr 25 08:07:45 CEST 2018   EN: 2.550 GM2: 0.538  GM3: 0.1500  RAES: 3.00
     2s    -13.970922    2.096432
     2p    -10.063292    1.800000
  7     Wed Apr 25 08:07:45 CEST 2018   EN: 3.040 GM2: 0.461  GM3:-0.0640  RAES: 1.90
     2s    -16.686243    2.339881
     2p    -12.523956    2.014332
  8     Wed Apr 25 08:07:45 CEST 2018   EN: 3.440 GM2: 0.452  GM3:-0.0517  RAES: 1.80
     2s    -20.229985    2.439742
     2p    -15.503117    2.137023
 16     Tue Apr 24 11:44:34 CEST 2018   EN: 2.580 GM2: 0.340  GM3:-0.0502  RAES: 3.10
     3s    -20.029654    1.981333
     3p    -11.377694    2.025643
     3d     -0.420282    1.702555
 no old-style atom pair restraining (fixing) potential

molecular fragmentation (1/2 indicates fragments):
111111111112222222222222222222222222222222222222222222222222222222222222
222222222222222222222222222222222222222222222222222222222222222222222222
222222222222222222222222222222222222222222222222222222222222222222222222
222222222222222222222222222222222222222222222222222222222222222222222222
222222222222222222222222222222222222222222222222222222222222222222222222
22222222222222222222222222222222222222222222222222222211222222222222
# atoms in fragment 1/2:    13   415
 fragment masses (1/2) :       89.09     2790.48
CMA distance (Bohr)    :  18.505
constraining FC (au)   :  0.0500
           ------------------------------------------------- 
          |        Self-Consistent Charge Iterations        |
           ------------------------------------------------- 

 Ncao       : 1046
 Nao        : 1045
 Nshell     : 633
 Nel        : 1134
 T(el)      :   500.0
 intcut     :    35.0
 scfconv/Eh :  0.100E-06
   qconv/e  :  0.100E-04
 intneglect :  0.100E-08
 broydamp   :      0.400
 iter      E             dE          RMSdq      gap      omega  full diag
   1   -642.8491094 -0.642849E+03  0.443E+00    2.88       0.0  T
   2   -644.1248698 -0.127576E+01  0.214E+00    1.74       1.0  T
   3   -644.1879610 -0.630913E-01  0.118E+00    2.07       1.0  T
   4   -644.2937586 -0.105798E+00  0.223E-01    1.59       1.0  T
   5   -644.2986143 -0.485570E-02  0.108E-01    1.75       1.0  T
   6   -644.2996853 -0.107098E-02  0.465E-02    1.74       1.0  T
   7   -644.2999624 -0.277108E-03  0.202E-02    1.73       1.0  T
   8   -644.2999912 -0.288669E-04  0.963E-03    1.73       1.0  T
   9   -644.2999999 -0.866075E-05  0.443E-03    1.73       1.1  T
  10   -644.3000017 -0.175132E-05  0.201E-03    1.73       2.4  T
  11   -644.3000020 -0.323198E-06  0.998E-04    1.74       4.8  T
  12   -644.3000021 -0.969895E-07  0.452E-04    1.74      10.7  T
  13   -644.3000021 -0.234758E-07  0.228E-04    1.74      21.2  T
  14   -644.3000021 -0.387547E-08  0.956E-05    1.74      50.6  T
  15   -644.3000021 -0.705768E-09  0.398E-05    1.74     121.5  T
speedup  1.00
cpu  time for SCC    7.59 s
wall time for SCC    7.59 s

   *** convergence criteria satisfied after 15 iterations ***

          eigenvalues
 #    :         555        556        557        558        559        560        561        562
 occ. :        2.000      2.000      2.000      2.000      2.000      2.000      2.000      2.000
 eps  :       -10.644    -10.611    -10.580    -10.349    -10.280    -10.273    -10.169    -10.136
 #    :         563        564        565        566        567        568        569        570
 occ. :        2.000      2.000      2.000      2.000      2.000      0.000      0.000      0.000
 eps  :       -10.106     -9.969     -9.829     -9.809     -9.756     -8.020     -7.926     -7.818
 #    :         571        572        573        574        575        576        577        578
 occ. :        0.000      0.000      0.000      0.000      0.000      0.000      0.000      0.000
 eps  :        -7.779     -7.708     -7.701     -7.663     -7.035     -6.894     -6.801     -6.715


   #   Z            q   n(s)   n(p)   n(d)      C6AA      α(0)
   1   7 N     -0.390  1.312  4.078  0.000    30.103     8.149
   2   6 C      0.025  1.059  2.916  0.000    20.165     6.397
   3   6 C      0.186  1.096  2.718  0.000    24.016     8.026
   4   8 O     -0.357  1.743  4.613  0.000    20.833     6.120
   5   6 C      0.077  1.035  2.888  0.000    19.508     6.328
   6   8 O     -0.463  1.724  4.739  0.000    22.108     6.347
   7   1 H      0.165  0.835  0.000  0.000     1.303     1.788
   8   1 H      0.068  0.932  0.000  0.000     2.104     2.268
   9   1 H      0.034  0.966  0.000  0.000     2.531     2.488
  10   1 H      0.054  0.946  0.000  0.000     2.276     2.359
  11   1 H      0.334  0.666  0.000  0.000     0.628     1.245
  12   7 N     -0.408  1.320  4.087  0.000    30.585     8.214
  13   6 C      0.032  1.059  2.910  0.000    20.061     6.380
  14   6 C      0.200  1.095  2.705  0.000    23.733     7.978
  15   8 O     -0.375  1.745  4.630  0.000    21.185     6.171
  16   6 C     -0.031  1.071  2.960  0.000    21.087     6.532
  17   6 C     -0.065  1.054  3.011  0.000    21.750     6.640
  18   6 C     -0.115  1.042  3.073  0.000    22.747     6.800
  19   6 C     -0.103  1.035  3.068  0.000    22.526     6.769
  20   1 H      0.201  0.799  0.000  0.000     1.099     1.642
  21   1 H      0.060  0.940  0.000  0.000     2.203     2.321
  22   1 H      0.070  0.930  0.000  0.000     2.090     2.261
  23   1 H      0.036  0.964  0.000  0.000     2.506     2.475
  24   1 H      0.038  0.962  0.000  0.000     2.479     2.462
  25   1 H      0.045  0.955  0.000  0.000     2.388     2.417
  26   1 H      0.047  0.953  0.000  0.000     2.352     2.398
  27   1 H      0.031  0.969  0.000  0.000     2.578     2.511
  28   1 H      0.034  0.966  0.000  0.000     2.529     2.487
  29   1 H      0.038  0.962  0.000  0.000     2.478     2.462
  30   1 H      0.041  0.959  0.000  0.000     2.437     2.441
  31   7 N     -0.389  1.311  4.078  0.000    30.058     8.143
  32   6 C      0.034  1.058  2.908  0.000    20.018     6.373
  33   6 C      0.267  1.051  2.682  0.000    22.501     7.767
  34   8 O     -0.510  1.752  4.758  0.000    24.008     6.569
  35   6 C     -0.064  1.052  3.012  0.000    21.717     6.633
  36   6 C      0.012  1.081  2.906  0.000    27.739     8.639
  37   6 C     -0.045  1.080  2.965  0.000    29.122     8.850
  38   6 C     -0.040  1.077  2.963  0.000    28.999     8.831
  39   6 C     -0.035  1.080  2.955  0.000    28.872     8.811
  40   6 C     -0.037  1.083  2.954  0.000    28.915     8.818
  41   6 C     -0.035  1.079  2.956  0.000    28.881     8.813
  42   1 H      0.152  0.848  0.000  0.000     1.385     1.843
  43   1 H      0.046  0.954  0.000  0.000     2.374     2.410
  44   1 H      0.034  0.966  0.000  0.000     2.525     2.485
  45   1 H      0.047  0.953  0.000  0.000     2.358     2.401
  46   1 H      0.033  0.967  0.000  0.000     2.538     2.491
  47   1 H      0.035  0.965  0.000  0.000     2.519     2.482
  48   1 H      0.044  0.956  0.000  0.000     2.398     2.421
  49   1 H      0.053  0.947  0.000  0.000     2.278     2.360
  50   1 H      0.046  0.954  0.000  0.000     2.372     2.408
  51   7 N     -0.200  1.261  3.939  0.000    25.339     7.476
  52   6 C      0.027  1.057  2.916  0.000    20.139     6.392
  53   6 C      0.197  1.091  2.712  0.000    23.797     7.989
  54   8 O     -0.369  1.758  4.611  0.000    21.067     6.154
  55   6 C     -0.069  1.054  3.015  0.000    21.811     6.648
  56   6 C      0.003  1.076  2.921  0.000    27.946     8.671
  57   6 C     -0.043  1.081  2.961  0.000    29.061     8.841
  58   6 C     -0.035  1.079  2.956  0.000    28.883     8.814
  59   6 C     -0.060  1.074  2.986  0.000    29.495     8.906
  60   6 C     -0.072  1.075  2.997  0.000    29.801     8.952
  61   6 C      0.142  1.046  2.812  0.000    24.895     8.178
  62   8 O     -0.440  1.721  4.719  0.000    21.639     6.280
  63   1 H      0.251  0.749  0.000  0.000     0.880     1.469
  64   1 H      0.086  0.914  0.000  0.000     1.923     2.169
  65   1 H      0.078  0.922  0.000  0.000     2.004     2.214
  66   1 H      0.067  0.933  0.000  0.000     2.122     2.278
  67   1 H      0.045  0.955  0.000  0.000     2.388     2.417
  68   1 H      0.042  0.958  0.000  0.000     2.420     2.433
  69   1 H      0.051  0.949  0.000  0.000     2.302     2.373
  70   1 H      0.032  0.968  0.000  0.000     2.561     2.503
  71   1 H      0.345  0.655  0.000  0.000     0.600     1.217
  72   7 N     -0.287  1.283  4.004  0.000    27.393     7.773
  73   6 C      0.033  1.060  2.906  0.000    20.007     6.367
  74   6 C      0.203  1.092  2.705  0.000    23.692     7.971
  75   8 O     -0.388  1.758  4.631  0.000    21.452     6.210
  76   6 C     -0.052  1.052  3.001  0.000    21.500     6.599
  77   6 C     -0.056  1.050  3.006  0.000    21.570     6.610
  78   6 C      0.017  1.043  2.941  0.000    20.349     6.432
  79   1 H      0.045  0.955  0.000  0.000     2.388     2.417
  80   1 H      0.035  0.965  0.000  0.000     2.513     2.479
  81   1 H      0.044  0.956  0.000  0.000     2.394     2.420
  82   1 H      0.047  0.953  0.000  0.000     2.360     2.402
  83   1 H      0.041  0.959  0.000  0.000     2.440     2.443
  84   1 H      0.035  0.965  0.000  0.000     2.521     2.483
  85   1 H      0.034  0.966  0.000  0.000     2.529     2.487
  86   7 N     -0.387  1.311  4.076  0.000    30.018     8.137
  87   6 C      0.040  1.053  2.907  0.000    19.920     6.357
  88   6 C      0.193  1.094  2.713  0.000    23.877     8.003
  89   8 O     -0.355  1.737  4.618  0.000    20.803     6.115
  90   6 C     -0.074  1.058  3.015  0.000    21.901     6.662
  91   6 C     -0.010  1.053  2.957  0.000    20.722     6.475
  92   6 C     -0.115  1.041  3.074  0.000    22.753     6.801
  93   6 C     -0.118  1.039  3.079  0.000    22.813     6.810
  94   1 H      0.167  0.833  0.000  0.000     1.290     1.779
  95   1 H      0.055  0.945  0.000  0.000     2.260     2.351
  96   1 H      0.050  0.950  0.000  0.000     2.325     2.384
  97   1 H      0.050  0.950  0.000  0.000     2.316     2.380
  98   1 H      0.036  0.964  0.000  0.000     2.500     2.473
  99   1 H      0.041  0.959  0.000  0.000     2.435     2.440
 100   1 H      0.040  0.960  0.000  0.000     2.445     2.445
 101   1 H      0.040  0.960  0.000  0.000     2.443     2.444
 102   1 H      0.046  0.954  0.000  0.000     2.368     2.406
 103   1 H      0.047  0.953  0.000  0.000     2.364     2.404
 104   1 H      0.035  0.965  0.000  0.000     2.516     2.480
 105   7 N     -0.393  1.317  4.077  0.000    30.184     8.160
 106   6 C      0.031  1.060  2.909  0.000    20.061     6.379
 107   6 C      0.271  1.047  2.683  0.000    22.424     7.755
 108   8 O     -0.533  1.758  4.775  0.000    24.534     6.641
 109   6 C     -0.016  1.064  2.953  0.000    20.831     6.491
 110   6 C     -0.111  1.039  3.072  0.000    22.676     6.790
 111   6 C     -0.113  1.039  3.074  0.000    22.717     6.795
 112   1 H      0.156  0.844  0.000  0.000     1.359     1.826
 113   1 H      0.030  0.970  0.000  0.000     2.586     2.515
 114   1 H      0.040  0.960  0.000  0.000     2.450     2.448
 115   1 H      0.049  0.951  0.000  0.000     2.329     2.386
 116   1 H      0.036  0.964  0.000  0.000     2.498     2.472
 117   1 H      0.036  0.964  0.000  0.000     2.506     2.476
 118   1 H      0.048  0.952  0.000  0.000     2.342     2.393
 119   1 H      0.038  0.962  0.000  0.000     2.482     2.464
 120   1 H      0.040  0.960  0.000  0.000     2.452     2.449
 121   7 N     -0.191  1.250  3.941  0.000    25.138     7.446
 122   6 C      0.026  1.060  2.914  0.000    20.128     6.387
 123   6 C      0.208  1.085  2.707  0.000    23.588     7.955
 124   8 O     -0.386  1.760  4.626  0.000    21.407     6.203
 125   6 C     -0.012  1.061  2.951  0.000    20.763     6.481
 126   6 C     -0.130  1.038  3.092  0.000    23.054     6.846
 127   6 C     -0.123  1.038  3.085  0.000    22.911     6.825
 128   1 H      0.262  0.738  0.000  0.000     0.839     1.435
 129   1 H      0.076  0.924  0.000  0.000     2.025     2.226
 130   1 H      0.045  0.955  0.000  0.000     2.389     2.417
 131   1 H      0.065  0.935  0.000  0.000     2.143     2.289
 132   1 H      0.042  0.958  0.000  0.000     2.426     2.436
 133   1 H      0.068  0.932  0.000  0.000     2.112     2.273
 134   1 H      0.061  0.939  0.000  0.000     2.185     2.311
 135   1 H      0.055  0.945  0.000  0.000     2.258     2.350
 136   1 H      0.032  0.968  0.000  0.000     2.552     2.498
 137   7 N     -0.395  1.312  4.082  0.000    30.228     8.166
 138   6 C      0.031  1.057  2.912  0.000    20.068     6.381
 139   6 C      0.265  1.051  2.684  0.000    22.533     7.773
 140   8 O     -0.490  1.736  4.753  0.000    23.561     6.508
 141   6 C     -0.114  1.039  3.075  0.000    22.726     6.797
 142   1 H      0.161  0.839  0.000  0.000     1.331     1.808
 143   1 H      0.056  0.944  0.000  0.000     2.250     2.346
 144   1 H      0.040  0.960  0.000  0.000     2.444     2.445
 145   1 H      0.063  0.937  0.000  0.000     2.164     2.300
 146   1 H      0.033  0.967  0.000  0.000     2.544     2.494
 147   7 N     -0.168  1.243  3.925  0.000    24.645     7.373
 148   6 C      0.034  1.056  2.909  0.000    19.998     6.367
 149   6 C      0.264  1.046  2.690  0.000    22.548     7.776
 150   8 O     -0.471  1.732  4.739  0.000    23.144     6.450
 151   6 C     -0.109  1.077  3.032  0.000    22.582     6.766
 152   6 C      0.373  1.020  2.607  0.000    20.676     7.441
 153   8 O     -0.636  1.777  4.859  0.000    27.018     6.969
 154   8 O     -0.640  1.778  4.863  0.000    27.127     6.983
 155   1 H      0.200  0.800  0.000  0.000     1.108     1.649
 156   1 H      0.064  0.936  0.000  0.000     2.150     2.293
 157   1 H      0.051  0.949  0.000  0.000     2.313     2.378
 158   1 H      0.049  0.951  0.000  0.000     2.332     2.388
 159   7 N     -0.179  1.242  3.938  0.000    24.884     7.409
 160   6 C     -0.003  1.067  2.936  0.000    20.642     6.470
 161   6 C      0.265  1.040  2.695  0.000    22.532     7.773
 162   8 O     -0.453  1.726  4.727  0.000    22.774     6.398
 163   6 C     -0.095  1.062  3.032  0.000    22.300     6.722
 164   6 C     -0.093  1.052  3.041  0.000    22.281     6.720
 165   6 C     -0.036  1.055  2.981  0.000    21.295     6.585
 166   7 N     -0.135  1.212  3.923  0.000    23.930     7.265
 167   6 C      0.225  1.019  2.756  0.000    23.257     7.896
 168   7 N     -0.241  1.221  4.020  0.000    26.302     7.617
 169   7 N     -0.254  1.230  4.023  0.000    26.597     7.659
 170   1 H      0.215  0.785  0.000  0.000     1.032     1.592
 171   1 H      0.098  0.902  0.000  0.000     1.807     2.102
 172   1 H      0.087  0.913  0.000  0.000     1.912     2.163
 173   1 H      0.073  0.927  0.000  0.000     2.056     2.242
 174   1 H      0.090  0.910  0.000  0.000     1.880     2.144
 175   1 H      0.083  0.917  0.000  0.000     1.952     2.185
 176   1 H      0.093  0.907  0.000  0.000     1.854     2.129
 177   1 H      0.105  0.895  0.000  0.000     1.743     2.064
 178   1 H      0.240  0.760  0.000  0.000     0.924     1.506
 179   1 H      0.248  0.752  0.000  0.000     0.892     1.480
 180   1 H      0.243  0.757  0.000  0.000     0.912     1.496
 181   1 H      0.240  0.760  0.000  0.000     0.924     1.506
 182   1 H      0.241  0.759  0.000  0.000     0.921     1.503
 183   7 N     -0.165  1.236  3.929  0.000    24.574     7.362
 184   6 C      0.011  1.061  2.928  0.000    20.399     6.432
 185   6 C      0.269  1.041  2.691  0.000    22.462     7.761
 186   8 O     -0.471  1.735  4.736  0.000    23.142     6.450
 187   6 C     -0.079  1.061  3.018  0.000    22.005     6.677
 188   6 C     -0.012  1.054  2.958  0.000    20.749     6.479
 189   6 C     -0.119  1.040  3.079  0.000    22.829     6.813
 190   6 C     -0.116  1.041  3.075  0.000    22.762     6.802
 191   1 H      0.200  0.800  0.000  0.000     1.108     1.649
 192   1 H      0.096  0.904  0.000  0.000     1.825     2.113
 193   1 H      0.074  0.926  0.000  0.000     2.038     2.232
 194   1 H      0.046  0.954  0.000  0.000     2.367     2.406
 195   1 H      0.041  0.959  0.000  0.000     2.434     2.440
 196   1 H      0.043  0.957  0.000  0.000     2.415     2.430
 197   1 H      0.047  0.953  0.000  0.000     2.357     2.401
 198   1 H      0.047  0.953  0.000  0.000     2.355     2.400
 199   1 H      0.045  0.955  0.000  0.000     2.390     2.417
 200   1 H      0.043  0.957  0.000  0.000     2.410     2.428
 201   1 H      0.030  0.970  0.000  0.000     2.579     2.512
 202   7 N     -0.202  1.262  3.940  0.000    25.387     7.483
 203   6 C      0.030  1.055  2.914  0.000    20.067     6.378
 204   6 C      0.271  1.043  2.686  0.000    22.419     7.754
 205   8 O     -0.491  1.733  4.757  0.000    23.580     6.511
 206   6 C     -0.074  1.052  3.022  0.000    21.897     6.661
 207   6 C      0.012  1.082  2.907  0.000    27.751     8.641
 208   6 C     -0.038  1.078  2.960  0.000    28.944     8.823
 209   6 C     -0.044  1.077  2.967  0.000    29.096     8.846
 210   6 C     -0.033  1.080  2.953  0.000    28.815     8.803
 211   6 C     -0.036  1.080  2.955  0.000    28.889     8.814
 212   6 C     -0.036  1.079  2.957  0.000    28.886     8.814
 213   1 H      0.234  0.766  0.000  0.000     0.949     1.526
 214   1 H      0.070  0.930  0.000  0.000     2.082     2.256
 215   1 H      0.078  0.922  0.000  0.000     1.995     2.209
 216   1 H      0.052  0.948  0.000  0.000     2.299     2.371
 217   1 H      0.017  0.983  0.000  0.000     2.776     2.605
 218   1 H      0.044  0.956  0.000  0.000     2.395     2.420
 219   1 H      0.031  0.969  0.000  0.000     2.565     2.505
 220   1 H      0.046  0.954  0.000  0.000     2.369     2.407
 221   1 H      0.034  0.966  0.000  0.000     2.528     2.486
 222   7 N     -0.189  1.255  3.933  0.000    25.091     7.440
 223   6 C      0.018  1.061  2.921  0.000    20.277     6.411
 224   6 C      0.272  1.045  2.683  0.000    22.411     7.753
 225   8 O     -0.497  1.734  4.762  0.000    23.710     6.529
 226   6 C     -0.090  1.064  3.027  0.000    22.217     6.710
 227   6 C     -0.018  1.059  2.959  0.000    20.862     6.497
 228   6 C     -0.132  1.046  3.087  0.000    23.095     6.851
 229   6 C     -0.114  1.039  3.075  0.000    22.743     6.800
 230   1 H      0.234  0.766  0.000  0.000     0.946     1.524
 231   1 H      0.080  0.920  0.000  0.000     1.980     2.201
 232   1 H      0.074  0.926  0.000  0.000     2.040     2.233
 233   1 H      0.071  0.929  0.000  0.000     2.077     2.254
 234   1 H      0.044  0.956  0.000  0.000     2.390     2.418
 235   1 H      0.049  0.951  0.000  0.000     2.332     2.388
 236   1 H      0.056  0.944  0.000  0.000     2.249     2.345
 237   1 H      0.053  0.947  0.000  0.000     2.277     2.360
 238   1 H      0.046  0.954  0.000  0.000     2.369     2.407
 239   1 H      0.044  0.956  0.000  0.000     2.396     2.420
 240   1 H      0.025  0.975  0.000  0.000     2.665     2.553
 241   7 N     -0.199  1.262  3.937  0.000    25.329     7.475
 242   6 C      0.024  1.063  2.912  0.000    20.168     6.394
 243   6 C      0.282  1.039  2.679  0.000    22.225     7.721
 244   8 O     -0.493  1.732  4.761  0.000    23.629     6.517
 245   6 C     -0.089  1.058  3.031  0.000    22.181     6.704
 246   6 C     -0.005  1.076  2.929  0.000    28.154     8.703
 247   6 C     -0.041  1.084  2.957  0.000    29.011     8.833
 248   6 C     -0.048  1.083  2.964  0.000    29.181     8.859
 249   6 C     -0.060  1.076  2.984  0.000    29.486     8.905
 250   6 C     -0.076  1.077  2.999  0.000    29.900     8.967
 251   6 C      0.144  1.046  2.810  0.000    24.859     8.172
 252   8 O     -0.429  1.716  4.713  0.000    21.418     6.248
 253   1 H      0.248  0.752  0.000  0.000     0.892     1.479
 254   1 H      0.070  0.930  0.000  0.000     2.086     2.259
 255   1 H      0.086  0.914  0.000  0.000     1.919     2.166
 256   1 H      0.072  0.928  0.000  0.000     2.066     2.248
 257   1 H      0.053  0.947  0.000  0.000     2.285     2.364
 258   1 H      0.042  0.958  0.000  0.000     2.423     2.434
 259   1 H      0.050  0.950  0.000  0.000     2.315     2.379
 260   1 H      0.048  0.952  0.000  0.000     2.344     2.394
 261   1 H      0.333  0.667  0.000  0.000     0.630     1.247
 262   7 N     -0.191  1.253  3.938  0.000    25.135     7.446
 263   6 C      0.026  1.061  2.914  0.000    20.132     6.387
 264   6 C      0.288  1.041  2.671  0.000    22.128     7.704
 265   8 O     -0.500  1.726  4.774  0.000    23.779     6.538
 266   6 C     -0.019  1.061  2.958  0.000    20.869     6.497
 267   6 C     -0.128  1.038  3.090  0.000    23.002     6.837
 268   6 C     -0.116  1.040  3.076  0.000    22.774     6.804
 269   1 H      0.233  0.767  0.000  0.000     0.953     1.529
 270   1 H      0.069  0.931  0.000  0.000     2.098     2.265
 271   1 H      0.050  0.950  0.000  0.000     2.317     2.380
 272   1 H      0.070  0.930  0.000  0.000     2.085     2.258
 273   1 H      0.027  0.973  0.000  0.000     2.623     2.533
 274   1 H      0.044  0.956  0.000  0.000     2.393     2.419
 275   1 H      0.048  0.952  0.000  0.000     2.343     2.393
 276   1 H      0.045  0.955  0.000  0.000     2.381     2.413
 277   1 H      0.061  0.939  0.000  0.000     2.183     2.311
 278   7 N     -0.198  1.255  3.943  0.000    25.298     7.470
 279   6 C      0.034  1.058  2.908  0.000    20.003     6.367
 280   6 C      0.284  1.039  2.677  0.000    22.190     7.714
 281   8 O     -0.513  1.733  4.780  0.000    24.069     6.578
 282   6 C     -0.083  1.056  3.028  0.000    22.079     6.688
 283   6 C      0.005  1.082  2.913  0.000    27.901     8.664
 284   6 C     -0.043  1.082  2.962  0.000    29.080     8.844
 285   6 C     -0.039  1.079  2.959  0.000    28.966     8.826
 286   6 C     -0.034  1.081  2.953  0.000    28.847     8.807
 287   6 C     -0.032  1.080  2.953  0.000    28.810     8.802
 288   6 C     -0.035  1.081  2.954  0.000    28.860     8.810
 289   1 H      0.239  0.761  0.000  0.000     0.925     1.507
 290   1 H      0.059  0.941  0.000  0.000     2.208     2.324
 291   1 H      0.064  0.936  0.000  0.000     2.150     2.293
 292   1 H      0.081  0.919  0.000  0.000     1.965     2.192
 293   1 H      0.044  0.956  0.000  0.000     2.399     2.422
 294   1 H      0.029  0.971  0.000  0.000     2.601     2.522
 295   1 H      0.047  0.953  0.000  0.000     2.357     2.401
 296   1 H      0.028  0.972  0.000  0.000     2.615     2.529
 297   1 H      0.037  0.963  0.000  0.000     2.484     2.465
 298   7 N     -0.195  1.259  3.936  0.000    25.236     7.461
 299   6 C      0.031  1.060  2.909  0.000    20.055     6.377
 300   6 C      0.283  1.040  2.677  0.000    22.208     7.718
 301   8 O     -0.519  1.746  4.773  0.000    24.200     6.596
 302   6 C     -0.090  1.058  3.032  0.000    22.205     6.707
 303   6 C      0.007  1.081  2.912  0.000    27.855     8.657
 304   6 C     -0.041  1.081  2.961  0.000    29.022     8.835
 305   6 C     -0.039  1.079  2.960  0.000    28.960     8.825
 306   6 C     -0.034  1.081  2.953  0.000    28.858     8.809
 307   6 C     -0.032  1.081  2.951  0.000    28.789     8.799
 308   6 C     -0.036  1.080  2.955  0.000    28.889     8.814
 309   1 H      0.256  0.744  0.000  0.000     0.860     1.453
 310   1 H      0.061  0.939  0.000  0.000     2.182     2.310
 311   1 H      0.077  0.923  0.000  0.000     2.008     2.216
 312   1 H      0.085  0.915  0.000  0.000     1.928     2.171
 313   1 H      0.044  0.956  0.000  0.000     2.392     2.419
 314   1 H      0.021  0.979  0.000  0.000     2.721     2.580
 315   1 H      0.053  0.947  0.000  0.000     2.279     2.361
 316   1 H      0.030  0.970  0.000  0.000     2.588     2.516
 317   1 H      0.039  0.961  0.000  0.000     2.461     2.453
 318   7 N     -0.182  1.256  3.926  0.000    24.945     7.418
 319   6 C      0.028  1.062  2.910  0.000    20.098     6.382
 320   6 C      0.275  1.045  2.680  0.000    22.343     7.740
 321   8 O     -0.509  1.730  4.779  0.000    23.980     6.566
 322   6 C     -0.015  1.060  2.955  0.000    20.815     6.489
 323   6 C     -0.114  1.040  3.074  0.000    22.738     6.798
 324   6 C     -0.123  1.041  3.082  0.000    22.906     6.823
 325   1 H      0.257  0.743  0.000  0.000     0.857     1.450
 326   1 H      0.060  0.940  0.000  0.000     2.201     2.320
 327   1 H      0.051  0.949  0.000  0.000     2.309     2.376
 328   1 H      0.059  0.941  0.000  0.000     2.207     2.323
 329   1 H      0.035  0.965  0.000  0.000     2.517     2.481
 330   1 H      0.047  0.953  0.000  0.000     2.355     2.400
 331   1 H      0.057  0.943  0.000  0.000     2.237     2.339
 332   1 H      0.044  0.956  0.000  0.000     2.402     2.424
 333   1 H      0.059  0.941  0.000  0.000     2.207     2.323
 334   7 N     -0.206  1.263  3.943  0.000    25.481     7.497
 335   6 C      0.018  1.064  2.918  0.000    20.280     6.412
 336   6 C      0.283  1.040  2.676  0.000    22.206     7.718
 337   8 O     -0.513  1.747  4.767  0.000    24.078     6.579
 338   6 C     -0.026  1.069  2.957  0.000    21.008     6.519
 339   6 C     -0.066  1.054  3.013  0.000    21.772     6.643
 340   6 C     -0.117  1.039  3.078  0.000    22.790     6.808
 341   6 C     -0.110  1.034  3.076  0.000    22.667     6.790
 342   1 H      0.256  0.744  0.000  0.000     0.859     1.451
 343   1 H      0.083  0.917  0.000  0.000     1.951     2.185
 344   1 H      0.066  0.934  0.000  0.000     2.132     2.283
 345   1 H      0.044  0.956  0.000  0.000     2.393     2.419
 346   1 H      0.059  0.941  0.000  0.000     2.207     2.323
 347   1 H      0.056  0.944  0.000  0.000     2.248     2.344
 348   1 H      0.046  0.954  0.000  0.000     2.375     2.410
 349   1 H      0.032  0.968  0.000  0.000     2.564     2.504
 350   1 H      0.051  0.949  0.000  0.000     2.302     2.373
 351   1 H      0.028  0.972  0.000  0.000     2.622     2.532
 352   1 H      0.032  0.968  0.000  0.000     2.555     2.500
 353   7 N     -0.206  1.258  3.948  0.000    25.480     7.497
 354   6 C      0.038  1.053  2.909  0.000    19.921     6.352
 355   6 C      0.293  1.038  2.669  0.000    22.031     7.687
 356   8 O     -0.494  1.740  4.754  0.000    23.663     6.522
 357   6 C     -0.014  1.065  2.949  0.000    20.838     6.500
 358  16 S     -0.346  1.932  4.381  0.033   156.161    21.033
 359   1 H      0.252  0.748  0.000  0.000     0.874     1.465
 360   1 H      0.062  0.938  0.000  0.000     2.174     2.306
 361   1 H      0.064  0.936  0.000  0.000     2.156     2.296
 362   1 H      0.090  0.910  0.000  0.000     1.878     2.143
 363   1 H      0.203  0.797  0.000  0.000     1.086     1.630
 364   7 N     -0.194  1.259  3.936  0.000    25.218     7.458
 365   6 C      0.014  1.064  2.923  0.000    20.353     6.424
 366   6 C      0.265  1.042  2.693  0.000    22.534     7.774
 367   8 O     -0.521  1.754  4.768  0.000    24.257     6.603
 368   6 C      0.078  1.037  2.885  0.000    19.483     6.323
 369   8 O     -0.457  1.707  4.750  0.000    21.992     6.331
 370   1 H      0.229  0.771  0.000  0.000     0.970     1.543
 371   1 H      0.075  0.925  0.000  0.000     2.027     2.226
 372   1 H      0.075  0.925  0.000  0.000     2.031     2.229
 373   1 H      0.034  0.966  0.000  0.000     2.528     2.486
 374   1 H      0.329  0.671  0.000  0.000     0.640     1.257
 375   7 N     -0.204  1.258  3.946  0.000    25.442     7.491
 376   6 C      0.022  1.065  2.913  0.000    20.198     6.398
 377   6 C      0.278  1.040  2.682  0.000    22.291     7.731
 378   8 O     -0.514  1.752  4.762  0.000    24.089     6.580
 379   6 C     -0.018  1.066  2.953  0.000    20.867     6.497
 380   6 C     -0.064  1.048  3.016  0.000    21.728     6.636
 381   6 C     -0.127  1.040  3.087  0.000    22.986     6.836
 382   6 C     -0.109  1.036  3.073  0.000    22.646     6.786
 383   1 H      0.254  0.746  0.000  0.000     0.866     1.458
 384   1 H      0.065  0.935  0.000  0.000     2.143     2.289
 385   1 H      0.045  0.955  0.000  0.000     2.387     2.416
 386   1 H      0.041  0.959  0.000  0.000     2.432     2.438
 387   1 H      0.023  0.977  0.000  0.000     2.693     2.566
 388   1 H      0.067  0.933  0.000  0.000     2.123     2.279
 389   1 H      0.041  0.959  0.000  0.000     2.437     2.441
 390   1 H      0.065  0.935  0.000  0.000     2.145     2.290
 391   1 H      0.047  0.953  0.000  0.000     2.362     2.403
 392   1 H      0.051  0.949  0.000  0.000     2.308     2.376
 393   1 H      0.045  0.955  0.000  0.000     2.385     2.415
 394   7 N     -0.183  1.240  3.943  0.000    24.962     7.420
 395   6 C     -0.027  1.050  2.977  0.000    21.141     6.560
 396   6 C      0.278  1.041  2.680  0.000    22.292     7.732
 397   8 O     -0.498  1.748  4.750  0.000    23.743     6.533
 398   1 H      0.225  0.775  0.000  0.000     0.987     1.556
 399   1 H      0.091  0.909  0.000  0.000     1.870     2.138
 400   1 H      0.095  0.905  0.000  0.000     1.832     2.117
 401   7 N     -0.199  1.259  3.940  0.000    25.322     7.474
 402   6 C      0.029  1.061  2.910  0.000    20.090     6.382
 403   6 C      0.216  1.083  2.701  0.000    23.439     7.929
 404   8 O     -0.364  1.750  4.614  0.000    20.970     6.140
 405   6 C      0.110  1.050  2.840  0.000    18.883     6.205
 406   8 O     -0.491  1.732  4.758  0.000    22.689     6.430
 407   6 C     -0.134  1.043  3.091  0.000    23.140     6.860
 408   1 H      0.221  0.779  0.000  0.000     1.003     1.569
 409   1 H      0.097  0.903  0.000  0.000     1.813     2.106
 410   1 H      0.068  0.932  0.000  0.000     2.107     2.270
 411   1 H      0.348  0.652  0.000  0.000     0.593     1.209
 412   1 H      0.065  0.935  0.000  0.000     2.136     2.285
 413   1 H      0.056  0.944  0.000  0.000     2.245     2.343
 414   1 H      0.051  0.949  0.000  0.000     2.313     2.378
 415   1 H      0.191  0.809  0.000  0.000     1.151     1.681
 416   1 H      0.085  0.915  0.000  0.000     1.924     2.169
 417   1 H      0.172  0.828  0.000  0.000     1.258     1.757
 418   1 H      0.073  0.927  0.000  0.000     2.049     2.238
 419   1 H      0.186  0.814  0.000  0.000     1.179     1.700
 420   1 H      0.079  0.921  0.000  0.000     1.988     2.204
 421   1 H      0.179  0.821  0.000  0.000     1.222     1.732
 422   1 H      0.078  0.922  0.000  0.000     2.003     2.213
 423   1 H      0.181  0.819  0.000  0.000     1.208     1.722
 424   1 H      0.079  0.921  0.000  0.000     1.984     2.202
 425   1 H      0.179  0.821  0.000  0.000     1.220     1.730
 426   1 H      0.071  0.929  0.000  0.000     2.079     2.255
 427   1 H      0.198  0.802  0.000  0.000     1.116     1.655
 428   1 H      0.067  0.933  0.000  0.000     2.117     2.275

 Mol. C6AA /au·bohr⁶  :    1727439.188443
 Mol. C8AA /au·bohr⁸  :   39123727.175506
 Mol. α(0) /au        :       1989.148638

 
molecular dipole:
                 x           y           z       tot (Debye)
 q only:      -10.244      10.662     -13.190
   full:      -11.167       9.784     -14.962      53.577
molecular quadrupole (traceless):
                xx          xy          yy          xz          yz          zz
 q only:    -2964.531     -30.375    4726.658   -3255.797   -2378.142   -1762.127
  q+dip:    -2983.310    -366.180    4661.407   -3648.697   -2770.728   -1678.097
   full:    -2977.907    -363.783    4666.074   -3651.024   -2772.258   -1688.167
speedup  1.00
cpu  time for grad    9.74 s
wall time for grad    9.74 s

SCC energy    :    -644.3213030
rep           :       8.3851059
ES            :       1.4951174
AES           :      -0.0306537
AXC           :       0.2375228
disp          :      -0.5996559
XB            :       0.0000000
fix           :       0.0000000
Gborn         :       0.0000000
Gsasa         :       0.0000000
Ghb           :       0.0000000
Gshift        :       0.0000000
Gsolv         :      -0.3099792     -194.51
Etot ala COSMO:    -644.3213030
grad norm     :       0.5875924
total E       :    -635.8745140
atomizationE  :     121.1536593    76025.07
(atE without considering molecular charge,
 total energy contains solvation terms)
H-L gap (eV)  :          1.7355

------------------------------------------------------------------------
 * finished run on 2019/03/14 at 15:08:30.666     
------------------------------------------------------------------------
 total:
 * wall-time:     0 d,  0 h,  0 min, 10.525 sec
 *  cpu-time:     0 d,  0 h,  0 min, 10.349 sec
 * ratio c/w:     0.983 speedup
 SCF:
 * wall-time:     0 d,  0 h,  0 min, 10.198 sec
 *  cpu-time:     0 d,  0 h,  0 min, 10.197 sec
 * ratio c/w:     1.000 speedup

