      -----------------------------------------------------------      
     |                   =====================                   |     
     |                           x T B                           |     
     |                   =====================                   |     
     |                         S. Grimme                         |     
     |          Mulliken Center for Theoretical Chemistry        |     
     |                    University of Bonn                     |     
     |                Version 6.1 RC1 (SAW190329)                |     
      -----------------------------------------------------------      

   This program is distributed in the hope that it will be useful,
   but WITHOUT ANY WARRANTY; without even the implied warranty of
   MERCHANTABILITY or FITNESS FOR A PARTICULAR PURPOSE.
   
   FOR NON-COMMERCIAL, ACADEMIA USE ONLY.
   
   Cite this work as:
   S. Grimme, C. Bannwarth, P. Shushkov, J. Comput. Theory Chem., 2017,
   13, 1989-2009. DOI: 10.1021/acs.jctc.7b00118
   C. Bannwarth, S. Ehlert and S. Grimme., J. Comput. Theory Chem., 2019,
   just accepted. DOI: 10.1021/acs.jctc.8b01176
   
   for sTDA-xTB:
   S. Grimme and C. Bannwarth, J. Chem. Phys., 2016, 145, 054103.
   DOI: 10.1063/1.4959605
   
   in the mass-spec context:
   V. Asgeirsson, C. Bauer and S. Grimme, Chem. Sci., 2017, 8, 4879.
   DOI: 10.1039/c7sc00601b
   
   for metadynamics refer to:
   S. Grimme, ChemRxiv, Preprint. DOI: 10.26434/chemrxiv.7660532.v1
   
   with help from (in alphabetical order)
   C. Bannwarth, F. Bohle, G. Brandenburg, E. Caldeweyher, M. Checinski,
   S. Dohm, S. Ehlert, S. Ehrlich, F. März, H. Neugebauer, J. Pisarek,
   P. Pracht, P. Shushkov, and S. Spicher.
   
 * started run on 2019/05/31 at 05:35:29.682     

           -------------------------------------------------
          |                Calculation Setup                |
           -------------------------------------------------

          program call               : /home/lum/install/xtb/xtb-190329/bin/xtb xtb_tmp.xyz --chrg 0 --grad --gfn 2 --etemp 500 --acc 0.1 --gbsa h2o --parallel 2
          hostname                   : cpu02
          coordinate file            : xtb_tmp.xyz
          omp threads                :                     2
          number of atoms            :                    45
          number of electrons        :                   120
          charge                     :                     0
          spin                       :                   0.0
          first test random number   :      0.15783220921445


########################################################################
# WARNING! Please study the warnings concerning your input carefully
#  - XTBPATH is not set, using XTBHOME instead
#  - Process number higher than OMP_NUM_THREADS, I hope you know what you are doing.
########################################################################

           ------------------------------------------------- 
          |                 G F N 2 - x T B                 |
          | Geometry, Frequencies, Noncovalent interactions |
          |            JCTC 2018 parametrisation            |
           ------------------------------------------------- 
 
             k(s)              :                1.8500
             k(p)              :                2.2300
             k(d)              :                2.2300
             k(f)              :                2.0000
             kEN (H0ij)        :               -2.0000
             D4 a1             :                0.5200
             D4 a2             :                5.0000
             D4 s6             :                1.0000
             D4 s8             :                2.7000
             D4 s9             :                5.0000
             alphaj            :                2.0000

  Z AO/shell   Hii/eV     exponent
  1     Wed Apr 25 08:07:45 CEST 2018   EN: 2.200 GM2: 0.406  GM3: 0.0800  RAES: 1.40
     1s    -10.707211    1.230000
  6     Wed Apr 25 08:07:45 CEST 2018   EN: 2.550 GM2: 0.538  GM3: 0.1500  RAES: 3.00
     2s    -13.970922    2.096432
     2p    -10.063292    1.800000
  7     Wed Apr 25 08:07:45 CEST 2018   EN: 3.040 GM2: 0.461  GM3:-0.0640  RAES: 1.90
     2s    -16.686243    2.339881
     2p    -12.523956    2.014332
  8     Wed Apr 25 08:07:45 CEST 2018   EN: 3.440 GM2: 0.452  GM3:-0.0517  RAES: 1.80
     2s    -20.229985    2.439742
     2p    -15.503117    2.137023

 Solvent             : h2o
 Using internal parameter file: .param_gbsa2_h2o
 Gsolv ref. state (COSMO-RS): gsolv [1 M gas/solution]
 temperature (mdtemp)       :    298.150000000000     
 dielectric constant        :    80.2000000000000     
 rho                        :    1.00000000000000     
 mass                       :    18.0000000000000     
 surface tension            :    15.5689454083859     
 probe radius               :   0.975313790000000     
 vdW radii scaling          :    1.00000000000000     
 Gshift (Eh)                :   1.857443126794793E-003
 c1                         :    1.55243817000000     
 soset                      :   0.130326360000000     
 HB correction              :  T
 Number of grid points      :          230

            Z     q(EN)     CN     RAES       Cart. coordinates
     1  N   5.0   -0.69    3.00    1.93   419.68961   124.71965   220.11231
     2  C   4.0    0.07    3.98    3.59   421.11890   126.36449   218.43111
     3  C   4.0    0.29    3.02    3.02   421.09796   125.20489   215.78148
     4  O   6.0   -0.40    1.00    1.80   421.91013   123.07218   215.37816
     5  C   4.0   -0.14    3.99    3.60   423.81585   126.57589   219.44081
     6  C   4.0   -0.10    3.98    3.58   425.58878   128.16700   217.79371
     7  C   4.0   -0.22    3.98    3.59   424.75683   130.92070   217.59535
     8  C   4.0   -0.23    3.99    3.59   428.25642   128.04893   218.90065
     9  H   1.0    0.26    1.00    1.43   420.74329   123.58851   221.26139
    10  H   1.0    0.10    0.99    1.43   420.17945   128.20444   218.36161
    11  H   1.0    0.10    0.99    1.43   423.73712   127.36067   221.34444
    12  H   1.0    0.12    0.99    1.43   424.57399   124.66027   219.57138
    13  H   1.0    0.14    0.99    1.43   425.59360   127.35163   215.89013
    14  H   1.0    0.11    0.99    1.43   426.23531   132.00923   216.67364
    15  H   1.0    0.11    0.99    1.43   423.03594   131.10689   216.48912
    16  H   1.0    0.10    0.99    1.43   424.45338   131.71119   219.46554
    17  H   1.0    0.11    0.99    1.43   429.61048   128.94176   217.63882
    18  H   1.0    0.10    0.99    1.43   428.30822   129.03574   220.69925
    19  H   1.0    0.10    0.99    1.43   428.84510   126.09983   219.20915
    20  N   5.0   -0.48    3.01    1.93   420.03202   126.62122   213.97711
    21  C   4.0    0.07    4.00    3.62   420.00728   125.71506   211.39583
    22  C   4.0    0.28    3.01    3.02   422.66638   126.07093   210.30159
    23  O   6.0   -0.39    1.00    1.80   424.03581   127.82223   210.91786
    24  C   4.0   -0.21    3.98    3.59   418.00894   127.11166   209.86673
    25  H   1.0    0.23    1.00    1.43   419.68970   128.49729   214.21954
    26  H   1.0    0.13    0.99    1.43   419.58877   123.68905   211.47313
    27  H   1.0    0.10    0.99    1.43   417.95246   126.42277   207.93546
    28  H   1.0    0.11    0.99    1.43   416.16848   126.83581   210.73968
    29  H   1.0    0.12    0.99    1.43   418.43013   129.12146   209.84775
    30  N   5.0   -0.50    3.00    1.93   423.42510   124.24372   208.70895
    31  C   4.0    0.02    3.99    3.61   425.89461   124.36368   207.53912
    32  C   4.0    0.30    3.01    3.02   427.94833   125.13161   209.41635
    33  O   6.0   -0.38    1.01    1.80   429.66795   126.55844   208.79984
    34  H   1.0    0.23    1.00    1.43   422.21943   122.87684   208.15183
    35  H   1.0    0.11    0.99    1.43   426.36510   122.51499   206.75790
    36  H   1.0    0.13    0.99    1.43   425.93021   125.76574   206.01489
    37  N   5.0   -0.47    3.00    1.93   427.86920   124.09379   211.71761
    38  C   4.0    0.01    3.99    3.61   429.86968   124.64214   213.50816
    39  C   4.0    0.11    3.00    3.02   431.21895   127.12018   212.82895
    40  O   6.0   -0.38    1.00    1.80   433.51332   127.19519   212.60432
    41  H   1.0    0.26    1.00    1.43   426.45224   122.93835   212.26081
    42  H   1.0    0.10    0.99    1.43   429.07263   124.77452   215.39823
    43  H   1.0    0.13    0.99    1.43   431.29136   123.13691   213.46587
    44  H   1.0    0.29    1.00    1.43   418.71313   125.66410   221.13556
    45  H   1.0    0.16    1.00    1.43   430.21648   128.70013   212.56458

           ------------------------------------------------- 
          |        Self-Consistent Charge Iterations        |
           ------------------------------------------------- 

          ...................................................
          :                      SETUP                      :
          :.................................................:
          :  # basis functions                 108          :
          :  # atomic orbitals                 108          :
          :  # shells                           66          :
          :  # electrons                       120          :
          :  max. iterations                   250          :
          :  Hamiltonian                  GFN2-xTB          :
          :  restarted?                      false          :
          :  GBSA solvation                   true          :
          :  PC potential                    false          :
          :  electronic temp.          500.0000000     K    :
          :  accuracy                    0.1000000          :
          :  -> integral cutoff          0.3500000E+02      :
          :  -> integral neglect         0.1000000E-08      :
          :  -> SCF convergence          0.1000000E-06 Eh   :
          :  -> wf. convergence          0.1000000E-04 e    :
          :  Broyden damping             0.4000000          :
          ...................................................

 iter      E             dE          RMSdq      gap      omega  full diag
   1    -68.6730353 -0.686730E+02  0.426E+00    2.50       0.0  T
   2    -68.8720441 -0.199009E+00  0.213E+00    2.24       1.0  T
   3    -68.8773443 -0.530027E-02  0.114E+00    2.84       1.0  T
   4    -68.8784797 -0.113540E-02  0.233E-01    2.67       1.0  T
   5    -68.8798543 -0.137454E-02  0.917E-02    2.76       1.0  T
   6    -68.8798777 -0.233979E-04  0.385E-02    2.73       1.0  T
   7    -68.8798802 -0.255051E-05  0.102E-02    2.74       1.5  T
   8    -68.8798813 -0.110192E-05  0.402E-03    2.74       3.7  T
   9    -68.8798814 -0.841407E-07  0.201E-03    2.74       7.4  T
  10    -68.8798814 -0.166235E-07  0.467E-04    2.75      31.9  T
  11    -68.8798814 -0.255407E-08  0.156E-04    2.75      95.7  T
  12    -68.8798814 -0.117041E-09  0.637E-05    2.75     234.2  T
  13    -68.8798814 -0.179767E-10  0.236E-05    2.75     630.6  T

   *** convergence criteria satisfied after 13 iterations ***

         #    Occupation            Energy/Eh            Energy/eV
      -------------------------------------------------------------
         1        2.0000           -0.7238917             -19.6981
       ...           ...                  ...                  ...
        54        2.0000           -0.4301790             -11.7058
        55        2.0000           -0.4259380             -11.5904
        56        2.0000           -0.4171653             -11.3516
        57        2.0000           -0.4088128             -11.1244
        58        2.0000           -0.4038790             -10.9901
        59        2.0000           -0.4006511             -10.9023
        60        2.0000           -0.3648186              -9.9272 (HOMO)
        61                         -0.2639411              -7.1822 (LUMO)
        62                         -0.2349484              -6.3933
        63                         -0.2275676              -6.1924
        64                         -0.2201049              -5.9894
        65                         -0.0257763              -0.7014
       ...                                ...                  ...
       108                          0.6033093              16.4169
      -------------------------------------------------------------
                  HL-Gap            0.1008775 Eh            2.7450 eV
             Fermi-level           -0.3143799 Eh           -8.5547 eV

 SCC (total)                   0 d,  0 h,  0 min,  0.062 sec
 SCC setup                      ...        0 min,  0.002 sec (  3.592%)
 Dispersion                     ...        0 min,  0.001 sec (  0.894%)
 integral evaluation            ...        0 min,  0.006 sec (  9.759%)
 zeroth order Hamiltonian       ...        0 min,  0.000 sec (  0.344%)
 iterations                     ...        0 min,  0.035 sec ( 55.710%)
 molecular gradient             ...        0 min,  0.018 sec ( 28.590%)
 printout                       ...        0 min,  0.001 sec (  1.039%)

         :::::::::::::::::::::::::::::::::::::::::::::::::::::
         ::                     SUMMARY                     ::
         :::::::::::::::::::::::::::::::::::::::::::::::::::::
         :: total energy              -68.048517581595 Eh   ::
         :: total w/o Gsasa/hb        -68.039963198930 Eh   ::
         :: gradient norm               0.216994454306 Eh/α ::
         :: HOMO-LUMO gap               2.745015855231 eV   ::
         ::.................................................::
         :: SCC energy                -68.880940777498 Eh   ::
         :: -> isotropic ES             0.192933269948 Eh   ::
         :: -> anisotropic ES           0.005940416916 Eh   ::
         :: -> anisotropic XC           0.024226912278 Eh   ::
         :: -> dispersion              -0.044349932365 Eh   ::
         :: -> Gsolv                   -0.036739239123 Eh   ::
         ::    -> Gborn                -0.028184856457 Eh   ::
         ::    -> Gsasa                -0.002916801897 Eh   ::
         ::    -> Ghb                  -0.007495023895 Eh   ::
         ::    -> Gshift                0.001857443127 Eh   ::
         :: repulsion energy            0.830985536508 Eh   ::
         :: add. restraining            0.000000000000 Eh   ::
         :::::::::::::::::::::::::::::::::::::::::::::::::::::

           -------------------------------------------------
          |                Property Printout                |
           -------------------------------------------------

    * Orbital Energies and Occupations

         #    Occupation            Energy/Eh            Energy/eV
      -------------------------------------------------------------
         1        2.0000           -0.7238917             -19.6981
       ...           ...                  ...                  ...
        48        2.0000           -0.4645816             -12.6419
        49        2.0000           -0.4539166             -12.3517
        50        2.0000           -0.4400303             -11.9738
        51        2.0000           -0.4365446             -11.8790
        52        2.0000           -0.4363974             -11.8750
        53        2.0000           -0.4343578             -11.8195
        54        2.0000           -0.4301790             -11.7058
        55        2.0000           -0.4259380             -11.5904
        56        2.0000           -0.4171653             -11.3516
        57        2.0000           -0.4088128             -11.1244
        58        2.0000           -0.4038790             -10.9901
        59        2.0000           -0.4006511             -10.9023
        60        2.0000           -0.3648186              -9.9272 (HOMO)
        61                         -0.2639411              -7.1822 (LUMO)
        62                         -0.2349484              -6.3933
        63                         -0.2275676              -6.1924
        64                         -0.2201049              -5.9894
        65                         -0.0257763              -0.7014
        66                         -0.0108249              -0.2946
        67                          0.0017453               0.0475
        68                          0.0447779               1.2185
        69                          0.0478621               1.3024
        70                          0.0568939               1.5482
        71                          0.0722191               1.9652
       ...                                ...                  ...
       108                          0.6033093              16.4169
      -------------------------------------------------------------
                  HL-Gap            0.1008775 Eh            2.7450 eV
             Fermi-level           -0.3143799 Eh           -8.5547 eV

   #   Z        covCN         q      C6AA      α(0)
   1   7 N      2.638    -0.393    30.184     8.160
   2   6 C      3.786     0.032    20.042     6.377
   3   6 C      2.763     0.274    22.371     7.746
   4   8 O      0.859    -0.493    23.632     6.518
   5   6 C      3.812    -0.069    21.813     6.648
   6   6 C      3.849    -0.012    20.753     6.480
   7   6 C      3.756    -0.112    22.693     6.792
   8   6 C      3.758    -0.114    22.724     6.796
   9   1 H      0.860     0.162     1.323     1.802
  10   1 H      0.924     0.032     2.562     2.503
  11   1 H      0.924     0.045     2.386     2.415
  12   1 H      0.924     0.043     2.404     2.425
  13   1 H      0.924     0.021     2.721     2.579
  14   1 H      0.925     0.041     2.432     2.439
  15   1 H      0.925     0.032     2.556     2.500
  16   1 H      0.925     0.046     2.372     2.408
  17   1 H      0.925     0.033     2.550     2.497
  18   1 H      0.925     0.051     2.308     2.376
  19   1 H      0.925     0.034     2.530     2.487
  20   7 N      2.693    -0.172    24.733     7.386
  21   6 C      3.800     0.020    20.245     6.406
  22   6 C      2.759     0.272    22.405     7.751
  23   8 O      0.859    -0.478    23.297     6.471
  24   6 C      3.756    -0.132    23.100     6.853
  25   1 H      0.860     0.202     1.096     1.640
  26   1 H      0.924     0.080     1.983     2.202
  27   1 H      0.925     0.072     2.058     2.244
  28   1 H      0.925     0.080     1.984     2.203
  29   1 H      0.925     0.063     2.162     2.299
  30   7 N      2.687    -0.180    24.899     7.411
  31   6 C      3.746    -0.032    21.210     6.569
  32   6 C      2.758     0.291    22.064     7.692
  33   8 O      0.863    -0.465    23.021     6.433
  34   1 H      0.860     0.228     0.975     1.547
  35   1 H      0.924     0.107     1.722     2.052
  36   1 H      0.924     0.095     1.835     2.119
  37   7 N      2.687    -0.156    24.384     7.334
  38   6 C      3.746    -0.026    21.099     6.552
  39   6 C      2.765     0.227    23.235     7.894
  40   8 O      0.856    -0.408    21.844     6.266
  41   1 H      0.860     0.218     1.018     1.581
  42   1 H      0.925     0.102     1.769     2.080
  43   1 H      0.924     0.090     1.882     2.145
  44   1 H      0.862     0.187     1.177     1.699
  45   1 H      0.930     0.065     2.145     2.290

 Mol. C6AA /au·bohr⁶  :      17832.952110
 Mol. C8AA /au·bohr⁸  :     389137.000518
 Mol. α(0) /au        :        199.068288


Wiberg/Mayer (AO) data.
largest (>0.10) Wiberg bond orders for each atom
          total WBO             WBO to atom ...
     1  N   2.993        C    2 1.008    H    9 0.956    H   44 0.955
     2  C   3.986        N    1 1.008    C    5 0.980    H   10 0.965    C    3 0.939
     3  C   3.941        O    4 1.643    N   20 1.286    C    2 0.939
     4  O   1.945        C    3 1.643    N   20 0.191
     5  C   3.994        C    6 0.994    C    2 0.980    H   11 0.973    H   12 0.972
     6  C   3.996        C    7 1.009    C    8 1.007    C    5 0.994    H   13 0.965
     7  C   3.996        C    6 1.009    H   16 0.986    H   14 0.985    H   15 0.985
     8  C   3.995        C    6 1.007    H   18 0.985    H   17 0.985    H   19 0.981
     9  H   0.974        N    1 0.956
    10  H   0.999        C    2 0.965
    11  H   0.997        C    5 0.973
    12  H   0.998        C    5 0.972
    13  H   1.000        C    6 0.965
    14  H   0.998        C    7 0.985
    15  H   0.999        C    7 0.985
    16  H   0.998        C    7 0.986
    17  H   0.999        C    8 0.985
    18  H   0.997        C    8 0.985
    19  H   0.999        C    8 0.981
    20  N   3.457        C    3 1.286    C   21 0.982    H   25 0.923    O    4 0.191
    21  C   3.967        C   24 0.993    N   20 0.982    H   26 0.951    C   22 0.931
    22  C   3.944        O   23 1.655    N   30 1.279    C   21 0.931
    23  O   1.983        C   22 1.655    N   30 0.196
    24  C   3.983        C   21 0.993    H   29 0.983    H   27 0.981    H   28 0.979
    25  H   0.959        N   20 0.923
    26  H   0.994        C   21 0.951
    27  H   0.994        C   24 0.981
    28  H   0.993        C   24 0.979
    29  H   0.996        C   24 0.983
    30  N   3.451        C   22 1.279    C   31 0.996    H   34 0.920    O   23 0.196
    31  C   3.966        N   30 0.996    H   36 0.956    C   32 0.955    H   35 0.950
    32  C   3.944        O   33 1.603    N   37 1.313    C   31 0.955
    33  O   2.044        C   32 1.603    N   37 0.191
    34  H   0.948        N   30 0.920
    35  H   0.988        C   31 0.950
    36  H   0.991        C   31 0.956
    37  N   3.476        C   32 1.313    C   38 0.986    H   41 0.923    O   33 0.191
    38  C   3.962        N   37 0.986    C   39 0.981    H   43 0.958    H   42 0.937
    39  C   3.912        O   40 1.834    C   38 0.981    H   45 0.955
    40  O   2.015        C   39 1.834
    41  H   0.952        N   37 0.923
    42  H   0.990        C   38 0.937
    43  H   0.992        C   38 0.958
    44  H   0.965        N    1 0.955
    45  H   0.996        C   39 0.955
 
molecular dipole:
                 x           y           z       tot (Debye)
 q only:       -3.600      -1.053       0.029
   full:       -3.960      -0.909       0.247      10.346
molecular quadrupole (traceless):
                xx          xy          yy          xz          yz          zz
 q only:    -2953.045   -1367.521    1259.180   -1113.843    -312.878    1693.865
  q+dip:    -3332.373   -1347.817    1404.372   -1089.071    -222.391    1928.001
   full:    -3331.562   -1347.819    1403.151   -1088.964    -222.593    1928.411


           -------------------------------------------------
          | TOTAL ENERGY              -68.048517581595 Eh   |
          | GRADIENT NORM               0.216994454306 Eh/α |
          | HOMO-LUMO GAP               2.745015855231 eV   |
           -------------------------------------------------

------------------------------------------------------------------------
 * finished run on 2019/05/31 at 05:35:29.913     
------------------------------------------------------------------------
 total:
 * wall-time:     0 d,  0 h,  0 min,  0.230 sec
 *  cpu-time:     0 d,  0 h,  0 min,  0.285 sec
 * ratio c/w:     1.237 speedup
 SCF:
 * wall-time:     0 d,  0 h,  0 min,  0.063 sec
 *  cpu-time:     0 d,  0 h,  0 min,  0.125 sec
 * ratio c/w:     1.993 speedup

