      -----------------------------------------------------------      
     |                   =====================                   |     
     |                           x T B                           |     
     |                   =====================                   |     
     |                         S. Grimme                         |     
     |          Mulliken Center for Theoretical Chemistry        |     
     |                    University of Bonn                     |     
     |                Version 6.1 RC1 (SAW190329)                |     
      -----------------------------------------------------------      

   This program is distributed in the hope that it will be useful,
   but WITHOUT ANY WARRANTY; without even the implied warranty of
   MERCHANTABILITY or FITNESS FOR A PARTICULAR PURPOSE.
   
   FOR NON-COMMERCIAL, ACADEMIA USE ONLY.
   
   Cite this work as:
   S. Grimme, C. Bannwarth, P. Shushkov, J. Comput. Theory Chem., 2017,
   13, 1989-2009. DOI: 10.1021/acs.jctc.7b00118
   C. Bannwarth, S. Ehlert and S. Grimme., J. Comput. Theory Chem., 2019,
   just accepted. DOI: 10.1021/acs.jctc.8b01176
   
   for sTDA-xTB:
   S. Grimme and C. Bannwarth, J. Chem. Phys., 2016, 145, 054103.
   DOI: 10.1063/1.4959605
   
   in the mass-spec context:
   V. Asgeirsson, C. Bauer and S. Grimme, Chem. Sci., 2017, 8, 4879.
   DOI: 10.1039/c7sc00601b
   
   for metadynamics refer to:
   S. Grimme, ChemRxiv, Preprint. DOI: 10.26434/chemrxiv.7660532.v1
   
   with help from (in alphabetical order)
   C. Bannwarth, F. Bohle, G. Brandenburg, E. Caldeweyher, M. Checinski,
   S. Dohm, S. Ehlert, S. Ehrlich, F. März, H. Neugebauer, J. Pisarek,
   P. Pracht, P. Shushkov, and S. Spicher.
   
 * started run on 2019/05/31 at 06:33:01.948     

           -------------------------------------------------
          |                Calculation Setup                |
           -------------------------------------------------

          program call               : /home/lum/qr/xtb-190329/bin/xtb xtb_tmp.xyz --chrg -3 --grad --gfn 2 --etemp 500 --acc 0.1 --gbsa h2o --parallel 2
          hostname                   : cu39
          coordinate file            : xtb_tmp.xyz
          omp threads                :                     2
          number of atoms            :                   355
          number of electrons        :                  1000
          charge                     :                    -3
          spin                       :                   0.0
          first test random number   :      0.76687471903132


molecular fragmentation (1/2 indicates fragments):
111111111111111111111111111111111111111111111111111111111111111111111111
111111111111111111111111111111111111222222222222222222222222222222222222
222222222222222222222222222222222222222222222222222222222222222222222222
222222222222222222222222222222222222222222222222222222222222222222222222
2222222222222222222222222222222222222222222222222222222222211222222
# atoms in fragment 1/2:   110   245
 fragment masses (1/2) :      782.89     1763.94
CMA distance (Bohr)    :  16.189
constraining FC (au)   :  0.0500

########################################################################
# WARNING! Please study the warnings concerning your input carefully
#  - XTBPATH is not set, using XTBHOME instead
#  - Process number higher than OMP_NUM_THREADS, I hope you know what you are doing.
########################################################################

           ------------------------------------------------- 
          |                 G F N 2 - x T B                 |
          | Geometry, Frequencies, Noncovalent interactions |
          |            JCTC 2018 parametrisation            |
           ------------------------------------------------- 
 
             k(s)              :                1.8500
             k(p)              :                2.2300
             k(d)              :                2.2300
             k(f)              :                2.0000
             kEN (H0ij)        :               -2.0000
             D4 a1             :                0.5200
             D4 a2             :                5.0000
             D4 s6             :                1.0000
             D4 s8             :                2.7000
             D4 s9             :                5.0000
             alphaj            :                2.0000

  Z AO/shell   Hii/eV     exponent
  1     Wed Apr 25 08:07:45 CEST 2018   EN: 2.200 GM2: 0.406  GM3: 0.0800  RAES: 1.40
     1s    -10.707211    1.230000
  6     Wed Apr 25 08:07:45 CEST 2018   EN: 2.550 GM2: 0.538  GM3: 0.1500  RAES: 3.00
     2s    -13.970922    2.096432
     2p    -10.063292    1.800000
  7     Wed Apr 25 08:07:45 CEST 2018   EN: 3.040 GM2: 0.461  GM3:-0.0640  RAES: 1.90
     2s    -16.686243    2.339881
     2p    -12.523956    2.014332
  8     Wed Apr 25 08:07:45 CEST 2018   EN: 3.440 GM2: 0.452  GM3:-0.0517  RAES: 1.80
     2s    -20.229985    2.439742
     2p    -15.503117    2.137023

 Solvent             : h2o
 Using internal parameter file: .param_gbsa2_h2o
 Gsolv ref. state (COSMO-RS): gsolv [1 M gas/solution]
 temperature (mdtemp)       :    298.150000000000     
 dielectric constant        :    80.2000000000000     
 rho                        :    1.00000000000000     
 mass                       :    18.0000000000000     
 surface tension            :    15.5689454083859     
 probe radius               :   0.975313790000000     
 vdW radii scaling          :    1.00000000000000     
 Gshift (Eh)                :   1.857443126794793E-003
 c1                         :    1.55243817000000     
 soset                      :   0.130326360000000     
 HB correction              :  T
 Number of grid points      :          230

            Z     q(EN)     CN     RAES       Cart. coordinates
     1  N   5.0   -0.72    3.00    1.93    34.68566    52.02960   167.15351
     2  C   4.0    0.08    3.99    3.60    35.82069    52.46050   169.60716
     3  C   4.0    0.28    3.01    3.02    33.82752    53.72408   171.28101
     4  O   6.0   -0.44    1.00    1.80    32.88306    55.76752   170.75734
     5  C   4.0   -0.09    3.98    3.58    38.18340    54.14766   169.41338
     6  C   4.0   -0.24    3.98    3.59    39.24791    54.68402   172.04107
     7  C   4.0   -0.25    3.98    3.59    40.16134    52.87444   167.74795
     8  H   1.0    0.32    1.00    1.43    34.21675    53.62680   166.19832
     9  H   1.0    0.09    0.99    1.43    36.35060    50.60181   170.34554
    10  H   1.0    0.13    0.99    1.43    37.60461    55.92485   168.52254
    11  H   1.0    0.08    0.99    1.43    40.90314    55.88989   171.87812
    12  H   1.0    0.12    0.99    1.43    37.85959    55.65020   173.21135
    13  H   1.0    0.09    0.99    1.43    39.80378    52.93048   172.96062
    14  H   1.0    0.08    0.99    1.43    41.81090    54.08358   167.56242
    15  H   1.0    0.08    0.99    1.43    40.74339    51.07739   168.56055
    16  H   1.0    0.09    0.99    1.43    39.41459    52.53555   165.86377
    17  N   5.0   -0.50    3.01    1.93    33.14143    52.36746   173.30289
    18  C   4.0    0.07    3.99    3.61    31.39424    53.26960   175.21175
    19  C   4.0    0.26    3.01    3.02    32.85922    53.40060   177.70141
    20  O   6.0   -0.45    1.00    1.80    34.18275    51.63573   178.38479
    21  C   4.0   -0.14    3.98    3.59    29.15830    51.43745   175.46660
    22  C   4.0   -0.15    3.98    3.59    27.76459    51.17486   172.95092
    23  C   4.0   -0.17    3.98    3.59    25.56152    49.31358   173.13112
    24  C   4.0   -0.07    3.98    3.59    24.09979    49.32452   170.64914
    25  N   5.0   -0.74    3.98    2.82    22.07304    47.36845   170.65224
    26  H   1.0    0.23    1.00    1.43    34.09578    50.78493   173.78725
    27  H   1.0    0.15    0.99    1.43    30.74401    55.13340   174.61203
    28  H   1.0    0.11    0.99    1.43    29.89524    49.61237   176.09082
    29  H   1.0    0.11    0.99    1.43    27.89371    52.16669   176.92250
    30  H   1.0    0.15    0.99    1.43    27.08241    53.02906   172.35569
    31  H   1.0    0.13    0.99    1.43    29.10602    50.52801   171.52483
    32  H   1.0    0.09    0.99    1.43    26.31189    47.43577   173.53348
    33  H   1.0    0.10    0.99    1.43    24.33483    49.88249   174.68582
    34  H   1.0    0.11    0.99    1.43    23.26567    51.18682   170.36591
    35  H   1.0    0.10    0.99    1.43    25.39306    48.95318   169.09136
    36  H   1.0    0.21    1.00    1.43    21.02861    47.46916   169.01227
    37  H   1.0    0.21    1.00    1.43    22.86340    45.59482   170.80211
    38  H   1.0    0.22    1.00    1.43    20.89440    47.64494   172.17758
    39  N   5.0   -0.49    3.01    1.93    32.56910    55.52553   179.05190
    40  C   4.0    0.08    4.00    3.61    33.85583    55.88892   181.43624
    41  C   4.0    0.27    3.01    3.02    32.32923    57.60662   183.17198
    42  O   6.0   -0.43    1.00    1.80    31.17893    59.44978   182.37729
    43  C   4.0   -0.13    3.99    3.60    36.45972    57.17256   181.01621
    44  C   4.0   -0.04    3.03    3.02    37.69124    57.73863   183.50718
    45  C   4.0   -0.11    3.03    3.02    39.17044    55.93505   184.70809
    46  C   4.0   -0.09    3.03    3.02    37.21934    60.01528   184.72939
    47  C   4.0   -0.11    3.03    3.02    40.11665    56.37393   187.10677
    48  C   4.0   -0.09    3.03    3.02    38.14299    60.44348   187.13598
    49  C   4.0   -0.09    3.03    3.02    39.57917    58.61648   188.33874
    50  H   1.0    0.29    1.00    1.43    31.50934    56.99672   178.43044
    51  H   1.0    0.13    0.99    1.43    34.13295    54.03224   182.30163
    52  H   1.0    0.11    0.99    1.43    37.61838    55.89608   179.88836
    53  H   1.0    0.11    0.99    1.43    36.13607    58.91264   179.95751
    54  H   1.0    0.10    1.00    1.43    39.56886    54.17733   183.75384
    55  H   1.0    0.12    0.99    1.43    36.07861    61.44090   183.80492
    56  H   1.0    0.10    1.00    1.43    41.25385    54.95700   188.03027
    57  H   1.0    0.12    1.00    1.43    37.71616    62.18951   188.10278
    58  H   1.0    0.12    1.00    1.43    40.22977    58.95956   190.23946
    59  N   5.0   -0.48    3.01    1.93    32.43473    57.02962   185.63638
    60  C   4.0    0.04    4.00    3.62    31.58520    58.77971   187.54262
    61  C   4.0    0.27    3.01    3.02    32.73699    58.07857   190.08580
    62  O   6.0   -0.43    1.00    1.80    33.75739    56.03607   190.41748
    63  H   1.0    0.26    1.00    1.43    33.46091    55.56566   186.32945
    64  H   1.0    0.14    0.99    1.43    32.10569    60.71563   187.03394
    65  H   1.0    0.14    0.99    1.43    29.51985    58.75133   187.72665
    66  N   5.0   -0.48    3.01    1.93    32.47301    59.87449   191.84099
    67  C   4.0    0.09    3.99    3.60    33.22430    59.54619   194.45300
    68  C   4.0    0.28    3.02    3.02    32.58484    61.89747   195.97816
    69  O   6.0   -0.46    1.00    1.80    33.09686    64.00633   195.11714
    70  C   4.0    0.00    3.99    3.60    36.13615    59.30958   194.66098
    71  O   6.0   -0.49    1.99    1.82    37.36169    61.36021   193.51998
    72  H   1.0    0.29    1.00    1.43    31.63268    61.53236   191.36571
    73  H   1.0    0.12    0.99    1.43    32.33087    57.86845   195.26699
    74  H   1.0    0.12    0.99    1.43    36.61735    59.15679   196.68067
    75  H   1.0    0.13    0.99    1.43    36.74759    57.60481   193.67167
    76  H   1.0    0.30    0.99    1.43    36.32753    62.85104   193.80575
    77  N   5.0   -0.47    3.01    1.93    31.83007    61.51336   198.33051
    78  C   4.0    0.09    4.00    3.62    31.56201    63.55949   200.10385
    79  C   4.0    0.28    3.01    3.02    33.84700    63.66529   201.87113
    80  O   6.0   -0.39    1.00    1.80    35.34523    61.92485   202.11172
    81  C   4.0   -0.09    3.98    3.59    29.20624    63.11609   201.70751
    82  C   4.0    0.33    2.99    3.02    29.50829    60.56663   203.14911
    83  O   6.0   -0.40    1.00    1.80    29.49586    60.65187   205.49081
    84  O   6.0   -0.42    1.00    1.80    29.76344    58.62645   201.81698
    85  H   1.0    0.29    1.00    1.43    31.14656    59.84788   199.06716
    86  H   1.0    0.14    0.99    1.43    31.40990    65.33666   199.05161
    87  H   1.0    0.13    0.99    1.43    28.91709    64.67147   203.02843
    88  H   1.0    0.14    0.99    1.43    27.56453    63.01086   200.45850
    89  N   5.0   -0.50    3.02    1.93    34.04865    65.86487   203.10339
    90  C   4.0    0.07    3.99    3.60    35.74716    66.21455   205.22269
    91  C   4.0    0.06    3.01    3.02    34.15784    67.41362   207.30782
    92  O   6.0   -0.47    1.00    1.80    33.49104    69.62693   207.13215
    93  C   4.0   -0.12    3.99    3.60    37.93683    67.95460   204.41093
    94  C   4.0   -0.04    3.03    3.02    40.27933    67.55598   205.95412
    95  C   4.0   -0.11    3.03    3.02    42.48612    66.72590   204.80168
    96  C   4.0   -0.11    3.03    3.02    40.27173    67.95724   208.54918
    97  C   4.0   -0.12    3.03    3.02    44.65251    66.31417   206.20686
    98  C   4.0   -0.12    3.03    3.02    42.43332    67.52339   209.95508
    99  C   4.0   -0.13    3.03    3.02    44.63425    66.71887   208.78963
   100  H   1.0    0.30    1.00    1.43    32.70415    67.19756   202.81306
   101  H   1.0    0.14    0.99    1.43    36.42676    64.33297   205.75334
   102  H   1.0    0.12    0.99    1.43    38.32025    67.53580   202.42831
   103  H   1.0    0.12    0.99    1.43    37.24785    69.89621   204.55157
   104  H   1.0    0.10    0.99    1.43    42.48409    66.38855   202.78840
   105  H   1.0    0.11    0.99    1.43    38.54700    68.58856   209.44369
   106  H   1.0    0.09    1.00    1.43    46.34399    65.67241   205.26809
   107  H   1.0    0.09    1.00    1.43    42.37962    67.77930   211.97481
   108  H   1.0    0.08    1.00    1.43    46.31461    66.35810   209.88391
   109  N   5.0   -0.70    3.00    1.93    30.48834    73.54010   204.71601
   110  C   4.0    0.08    3.98    3.59    30.65402    73.94206   202.02299
   111  C   4.0    0.28    3.01    3.02    29.99108    71.48579   200.65660
   112  O   6.0   -0.46    1.00    1.80    30.39291    69.42261   201.64575
   113  C   4.0   -0.14    3.99    3.60    33.35440    74.70468   201.24933
   114  C   4.0   -0.11    3.97    3.58    34.38337    76.96351   202.77319
   115  C   4.0   -0.24    3.98    3.59    35.82117    76.11226   205.12842
   116  C   4.0   -0.25    3.98    3.59    36.12823    78.55273   201.11150
   117  H   1.0    0.33    1.00    1.43    31.21777    71.87704   205.33207
   118  H   1.0    0.13    0.99    1.43    29.30388    75.40967   201.49103
   119  H   1.0    0.12    0.99    1.43    34.58206    73.06281   201.48626
   120  H   1.0    0.11    0.99    1.43    33.26872    75.15356   199.23874
   121  H   1.0    0.10    0.99    1.43    32.76769    78.11824   203.35136
   122  H   1.0    0.08    0.99    1.43    36.41947    77.75906   206.19965
   123  H   1.0    0.10    0.99    1.43    34.66504    74.91547   206.33202
   124  H   1.0    0.09    0.99    1.43    37.48412    75.03991   204.57368
   125  H   1.0    0.08    0.99    1.43    36.78768    80.20295   202.13724
   126  H   1.0    0.09    0.99    1.43    37.75372    77.43928   200.53144
   127  H   1.0    0.09    0.99    1.43    35.11871    79.16479   199.43811
   128  N   5.0   -0.50    3.01    1.93    29.19748    71.77159   198.26546
   129  C   4.0    0.09    4.00    3.61    28.45432    69.63144   196.73408
   130  C   4.0    0.28    3.01    3.02    29.13941    70.18834   193.99095
   131  O   6.0   -0.45    1.00    1.80    28.67832    72.25130   193.03086
   132  C   4.0   -0.08    3.98    3.58    25.63058    69.01804   196.92285
   133  C   4.0    0.31    2.99    3.02    25.15087    66.11012   196.73601
   134  O   6.0   -0.37    1.00    1.80    26.71834    64.85660   195.50092
   135  O   6.0   -0.38    1.00    1.80    23.22961    65.30751   197.83273
   136  H   1.0    0.30    1.00    1.43    28.33038    73.42752   197.79497
   137  H   1.0    0.14    0.99    1.43    29.50908    67.97848   197.39665
   138  H   1.0    0.13    0.99    1.43    24.82474    69.66594   198.71317
   139  H   1.0    0.14    0.99    1.43    24.56643    69.89355   195.37777
   140  N   5.0   -0.48    3.01    1.93    30.38102    68.35180   192.80168
   141  C   4.0    0.09    3.99    3.61    31.28867    68.52715   190.22932
   142  C   4.0    0.27    3.01    3.02    30.06057    66.47427   188.60410
   143  O   6.0   -0.43    1.00    1.80    29.99174    64.26474   189.31992
   144  C   4.0   -0.08    3.98    3.59    34.17999    68.05233   190.07824
   145  C   4.0   -0.15    3.98    3.58    35.66026    69.12777   192.32950
   146  C   4.0   -0.23    3.98    3.59    35.18639    69.00596   187.54891
   147  C   4.0   -0.23    3.98    3.58    35.54239    71.98499   192.64797
   148  H   1.0    0.30    1.00    1.43    30.54247    66.63732   193.64011
   149  H   1.0    0.14    0.99    1.43    30.78586    70.40443   189.52481
   150  H   1.0    0.13    0.99    1.43    34.42192    65.99407   190.16219
   151  H   1.0    0.14    0.99    1.43    34.94939    68.22425   194.04127
   152  H   1.0    0.09    0.99    1.43    37.62539    68.54772   192.08280
   153  H   1.0    0.09    0.99    1.43    37.20390    68.64845   187.42915
   154  H   1.0    0.12    0.99    1.43    34.23953    68.04205   185.99958
   155  H   1.0    0.10    0.99    1.43    34.83883    71.01765   187.34597
   156  H   1.0    0.09    0.99    1.43    36.64600    72.52337   194.29569
   157  H   1.0    0.09    0.99    1.43    36.31651    72.92972   190.99929
   158  H   1.0    0.13    0.99    1.43    33.60150    72.59664   192.94057
   159  N   5.0   -0.50    3.01    1.93    29.37173    67.18991   186.27546
   160  C   4.0    0.08    3.99    3.61    28.26054    65.45783   184.45513
   161  C   4.0    0.29    3.01    3.02    29.18047    66.17870   181.80484
   162  O   6.0   -0.45    1.00    1.80    29.45136    68.40029   181.18352
   163  C   4.0   -0.08    3.98    3.58    25.37193    65.54648   184.53047
   164  C   4.0    0.32    2.99    3.02    24.26821    64.13821   182.17043
   165  O   6.0   -0.37    1.00    1.80    23.82850    61.84474   182.41953
   166  O   6.0   -0.36    1.00    1.80    23.95617    65.44323   180.24018
   167  H   1.0    0.29    1.00    1.43    29.11082    69.05241   185.88151
   168  H   1.0    0.14    0.99    1.43    28.89902    63.54580   184.91558
   169  H   1.0    0.14    0.99    1.43    24.67094    64.68461   186.27596
   170  H   1.0    0.13    0.99    1.43    24.76315    67.51763   184.46544
   171  N   5.0   -0.48    3.01    1.93    29.73192    64.23964   180.30273
   172  C   4.0    0.09    3.99    3.60    30.80976    64.52170   177.79897
   173  C   4.0    0.28    3.01    3.02    29.89588    62.38450   176.08046
   174  O   6.0   -0.42    1.00    1.80    29.94321    60.16982   176.77053
   175  C   4.0   -0.12    3.99    3.60    33.72618    64.33473   177.99470
   176  C   4.0   -0.03    3.03    3.02    35.07153    65.91340   176.06512
   177  C   4.0   -0.09    3.03    3.02    35.45956    68.46802   176.53085
   178  C   4.0   -0.09    3.03    3.02    35.98381    64.86772   173.84092
   179  C   4.0   -0.11    3.03    3.02    36.79787    69.93644   174.83304
   180  C   4.0   -0.12    3.03    3.02    37.33784    66.33396   172.15058
   181  C   4.0   -0.12    3.03    3.02    37.77143    68.86191   172.65599
   182  H   1.0    0.30    1.00    1.43    29.61751    62.44299   180.95551
   183  H   1.0    0.16    0.99    1.43    30.24251    66.36222   177.05420
   184  H   1.0    0.12    0.99    1.43    34.24632    64.97597   179.88782
   185  H   1.0    0.12    0.99    1.43    34.24465    62.34305   177.83409
   186  H   1.0    0.11    0.99    1.43    34.71825    69.27572   178.25497
   187  H   1.0    0.12    0.99    1.43    35.65110    62.88727   173.46968
   188  H   1.0    0.09    1.00    1.43    37.11926    71.90907   175.24006
   189  H   1.0    0.09    1.00    1.43    38.09521    65.48857   170.45814
   190  H   1.0    0.09    1.00    1.43    38.85255    69.99633   171.35323
   191  N   5.0   -0.49    3.01    1.93    29.23529    63.06927   173.74084
   192  C   4.0    0.09    3.99    3.61    28.59713    61.22357   171.81571
   193  C   4.0    0.28    3.02    3.02    29.90280    62.01038   169.36694
   194  O   6.0   -0.47    1.00    1.80    29.73108    64.20162   168.61451
   195  C   4.0   -0.08    3.99    3.60    25.72811    61.14058   171.41027
   196  C   4.0    0.28    3.00    3.02    24.88099    58.82217   169.93920
   197  O   6.0   -0.42    1.00    1.80    25.85683    56.74352   170.17754
   198  N   5.0   -0.65    3.00    1.93    22.88929    59.24209   168.44081
   199  H   1.0    0.29    1.00    1.43    29.24875    64.92268   173.23761
   200  H   1.0    0.16    0.99    1.43    29.26751    59.36768   172.43607
   201  H   1.0    0.14    0.99    1.43    24.81715    61.07618   173.26255
   202  H   1.0    0.15    0.99    1.43    25.10559    62.84135   170.43264
   203  H   1.0    0.27    1.00    1.43    22.22641    57.83649   167.34295
   204  H   1.0    0.31    1.00    1.43    22.17182    61.00553   168.25953
   205  N   5.0   -0.47    3.01    1.93    31.15911    60.23022   168.09887
   206  C   4.0    0.07    3.99    3.61    32.64625    60.94165   165.89340
   207  C   4.0    0.05    3.00    3.02    32.90577    58.70865   164.08354
   208  O   6.0   -0.47    1.00    1.80    34.27433    56.90702   164.55505
   209  C   4.0   -0.20    3.98    3.59    35.27010    61.83189   166.71876
   210  H   1.0    0.30    1.00    1.43    31.54356    58.52906   168.90851
   211  H   1.0    0.12    0.99    1.43    31.64373    62.47957   164.94409
   212  H   1.0    0.08    0.99    1.43    36.35135    62.47875   165.09424
   213  H   1.0    0.11    0.99    1.43    35.06699    63.37758   168.05719
   214  H   1.0    0.12    0.99    1.43    36.27264    60.27959   167.61916
   215  N   5.0   -0.71    3.00    1.93    29.30394    68.51268   161.98480
   216  C   4.0    0.08    3.99    3.60    30.24820    68.68000   164.54571
   217  C   4.0    0.27    3.01    3.02    28.37878    70.14492   166.16974
   218  O   6.0   -0.43    1.00    1.80    27.35128    72.08265   165.40079
   219  C   4.0   -0.09    3.98    3.59    32.82054    70.05791   164.71149
   220  C   4.0   -0.22    3.98    3.59    33.88176    69.83378   167.38529
   221  C   4.0   -0.25    3.98    3.59    34.70079    68.97101   162.81884
   222  H   1.0    0.26    1.00    1.43    28.70114    70.13093   161.15386
   223  H   1.0    0.13    0.99    1.43    30.45469    66.75214   165.25340
   224  H   1.0    0.11    0.99    1.43    32.50762    72.05385   164.25556
   225  H   1.0    0.09    0.99    1.43    35.66348    70.84410   167.51135
   226  H   1.0    0.13    0.99    1.43    32.59900    70.60509   168.79042
   227  H   1.0    0.11    0.99    1.43    34.21396    67.85852   167.84185
   228  H   1.0    0.08    0.99    1.43    36.50109    69.94813   162.97612
   229  H   1.0    0.09    0.99    1.43    35.00649    66.96902   163.17587
   230  H   1.0    0.08    0.99    1.43    34.05575    69.17099   160.87628
   231  N   5.0   -0.50    3.01    1.93    28.04614    69.23232   168.48258
   232  C   4.0    0.08    3.99    3.61    26.49208    70.44465   170.37403
   233  C   4.0    0.27    3.01    3.02    27.95106    70.45158   172.86983
   234  O   6.0   -0.44    1.00    1.80    29.16016    68.60137   173.56214
   235  C   4.0   -0.12    3.98    3.59    24.00813    68.97025   170.70393
   236  C   4.0   -0.10    3.98    3.59    22.45374    68.94536   168.26462
   237  C   4.0    0.27    3.00    3.02    20.89676    66.55700   167.96529
   238  O   6.0   -0.46    1.00    1.80    21.70113    64.47443   168.60209
   239  N   5.0   -0.66    3.00    1.93    18.64121    66.85563   166.89416
   240  H   1.0    0.30    1.00    1.43    28.78736    67.51609   168.93785
   241  H   1.0    0.16    0.99    1.43    26.10943    72.38123   169.76569
   242  H   1.0    0.15    0.99    1.43    24.48355    67.02905   171.22087
   243  H   1.0    0.13    0.99    1.43    22.91671    69.80357   172.23974
   244  H   1.0    0.11    0.99    1.43    21.23836    70.59558   168.13877
   245  H   1.0    0.14    0.99    1.43    23.73386    68.97051   166.64299
   246  H   1.0    0.24    1.00    1.43    17.96920    68.58437   166.41322
   247  H   1.0    0.26    1.00    1.43    17.55747    65.31919   166.59147
   248  N   5.0   -0.48    3.01    1.93    27.79280    72.58724   174.20320
   249  C   4.0    0.08    3.99    3.61    28.71181    72.79566   176.77286
   250  C   4.0    0.28    3.01    3.02    26.65726    73.97465   178.41190
   251  O   6.0   -0.45    1.00    1.80    25.26250    75.62079   177.56866
   252  C   4.0   -0.20    3.99    3.60    31.02725    74.52937   176.92637
   253  H   1.0    0.29    1.00    1.43    26.67517    74.02441   173.59532
   254  H   1.0    0.16    0.99    1.43    29.17217    70.90505   177.46662
   255  H   1.0    0.10    0.99    1.43    31.62713    74.66807   178.88613
   256  H   1.0    0.11    0.99    1.43    32.54734    73.73622   175.79958
   257  H   1.0    0.13    0.99    1.43    30.53171    76.39077   176.21122
   258  N   5.0   -0.49    3.01    1.93    26.68191    73.23750   180.82374
   259  C   4.0    0.07    3.99    3.60    25.04566    74.30172   182.74180
   260  C   4.0    0.27    3.01    3.02    26.52534    74.36159   185.23388
   261  O   6.0   -0.44    1.00    1.80    27.81948    72.56137   185.92793
   262  C   4.0   -0.19    3.98    3.59    22.60452    72.78005   183.05167
   263  H   1.0    0.29    1.00    1.43    27.66334    71.66531   181.32990
   264  H   1.0    0.14    0.99    1.43    24.55493    76.23167   182.17803
   265  H   1.0    0.12    0.99    1.43    21.54786    73.44452   184.68544
   266  H   1.0    0.13    0.99    1.43    21.44960    72.94705   181.36035
   267  H   1.0    0.13    0.99    1.43    23.01700    70.78378   183.33240
   268  N   5.0   -0.50    3.01    1.93    26.38758    76.55106   186.48057
   269  C   4.0    0.08    3.99    3.61    27.69286    77.01815   188.83957
   270  C   4.0    0.27    3.02    3.02    25.78151    78.04079   190.72437
   271  O   6.0   -0.43    1.00    1.80    24.43713    79.83147   190.14990
   272  C   4.0   -0.13    3.99    3.61    29.74421    79.03916   188.41191
   273  C   4.0   -0.03    3.03    3.02    30.94261    79.84528   190.85106
   274  C   4.0   -0.10    3.04    3.02    32.84262    78.39499   191.92919
   275  C   4.0   -0.09    3.03    3.02    30.18337    82.04834   192.05501
   276  C   4.0   -0.11    3.03    3.02    34.01900    79.16536   194.13141
   277  C   4.0   -0.12    3.03    3.02    31.35891    82.82712   194.25397
   278  C   4.0   -0.12    3.03    3.02    33.30195    81.40727   195.27307
   279  H   1.0    0.28    1.00    1.43    25.20295    77.93226   185.87385
   280  H   1.0    0.15    0.99    1.43    28.48896    75.23641   189.51424
   281  H   1.0    0.10    0.99    1.43    31.15284    78.25449   187.12923
   282  H   1.0    0.11    0.99    1.43    28.82940    80.65186   187.51044
   283  H   1.0    0.10    1.00    1.43    33.39554    76.65568   191.02318
   284  H   1.0    0.11    1.00    1.43    28.66711    83.14984   191.25166
   285  H   1.0    0.09    1.00    1.43    35.50715    78.01987   194.92820
   286  H   1.0    0.09    1.00    1.43    30.78686    84.55723   195.16358
   287  H   1.0    0.09    1.00    1.43    34.25920    82.06522   196.94699
   288  N   5.0   -0.48    3.01    1.93    25.79161    76.98145   193.01776
   289  C   4.0    0.06    3.99    3.61    23.83669    77.56829   194.83804
   290  C   4.0    0.05    3.00    3.02    25.04199    77.73428   197.44180
   291  O   6.0   -0.47    1.00    1.80    26.19710    75.91751   198.33008
   292  C   4.0   -0.13    3.98    3.59    21.81315    75.47522   194.90258
   293  C   4.0   -0.10    3.97    3.58    20.76291    74.85774   192.29659
   294  C   4.0    0.31    2.99    3.02    18.94467    72.54698   192.49261
   295  O   6.0   -0.41    1.00    1.80    16.80111    72.96010   193.37624
   296  O   6.0   -0.37    1.00    1.80    19.79293    70.47549   191.73739
   297  H   1.0    0.29    1.00    1.43    26.76027    75.35070   193.30434
   298  H   1.0    0.12    0.99    1.43    22.99609    79.37349   194.28779
   299  H   1.0    0.14    0.99    1.43    22.65657    73.75620   195.69231
   300  H   1.0    0.11    0.99    1.43    20.26243    76.02836   196.14895
   301  H   1.0    0.12    0.99    1.43    19.72989    76.47352   191.53870
   302  H   1.0    0.15    0.99    1.43    22.28207    74.32300   191.00272
   303  N   5.0   -0.51    3.02    1.93    21.67507    84.72983   186.65518
   304  C   4.0    0.05    4.02    3.66    21.58826    84.85928   183.91215
   305  C   4.0    0.27    3.01    3.02    21.98419    82.25483   182.68920
   306  O   6.0   -0.43    1.00    1.80    22.94359    80.45789   183.77405
   307  C   4.0   -0.15    4.01    3.65    23.85810    86.54328   183.26865
   308  C   4.0   -0.15    4.01    3.64    25.78572    85.71067   185.24923
   309  C   4.0   -0.03    4.01    3.64    24.17027    85.35369   187.61834
   310  H   1.0    0.08    0.99    1.43    19.76221    85.62127   183.31472
   311  H   1.0    0.09    0.99    1.43    24.52824    86.27367   181.34535
   312  H   1.0    0.08    0.99    1.43    23.35817    88.51979   183.54010
   313  H   1.0    0.12    0.99    1.43    26.62384    83.91603   184.68567
   314  H   1.0    0.07    0.99    1.43    27.28332    87.08492   185.54080
   315  H   1.0    0.14    0.99    1.43    24.85367    83.83591   188.83278
   316  H   1.0    0.08    0.99    1.43    24.05781    87.11886   188.68550
   317  N   5.0   -0.51    3.01    1.93    21.34077    82.21348   180.23307
   318  C   4.0    0.07    3.99    3.61    21.85905    80.13229   178.54204
   319  C   4.0    0.26    3.01    3.02    22.15411    81.21950   175.88519
   320  O   6.0   -0.46    1.00    1.80    20.92021    83.05125   175.18978
   321  C   4.0   -0.11    3.98    3.59    19.74580    78.13833   178.61985
   322  C   4.0   -0.11    3.98    3.59    17.12534    79.27498   178.21173
   323  C   4.0    0.26    3.00    3.02    15.14661    77.21666   177.92432
   324  O   6.0   -0.41    1.00    1.80    15.56401    75.19706   176.88340
   325  N   5.0   -0.67    3.00    1.93    12.84395    77.83168   178.80671
   326  H   1.0    0.24    1.00    1.43    20.53028    83.72943   179.39620
   327  H   1.0    0.15    0.99    1.43    23.61441    79.21433   179.12764
   328  H   1.0    0.15    0.99    1.43    20.12946    76.69449   177.19978
   329  H   1.0    0.12    0.99    1.43    19.80946    77.21519   180.46603
   330  H   1.0    0.11    0.99    1.43    16.64099    80.49617   179.79712
   331  H   1.0    0.13    0.99    1.43    17.11909    80.40343   176.48200
   332  H   1.0    0.24    1.00    1.43    12.55371    79.41448   179.81755
   333  H   1.0    0.27    1.00    1.43    11.46736    76.51712   178.75681
   334  N   5.0   -0.47    3.01    1.93    23.88257    80.06332   174.45726
   335  C   4.0    0.09    3.99    3.60    24.32923    80.73366   171.86361
   336  C   4.0    0.07    3.00    3.02    24.14109    78.35182   170.24871
   337  O   6.0   -0.42    1.00    1.80    24.49346    76.24196   171.12110
   338  C   4.0    0.03    3.98    3.58    26.96674    81.94640   171.50874
   339  O   6.0   -0.46    1.99    1.82    28.77387    80.11926   172.22434
   340  C   4.0   -0.23    3.98    3.59    27.18617    84.37419   173.05043
   341  H   1.0    0.30    1.00    1.43    24.73928    78.47144   175.08605
   342  H   1.0    0.11    0.99    1.43    22.88091    82.10479   171.31452
   343  H   1.0    0.08    0.99    1.43    27.18109    82.39958   169.48451
   344  H   1.0    0.23    0.99    1.43    30.42208    80.90086   172.20215
   345  H   1.0    0.07    0.99    1.43    29.01867    85.25282   172.75193
   346  H   1.0    0.09    0.99    1.43    25.71930    85.70189   172.50251
   347  H   1.0    0.12    0.99    1.43    26.96721    83.95554   175.04837
   348  H   1.0    0.28    1.00    1.43    35.77218    51.16799   166.16879
   349  H   1.0    0.12    1.00    1.43    33.65875    66.39527   208.81942
   350  H   1.0    0.29    1.00    1.43    31.33347    74.77314   205.52713
   351  H   1.0    0.11    1.00    1.43    31.94079    58.69213   162.45885
   352  H   1.0    0.27    1.00    1.43    30.52808    67.91555   160.96623
   353  H   1.0    0.11    1.00    1.43    24.90090    79.32730   198.44849
   354  H   1.0    0.25    1.00    1.43    20.19509    85.26966   187.29613
   355  H   1.0    0.11    1.00    1.43    23.71721    78.48655   168.41207

           ------------------------------------------------- 
          |        Self-Consistent Charge Iterations        |
           ------------------------------------------------- 

          ...................................................
          :                      SETUP                      :
          :.................................................:
          :  # basis functions                 898          :
          :  # atomic orbitals                 898          :
          :  # shells                          536          :
          :  # electrons                      1000          :
          :  max. iterations                   250          :
          :  Hamiltonian                  GFN2-xTB          :
          :  restarted?                      false          :
          :  GBSA solvation                   true          :
          :  PC potential                    false          :
          :  electronic temp.          500.0000000     K    :
          :  accuracy                    0.1000000          :
          :  -> integral cutoff          0.3500000E+02      :
          :  -> integral neglect         0.1000000E-08      :
          :  -> SCF convergence          0.1000000E-06 Eh   :
          :  -> wf. convergence          0.1000000E-04 e    :
          :  Broyden damping             0.4000000          :
          ...................................................

 iter      E             dE          RMSdq      gap      omega  full diag
   1   -573.5828485 -0.573583E+03  0.441E+00    1.96       0.0  T
   2   -575.1340211 -0.155117E+01  0.226E+00    0.71       1.0  T
   3   -575.1861035 -0.520823E-01  0.122E+00    0.97       1.0  T
   4   -575.2019343 -0.158308E-01  0.329E-01    0.27       1.0  T
   5   -575.2238803 -0.219460E-01  0.145E-01    0.88       1.0  T
   6   -575.2254228 -0.154247E-02  0.744E-02    0.51       1.0  T
   7   -575.2257138 -0.291000E-03  0.369E-02    0.46       1.0  T
   8   -575.2257996 -0.858517E-04  0.154E-02    0.44       1.0  T
   9   -575.2258169 -0.172559E-04  0.786E-03    0.47       1.0  T
  10   -575.2258229 -0.600280E-05  0.431E-03    0.46       1.2  T
  11   -575.2258240 -0.115454E-05  0.167E-03    0.45       3.2  T
  12   -575.2258244 -0.400749E-06  0.891E-04    0.46       6.0  T
  13   -575.2258245 -0.714588E-07  0.421E-04    0.46      12.6  T
  14   -575.2258245 -0.154903E-07  0.192E-04    0.46      27.6  T
  15   -575.2258245 -0.292562E-08  0.710E-05    0.46      74.7  T
  16   -575.2258245 -0.364821E-09  0.349E-05    0.46     152.0  T

   *** convergence criteria satisfied after 16 iterations ***

         #    Occupation            Energy/Eh            Energy/eV
      -------------------------------------------------------------
         1        2.0000           -0.7522505             -20.4698
       ...           ...                  ...                  ...
       494        2.0000           -0.3773732             -10.2688
       495        2.0000           -0.3756304             -10.2214
       496        2.0000           -0.3697091             -10.0603
       497        2.0000           -0.3608775              -9.8200
       498        2.0000           -0.3574908              -9.7278
       499        2.0000           -0.3568954              -9.7116
       500        1.9900           -0.3323287              -9.0431 (HOMO)
       501        0.0100           -0.3155559              -8.5867 (LUMO)
       502        0.0000           -0.3054464              -8.3116
       503                         -0.2965195              -8.0687
       504                         -0.2964273              -8.0662
       505                         -0.2421584              -6.5895
       ...                                ...                  ...
       898                          0.6702182              18.2376
      -------------------------------------------------------------
                  HL-Gap            0.0167728 Eh            0.4564 eV
             Fermi-level           -0.3239437 Eh           -8.8150 eV

 SCC (total)                   0 d,  0 h,  0 min,  8.159 sec
 SCC setup                      ...        0 min,  0.111 sec (  1.361%)
 Dispersion                     ...        0 min,  0.047 sec (  0.573%)
 integral evaluation            ...        0 min,  0.356 sec (  4.361%)
 zeroth order Hamiltonian       ...        0 min,  0.015 sec (  0.182%)
 iterations                     ...        0 min,  6.802 sec ( 83.366%)
 molecular gradient             ...        0 min,  0.807 sec (  9.885%)
 printout                       ...        0 min,  0.022 sec (  0.271%)

         :::::::::::::::::::::::::::::::::::::::::::::::::::::
         ::                     SUMMARY                     ::
         :::::::::::::::::::::::::::::::::::::::::::::::::::::
         :: total energy             -568.281390201534 Eh   ::
         :: total w/o Gsasa/hb       -568.213977580852 Eh   ::
         :: gradient norm               0.449434068827 Eh/α ::
         :: HOMO-LUMO gap               0.456411775650 eV   ::
         ::.................................................::
         :: SCC energy               -575.243355976571 Eh   ::
         :: -> isotropic ES             2.498247018450 Eh   ::
         :: -> anisotropic ES          -0.147641829892 Eh   ::
         :: -> anisotropic XC           0.162830904367 Eh   ::
         :: -> dispersion              -0.473010354619 Eh   ::
         :: -> Gsolv                   -0.999824906550 Eh   ::
         ::    -> Gborn                -0.932412285868 Eh   ::
         ::    -> Gsasa                -0.019388883691 Eh   ::
         ::    -> Ghb                  -0.049881180118 Eh   ::
         ::    -> Gshift                0.001857443127 Eh   ::
         :: repulsion energy            6.929239275192 Eh   ::
         :: add. restraining            0.000000000000 Eh   ::
         :::::::::::::::::::::::::::::::::::::::::::::::::::::

           -------------------------------------------------
          |                Property Printout                |
           -------------------------------------------------

    * Orbital Energies and Occupations

         #    Occupation            Energy/Eh            Energy/eV
      -------------------------------------------------------------
         1        2.0000           -0.7522505             -20.4698
       ...           ...                  ...                  ...
       488        2.0000           -0.3946910             -10.7401
       489        2.0000           -0.3936427             -10.7116
       490        2.0000           -0.3925311             -10.6813
       491        2.0000           -0.3899744             -10.6117
       492        2.0000           -0.3880531             -10.5595
       493        2.0000           -0.3786778             -10.3043
       494        2.0000           -0.3773732             -10.2688
       495        2.0000           -0.3756304             -10.2214
       496        2.0000           -0.3697091             -10.0603
       497        2.0000           -0.3608775              -9.8200
       498        2.0000           -0.3574908              -9.7278
       499        2.0000           -0.3568954              -9.7116
       500        1.9900           -0.3323287              -9.0431 (HOMO)
       501        0.0100           -0.3155559              -8.5867 (LUMO)
       502        0.0000           -0.3054464              -8.3116
       503                         -0.2965195              -8.0687
       504                         -0.2964273              -8.0662
       505                         -0.2421584              -6.5895
       506                         -0.2410343              -6.5589
       507                         -0.2379062              -6.4738
       508                         -0.2369252              -6.4471
       509                         -0.2361886              -6.4270
       510                         -0.2356922              -6.4135
       511                         -0.2334242              -6.3518
       ...                                ...                  ...
       898                          0.6702182              18.2376
      -------------------------------------------------------------
                  HL-Gap            0.0167728 Eh            0.4564 eV
             Fermi-level           -0.3239437 Eh           -8.8150 eV

   #   Z        covCN         q      C6AA      α(0)
   1   7 N      2.637    -0.389    30.072     8.144
   2   6 C      3.791     0.025    20.161     6.394
   3   6 C      2.756     0.278    22.300     7.733
   4   8 O      0.858    -0.492    23.605     6.514
   5   6 C      3.852    -0.018    20.861     6.496
   6   6 C      3.755    -0.111    22.684     6.791
   7   6 C      3.756    -0.116    22.765     6.803
   8   1 H      0.860     0.173     1.257     1.756
   9   1 H      0.924     0.041     2.436     2.441
  10   1 H      0.924     0.037     2.488     2.466
  11   1 H      0.925     0.047     2.355     2.400
  12   1 H      0.925     0.011     2.879     2.653
  13   1 H      0.925     0.041     2.430     2.438
  14   1 H      0.925     0.045     2.378     2.411
  15   1 H      0.925     0.044     2.395     2.420
  16   1 H      0.925     0.049     2.330     2.387
  17   7 N      2.695    -0.170    24.681     7.378
  18   6 C      3.795     0.018    20.278     6.412
  19   6 C      2.761     0.268    22.469     7.763
  20   8 O      0.858    -0.473    23.190     6.456
  21   6 C      3.806    -0.070    21.839     6.653
  22   6 C      3.806    -0.077    21.975     6.673
  23   6 C      3.803    -0.091    22.228     6.712
  24   6 C      3.733    -0.051    21.574     6.629
  25   7 N      3.483    -0.148    24.185     7.304
  26   1 H      0.860     0.213     1.040     1.597
  27   1 H      0.924     0.061     2.186     2.312
  28   1 H      0.924     0.067     2.117     2.275
  29   1 H      0.924     0.037     2.495     2.470
  30   1 H      0.924     0.064     2.158     2.297
  31   1 H      0.924     0.066     2.126     2.280
  32   1 H      0.924     0.084     1.939     2.178
  33   1 H      0.924     0.063     2.164     2.301
  34   1 H      0.925     0.113     1.674     2.023
  35   1 H      0.925     0.127     1.559     1.952
  36   1 H      0.859     0.309     0.686     1.298
  37   1 H      0.859     0.304     0.700     1.311
  38   1 H      0.859     0.294     0.732     1.340
  39   7 N      2.689    -0.178    24.859     7.405
  40   6 C      3.798     0.025    20.158     6.393
  41   6 C      2.761     0.281    22.243     7.723
  42   8 O      0.859    -0.496    23.697     6.527
  43   6 C      3.813    -0.069    21.805     6.646
  44   6 C      2.971     0.003    27.948     8.672
  45   6 C      2.925    -0.044    29.104     8.847
  46   6 C      2.924    -0.038    28.935     8.821
  47   6 C      2.920    -0.032    28.794     8.799
  48   6 C      2.920    -0.030    28.739     8.791
  49   6 C      2.920    -0.031    28.769     8.796
  50   1 H      0.860     0.208     1.065     1.616
  51   1 H      0.924     0.080     1.978     2.200
  52   1 H      0.925     0.082     1.959     2.189
  53   1 H      0.924     0.047     2.353     2.399
  54   1 H      0.926     0.064     2.150     2.293
  55   1 H      0.925     0.001     3.035     2.724
  56   1 H      0.926     0.059     2.210     2.325
  57   1 H      0.926     0.014     2.823     2.627
  58   1 H      0.926     0.045     2.385     2.415
  59   7 N      2.689    -0.174    24.776     7.393
  60   6 C      3.750    -0.007    20.770     6.500
  61   6 C      2.753     0.277    22.312     7.735
  62   8 O      0.858    -0.454    22.779     6.399
  63   1 H      0.860     0.228     0.974     1.546
  64   1 H      0.924     0.062     2.181     2.310
  65   1 H      0.924     0.058     2.221     2.331
  66   7 N      2.692    -0.173    24.747     7.388
  67   6 C      3.793     0.022    20.219     6.403
  68   6 C      2.769     0.280    22.269     7.729
  69   8 O      0.859    -0.513    24.085     6.580
  70   6 C      3.684     0.078    19.466     6.317
  71   8 O      1.655    -0.442    21.674     6.285
  72   1 H      0.860     0.201     1.100     1.643
  73   1 H      0.924     0.052     2.291     2.367
  74   1 H      0.923     0.036     2.506     2.475
  75   1 H      0.924     0.091     1.871     2.139
  76   1 H      0.804     0.310     0.691     1.306
  77   7 N      2.692    -0.193    25.188     7.454
  78   6 C      3.805     0.061    19.555     6.295
  79   6 C      2.758     0.276    22.333     7.739
  80   8 O      0.858    -0.481    23.371     6.482
  81   6 C      3.807    -0.081    22.043     6.684
  82   6 C      2.686     0.373    20.672     7.441
  83   8 O      0.856    -0.607    26.280     6.873
  84   8 O      0.856    -0.615    26.487     6.900
  85   1 H      0.859     0.230     0.966     1.539
  86   1 H      0.924     0.033     2.550     2.497
  87   1 H      0.924     0.022     2.707     2.573
  88   1 H      0.924     0.003     3.006     2.711
  89   7 N      2.699    -0.190    25.125     7.445
  90   6 C      3.792     0.041    19.903     6.353
  91   6 C      2.772     0.202    23.705     7.974
  92   8 O      0.856    -0.342    20.557     6.079
  93   6 C      3.812    -0.066    21.755     6.639
  94   6 C      2.970     0.010    27.794     8.648
  95   6 C      2.925    -0.037    28.913     8.818
  96   6 C      2.923    -0.039    28.959     8.825
  97   6 C      2.920    -0.032    28.790     8.799
  98   6 C      2.921    -0.031    28.786     8.798
  99   6 C      2.920    -0.035    28.866     8.810
 100   1 H      0.860     0.213     1.041     1.598
 101   1 H      0.924     0.071     2.073     2.251
 102   1 H      0.924     0.050     2.318     2.381
 103   1 H      0.924     0.068     2.105     2.269
 104   1 H      0.926     0.030     2.589     2.516
 105   1 H      0.926     0.023     2.681     2.560
 106   1 H      0.926     0.053     2.287     2.365
 107   1 H      0.926     0.053     2.278     2.360
 108   1 H      0.926     0.060     2.202     2.321
 109   7 N      2.637    -0.404    30.487     8.200
 110   6 C      3.787     0.034    20.022     6.373
 111   6 C      2.760     0.281    22.248     7.724
 112   8 O      0.858    -0.517    24.166     6.591
 113   6 C      3.808    -0.067    21.772     6.642
 114   6 C      3.848    -0.010    20.719     6.474
 115   6 C      3.756    -0.117    22.795     6.807
 116   6 C      3.758    -0.122    22.882     6.820
 117   1 H      0.860     0.165     1.305     1.790
 118   1 H      0.924     0.048     2.339     2.392
 119   1 H      0.924     0.029     2.599     2.521
 120   1 H      0.924     0.029     2.608     2.525
 121   1 H      0.924     0.036     2.507     2.476
 122   1 H      0.925     0.057     2.229     2.335
 123   1 H      0.925     0.039     2.463     2.454
 124   1 H      0.925     0.040     2.443     2.444
 125   1 H      0.925     0.060     2.196     2.317
 126   1 H      0.925     0.044     2.396     2.421
 127   1 H      0.925     0.044     2.396     2.421
 128   7 N      2.690    -0.216    25.713     7.531
 129   6 C      3.798     0.060    19.583     6.301
 130   6 C      2.758     0.278    22.293     7.732
 131   8 O      0.858    -0.499    23.759     6.535
 132   6 C      3.800    -0.074    21.911     6.665
 133   6 C      2.683     0.373    20.687     7.443
 134   8 O      0.856    -0.645    27.262     7.000
 135   8 O      0.856    -0.641    27.160     6.987
 136   1 H      0.860     0.234     0.948     1.526
 137   1 H      0.924     0.033     2.543     2.494
 138   1 H      0.924     0.021     2.723     2.580
 139   1 H      0.924    -0.002     3.099     2.753
 140   7 N      2.690    -0.162    24.505     7.352
 141   6 C      3.794     0.036    19.982     6.365
 142   6 C      2.759     0.279    22.278     7.729
 143   8 O      0.858    -0.514    24.103     6.582
 144   6 C      3.855    -0.010    20.725     6.475
 145   6 C      3.801    -0.063    21.716     6.635
 146   6 C      3.755    -0.119    22.838     6.814
 147   6 C      3.751    -0.108    22.622     6.783
 148   1 H      0.860     0.201     1.101     1.644
 149   1 H      0.924     0.066     2.134     2.284
 150   1 H      0.924     0.028     2.614     2.528
 151   1 H      0.924     0.025     2.654     2.548
 152   1 H      0.924     0.065     2.142     2.289
 153   1 H      0.925     0.082     1.954     2.186
 154   1 H      0.925     0.023     2.689     2.565
 155   1 H      0.925     0.060     2.199     2.319
 156   1 H      0.925     0.054     2.267     2.354
 157   1 H      0.925     0.063     2.164     2.300
 158   1 H      0.925     0.020     2.739     2.588
 159   7 N      2.689    -0.196    25.252     7.463
 160   6 C      3.796     0.053    19.691     6.319
 161   6 C      2.756     0.281    22.242     7.723
 162   8 O      0.858    -0.490    23.557     6.507
 163   6 C      3.800    -0.077    21.977     6.675
 164   6 C      2.683     0.373    20.676     7.441
 165   8 O      0.856    -0.625    26.742     6.933
 166   8 O      0.856    -0.624    26.708     6.929
 167   1 H      0.860     0.225     0.986     1.556
 168   1 H      0.924     0.040     2.447     2.446
 169   1 H      0.924    -0.010     3.244     2.816
 170   1 H      0.924     0.005     2.974     2.697
 171   7 N      2.691    -0.178    24.856     7.405
 172   6 C      3.793     0.037    19.967     6.363
 173   6 C      2.758     0.276    22.327     7.738
 174   8 O      0.859    -0.495    23.670     6.523
 175   6 C      3.813    -0.055    21.558     6.609
 176   6 C      2.971     0.009    27.821     8.652
 177   6 C      2.926    -0.033    28.834     8.806
 178   6 C      2.924    -0.038    28.956     8.824
 179   6 C      2.920    -0.032    28.798     8.800
 180   6 C      2.920    -0.033    28.830     8.805
 181   6 C      2.921    -0.034    28.855     8.809
 182   1 H      0.860     0.213     1.040     1.598
 183   1 H      0.924     0.071     2.070     2.250
 184   1 H      0.924     0.033     2.539     2.492
 185   1 H      0.924     0.044     2.393     2.419
 186   1 H      0.926     0.018     2.757     2.597
 187   1 H      0.926     0.029     2.602     2.522
 188   1 H      0.926     0.047     2.357     2.401
 189   1 H      0.926     0.063     2.161     2.299
 190   1 H      0.926     0.063     2.164     2.300
 191   7 N      2.692    -0.180    24.904     7.412
 192   6 C      3.796     0.035    19.992     6.367
 193   6 C      2.764     0.271    22.415     7.754
 194   8 O      0.859    -0.475    23.234     6.463
 195   6 C      3.812    -0.100    22.392     6.735
 196   6 C      2.743     0.284    22.181     7.711
 197   8 O      0.859    -0.485    23.446     6.492
 198   7 N      2.640    -0.296    27.639     7.808
 199   1 H      0.860     0.221     1.004     1.570
 200   1 H      0.924     0.080     1.981     2.201
 201   1 H      0.924     0.051     2.302     2.372
 202   1 H      0.925     0.080     1.984     2.203
 203   1 H      0.860     0.250     0.883     1.472
 204   1 H      0.860     0.241     0.919     1.502
 205   7 N      2.688    -0.164    24.545     7.358
 206   6 C      3.796     0.030    20.076     6.380
 207   6 C      2.767     0.197    23.793     7.988
 208   8 O      0.856    -0.333    20.393     6.055
 209   6 C      3.756    -0.115    22.764     6.803
 210   1 H      0.860     0.235     0.945     1.522
 211   1 H      0.924     0.084     1.939     2.177
 212   1 H      0.925     0.072     2.063     2.246
 213   1 H      0.925     0.054     2.267     2.355
 214   1 H      0.925     0.066     2.130     2.282
 215   7 N      2.635    -0.392    30.138     8.153
 216   6 C      3.792     0.021    20.232     6.406
 217   6 C      2.760     0.275    22.350     7.742
 218   8 O      0.859    -0.512    24.046     6.575
 219   6 C      3.854    -0.017    20.848     6.494
 220   6 C      3.757    -0.114    22.729     6.797
 221   6 C      3.756    -0.116    22.778     6.805
 222   1 H      0.860     0.156     1.358     1.825
 223   1 H      0.924     0.055     2.259     2.351
 224   1 H      0.924     0.028     2.611     2.527
 225   1 H      0.925     0.051     2.307     2.375
 226   1 H      0.925     0.013     2.838     2.634
 227   1 H      0.925     0.041     2.433     2.439
 228   1 H      0.925     0.052     2.291     2.367
 229   1 H      0.925     0.046     2.372     2.408
 230   1 H      0.925     0.046     2.372     2.408
 231   7 N      2.694    -0.184    24.995     7.425
 232   6 C      3.796     0.019    20.263     6.410
 233   6 C      2.758     0.271    22.430     7.756
 234   8 O      0.858    -0.496    23.692     6.526
 235   6 C      3.806    -0.053    21.527     6.605
 236   6 C      3.807    -0.098    22.359     6.731
 237   6 C      2.743     0.287    22.129     7.702
 238   8 O      0.859    -0.504    23.867     6.550
 239   7 N      2.639    -0.283    27.297     7.760
 240   1 H      0.860     0.226     0.982     1.553
 241   1 H      0.924     0.086     1.915     2.164
 242   1 H      0.924     0.051     2.314     2.379
 243   1 H      0.925     0.031     2.570     2.507
 244   1 H      0.925     0.067     2.123     2.279
 245   1 H      0.924     0.090     1.878     2.143
 246   1 H      0.860     0.236     0.942     1.520
 247   1 H      0.860     0.248     0.892     1.480
 248   7 N      2.691    -0.172    24.728     7.386
 249   6 C      3.796     0.026    20.139     6.390
 250   6 C      2.761     0.271    22.423     7.755
 251   8 O      0.858    -0.474    23.218     6.460
 252   6 C      3.759    -0.126    22.966     6.832
 253   1 H      0.860     0.226     0.982     1.552
 254   1 H      0.924     0.062     2.175     2.306
 255   1 H      0.925     0.056     2.245     2.343
 256   1 H      0.925     0.080     1.977     2.199
 257   1 H      0.925     0.083     1.953     2.185
 258   7 N      2.692    -0.177    24.838     7.402
 259   6 C      3.794     0.030    20.071     6.380
 260   6 C      2.757     0.273    22.389     7.749
 261   8 O      0.858    -0.512    24.063     6.577
 262   6 C      3.754    -0.096    22.398     6.748
 263   1 H      0.860     0.207     1.069     1.620
 264   1 H      0.924     0.088     1.902     2.157
 265   1 H      0.925     0.034     2.525     2.485
 266   1 H      0.925     0.068     2.110     2.272
 267   1 H      0.925     0.020     2.735     2.586
 268   7 N      2.694    -0.174    24.774     7.392
 269   6 C      3.797     0.032    20.034     6.373
 270   6 C      2.765     0.274    22.363     7.745
 271   8 O      0.859    -0.450    22.705     6.389
 272   6 C      3.815    -0.072    21.870     6.656
 273   6 C      2.971     0.006    27.879     8.661
 274   6 C      2.927    -0.041    29.007     8.832
 275   6 C      2.926    -0.041    29.022     8.835
 276   6 C      2.919    -0.034    28.840     8.806
 277   6 C      2.920    -0.037    28.910     8.817
 278   6 C      2.922    -0.038    28.949     8.823
 279   1 H      0.860     0.237     0.936     1.516
 280   1 H      0.924     0.053     2.283     2.363
 281   1 H      0.924     0.062     2.178     2.308
 282   1 H      0.924     0.072     2.063     2.246
 283   1 H      0.926     0.024     2.679     2.559
 284   1 H      0.926     0.042     2.429     2.437
 285   1 H      0.926     0.040     2.446     2.446
 286   1 H      0.926     0.059     2.216     2.328
 287   1 H      0.926     0.057     2.231     2.336
 288   7 N      2.692    -0.180    24.892     7.410
 289   6 C      3.795     0.029    20.096     6.383
 290   6 C      2.771     0.195    23.847     7.998
 291   8 O      0.856    -0.370    21.101     6.159
 292   6 C      3.807    -0.035    21.189     6.553
 293   6 C      3.798    -0.077    21.979     6.675
 294   6 C      2.685     0.374    20.657     7.438
 295   8 O      0.856    -0.624    26.718     6.930
 296   8 O      0.856    -0.675    28.024     7.098
 297   1 H      0.860     0.200     1.105     1.647
 298   1 H      0.924     0.104     1.750     2.069
 299   1 H      0.924     0.010     2.885     2.656
 300   1 H      0.924     0.053     2.283     2.363
 301   1 H      0.924     0.041     2.430     2.438
 302   1 H      0.924    -0.006     3.158     2.779
 303   7 N      2.705    -0.281    27.254     7.754
 304   6 C      3.825     0.020    20.220     6.399
 305   6 C      2.752     0.272    22.405     7.751
 306   8 O      0.858    -0.499    23.752     6.534
 307   6 C      3.836    -0.065    21.721     6.630
 308   6 C      3.834    -0.059    21.605     6.613
 309   6 C      3.765     0.014    20.381     6.435
 310   1 H      0.924     0.036     2.509     2.477
 311   1 H      0.925     0.041     2.431     2.438
 312   1 H      0.925     0.064     2.151     2.294
 313   1 H      0.925     0.028     2.611     2.527
 314   1 H      0.925     0.053     2.279     2.361
 315   1 H      0.924     0.042     2.421     2.433
 316   1 H      0.924     0.026     2.647     2.544
 317   7 N      2.694    -0.185    25.013     7.428
 318   6 C      3.794     0.018    20.282     6.413
 319   6 C      2.760     0.268    22.482     7.765
 320   8 O      0.858    -0.473    23.197     6.457
 321   6 C      3.805    -0.051    21.491     6.599
 322   6 C      3.807    -0.100    22.403     6.738
 323   6 C      2.745     0.291    22.070     7.692
 324   8 O      0.859    -0.511    24.032     6.573
 325   7 N      2.639    -0.295    27.613     7.804
 326   1 H      0.860     0.216     1.029     1.589
 327   1 H      0.924     0.068     2.113     2.273
 328   1 H      0.924     0.053     2.277     2.360
 329   1 H      0.924     0.031     2.572     2.508
 330   1 H      0.925     0.062     2.172     2.305
 331   1 H      0.924     0.092     1.861     2.133
 332   1 H      0.860     0.233     0.952     1.529
 333   1 H      0.860     0.231     0.959     1.534
 334   7 N      2.693    -0.155    24.356     7.330
 335   6 C      3.794     0.017    20.293     6.415
 336   6 C      2.769     0.202    23.703     7.973
 337   8 O      0.856    -0.361    20.913     6.131
 338   6 C      3.726     0.119    18.733     6.180
 339   8 O      1.656    -0.489    22.651     6.425
 340   6 C      3.752    -0.139    23.233     6.873
 341   1 H      0.860     0.220     1.008     1.572
 342   1 H      0.924     0.107     1.720     2.051
 343   1 H      0.923     0.047     2.354     2.400
 344   1 H      0.805     0.347     0.594     1.211
 345   1 H      0.925     0.075     2.029     2.228
 346   1 H      0.925     0.070     2.090     2.261
 347   1 H      0.925     0.052     2.294     2.369
 348   1 H      0.862     0.191     1.151     1.681
 349   1 H      0.930     0.077     2.009     2.216
 350   1 H      0.862     0.206     1.078     1.626
 351   1 H      0.930     0.093     1.846     2.125
 352   1 H      0.862     0.192     1.150     1.680
 353   1 H      0.930     0.116     1.648     2.007
 354   1 H      0.862     0.167     1.289     1.778
 355   1 H      0.930     0.097     1.811     2.104

 Mol. C6AA /au·bohr⁶  :    1255091.796955
 Mol. C8AA /au·bohr⁸  :   28220993.785514
 Mol. α(0) /au        :       1685.643375


Wiberg/Mayer (AO) data.
largest (>0.10) Wiberg bond orders for each atom
          total WBO             WBO to atom ...
     1  N   2.999        C    2 1.018    H  348 0.945    H    8 0.932
     2  C   3.986        N    1 1.018    H    9 0.961    C    5 0.957    C    3 0.941
     3  C   3.934        O    4 1.622    N   17 1.293    C    2 0.941
     4  O   1.970        C    3 1.622    N   17 0.190
     5  C   3.994        C    7 1.009    C    6 1.008    H   10 0.964    C    2 0.957
     6  C   3.996        C    5 1.008    H   13 0.986    H   12 0.986    H   11 0.985
     7  C   3.994        C    5 1.009    H   15 0.986    H   14 0.984    H   16 0.980
     8  H   0.970        N    1 0.932
     9  H   0.997        C    2 0.961
    10  H   0.999        C    5 0.964
    11  H   0.998        C    6 0.985
    12  H   1.000        C    6 0.986
    13  H   0.998        C    6 0.986
    14  H   0.997        C    7 0.984
    15  H   0.998        C    7 0.986
    16  H   0.998        C    7 0.980
    17  N   3.468        C    3 1.293    C   18 0.983    H   26 0.919    O    4 0.190
    18  C   3.968        N   17 0.983    C   21 0.966    H   27 0.957    C   19 0.937
    19  C   3.940        O   20 1.639    N   39 1.288    C   18 0.937
    20  O   1.956        C   19 1.639    N   39 0.197
    21  C   3.983        C   22 1.003    H   29 0.975    H   28 0.972    C   18 0.966
    22  C   3.986        C   21 1.003    C   23 1.002    H   31 0.973    H   30 0.970
    23  C   3.987        C   24 1.011    C   22 1.002    H   33 0.974    H   32 0.970
    24  C   3.916        C   23 1.011    H   34 0.965    H   35 0.962    N   25 0.959
    25  N   3.664        C   24 0.959    H   38 0.899    H   37 0.893    H   36 0.892
    26  H   0.954        N   17 0.919
    27  H   0.996        C   18 0.957
    28  H   0.995        C   21 0.972
    29  H   0.998        C   21 0.975
    30  H   0.996        C   22 0.970
    31  H   0.996        C   22 0.973
    32  H   0.993        C   23 0.970
    33  H   0.996        C   23 0.974
    34  H   0.987        C   24 0.965
    35  H   0.984        C   24 0.962
    36  H   0.904        N   25 0.892
    37  H   0.907        N   25 0.893
    38  H   0.914        N   25 0.899
    39  N   3.470        C   19 1.288    C   40 0.994    H   50 0.909    O   20 0.197
    40  C   3.970        N   39 0.994    H   51 0.954    C   41 0.947    C   43 0.937
    41  C   3.935        O   42 1.625    N   59 1.289    C   40 0.947
    42  O   1.972        C   41 1.625    N   59 0.193
    43  C   3.986        C   44 1.011    H   53 0.970    H   52 0.966    C   40 0.937
    44  C   3.986        C   45 1.415    C   46 1.406    C   43 1.011    C   49 0.110
    45  C   3.988        C   47 1.441    C   44 1.415    H   54 0.966    C   48 0.110
    46  C   3.991        C   48 1.449    C   44 1.406    H   55 0.969    C   47 0.111
    47  C   3.990        C   49 1.442    C   45 1.441    H   56 0.968    C   46 0.111
    48  C   3.992        C   46 1.449    C   49 1.433    H   57 0.971    C   45 0.110
    49  C   3.989        C   47 1.442    C   48 1.433    H   58 0.969    C   44 0.110
    50  H   0.957        N   39 0.909
    51  H   0.993        C   40 0.954
    52  H   0.993        C   43 0.966
    53  H   0.997        C   43 0.970
    54  H   0.996        C   45 0.966
    55  H   1.000        C   46 0.969
    56  H   0.996        C   47 0.968
    57  H   1.000        C   48 0.971
    58  H   0.997        C   49 0.969
    59  N   3.456        C   41 1.289    C   60 1.008    H   63 0.904    O   42 0.193
    60  C   3.977        N   59 1.008    C   61 0.957    H   64 0.950    H   65 0.945
    61  C   3.953        O   62 1.639    N   66 1.300    C   60 0.957
    62  O   1.973        C   61 1.639    N   66 0.197
    63  H   0.948        N   59 0.904
    64  H   0.996        C   60 0.950
    65  H   0.996        C   60 0.945
    66  N   3.473        C   61 1.300    C   67 0.986    H   72 0.908    O   62 0.197
    67  C   3.968        N   66 0.986    H   73 0.956    C   68 0.956    C   70 0.944
    68  C   3.945        O   69 1.557    N   77 1.350    C   67 0.956
    69  O   1.926        C   68 1.557    N   77 0.190
    70  C   3.958        O   71 1.021    H   74 0.965    H   75 0.960    C   67 0.944
    71  O   1.959        C   70 1.021    H   76 0.861
    72  H   0.959        N   66 0.908
    73  H   0.997        C   67 0.956
    74  H   0.998        C   70 0.965
    75  H   0.991        C   70 0.960
    76  H   0.904        O   71 0.861
    77  N   3.490        C   68 1.350    C   78 0.990    H   85 0.852    O   69 0.190
    78  C   3.970        N   77 0.990    C   81 0.968    H   86 0.938    C   79 0.930
    79  C   3.954        O   80 1.639    N   89 1.300    C   78 0.930
    80  O   1.953        C   79 1.639    N   89 0.194
    81  C   3.979        H   87 0.977    C   78 0.968    H   88 0.967    C   82 0.913
    82  C   3.940        O   83 1.533    O   84 1.468    C   81 0.913
    83  O   1.824        C   82 1.533    O   84 0.214
    84  O   1.850        C   82 1.468    O   83 0.214
    85  H   0.947        N   77 0.852
    86  H   0.999        C   78 0.938
    87  H   0.999        C   81 0.977
    88  H   1.000        C   81 0.967
    89  N   3.458        C   79 1.300    C   90 0.953    H  100 0.887    O   80 0.194
    90  C   3.946        C   91 0.971    H  101 0.960    N   89 0.953    C   93 0.951
    91  C   3.900        O   92 1.888    C   90 0.971    H  349 0.953
    92  O   2.062        C   91 1.888
    93  C   3.980        C   94 1.009    H  102 0.971    H  103 0.958    C   90 0.951
    94  C   3.985        C   95 1.415    C   96 1.409    C   93 1.009    C   99 0.110
    95  C   3.991        C   97 1.441    C   94 1.415    H  104 0.969    C   98 0.110
    96  C   3.990        C   98 1.448    C   94 1.409    H  105 0.965    C   97 0.112
    97  C   3.990        C   95 1.441    C   99 1.441    H  106 0.969    C   96 0.112
    98  C   3.990        C   96 1.448    C   99 1.434    H  107 0.969    C   95 0.110
    99  C   3.988        C   97 1.441    C   98 1.434    H  108 0.969    C   94 0.110
   100  H   0.954        N   89 0.887
   101  H   0.995        C   90 0.960
   102  H   0.997        C   93 0.971
   103  H   0.995        C   93 0.958
   104  H   0.999        C   95 0.969
   105  H   0.999        C   96 0.965
   106  H   0.997        C   97 0.969
   107  H   0.997        C   98 0.969
   108  H   0.996        C   99 0.969
   109  N   2.991        C  110 1.027    H  117 0.932    H  350 0.931
   110  C   3.982        N  109 1.027    C  113 0.955    H  118 0.952    C  111 0.948
   111  C   3.918        O  112 1.600    N  128 1.280    C  110 0.948
   112  O   1.952        C  111 1.600    N  128 0.172
   113  C   3.987        C  114 0.986    H  119 0.976    H  120 0.975    C  110 0.955
   114  C   3.991        C  115 1.010    C  116 1.008    C  113 0.986    H  121 0.966
   115  C   3.995        C  114 1.010    H  124 0.985    H  122 0.984    H  123 0.974
   116  C   3.992        C  114 1.008    H  126 0.987    H  125 0.984    H  127 0.977
   117  H   0.973        N  109 0.932
   118  H   0.997        C  110 0.952
   119  H   0.999        C  113 0.976
   120  H   0.999        C  113 0.975
   121  H   0.999        C  114 0.966
   122  H   0.996        C  115 0.984
   123  H   0.998        C  115 0.974
   124  H   0.998        C  115 0.985
   125  H   0.996        C  116 0.984
   126  H   0.998        C  116 0.987
   127  H   0.998        C  116 0.977
   128  N   3.422        C  111 1.280    C  129 0.991    H  136 0.867    O  112 0.172
   129  C   3.978        N  128 0.991    C  132 0.969    H  137 0.945    C  130 0.943
   130  C   3.948        O  131 1.581    N  140 1.340    C  129 0.943
   131  O   1.934        C  130 1.581    N  140 0.194
   132  C   3.985        H  138 0.974    C  129 0.969    H  139 0.963    C  133 0.908
   133  C   3.934        O  135 1.506    O  134 1.497    C  132 0.908
   134  O   1.796        C  133 1.497    O  135 0.216
   135  O   1.798        C  133 1.506    O  134 0.216
   136  H   0.945        N  128 0.867
   137  H   0.998        C  129 0.945
   138  H   0.999        C  132 0.974
   139  H   1.000        C  132 0.963
   140  N   3.502        C  130 1.340    C  141 0.976    H  148 0.907    O  131 0.194
   141  C   3.949        N  140 0.976    H  149 0.956    C  142 0.940    C  144 0.940
   142  C   3.938        O  143 1.604    N  159 1.308    C  141 0.940
   143  O   1.943        C  142 1.604    N  159 0.187
   144  C   3.978        C  146 1.008    C  145 0.991    H  150 0.965    C  141 0.940
   145  C   3.991        C  147 1.020    C  144 0.991    H  151 0.975    H  152 0.972
   146  C   3.990        C  144 1.008    H  154 0.986    H  155 0.982    H  153 0.980
   147  C   3.994        C  145 1.020    H  158 0.985    H  156 0.985    H  157 0.983
   148  H   0.959        N  140 0.907
   149  H   0.995        C  141 0.956
   150  H   0.999        C  144 0.965
   151  H   0.999        C  145 0.975
   152  H   0.995        C  145 0.972
   153  H   0.992        C  146 0.980
   154  H   0.999        C  146 0.986
   155  H   0.996        C  146 0.982
   156  H   0.997        C  147 0.985
   157  H   0.996        C  147 0.983
   158  H   1.000        C  147 0.985
   159  N   3.458        C  142 1.308    C  160 0.975    H  167 0.892    O  143 0.187
   160  C   3.965        N  159 0.975    C  163 0.966    H  168 0.958    C  161 0.937
   161  C   3.954        O  162 1.592    N  171 1.344    C  160 0.937
   162  O   1.941        C  161 1.592    N  171 0.197
   163  C   3.976        H  169 0.977    H  170 0.968    C  160 0.966    C  164 0.895
   164  C   3.942        O  165 1.515    O  166 1.508    C  163 0.895
   165  O   1.812        C  164 1.515    O  166 0.223
   166  O   1.807        C  164 1.508    O  165 0.223
   167  H   0.949        N  159 0.892
   168  H   0.998        C  160 0.958
   169  H   0.999        C  163 0.977
   170  H   1.000        C  163 0.968
   171  N   3.493        C  161 1.344    C  172 0.967    H  182 0.900    O  162 0.197
   172  C   3.945        N  171 0.967    H  183 0.952    C  173 0.944    C  175 0.941
   173  C   3.952        O  174 1.609    N  191 1.327    C  172 0.944
   174  O   1.947        C  173 1.609    N  191 0.200
   175  C   3.984        C  176 1.008    H  185 0.969    H  184 0.968    C  172 0.941
   176  C   3.984        C  178 1.416    C  177 1.409    C  175 1.008    C  181 0.110
   177  C   3.991        C  179 1.448    C  176 1.409    H  186 0.970    C  180 0.112
   178  C   3.988        C  180 1.441    C  176 1.416    H  187 0.969    C  179 0.110
   179  C   3.990        C  177 1.448    C  181 1.435    H  188 0.969    C  178 0.110
   180  C   3.989        C  178 1.441    C  181 1.439    H  189 0.965    C  177 0.112
   181  C   3.988        C  180 1.439    C  179 1.435    H  190 0.968    C  176 0.110
   182  H   0.954        N  171 0.900
   183  H   0.995        C  172 0.952
   184  H   0.998        C  175 0.968
   185  H   0.998        C  175 0.969
   186  H   1.000        C  177 0.970
   187  H   0.999        C  178 0.969
   188  H   0.997        C  179 0.969
   189  H   0.996        C  180 0.965
   190  H   0.996        C  181 0.968
   191  N   3.480        C  173 1.327    C  192 0.970    H  199 0.892    O  174 0.200
   192  C   3.950        N  191 0.970    C  195 0.966    H  200 0.952    C  193 0.940
   193  C   3.957        O  194 1.604    N  205 1.334    C  192 0.940
   194  O   1.981        C  193 1.604    N  205 0.200
   195  C   3.984        C  192 0.966    C  196 0.963    H  202 0.957    H  201 0.951
   196  C   3.957        O  197 1.634    N  198 1.332    C  195 0.963
   197  O   1.944        C  196 1.634    N  198 0.207
   198  N   3.402        C  196 1.332    H  203 0.916    H  204 0.894    O  197 0.207
   199  H   0.951        N  191 0.892
   200  H   0.993        C  192 0.952
   201  H   0.997        C  195 0.951
   202  H   0.994        C  195 0.957
   203  H   0.937        N  198 0.916
   204  H   0.942        N  198 0.894
   205  N   3.483        C  193 1.334    C  206 0.961    H  210 0.887    O  194 0.200
   206  C   3.958        C  209 0.981    C  207 0.972    N  205 0.961    H  211 0.955
   207  C   3.901        O  208 1.908    C  206 0.972    H  351 0.951
   208  O   2.065        C  207 1.908
   209  C   3.986        C  206 0.981    H  214 0.981    H  212 0.980    H  213 0.976
   210  H   0.944        N  205 0.887
   211  H   0.993        C  206 0.955
   212  H   0.994        C  209 0.980
   213  H   0.997        C  209 0.976
   214  H   0.996        C  209 0.981
   215  N   2.994        C  216 1.022    H  222 0.957    H  352 0.943
   216  C   3.983        N  215 1.022    H  223 0.950    C  217 0.950    C  219 0.947
   217  C   3.938        O  218 1.611    N  231 1.303    C  216 0.950
   218  O   1.922        C  217 1.611    N  231 0.193
   219  C   3.994        C  220 1.009    C  221 1.008    H  224 0.969    C  216 0.947
   220  C   3.995        C  219 1.009    H  226 0.985    H  225 0.984    H  227 0.982
   221  C   3.994        C  219 1.008    H  229 0.985    H  228 0.983    H  230 0.979
   222  H   0.975        N  215 0.957
   223  H   0.997        C  216 0.950
   224  H   0.999        C  219 0.969
   225  H   0.997        C  220 0.984
   226  H   1.000        C  220 0.985
   227  H   0.998        C  220 0.982
   228  H   0.997        C  221 0.983
   229  H   0.998        C  221 0.985
   230  H   0.998        C  221 0.979
   231  N   3.474        C  217 1.303    C  232 0.993    H  240 0.881    O  218 0.193
   232  C   3.972        N  231 0.993    C  235 0.964    H  241 0.949    C  233 0.939
   233  C   3.941        O  234 1.607    N  248 1.315    C  232 0.939
   234  O   1.966        C  233 1.607    N  248 0.193
   235  C   3.991        C  236 1.000    H  243 0.977    H  242 0.968    C  232 0.964
   236  C   3.992        C  235 1.000    C  237 0.975    H  244 0.972    H  245 0.940
   237  C   3.947        O  238 1.603    N  239 1.333    C  236 0.975
   238  O   1.954        C  237 1.603    N  239 0.194
   239  N   3.405        C  237 1.333    H  246 0.924    H  247 0.917    O  238 0.194
   240  H   0.949        N  231 0.881
   241  H   0.992        C  232 0.949
   242  H   0.997        C  235 0.968
   243  H   0.999        C  235 0.977
   244  H   0.995        C  236 0.972
   245  H   0.992        C  236 0.940
   246  H   0.944        N  239 0.924
   247  H   0.938        N  239 0.917
   248  N   3.476        C  233 1.315    C  249 0.986    H  253 0.899    O  234 0.193
   249  C   3.966        N  248 0.986    C  252 0.973    H  254 0.951    C  250 0.943
   250  C   3.942        O  251 1.611    N  258 1.307    C  249 0.943
   251  O   1.960        C  250 1.611    N  258 0.190
   252  C   3.980        H  255 0.983    H  257 0.982    H  256 0.978    C  249 0.973
   253  H   0.948        N  248 0.899
   254  H   0.996        C  249 0.951
   255  H   0.996        C  252 0.983
   256  H   0.993        C  252 0.978
   257  H   0.993        C  252 0.982
   258  N   3.475        C  250 1.307    C  259 0.987    H  263 0.900    O  251 0.190
   259  C   3.969        N  258 0.987    C  262 0.984    H  264 0.949    C  260 0.936
   260  C   3.945        O  261 1.601    N  268 1.331    C  259 0.936
   261  O   1.951        C  260 1.601    N  268 0.199
   262  C   3.992        H  265 0.984    C  259 0.984    H  266 0.980    H  267 0.978
   263  H   0.957        N  258 0.900
   264  H   0.992        C  259 0.949
   265  H   0.998        C  262 0.984
   266  H   0.995        C  262 0.980
   267  H   1.000        C  262 0.978
   268  N   3.486        C  260 1.331    C  269 0.974    H  279 0.896    O  261 0.199
   269  C   3.957        N  268 0.974    H  280 0.958    C  272 0.947    C  270 0.939
   270  C   3.950        O  271 1.651    N  288 1.279    C  269 0.939
   271  O   1.976        C  270 1.651    N  288 0.193
   272  C   3.980        C  273 1.007    H  282 0.968    H  281 0.967    C  269 0.947
   273  C   3.986        C  274 1.414    C  275 1.413    C  272 1.007    C  278 0.110
   274  C   3.991        C  276 1.445    C  273 1.414    H  283 0.966    C  277 0.111
   275  C   3.988        C  277 1.444    C  273 1.413    H  284 0.966    C  276 0.111
   276  C   3.991        C  274 1.445    C  278 1.437    H  285 0.968    C  275 0.111
   277  C   3.990        C  275 1.444    C  278 1.438    H  286 0.969    C  274 0.111
   278  C   3.989        C  277 1.438    C  276 1.437    H  287 0.962    C  273 0.110
   279  H   0.944        N  268 0.896
   280  H   0.997        C  269 0.958
   281  H   0.995        C  272 0.967
   282  H   0.994        C  272 0.968
   283  H   0.999        C  274 0.966
   284  H   0.998        C  275 0.966
   285  H   0.998        C  276 0.968
   286  H   0.996        C  277 0.969
   287  H   0.996        C  278 0.962
   288  N   3.454        C  270 1.279    C  289 0.977    H  297 0.902    O  271 0.193
   289  C   3.965        C  290 0.985    N  288 0.977    H  298 0.954    C  292 0.947
   290  C   3.866        O  291 1.852    C  289 0.985    H  353 0.946
   291  O   2.063        C  290 1.852
   292  C   3.991        C  293 1.001    H  300 0.973    H  299 0.972    C  289 0.947
   293  C   3.992        C  292 1.001    H  302 0.979    H  301 0.975    C  294 0.904
   294  C   3.930        O  295 1.508    O  296 1.491    C  293 0.904
   295  O   1.796        C  294 1.508    O  296 0.217
   296  O   1.777        C  294 1.491    O  295 0.217
   297  H   0.960        N  288 0.902
   298  H   0.989        C  289 0.954
   299  H   1.000        C  292 0.972
   300  H   0.997        C  292 0.973
   301  H   0.998        C  293 0.975
   302  H   1.000        C  293 0.979
   303  N   3.075        C  304 1.016    C  309 1.005    H  354 0.957
   304  C   3.987        N  303 1.016    C  307 0.969    H  310 0.961    C  305 0.931
   305  C   3.932        O  306 1.640    N  317 1.279    C  304 0.931
   306  O   1.970        C  305 1.640    N  317 0.191
   307  C   3.992        C  308 1.007    H  311 0.978    H  312 0.974    C  304 0.969
   308  C   3.996        C  307 1.007    C  309 1.003    H  313 0.980    H  314 0.978
   309  C   3.981        N  303 1.005    C  308 1.003    H  316 0.975    H  315 0.965
   310  H   0.998        C  304 0.961
   311  H   0.998        C  307 0.978
   312  H   0.996        C  307 0.974
   313  H   0.999        C  308 0.980
   314  H   0.997        C  308 0.978
   315  H   0.997        C  309 0.965
   316  H   0.998        C  309 0.975
   317  N   3.451        C  305 1.279    C  318 0.987    H  326 0.915    O  306 0.191
   318  C   3.970        N  317 0.987    C  321 0.963    H  327 0.946    C  319 0.945
   319  C   3.957        O  320 1.624    N  334 1.316    C  318 0.945
   320  O   1.957        C  319 1.624    N  334 0.201
   321  C   3.992        C  322 1.005    H  329 0.973    H  328 0.971    C  318 0.963
   322  C   3.994        C  321 1.005    C  323 0.971    H  330 0.970    H  331 0.947
   323  C   3.942        O  324 1.646    N  325 1.298    C  322 0.971
   324  O   1.944        C  323 1.646    N  325 0.196
   325  N   3.380        C  323 1.298    H  332 0.926    H  333 0.925    O  324 0.196
   326  H   0.953        N  317 0.915
   327  H   0.995        C  318 0.946
   328  H   0.997        C  321 0.971
   329  H   0.999        C  321 0.973
   330  H   0.996        C  322 0.970
   331  H   0.991        C  322 0.947
   332  H   0.946        N  325 0.926
   333  H   0.946        N  325 0.925
   334  N   3.492        C  319 1.316    C  335 0.994    H  341 0.900    O  320 0.201
   335  C   3.966        N  334 0.994    C  336 0.984    H  342 0.938    C  338 0.927
   336  C   3.895        O  337 1.891    C  335 0.984    H  355 0.949
   337  O   2.066        C  336 1.891
   338  C   3.952        C  340 0.999    O  339 0.994    H  343 0.957    C  335 0.927
   339  O   1.931        C  338 0.994    H  344 0.862
   340  C   3.988        C  338 0.999    H  347 0.985    H  346 0.981    H  345 0.978
   341  H   0.951        N  334 0.900
   342  H   0.988        C  335 0.938
   343  H   0.997        C  338 0.957
   344  H   0.879        O  339 0.862
   345  H   0.993        C  340 0.978
   346  H   0.995        C  340 0.981
   347  H   0.997        C  340 0.985
   348  H   0.963        N    1 0.945
   349  H   0.994        C   91 0.953
   350  H   0.957        N  109 0.931
   351  H   0.991        C  207 0.951
   352  H   0.963        N  215 0.943
   353  H   0.986        C  290 0.946
   354  H   0.972        N  303 0.957
   355  H   0.990        C  336 0.949
 
molecular dipole:
                 x           y           z       tot (Debye)
 q only:      -75.347    -204.760    -604.212
   full:      -78.201    -204.170    -602.507    1629.164
molecular quadrupole (traceless):
                xx          xy          yy          xz          yz          zz
 q only:    65472.441   -7506.181   47886.542  -22723.716  -61187.645 -113358.982
  q+dip:    64971.957   -7778.685   47732.240  -23478.161  -60894.689 -112704.197
   full:    64985.093   -7766.470   47721.063  -23480.014  -60895.224 -112706.156


           -------------------------------------------------
          | TOTAL ENERGY             -568.281390201534 Eh   |
          | GRADIENT NORM               0.449434068827 Eh/α |
          | HOMO-LUMO GAP               0.456411775650 eV   |
           -------------------------------------------------

------------------------------------------------------------------------
 * finished run on 2019/05/31 at 06:33:10.688     
------------------------------------------------------------------------
 total:
 * wall-time:     0 d,  0 h,  0 min,  8.738 sec
 *  cpu-time:     0 d,  0 h,  0 min, 17.349 sec
 * ratio c/w:     1.985 speedup
 SCF:
 * wall-time:     0 d,  0 h,  0 min,  8.161 sec
 *  cpu-time:     0 d,  0 h,  0 min, 16.317 sec
 * ratio c/w:     1.999 speedup

