      -----------------------------------------------------------      
     |                   =====================                   |     
     |                           x T B                           |     
     |                   =====================                   |     
     |                         S. Grimme                         |     
     |          Mulliken Center for Theoretical Chemistry        |     
     |                    University of Bonn                     |     
     |                Version 6.1 RC1 (SAW190329)                |     
      -----------------------------------------------------------      

   This program is distributed in the hope that it will be useful,
   but WITHOUT ANY WARRANTY; without even the implied warranty of
   MERCHANTABILITY or FITNESS FOR A PARTICULAR PURPOSE.
   
   FOR NON-COMMERCIAL, ACADEMIA USE ONLY.
   
   Cite this work as:
   S. Grimme, C. Bannwarth, P. Shushkov, J. Comput. Theory Chem., 2017,
   13, 1989-2009. DOI: 10.1021/acs.jctc.7b00118
   C. Bannwarth, S. Ehlert and S. Grimme., J. Comput. Theory Chem., 2019,
   just accepted. DOI: 10.1021/acs.jctc.8b01176
   
   for sTDA-xTB:
   S. Grimme and C. Bannwarth, J. Chem. Phys., 2016, 145, 054103.
   DOI: 10.1063/1.4959605
   
   in the mass-spec context:
   V. Asgeirsson, C. Bauer and S. Grimme, Chem. Sci., 2017, 8, 4879.
   DOI: 10.1039/c7sc00601b
   
   for metadynamics refer to:
   S. Grimme, ChemRxiv, Preprint. DOI: 10.26434/chemrxiv.7660532.v1
   
   with help from (in alphabetical order)
   C. Bannwarth, F. Bohle, G. Brandenburg, E. Caldeweyher, M. Checinski,
   S. Dohm, S. Ehlert, S. Ehrlich, F. März, H. Neugebauer, J. Pisarek,
   P. Pracht, P. Shushkov, and S. Spicher.
   
 * started run on 2019/05/31 at 07:35:53.902     

           -------------------------------------------------
          |                Calculation Setup                |
           -------------------------------------------------

          program call               : /home/lum/install/xtb/xtb-190329/bin/xtb xtb_tmp.xyz --chrg -1 --grad --gfn 2 --etemp 500 --acc 0.1 --gbsa h2o --parallel 1
          hostname                   : cu05
          coordinate file            : xtb_tmp.xyz
          omp threads                :                     1
          number of atoms            :                   292
          number of electrons        :                   812
          charge                     :                    -1
          spin                       :                   0.0
          first test random number   :      0.76910854055277


molecular fragmentation (1/2 indicates fragments):
111111111111111111122222222222222222222222222222222222222222222222222222
222222222222222222222222222222222222222222222222222222222222222222222222
222222222222222222222222222222222222222222222222222222222222222222222222
222222222222222222222222222222222222222222222222222222222222222222222211
2222
# atoms in fragment 1/2:    21   271
 fragment masses (1/2) :      115.17     1957.19
CMA distance (Bohr)    :  19.271
constraining FC (au)   :  0.0500

########################################################################
# WARNING! Please study the warnings concerning your input carefully
#  - XTBPATH is not set, using XTBHOME instead
########################################################################

           ------------------------------------------------- 
          |                 G F N 2 - x T B                 |
          | Geometry, Frequencies, Noncovalent interactions |
          |            JCTC 2018 parametrisation            |
           ------------------------------------------------- 
 
             k(s)              :                1.8500
             k(p)              :                2.2300
             k(d)              :                2.2300
             k(f)              :                2.0000
             kEN (H0ij)        :               -2.0000
             D4 a1             :                0.5200
             D4 a2             :                5.0000
             D4 s6             :                1.0000
             D4 s8             :                2.7000
             D4 s9             :                5.0000
             alphaj            :                2.0000

  Z AO/shell   Hii/eV     exponent
  1     Wed Apr 25 08:07:45 CEST 2018   EN: 2.200 GM2: 0.406  GM3: 0.0800  RAES: 1.40
     1s    -10.707211    1.230000
  6     Wed Apr 25 08:07:45 CEST 2018   EN: 2.550 GM2: 0.538  GM3: 0.1500  RAES: 3.00
     2s    -13.970922    2.096432
     2p    -10.063292    1.800000
  7     Wed Apr 25 08:07:45 CEST 2018   EN: 3.040 GM2: 0.461  GM3:-0.0640  RAES: 1.90
     2s    -16.686243    2.339881
     2p    -12.523956    2.014332
  8     Wed Apr 25 08:07:45 CEST 2018   EN: 3.440 GM2: 0.452  GM3:-0.0517  RAES: 1.80
     2s    -20.229985    2.439742
     2p    -15.503117    2.137023

 Solvent             : h2o
 Using internal parameter file: .param_gbsa2_h2o
 Gsolv ref. state (COSMO-RS): gsolv [1 M gas/solution]
 temperature (mdtemp)       :    298.150000000000     
 dielectric constant        :    80.2000000000000     
 rho                        :    1.00000000000000     
 mass                       :    18.0000000000000     
 surface tension            :    15.5689454083859     
 probe radius               :   0.975313790000000     
 vdW radii scaling          :    1.00000000000000     
 Gshift (Eh)                :   1.857443126794793E-003
 c1                         :    1.55243817000000     
 soset                      :   0.130326360000000     
 HB correction              :  T
 Number of grid points      :          230

            Z     q(EN)     CN     RAES       Cart. coordinates
     1  N   5.0   -0.72    3.00    1.93    62.64199    94.12621    74.94055
     2  C   4.0    0.06    3.98    3.59    63.96068    94.35473    77.32167
     3  C   4.0    0.06    3.00    3.02    66.77204    93.82996    77.00773
     4  O   6.0   -0.43    1.00    1.80    68.35922    94.76470    78.42463
     5  C   4.0   -0.08    3.98    3.59    62.77291    92.69544    79.38985
     6  C   4.0   -0.15    3.98    3.59    63.39059    89.90112    78.96201
     7  C   4.0   -0.22    3.98    3.59    59.94065    93.22331    79.55837
     8  C   4.0   -0.23    3.98    3.58    62.02928    88.15979    80.80505
     9  H   1.0    0.25    1.00    1.43    61.69220    92.51396    74.57135
    10  H   1.0    0.11    0.99    1.43    63.78708    96.34374    77.90218
    11  H   1.0    0.10    0.99    1.43    63.64546    93.29708    81.16840
    12  H   1.0    0.11    0.99    1.43    62.89719    89.36420    77.03514
    13  H   1.0    0.11    0.99    1.43    65.43029    89.65437    79.16888
    14  H   1.0    0.13    0.99    1.43    59.19484    92.54671    81.34584
    15  H   1.0    0.10    0.99    1.43    59.62265    95.25144    79.44598
    16  H   1.0    0.10    0.99    1.43    58.92955    92.30234    78.02604
    17  H   1.0    0.11    0.99    1.43    62.74373    86.24370    80.59903
    18  H   1.0    0.11    0.99    1.43    62.32739    88.79462    82.73818
    19  H   1.0    0.11    0.99    1.43    60.01742    88.14947    80.40093
    20  N   5.0   -0.55    3.02    1.93    80.13123   108.27201    86.04442
    21  C   4.0    0.06    4.02    3.65    81.45541   107.97034    88.42962
    22  C   4.0    0.28    3.01    3.02    79.73448   107.42075    90.68720
    23  O   6.0   -0.43    1.00    1.80    80.58720   106.53947    92.64090
    24  C   4.0   -0.14    4.01    3.64    82.71834   110.54838    88.83197
    25  C   4.0   -0.15    4.01    3.64    80.77248   112.36210    87.71032
    26  C   4.0   -0.04    4.01    3.64    79.76993   110.92683    85.40732
    27  H   1.0    0.10    0.99    1.43    82.79063   106.39867    88.30865
    28  H   1.0    0.11    0.99    1.43    83.10031   110.90767    90.81842
    29  H   1.0    0.09    0.99    1.43    84.48464   110.64742    87.78106
    30  H   1.0    0.11    0.99    1.43    79.26139   112.69822    89.06561
    31  H   1.0    0.08    0.99    1.43    81.59546   114.16988    87.18805
    32  H   1.0    0.10    0.99    1.43    77.78858   111.35007    85.01496
    33  H   1.0    0.09    0.99    1.43    80.87154   111.39577    83.72158
    34  N   5.0   -0.48    3.00    1.93    77.32839   108.22671    90.44983
    35  C   4.0    0.01    4.00    3.61    75.52931   107.78051    92.45221
    36  C   4.0    0.27    3.00    3.02    74.45640   105.09522    92.30714
    37  O   6.0   -0.40    1.00    1.80    74.35514   103.93669    90.31447
    38  H   1.0    0.26    1.00    1.43    76.62080   108.43415    88.69157
    39  H   1.0    0.12    0.99    1.43    76.52118   108.04133    94.24268
    40  H   1.0    0.10    0.99    1.43    73.98456   109.14107    92.29053
    41  N   5.0   -0.49    3.01    1.93    73.69811   104.15866    94.53487
    42  C   4.0    0.07    4.00    3.61    72.56379   101.68770    94.80792
    43  C   4.0    0.27    3.02    3.02    69.84331   102.06496    95.70009
    44  O   6.0   -0.41    1.00    1.80    69.27851   103.69869    97.23270
    45  C   4.0   -0.09    3.98    3.58    74.07254   100.05852    96.70032
    46  C   4.0   -0.21    3.98    3.59    72.88641    97.44409    96.94434
    47  C   4.0   -0.21    3.98    3.59    76.81796    99.83403    95.84013
    48  H   1.0    0.24    1.00    1.43    73.67148   105.26139    96.09049
    49  H   1.0    0.13    0.99    1.43    72.60560   100.81241    92.93533
    50  H   1.0    0.12    0.99    1.43    74.00339   101.00509    98.53999
    51  H   1.0    0.11    0.99    1.43    74.01250    96.26428    98.19003
    52  H   1.0    0.15    0.99    1.43    70.98864    97.54430    97.72037
    53  H   1.0    0.10    0.99    1.43    72.79737    96.51703    95.11304
    54  H   1.0    0.10    0.99    1.43    77.89900    98.77915    97.23013
    55  H   1.0    0.11    0.99    1.43    76.92047    98.84604    94.04067
    56  H   1.0    0.13    0.99    1.43    77.68899   101.67909    95.60103
    57  N   5.0   -0.49    3.01    1.93    68.11181   100.57716    94.58960
    58  C   4.0    0.08    4.00    3.62    65.51621   100.62554    95.47965
    59  C   4.0    0.29    3.01    3.02    65.57785   100.12434    98.33445
    60  O   6.0   -0.42    1.00    1.80    67.04351    98.62184    99.28244
    61  C   4.0   -0.10    3.98    3.59    63.92103    98.65512    94.06720
    62  C   4.0   -0.22    3.98    3.59    61.23015    98.58207    95.10023
    63  C   4.0   -0.22    3.98    3.59    63.87313    99.20902    91.23589
    64  H   1.0    0.22    1.00    1.43    68.68116    99.04941    93.60282
    65  H   1.0    0.12    0.99    1.43    64.76923   102.52855    95.14315
    66  H   1.0    0.12    0.99    1.43    64.78880    96.80953    94.39890
    67  H   1.0    0.12    0.99    1.43    60.11417    97.19442    94.07597
    68  H   1.0    0.12    0.99    1.43    61.19328    98.01496    97.07560
    69  H   1.0    0.10    0.99    1.43    60.31592   100.41252    94.91339
    70  H   1.0    0.11    0.99    1.43    62.74933    97.77349    90.29048
    71  H   1.0    0.10    0.99    1.43    63.02330   101.04552    90.89044
    72  H   1.0    0.11    0.99    1.43    65.75684    99.19199    90.42122
    73  N   5.0   -0.50    3.00    1.93    64.00609   101.56739    99.72468
    74  C   4.0    0.03    4.00    3.61    63.86678   101.25433   102.43700
    75  C   4.0    0.26    3.00    3.02    62.78946   103.56616   103.74980
    76  O   6.0   -0.45    1.00    1.80    61.29234   103.35113   105.50716
    77  H   1.0    0.23    1.00    1.43    62.56413   102.46275    98.85663
    78  H   1.0    0.14    0.99    1.43    62.74395    99.60114   102.98374
    79  H   1.0    0.14    0.99    1.43    65.79329   100.92260   103.11979
    80  N   5.0   -0.49    3.01    1.93    63.55803   105.77584   102.81117
    81  C   4.0    0.07    3.99    3.60    63.01254   108.22541   103.93389
    82  C   4.0    0.28    3.01    3.02    60.34828   108.40029   105.05188
    83  O   6.0   -0.42    1.00    1.80    60.04332   109.19680   107.19841
    84  C   4.0   -0.09    3.98    3.58    63.55684   110.37011   102.01712
    85  C   4.0   -0.15    3.98    3.59    62.57873   112.87927   103.09283
    86  C   4.0   -0.21    3.98    3.59    62.45761   109.87100    99.39352
    87  C   4.0   -0.24    3.98    3.58    63.61342   115.18141   101.70713
    88  H   1.0    0.25    1.00    1.43    64.97898   105.74933   101.52655
    89  H   1.0    0.12    0.99    1.43    64.26166   108.50166   105.57384
    90  H   1.0    0.10    0.99    1.43    65.61893   110.48267   101.85506
    91  H   1.0    0.14    0.99    1.43    60.51839   112.88654   102.98566
    92  H   1.0    0.11    0.99    1.43    63.08812   113.00019   105.08918
    93  H   1.0    0.10    0.99    1.43    63.34848   111.13237    98.04242
    94  H   1.0    0.11    0.99    1.43    62.83124   107.95269    98.76638
    95  H   1.0    0.14    0.99    1.43    60.43185   110.22747    99.35097
    96  H   1.0    0.10    0.99    1.43    62.88253   116.89611   102.56970
    97  H   1.0    0.10    0.99    1.43    65.66439   115.22481   101.80944
    98  H   1.0    0.10    0.99    1.43    63.05067   115.15493    99.73491
    99  N   5.0   -0.47    3.00    1.93    58.40514   107.73454   103.55853
   100  C   4.0    0.08    3.99    3.61    55.81980   108.14770   104.34159
   101  C   4.0    0.27    3.01    3.02    54.61239   105.94079   105.80455
   102  O   6.0   -0.42    1.00    1.80    52.32494   105.86371   106.13076
   103  C   4.0   -0.12    3.98    3.59    54.14332   108.88560   102.09320
   104  C   4.0    0.11    3.33    3.06    54.75844   111.45606   101.12105
   105  N   5.0   -0.41    2.11    1.90    56.72635   111.86757    99.50385
   106  C   4.0    0.02    3.23    3.04    53.60824   113.71166   101.65614
   107  C   4.0    0.15    3.40    3.08    56.76286   114.29852    99.07590
   108  N   5.0   -0.48    3.14    1.94    54.90625   115.50873   100.33532
   109  H   1.0    0.25    1.00    1.43    58.70343   107.21800   101.74864
   110  H   1.0    0.14    0.99    1.43    55.85886   109.70500   105.72067
   111  H   1.0    0.12    0.99    1.43    54.37780   107.48748   100.59367
   112  H   1.0    0.12    0.99    1.43    52.18831   108.82786   102.74275
   113  H   1.0    0.10    1.00    1.43    52.01831   114.14283   102.82767
   114  H   1.0    0.09    1.00    1.43    58.09824   115.23003    97.87390
   115  H   1.0    0.22    1.00    1.43    54.52651   117.37308   100.31148
   116  N   5.0   -0.47    3.00    1.93    56.22573   104.25904   106.77960
   117  C   4.0    0.03    3.99    3.61    55.40590   102.22177   108.39277
   118  C   4.0    0.27    3.01    3.02    55.50632    99.60514   107.16514
   119  O   6.0   -0.40    1.00    1.80    53.75778    98.11015   107.39788
   120  H   1.0    0.31    1.00    1.43    58.10265   104.40273   106.42752
   121  H   1.0    0.12    0.99    1.43    56.58325   102.17730   110.09167
   122  H   1.0    0.15    0.99    1.43    53.43967   102.57706   108.91982
   123  N   5.0   -0.48    3.00    1.93    57.62449    99.08471   105.87744
   124  C   4.0    0.08    4.00    3.62    57.97929    96.65862   104.67004
   125  C   4.0    0.27    3.02    3.02    60.44892    95.42677   105.50502
   126  O   6.0   -0.40    1.00    1.80    62.22632    96.62614   106.38243
   127  C   4.0   -0.10    3.98    3.58    57.98781    96.84873   101.78206
   128  C   4.0    0.31    2.99    3.02    57.13937    94.35270   100.41645
   129  O   6.0   -0.41    1.00    1.80    56.90186    94.49975    98.09548
   130  O   6.0   -0.42    1.00    1.80    56.78783    92.44192   101.75841
   131  H   1.0    0.29    1.00    1.43    59.10798   100.30678   105.89413
   132  H   1.0    0.16    0.99    1.43    56.38381    95.46583   105.23947
   133  H   1.0    0.13    0.99    1.43    56.70054    98.33469   101.16022
   134  H   1.0    0.12    0.99    1.43    59.87814    97.28910   101.07499
   135  N   5.0   -0.49    3.01    1.93    60.46536    92.91756   105.17524
   136  C   4.0    0.10    4.00    3.61    62.78881    91.52231   105.51718
   137  C   4.0    0.29    3.02    3.02    64.73930    92.29484   103.51699
   138  O   6.0   -0.42    1.00    1.80    64.17485    92.34453   101.25336
   139  C   4.0   -0.01    3.98    3.59    62.29899    88.68499   105.24673
   140  O   6.0   -0.52    1.99    1.82    64.64742    87.42314   105.31218
   141  H   1.0    0.29    1.00    1.43    59.09057    92.24809   103.95791
   142  H   1.0    0.12    0.99    1.43    63.50547    91.96724   107.40310
   143  H   1.0    0.10    0.99    1.43    61.08072    88.05702   106.79404
   144  H   1.0    0.14    0.99    1.43    61.32910    88.34928   103.44215
   145  H   1.0    0.25    0.99    1.43    64.33891    85.64195   105.58610
   146  N   5.0   -0.34    3.03    1.93    67.07171    92.80711   104.30854
   147  C   4.0    0.07    4.03    3.67    68.98985    93.59652   102.50092
   148  C   4.0    0.27    3.01    3.02    69.65903    91.47894   100.66012
   149  O   6.0   -0.43    1.00    1.80    70.74076    91.87563    98.66191
   150  C   4.0   -0.14    4.01    3.64    71.26273    94.31304   104.14459
   151  C   4.0   -0.15    4.01    3.64    70.94590    92.62147   106.45733
   152  C   4.0   -0.05    4.01    3.65    68.08690    92.60602   106.86001
   153  H   1.0    0.16    0.99    1.43    68.30490    95.18488   101.36557
   154  H   1.0    0.11    0.99    1.43    73.03289    94.00366   103.15004
   155  H   1.0    0.11    0.99    1.43    71.12950    96.29816   104.66878
   156  H   1.0    0.12    0.99    1.43    71.61806    90.71854   106.04222
   157  H   1.0    0.09    0.99    1.43    71.94154    93.34862   108.09772
   158  H   1.0    0.11    0.99    1.43    67.44411    90.86888   107.75956
   159  H   1.0    0.12    0.99    1.43    67.46890    94.23864   107.97051
   160  N   5.0   -0.48    3.01    1.93    69.05706    89.13764   101.44493
   161  C   4.0    0.08    4.00    3.61    69.43272    86.97216    99.84489
   162  C   4.0    0.28    3.01    3.02    67.73150    86.97241    97.52682
   163  O   6.0   -0.49    1.00    1.80    67.99633    85.28641    95.92950
   164  C   4.0   -0.13    3.99    3.60    69.03036    84.53011   101.36710
   165  C   4.0   -0.03    3.03    3.02    70.99872    84.28972   103.40313
   166  C   4.0   -0.11    3.03    3.02    73.25092    83.03026   102.91797
   167  C   4.0   -0.10    3.03    3.02    70.64627    85.35981   105.77105
   168  C   4.0   -0.08    3.03    3.02    75.09550    82.81222   104.74767
   169  C   4.0   -0.11    3.03    3.02    72.49001    85.17340   107.61571
   170  C   4.0    0.10    3.03    3.02    74.72710    83.88796   107.11946
   171  O   6.0   -0.48    1.99    1.83    76.58210    83.62904   108.87327
   172  H   1.0    0.27    1.00    1.43    67.93301    88.88212   102.96965
   173  H   1.0    0.13    0.99    1.43    71.37952    87.02672    99.12343
   174  H   1.0    0.12    0.99    1.43    67.13577    84.58135   102.17496
   175  H   1.0    0.11    0.99    1.43    69.13668    82.92683   100.07628
   176  H   1.0    0.10    1.00    1.43    73.55608    82.19124   101.08548
   177  H   1.0    0.12    1.00    1.43    68.90172    86.32637   106.19352
   178  H   1.0    0.12    1.00    1.43    76.83175    81.81324   104.37874
   179  H   1.0    0.10    0.99    1.43    72.17969    86.02311   109.44604
   180  H   1.0    0.24    0.99    1.43    76.07681    84.42404   110.43965
   181  N   5.0   -0.47    3.00    1.93    66.03876    88.80061    97.26378
   182  C   4.0    0.08    4.00    3.61    64.33333    88.89917    95.12145
   183  C   4.0    0.31    3.01    3.02    65.49039    87.75836    92.72259
   184  O   6.0   -0.45    1.00    1.80    64.44876    86.02281    91.60313
   185  C   4.0   -0.13    3.99    3.60    63.56187    91.64560    94.58293
   186  C   4.0   -0.03    3.03    3.02    62.05216    91.72723    92.17561
   187  C   4.0   -0.10    3.03    3.02    63.13879    92.42148    89.88899
   188  C   4.0   -0.09    3.03    3.02    59.54763    90.94453    92.19202
   189  C   4.0   -0.09    3.03    3.02    61.78669    92.28165    87.66021
   190  C   4.0   -0.09    3.03    3.02    58.17619    90.80502    89.97614
   191  C   4.0    0.10    3.03    3.02    59.29663    91.44079    87.68501
   192  O   6.0   -0.50    1.99    1.83    58.03266    91.26775    85.45957
   193  H   1.0    0.29    1.00    1.43    65.67799    90.07623    98.65911
   194  H   1.0    0.13    0.99    1.43    62.63188    87.78125    95.53527
   195  H   1.0    0.13    0.99    1.43    62.44507    92.34750    96.17268
   196  H   1.0    0.11    0.99    1.43    65.26957    92.79146    94.43074
   197  H   1.0    0.12    1.00    1.43    65.06232    93.09808    89.82997
   198  H   1.0    0.13    0.99    1.43    58.65497    90.47644    93.96813
   199  H   1.0    0.11    1.00    1.43    62.64391    92.81827    85.89116
   200  H   1.0    0.12    0.99    1.43    56.23218    90.18469    90.03385
   201  H   1.0    0.25    0.99    1.43    56.29088    90.80309    85.76491
   202  N   5.0   -0.48    3.01    1.93    67.57881    88.87900    91.82726
   203  C   4.0    0.07    4.00    3.62    68.50449    88.25130    89.32029
   204  C   4.0    0.29    3.01    3.02    69.14641    85.44145    89.14791
   205  O   6.0   -0.41    1.00    1.80    68.46452    84.13694    87.36802
   206  C   4.0   -0.14    3.99    3.60    70.85694    89.81266    88.65462
   207  C   4.0   -0.04    3.03    3.02    70.19603    92.45185    87.82197
   208  C   4.0   -0.10    3.03    3.02    68.85644    92.81273    85.58913
   209  C   4.0   -0.10    3.03    3.02    70.94204    94.55172    89.20650
   210  C   4.0   -0.09    3.03    3.02    68.27346    95.21969    84.75695
   211  C   4.0   -0.11    3.03    3.02    70.38586    96.96741    88.35973
   212  C   4.0   -0.10    3.03    3.02    69.04899    97.30555    86.13689
   213  H   1.0    0.24    1.00    1.43    68.32517    90.40154    92.69887
   214  H   1.0    0.12    0.99    1.43    66.99286    88.59471    87.94100
   215  H   1.0    0.11    0.99    1.43    72.13468    89.86141    90.27023
   216  H   1.0    0.11    0.99    1.43    71.83388    88.86536    87.10187
   217  H   1.0    0.11    0.99    1.43    68.29436    91.19986    84.47078
   218  H   1.0    0.11    0.99    1.43    72.01889    94.30502    90.92306
   219  H   1.0    0.13    1.00    1.43    67.26103    95.48196    83.00456
   220  H   1.0    0.12    0.99    1.43    71.03626    98.60663    89.39042
   221  H   1.0    0.12    0.99    1.43    68.63397    99.18534    85.45507
   222  N   5.0   -0.48    3.01    1.93    70.61835    84.58426    91.01466
   223  C   4.0    0.07    4.00    3.61    71.46336    81.97639    91.10157
   224  C   4.0    0.29    3.01    3.02    69.18322    80.19636    91.11807
   225  O   6.0   -0.39    1.00    1.80    69.01440    78.36109    89.72442
   226  C   4.0   -0.15    3.99    3.60    73.10596    81.59260    93.44926
   227  C   4.0   -0.10    3.98    3.58    74.05076    78.87235    93.77468
   228  C   4.0   -0.22    3.98    3.59    75.85799    78.11846    91.65600
   229  C   4.0   -0.23    3.98    3.59    75.33767    78.61158    96.34631
   230  H   1.0    0.26    1.00    1.43    70.86649    85.64652    92.58147
   231  H   1.0    0.13    0.99    1.43    72.53147    81.58442    89.37273
   232  H   1.0    0.10    0.99    1.43    74.73031    82.85748    93.32126
   233  H   1.0    0.12    0.99    1.43    71.98822    82.11974    95.10299
   234  H   1.0    0.13    0.99    1.43    72.42451    77.59763    93.71153
   235  H   1.0    0.10    0.99    1.43    76.59688    76.23256    91.99663
   236  H   1.0    0.11    0.99    1.43    74.88403    78.08811    89.84733
   237  H   1.0    0.10    0.99    1.43    77.43649    79.42891    91.54932
   238  H   1.0    0.10    0.99    1.43    76.11229    76.72368    96.57033
   239  H   1.0    0.10    0.99    1.43    76.87884    79.95935    96.52096
   240  H   1.0    0.10    0.99    1.43    73.99307    78.93473    97.86705
   241  N   5.0   -0.48    3.01    1.93    67.42550    80.82832    92.81755
   242  C   4.0    0.09    3.99    3.61    65.11257    79.40190    93.12287
   243  C   4.0    0.29    3.01    3.02    63.86411    79.00073    90.55585
   244  O   6.0   -0.39    1.00    1.80    63.09844    76.92855    89.86377
   245  C   4.0    0.04    3.98    3.58    63.28872    80.81694    94.92780
   246  O   6.0   -0.49    1.99    1.82    64.47491    81.34644    97.24657
   247  C   4.0   -0.20    3.98    3.59    60.96153    79.21664    95.48591
   248  H   1.0    0.30    1.00    1.43    67.63231    82.45346    93.80832
   249  H   1.0    0.13    0.99    1.43    65.54893    77.53562    93.92046
   250  H   1.0    0.14    0.99    1.43    62.72560    82.58647    93.99142
   251  H   1.0    0.30    0.99    1.43    65.73670    82.64911    96.99239
   252  H   1.0    0.11    0.99    1.43    59.63402    80.32067    96.59372
   253  H   1.0    0.12    0.99    1.43    60.06965    78.61323    93.74059
   254  H   1.0    0.12    0.99    1.43    61.51880    77.56734    96.57515
   255  N   5.0   -0.48    3.01    1.93    63.62317    81.10786    89.18505
   256  C   4.0    0.10    3.99    3.60    62.29870    81.12731    86.79851
   257  C   4.0    0.11    3.00    3.02    63.76165    79.72020    84.73713
   258  O   6.0   -0.38    1.00    1.80    62.67685    78.42974    83.13527
   259  C   4.0   -0.01    3.98    3.58    61.73598    83.85042    85.98123
   260  O   6.0   -0.48    1.99    1.83    59.63817    83.75754    84.36065
   261  H   1.0    0.30    1.00    1.43    64.22301    82.79388    89.87638
   262  H   1.0    0.16    0.99    1.43    60.47759    80.15091    86.99417
   263  H   1.0    0.13    0.99    1.43    61.30844    84.97856    87.67476
   264  H   1.0    0.12    0.99    1.43    63.40106    84.66578    85.05338
   265  H   1.0    0.25    0.99    1.43    59.40524    85.37416    83.55258
   266  N   5.0   -0.71    3.00    1.93    53.02628    76.92276   106.04710
   267  C   4.0    0.07    3.98    3.59    54.81585    75.60481   104.43311
   268  C   4.0    0.06    3.00    3.02    54.81101    72.77535   105.01174
   269  O   6.0   -0.42    1.00    1.80    54.95038    71.18263   103.33069
   270  C   4.0   -0.12    3.99    3.60    57.47041    76.74608   104.77194
   271  C   4.0   -0.04    3.03    3.02    57.32806    79.55016   104.31237
   272  C   4.0   -0.11    3.03    3.02    56.95354    80.49253   101.88892
   273  C   4.0   -0.11    3.03    3.02    57.36010    81.22975   106.32551
   274  C   4.0   -0.07    3.03    3.02    56.56729    83.03759   101.48129
   275  C   4.0   -0.11    3.03    3.02    56.97529    83.78340   105.94041
   276  C   4.0    0.10    3.03    3.02    56.52871    84.69518   103.52176
   277  O   6.0   -0.43    1.99    1.83    56.05483    87.18896   103.08225
   278  H   1.0    0.27    1.00    1.43    53.40041    78.77893   106.42462
   279  H   1.0    0.12    0.99    1.43    54.24159    75.82982   102.44774
   280  H   1.0    0.11    0.99    1.43    58.14886    76.36579   106.67982
   281  H   1.0    0.11    0.99    1.43    58.74142    75.83920   103.42820
   282  H   1.0    0.11    1.00    1.43    56.91194    79.21247   100.30296
   283  H   1.0    0.11    1.00    1.43    57.65088    80.53790   108.22239
   284  H   1.0    0.13    1.00    1.43    56.20925    83.75794    99.60778
   285  H   1.0    0.11    1.00    1.43    56.92788    85.04661   107.54138
   286  H   1.0    0.26    0.99    1.43    55.81099    88.04297   104.68002
   287  H   1.0    0.28    1.00    1.43    61.47070    95.35346    74.82017
   288  H   1.0    0.13    1.00    1.43    67.37256    92.69745    75.61925
   289  H   1.0    0.27    1.00    1.43    80.67695   107.09953    84.93987
   290  H   1.0    0.16    1.00    1.43    65.64656    79.83675    84.66923
   291  H   1.0    0.30    1.00    1.43    51.48697    76.90111   105.32418
   292  H   1.0    0.13    1.00    1.43    54.69201    72.17689   106.80024

           ------------------------------------------------- 
          |        Self-Consistent Charge Iterations        |
           ------------------------------------------------- 

          ...................................................
          :                      SETUP                      :
          :.................................................:
          :  # basis functions                 736          :
          :  # atomic orbitals                 736          :
          :  # shells                          440          :
          :  # electrons                       812          :
          :  max. iterations                   250          :
          :  Hamiltonian                  GFN2-xTB          :
          :  restarted?                      false          :
          :  GBSA solvation                   true          :
          :  PC potential                    false          :
          :  electronic temp.          500.0000000     K    :
          :  accuracy                    0.1000000          :
          :  -> integral cutoff          0.3500000E+02      :
          :  -> integral neglect         0.1000000E-08      :
          :  -> SCF convergence          0.1000000E-06 Eh   :
          :  -> wf. convergence          0.1000000E-04 e    :
          :  Broyden damping             0.4000000          :
          ...................................................

 iter      E             dE          RMSdq      gap      omega  full diag
   1   -464.0305695 -0.464031E+03  0.427E+00    1.37       0.0  T
   2   -465.1794951 -0.114893E+01  0.229E+00    1.26       1.0  T
   3   -465.2152140 -0.357189E-01  0.118E+00    1.75       1.0  T
   4   -465.2276844 -0.124704E-01  0.276E-01    1.44       1.0  T
   5   -465.2413778 -0.136934E-01  0.100E-01    1.57       1.0  T
   6   -465.2416593 -0.281511E-03  0.511E-02    1.56       1.0  T
   7   -465.2417924 -0.133123E-03  0.227E-02    1.56       1.0  T
   8   -465.2418347 -0.423128E-04  0.892E-03    1.57       1.0  T
   9   -465.2418389 -0.416219E-05  0.492E-03    1.57       1.2  T
  10   -465.2418403 -0.142444E-05  0.224E-03    1.57       2.6  T
  11   -465.2418406 -0.344272E-06  0.104E-03    1.57       5.7  T
  12   -465.2418407 -0.930607E-07  0.485E-04    1.57      12.1  T
  13   -465.2418407 -0.141066E-07  0.218E-04    1.57      26.8  T
  14   -465.2418407 -0.255272E-08  0.914E-05    1.57      64.1  T
  15   -465.2418407 -0.577529E-09  0.384E-05    1.57     152.5  T

   *** convergence criteria satisfied after 15 iterations ***

         #    Occupation            Energy/Eh            Energy/eV
      -------------------------------------------------------------
         1        2.0000           -0.7393348             -20.1183
       ...           ...                  ...                  ...
       400        2.0000           -0.3869888             -10.5305
       401        2.0000           -0.3858936             -10.5007
       402        2.0000           -0.3822616             -10.4019
       403        2.0000           -0.3763039             -10.2398
       404        2.0000           -0.3711283             -10.0989
       405        2.0000           -0.3660636              -9.9611
       406        2.0000           -0.3459347              -9.4134 (HOMO)
       407                         -0.2882989              -7.8450 (LUMO)
       408                         -0.2855915              -7.7713
       409                         -0.2802644              -7.6264
       410                         -0.2533815              -6.8949
       411                         -0.2525028              -6.8710
       ...                                ...                  ...
       736                          0.6626938              18.0328
      -------------------------------------------------------------
                  HL-Gap            0.0576358 Eh            1.5683 eV
             Fermi-level           -0.3172526 Eh           -8.6329 eV

 SCC (total)                   0 d,  0 h,  0 min,  7.006 sec
 SCC setup                      ...        0 min,  0.087 sec (  1.238%)
 Dispersion                     ...        0 min,  0.091 sec (  1.296%)
 integral evaluation            ...        0 min,  0.362 sec (  5.169%)
 zeroth order Hamiltonian       ...        0 min,  0.002 sec (  0.034%)
 iterations                     ...        0 min,  5.046 sec ( 72.029%)
 molecular gradient             ...        0 min,  1.366 sec ( 19.505%)
 printout                       ...        0 min,  0.051 sec (  0.728%)

         :::::::::::::::::::::::::::::::::::::::::::::::::::::
         ::                     SUMMARY                     ::
         :::::::::::::::::::::::::::::::::::::::::::::::::::::
         :: total energy             -459.495168241766 Eh   ::
         :: total w/o Gsasa/hb       -459.447111302353 Eh   ::
         :: gradient norm               0.389512191648 Eh/α ::
         :: HOMO-LUMO gap               1.568348988584 eV   ::
         ::.................................................::
         :: SCC energy               -465.254603802652 Eh   ::
         :: -> isotropic ES             1.226501632933 Eh   ::
         :: -> anisotropic ES          -0.017754267202 Eh   ::
         :: -> anisotropic XC           0.142254081218 Eh   ::
         :: -> dispersion              -0.380219428586 Eh   ::
         :: -> Gsolv                   -0.250068512178 Eh   ::
         ::    -> Gborn                -0.202011572765 Eh   ::
         ::    -> Gsasa                -0.014620503987 Eh   ::
         ::    -> Ghb                  -0.035293878553 Eh   ::
         ::    -> Gshift                0.001857443127 Eh   ::
         :: repulsion energy            5.734136520077 Eh   ::
         :: add. restraining            0.000000000000 Eh   ::
         :::::::::::::::::::::::::::::::::::::::::::::::::::::

           -------------------------------------------------
          |                Property Printout                |
           -------------------------------------------------

    * Orbital Energies and Occupations

         #    Occupation            Energy/Eh            Energy/eV
      -------------------------------------------------------------
         1        2.0000           -0.7393348             -20.1183
       ...           ...                  ...                  ...
       394        2.0000           -0.3993828             -10.8678
       395        2.0000           -0.3968961             -10.8001
       396        2.0000           -0.3967474             -10.7960
       397        2.0000           -0.3950124             -10.7488
       398        2.0000           -0.3896366             -10.6026
       399        2.0000           -0.3882992             -10.5662
       400        2.0000           -0.3869888             -10.5305
       401        2.0000           -0.3858936             -10.5007
       402        2.0000           -0.3822616             -10.4019
       403        2.0000           -0.3763039             -10.2398
       404        2.0000           -0.3711283             -10.0989
       405        2.0000           -0.3660636              -9.9611
       406        2.0000           -0.3459347              -9.4134 (HOMO)
       407                         -0.2882989              -7.8450 (LUMO)
       408                         -0.2855915              -7.7713
       409                         -0.2802644              -7.6264
       410                         -0.2533815              -6.8949
       411                         -0.2525028              -6.8710
       412                         -0.2449158              -6.6645
       413                         -0.2445062              -6.6534
       414                         -0.2415055              -6.5717
       415                         -0.2361026              -6.4247
       416                         -0.2342228              -6.3735
       417                         -0.2329511              -6.3389
       ...                                ...                  ...
       736                          0.6626938              18.0328
      -------------------------------------------------------------
                  HL-Gap            0.0576358 Eh            1.5683 eV
             Fermi-level           -0.3172526 Eh           -8.6329 eV

   #   Z        covCN         q      C6AA      α(0)
   1   7 N      2.635    -0.392    30.142     8.154
   2   6 C      3.786     0.036    19.981     6.367
   3   6 C      2.765     0.199    23.755     7.982
   4   8 O      0.856    -0.389    21.453     6.210
   5   6 C      3.853    -0.016    20.817     6.489
   6   6 C      3.803    -0.055    21.566     6.611
   7   6 C      3.755    -0.119    22.830     6.813
   8   6 C      3.752    -0.112    22.708     6.796
   9   1 H      0.860     0.163     1.315     1.796
  10   1 H      0.923     0.060     2.203     2.321
  11   1 H      0.924     0.032     2.565     2.504
  12   1 H      0.924     0.042     2.419     2.432
  13   1 H      0.924     0.022     2.708     2.573
  14   1 H      0.925     0.065     2.144     2.290
  15   1 H      0.925     0.042     2.425     2.435
  16   1 H      0.925     0.046     2.370     2.407
  17   1 H      0.925     0.036     2.497     2.471
  18   1 H      0.925     0.036     2.504     2.475
  19   1 H      0.925     0.052     2.296     2.370
  20   7 N      2.702    -0.294    27.573     7.799
  21   6 C      3.820     0.022    20.181     6.393
  22   6 C      2.758     0.272    22.407     7.752
  23   8 O      0.858    -0.506    23.907     6.556
  24   6 C      3.834    -0.059    21.614     6.614
  25   6 C      3.831    -0.070    21.820     6.646
  26   6 C      3.761     0.009    20.471     6.450
  27   1 H      0.924     0.034     2.526     2.486
  28   1 H      0.925     0.038     2.475     2.460
  29   1 H      0.925     0.050     2.316     2.380
  30   1 H      0.925     0.047     2.358     2.401
  31   1 H      0.925     0.053     2.281     2.362
  32   1 H      0.924     0.039     2.460     2.453
  33   1 H      0.924     0.030     2.582     2.513
  34   7 N      2.686    -0.166    24.582     7.364
  35   6 C      3.749    -0.036    21.279     6.579
  36   6 C      2.751     0.277    22.321     7.736
  37   8 O      0.858    -0.482    23.398     6.485
  38   1 H      0.860     0.219     1.015     1.578
  39   1 H      0.924     0.086     1.915     2.164
  40   1 H      0.924     0.093     1.853     2.129
  41   7 N      2.693    -0.172    24.727     7.385
  42   6 C      3.798     0.015    20.325     6.419
  43   6 C      2.762     0.274    22.364     7.745
  44   8 O      0.859    -0.480    23.345     6.478
  45   6 C      3.852    -0.014    20.797     6.486
  46   6 C      3.756    -0.117    22.796     6.808
  47   6 C      3.756    -0.116    22.783     6.806
  48   1 H      0.860     0.209     1.061     1.613
  49   1 H      0.924     0.072     2.060     2.245
  50   1 H      0.924     0.045     2.385     2.415
  51   1 H      0.925     0.057     2.230     2.335
  52   1 H      0.925     0.044     2.395     2.420
  53   1 H      0.925     0.039     2.458     2.452
  54   1 H      0.925     0.056     2.242     2.341
  55   1 H      0.925     0.046     2.369     2.407
  56   1 H      0.925     0.044     2.398     2.422
  57   7 N      2.692    -0.169    24.659     7.375
  58   6 C      3.802     0.016    20.306     6.416
  59   6 C      2.759     0.283    22.209     7.717
  60   8 O      0.859    -0.472    23.173     6.454
  61   6 C      3.853    -0.015    20.803     6.487
  62   6 C      3.756    -0.109    22.629     6.783
  63   6 C      3.756    -0.128    23.006     6.839
  64   1 H      0.860     0.202     1.095     1.639
  65   1 H      0.924     0.076     2.023     2.224
  66   1 H      0.924     0.038     2.482     2.464
  67   1 H      0.925     0.054     2.276     2.359
  68   1 H      0.925     0.014     2.818     2.625
  69   1 H      0.925     0.052     2.292     2.367
  70   1 H      0.925     0.058     2.225     2.333
  71   1 H      0.925     0.064     2.151     2.294
  72   1 H      0.925     0.056     2.243     2.342
  73   7 N      2.686    -0.184    24.979     7.423
  74   6 C      3.748    -0.020    20.997     6.536
  75   6 C      2.750     0.271    22.414     7.752
  76   8 O      0.858    -0.485    23.465     6.495
  77   1 H      0.860     0.202     1.094     1.638
  78   1 H      0.924     0.064     2.157     2.297
  79   1 H      0.924     0.102     1.763     2.076
  80   7 N      2.688    -0.165    24.578     7.363
  81   6 C      3.791     0.010    20.419     6.435
  82   6 C      2.754     0.286    22.152     7.707
  83   8 O      0.859    -0.489    23.548     6.506
  84   6 C      3.851    -0.029    21.064     6.528
  85   6 C      3.804    -0.057    21.603     6.617
  86   6 C      3.753    -0.139    23.245     6.875
  87   6 C      3.752    -0.114    22.752     6.802
  88   1 H      0.860     0.228     0.974     1.546
  89   1 H      0.923     0.074     2.044     2.236
  90   1 H      0.924     0.060     2.197     2.318
  91   1 H      0.924     0.033     2.541     2.493
  92   1 H      0.924     0.033     2.538     2.491
  93   1 H      0.925     0.066     2.127     2.281
  94   1 H      0.925     0.037     2.489     2.467
  95   1 H      0.925     0.075     2.034     2.230
  96   1 H      0.925     0.045     2.387     2.416
  97   1 H      0.925     0.047     2.359     2.402
  98   1 H      0.925     0.051     2.306     2.375
  99   7 N      2.686    -0.178    24.862     7.405
 100   6 C      3.797     0.021    20.220     6.403
 101   6 C      2.753     0.270    22.442     7.757
 102   8 O      0.858    -0.495    23.682     6.525
 103   6 C      3.808    -0.074    21.903     6.662
 104   6 C      3.191     0.052    26.357     8.373
 105   7 N      1.920    -0.296    28.518     7.918
 106   6 C      3.042    -0.028    28.671     8.782
 107   6 C      3.147     0.087    25.818     8.312
 108   7 N      2.811    -0.096    23.106     7.139
 109   1 H      0.860     0.213     1.043     1.600
 110   1 H      0.923     0.084     1.936     2.176
 111   1 H      0.924     0.058     2.219     2.329
 112   1 H      0.924     0.068     2.109     2.271
 113   1 H      0.927     0.044     2.398     2.422
 114   1 H      0.926     0.057     2.239     2.340
 115   1 H      0.860     0.214     1.038     1.596
 116   7 N      2.685    -0.180    24.900     7.411
 117   6 C      3.745    -0.033    21.227     6.572
 118   6 C      2.753     0.277    22.305     7.734
 119   8 O      0.858    -0.498    23.730     6.531
 120   1 H      0.860     0.222     1.002     1.568
 121   1 H      0.924     0.085     1.924     2.169
 122   1 H      0.924     0.099     1.796     2.096
 123   7 N      2.688    -0.188    25.085     7.439
 124   6 C      3.800     0.030    20.068     6.378
 125   6 C      2.763     0.273    22.380     7.747
 126   8 O      0.858    -0.495    23.665     6.522
 127   6 C      3.801    -0.092    22.256     6.717
 128   6 C      2.681     0.369    20.738     7.452
 129   8 O      0.856    -0.602    26.157     6.857
 130   8 O      0.856    -0.604    26.226     6.866
 131   1 H      0.860     0.222     1.001     1.567
 132   1 H      0.924     0.067     2.114     2.274
 133   1 H      0.924     0.038     2.477     2.461
 134   1 H      0.924     0.015     2.817     2.625
 135   7 N      2.691    -0.220    25.812     7.546
 136   6 C      3.799     0.031    20.058     6.377
 137   6 C      2.765     0.267    22.491     7.767
 138   8 O      0.859    -0.532    24.515     6.638
 139   6 C      3.680     0.078    19.481     6.321
 140   8 O      1.655    -0.470    22.257     6.369
 141   1 H      0.859     0.228     0.973     1.545
 142   1 H      0.924     0.074     2.041     2.234
 143   1 H      0.924     0.050     2.323     2.384
 144   1 H      0.923     0.034     2.533     2.489
 145   1 H      0.805     0.352     0.582     1.199
 146   7 N      2.757    -0.084    22.869     7.103
 147   6 C      3.831     0.015    20.293     6.409
 148   6 C      2.757     0.274    22.367     7.745
 149   8 O      0.859    -0.479    23.319     6.474
 150   6 C      3.832    -0.071    21.825     6.647
 151   6 C      3.831    -0.080    21.996     6.673
 152   6 C      3.767    -0.018    20.936     6.521
 153   1 H      0.924     0.085     1.927     2.171
 154   1 H      0.925     0.072     2.063     2.246
 155   1 H      0.925     0.071     2.074     2.252
 156   1 H      0.924     0.072     2.061     2.245
 157   1 H      0.925     0.090     1.880     2.144
 158   1 H      0.925     0.079     1.993     2.208
 159   1 H      0.924     0.074     2.040     2.233
 160   7 N      2.690    -0.187    25.047     7.433
 161   6 C      3.799     0.025    20.148     6.391
 162   6 C      2.758     0.270    22.437     7.757
 163   8 O      0.859    -0.513    24.074     6.578
 164   6 C      3.813    -0.078    21.973     6.672
 165   6 C      2.970    -0.002    28.082     8.692
 166   6 C      2.926    -0.040    29.000     8.831
 167   6 C      2.925    -0.048    29.198     8.861
 168   6 C      2.918    -0.059    29.459     8.900
 169   6 C      2.917    -0.077    29.916     8.969
 170   6 C      2.846     0.147    24.801     8.162
 171   8 O      1.659    -0.433    21.499     6.259
 172   1 H      0.860     0.211     1.052     1.607
 173   1 H      0.923     0.097     1.810     2.104
 174   1 H      0.924     0.060     2.203     2.321
 175   1 H      0.924     0.072     2.065     2.247
 176   1 H      0.926     0.045     2.382     2.414
 177   1 H      0.926     0.051     2.302     2.372
 178   1 H      0.926     0.056     2.243     2.342
 179   1 H      0.926     0.052     2.294     2.369
 180   1 H      0.805     0.353     0.582     1.198
 181   7 N      2.687    -0.169    24.665     7.376
 182   6 C      3.800     0.035    19.989     6.366
 183   6 C      2.758     0.290    22.079     7.695
 184   8 O      0.859    -0.491    23.589     6.512
 185   6 C      3.813    -0.064    21.719     6.633
 186   6 C      2.972    -0.004    28.131     8.700
 187   6 C      2.924    -0.047    29.165     8.856
 188   6 C      2.925    -0.033    28.824     8.804
 189   6 C      2.918    -0.061    29.522     8.910
 190   6 C      2.918    -0.073    29.828     8.956
 191   6 C      2.846     0.143    24.884     8.175
 192   8 O      1.659    -0.414    21.118     6.204
 193   1 H      0.860     0.217     1.023     1.584
 194   1 H      0.923     0.056     2.250     2.346
 195   1 H      0.924     0.053     2.283     2.363
 196   1 H      0.924     0.048     2.339     2.392
 197   1 H      0.926     0.046     2.365     2.405
 198   1 H      0.926     0.025     2.661     2.551
 199   1 H      0.926     0.063     2.167     2.302
 200   1 H      0.926     0.044     2.396     2.421
 201   1 H      0.805     0.350     0.588     1.204
 202   7 N      2.688    -0.178    24.856     7.405
 203   6 C      3.801     0.024    20.167     6.394
 204   6 C      2.757     0.279    22.279     7.729
 205   8 O      0.858    -0.489    23.542     6.505
 206   6 C      3.812    -0.081    22.034     6.681
 207   6 C      2.969     0.008    27.832     8.653
 208   6 C      2.925    -0.036    28.891     8.815
 209   6 C      2.923    -0.044    29.099     8.846
 210   6 C      2.918    -0.026    28.654     8.778
 211   6 C      2.919    -0.033    28.834     8.806
 212   6 C      2.920    -0.033    28.811     8.802
 213   1 H      0.860     0.207     1.070     1.620
 214   1 H      0.923     0.073     2.053     2.241
 215   1 H      0.924     0.068     2.108     2.271
 216   1 H      0.924     0.073     2.053     2.241
 217   1 H      0.926     0.033     2.549     2.497
 218   1 H      0.926     0.034     2.528     2.486
 219   1 H      0.926     0.048     2.347     2.396
 220   1 H      0.926     0.034     2.529     2.487
 221   1 H      0.926     0.046     2.374     2.409
 222   7 N      2.692    -0.182    24.941     7.417
 223   6 C      3.798     0.019    20.250     6.407
 224   6 C      2.756     0.286    22.151     7.707
 225   8 O      0.858    -0.497    23.724     6.530
 226   6 C      3.811    -0.083    22.070     6.687
 227   6 C      3.849    -0.008    20.681     6.468
 228   6 C      3.755    -0.118    22.814     6.810
 229   6 C      3.757    -0.119    22.825     6.812
 230   1 H      0.860     0.210     1.055     1.609
 231   1 H      0.924     0.078     2.002     2.212
 232   1 H      0.924     0.073     2.057     2.243
 233   1 H      0.924     0.055     2.260     2.351
 234   1 H      0.924     0.022     2.705     2.572
 235   1 H      0.925     0.048     2.342     2.393
 236   1 H      0.925     0.031     2.569     2.506
 237   1 H      0.925     0.052     2.293     2.368
 238   1 H      0.925     0.050     2.316     2.380
 239   1 H      0.925     0.054     2.276     2.359
 240   1 H      0.925     0.040     2.451     2.448
 241   7 N      2.692    -0.196    25.264     7.465
 242   6 C      3.797     0.011    20.388     6.429
 243   6 C      2.758     0.283    22.205     7.717
 244   8 O      0.858    -0.492    23.619     6.516
 245   6 C      3.726     0.116    18.774     6.186
 246   8 O      1.656    -0.461    22.068     6.342
 247   6 C      3.754    -0.125    22.959     6.832
 248   1 H      0.860     0.225     0.989     1.558
 249   1 H      0.923     0.073     2.054     2.242
 250   1 H      0.923     0.021     2.713     2.576
 251   1 H      0.804     0.312     0.687     1.302
 252   1 H      0.925     0.066     2.125     2.280
 253   1 H      0.925     0.047     2.356     2.400
 254   1 H      0.925     0.072     2.064     2.247
 255   7 N      2.691    -0.186    25.025     7.430
 256   6 C      3.792     0.031    20.059     6.378
 257   6 C      2.764     0.212    23.509     7.941
 258   8 O      0.856    -0.354    20.782     6.112
 259   6 C      3.677     0.083    19.405     6.311
 260   8 O      1.657    -0.459    22.028     6.336
 261   1 H      0.860     0.219     1.012     1.576
 262   1 H      0.923     0.098     1.803     2.100
 263   1 H      0.923     0.050     2.326     2.385
 264   1 H      0.924     0.045     2.381     2.413
 265   1 H      0.805     0.339     0.614     1.231
 266   7 N      2.635    -0.386    29.991     8.133
 267   6 C      3.785     0.045    19.828     6.343
 268   6 C      2.765     0.200    23.740     7.979
 269   8 O      0.856    -0.384    21.362     6.197
 270   6 C      3.811    -0.072    21.862     6.655
 271   6 C      2.972     0.007    27.864     8.659
 272   6 C      2.926    -0.039    28.959     8.825
 273   6 C      2.925    -0.045    29.114     8.849
 274   6 C      2.918    -0.056    29.391     8.890
 275   6 C      2.918    -0.078    29.942     8.973
 276   6 C      2.848     0.144    24.870     8.173
 277   8 O      1.659    -0.434    21.521     6.263
 278   1 H      0.860     0.163     1.314     1.796
 279   1 H      0.923     0.036     2.501     2.473
 280   1 H      0.924     0.070     2.090     2.261
 281   1 H      0.925     0.058     2.217     2.328
 282   1 H      0.926     0.046     2.365     2.405
 283   1 H      0.926     0.063     2.167     2.302
 284   1 H      0.926     0.034     2.524     2.484
 285   1 H      0.926     0.041     2.433     2.439
 286   1 H      0.805     0.326     0.647     1.264
 287   1 H      0.862     0.186     1.181     1.702
 288   1 H      0.930     0.072     2.067     2.248
 289   1 H      0.862     0.171     1.269     1.765
 290   1 H      0.930     0.075     2.036     2.231
 291   1 H      0.862     0.177     1.233     1.739
 292   1 H      0.930     0.083     1.950     2.184

 Mol. C6AA /au·bohr⁶  :     843902.939450
 Mol. C8AA /au·bohr⁸  :   19096750.793120
 Mol. α(0) /au        :       1386.975229


Wiberg/Mayer (AO) data.
largest (>0.10) Wiberg bond orders for each atom
          total WBO             WBO to atom ...
     1  N   2.996        C    2 1.021    H  287 0.953    H    9 0.951
     2  C   3.986        N    1 1.021    C    3 0.988    H   10 0.949    C    5 0.938
     3  C   3.893        O    4 1.877    C    2 0.988    H  288 0.954
     4  O   2.023        C    3 1.877
     5  C   3.991        C    7 1.006    C    6 0.997    H   11 0.965    C    2 0.938
     6  C   3.997        C    8 1.017    C    5 0.997    H   13 0.974    H   12 0.973
     7  C   3.993        C    5 1.006    H   15 0.984    H   16 0.984    H   14 0.977
     8  C   3.996        C    6 1.017    H   17 0.984    H   18 0.984    H   19 0.983
     9  H   0.973        N    1 0.951
    10  H   0.996        C    2 0.949
    11  H   0.999        C    5 0.965
    12  H   0.998        C    6 0.973
    13  H   1.000        C    6 0.974
    14  H   0.996        C    7 0.977
    15  H   0.998        C    7 0.984
    16  H   0.998        C    7 0.984
    17  H   0.998        C    8 0.984
    18  H   0.999        C    8 0.984
    19  H   0.997        C    8 0.983
    20  N   3.075        C   21 1.010    C   26 1.004    H  289 0.955
    21  C   3.988        N   20 1.010    C   24 0.969    H   27 0.962    C   22 0.941
    22  C   3.938        O   23 1.644    N   34 1.274    C   21 0.941
    23  O   1.943        C   22 1.644    N   34 0.185
    24  C   3.994        C   25 1.007    H   28 0.978    H   29 0.976    C   21 0.969
    25  C   3.995        C   24 1.007    C   26 1.003    H   30 0.979    H   31 0.978
    26  C   3.983        N   20 1.004    C   25 1.003    H   33 0.976    H   32 0.973
    27  H   0.999        C   21 0.962
    28  H   0.999        C   24 0.978
    29  H   0.997        C   24 0.976
    30  H   0.998        C   25 0.979
    31  H   0.997        C   25 0.978
    32  H   0.998        C   26 0.973
    33  H   0.999        C   26 0.976
    34  N   3.444        C   22 1.274    C   35 1.006    H   38 0.916    O   23 0.185
    35  C   3.972        N   34 1.006    H   39 0.959    H   40 0.951    C   36 0.944
    36  C   3.947        O   37 1.650    N   41 1.286    C   35 0.944
    37  O   1.964        C   36 1.650    N   41 0.196
    38  H   0.952        N   34 0.916
    39  H   0.992        C   35 0.959
    40  H   0.991        C   35 0.951
    41  N   3.467        C   36 1.286    C   42 0.984    H   48 0.924    O   37 0.196
    42  C   3.965        N   41 0.984    C   45 0.952    H   49 0.950    C   43 0.941
    43  C   3.946        O   44 1.647    N   57 1.281    C   42 0.941
    44  O   1.961        C   43 1.647    N   57 0.191
    45  C   3.989        C   46 1.008    C   47 1.008    H   50 0.967    C   42 0.952
    46  C   3.991        C   45 1.008    H   53 0.983    H   51 0.982    H   52 0.978
    47  C   3.993        C   45 1.008    H   55 0.986    H   56 0.985    H   54 0.983
    48  H   0.956        N   41 0.924
    49  H   0.995        C   42 0.950
    50  H   0.998        C   45 0.967
    51  H   0.996        C   46 0.982
    52  H   0.998        C   46 0.978
    53  H   0.998        C   46 0.983
    54  H   0.996        C   47 0.983
    55  H   0.998        C   47 0.986
    56  H   0.998        C   47 0.985
    57  N   3.452        C   43 1.281    C   58 0.981    H   64 0.921    O   44 0.191
    58  C   3.966        N   57 0.981    C   61 0.966    H   65 0.951    C   59 0.935
    59  C   3.941        O   60 1.659    N   73 1.262    C   58 0.935
    60  O   1.982        C   59 1.659    N   73 0.186
    61  C   3.988        C   62 1.008    C   63 1.006    C   58 0.966    H   66 0.960
    62  C   3.992        C   61 1.008    H   69 0.984    H   67 0.982    H   68 0.981
    63  C   3.989        C   61 1.006    H   71 0.984    H   70 0.981    H   72 0.980
    64  H   0.959        N   57 0.921
    65  H   0.994        C   58 0.951
    66  H   0.999        C   61 0.960
    67  H   0.997        C   62 0.982
    68  H   1.000        C   62 0.981
    69  H   0.997        C   62 0.984
    70  H   0.996        C   63 0.981
    71  H   0.996        C   63 0.984
    72  H   0.997        C   63 0.980
    73  N   3.432        C   59 1.262    C   74 0.993    H   77 0.925    O   60 0.186
    74  C   3.964        N   73 0.993    C   75 0.963    H   78 0.949    H   79 0.941
    75  C   3.953        O   76 1.590    N   80 1.328    C   74 0.963
    76  O   1.989        C   75 1.590    N   80 0.195
    77  H   0.959        N   73 0.925
    78  H   0.995        C   74 0.949
    79  H   0.989        C   74 0.941
    80  N   3.483        C   75 1.328    C   81 0.969    H   88 0.911    O   76 0.195
    81  C   3.952        N   80 0.969    C   84 0.956    H   89 0.949    C   82 0.943
    82  C   3.948        O   83 1.643    N   99 1.279    C   81 0.943
    83  O   1.957        C   82 1.643    N   99 0.193
    84  C   3.982        C   86 1.010    C   85 0.994    H   90 0.963    C   81 0.956
    85  C   3.994        C   87 1.019    C   84 0.994    H   92 0.976    H   91 0.974
    86  C   3.988        C   84 1.010    H   94 0.980    H   93 0.979    H   95 0.963
    87  C   3.994        C   85 1.019    H   97 0.987    H   96 0.986    H   98 0.984
    88  H   0.948        N   80 0.911
    89  H   0.994        C   81 0.949
    90  H   0.996        C   84 0.963
    91  H   0.999        C   85 0.974
    92  H   0.999        C   85 0.976
    93  H   0.996        C   86 0.979
    94  H   0.999        C   86 0.980
    95  H   0.994        C   86 0.963
    96  H   0.998        C   87 0.986
    97  H   0.998        C   87 0.987
    98  H   0.997        C   87 0.984
    99  N   3.463        C   82 1.279    C  100 0.989    H  109 0.919    O   83 0.193
   100  C   3.965        N   99 0.989    C  103 0.971    H  110 0.933    C  101 0.929
   101  C   3.946        O  102 1.630    N  116 1.304    C  100 0.929
   102  O   1.951        C  101 1.630    N  116 0.196
   103  C   3.987        C  104 1.013    C  100 0.971    H  111 0.966    H  112 0.965
   104  C   3.975        C  106 1.554    N  105 1.275    C  103 1.013
   105  N   3.029        C  107 1.534    C  104 1.275    N  108 0.103
   106  C   3.945        C  104 1.554    N  108 1.221    H  113 0.970    C  107 0.118
   107  C   3.956        N  105 1.534    N  108 1.277    H  114 0.963    C  106 0.118
   108  N   3.600        C  107 1.277    C  106 1.221    H  115 0.926    N  105 0.103
   109  H   0.955        N   99 0.919
   110  H   0.992        C  100 0.933
   111  H   0.997        C  103 0.966
   112  H   0.995        C  103 0.965
   113  H   0.998        C  106 0.970
   114  H   0.997        C  107 0.963
   115  H   0.954        N  108 0.926
   116  N   3.471        C  101 1.304    C  117 1.001    H  120 0.884    O  102 0.196
   117  C   3.965        N  116 1.001    H  122 0.961    H  121 0.948    C  118 0.946
   118  C   3.945        O  119 1.635    N  123 1.300    C  117 0.946
   119  O   1.951        C  118 1.635    N  123 0.199
   120  H   0.951        N  116 0.884
   121  H   0.993        C  117 0.948
   122  H   0.990        C  117 0.961
   123  N   3.466        C  118 1.300    C  124 0.988    H  131 0.892    O  119 0.199
   124  C   3.969        N  123 0.988    C  127 0.970    H  132 0.946    C  125 0.944
   125  C   3.952        O  126 1.623    N  135 1.302    C  124 0.944
   126  O   1.939        C  125 1.623    N  135 0.192
   127  C   3.981        C  124 0.970    H  133 0.968    H  134 0.962    C  128 0.899
   128  C   3.938        O  129 1.544    O  130 1.465    C  127 0.899
   129  O   1.841        C  128 1.544    O  130 0.211
   130  O   1.867        C  128 1.465    O  129 0.211
   131  H   0.951        N  123 0.892
   132  H   0.995        C  124 0.946
   133  H   0.998        C  127 0.968
   134  H   1.000        C  127 0.962
   135  N   3.431        C  125 1.302    C  136 0.981    H  141 0.839    O  126 0.192
   136  C   3.965        N  135 0.981    C  139 0.977    H  142 0.953    C  137 0.931
   137  C   3.952        O  138 1.570    N  146 1.334    C  136 0.931
   138  O   1.919        C  137 1.570    N  146 0.195
   139  C   3.961        O  140 1.001    C  136 0.977    H  143 0.969    H  144 0.967
   140  O   1.937        C  139 1.001    H  145 0.860
   141  H   0.948        N  135 0.839
   142  H   0.994        C  136 0.953
   143  H   0.997        C  139 0.969
   144  H   0.999        C  139 0.967
   145  H   0.875        O  140 0.860
   146  N   3.546        C  137 1.334    C  147 0.964    C  152 0.963    O  138 0.195
   147  C   3.960        C  150 0.973    N  146 0.964    C  148 0.943    H  153 0.941
   148  C   3.950        O  149 1.649    N  160 1.274    C  147 0.943
   149  O   1.959        C  148 1.649    N  160 0.192
   150  C   3.985        C  151 1.005    H  155 0.974    C  147 0.973    H  154 0.973
   151  C   3.986        C  150 1.005    C  152 1.003    H  156 0.974    H  157 0.971
   152  C   3.952        C  151 1.003    H  158 0.965    N  146 0.963    H  159 0.963
   153  H   0.992        C  147 0.941
   154  H   0.994        C  150 0.973
   155  H   0.994        C  150 0.974
   156  H   0.995        C  151 0.974
   157  H   0.991        C  151 0.971
   158  H   0.994        C  152 0.965
   159  H   0.994        C  152 0.963
   160  N   3.452        C  148 1.274    C  161 0.992    H  172 0.904    O  149 0.192
   161  C   3.965        N  160 0.992    C  164 0.959    C  162 0.948    H  173 0.934
   162  C   3.938        O  163 1.534    N  181 1.352    C  161 0.948
   163  O   1.940        C  162 1.534    N  181 0.183
   164  C   3.982        C  165 1.006    H  174 0.966    H  175 0.965    C  161 0.959
   165  C   3.985        C  167 1.412    C  166 1.402    C  164 1.006
   166  C   3.990        C  168 1.464    C  165 1.402    H  176 0.966    C  169 0.104
   167  C   3.989        C  169 1.448    C  165 1.412    H  177 0.960    C  168 0.107
   168  C   3.988        C  166 1.464    C  170 1.360    H  178 0.968    C  167 0.107
   169  C   3.986        C  167 1.448    C  170 1.371    H  179 0.965    C  166 0.104
   170  C   3.939        C  169 1.371    C  168 1.360    O  171 1.080
   171  O   2.096        C  170 1.080    H  180 0.855
   172  H   0.955        N  160 0.904
   173  H   0.990        C  161 0.934
   174  H   0.996        C  164 0.966
   175  H   0.994        C  164 0.965
   176  H   0.998        C  166 0.966
   177  H   0.997        C  167 0.960
   178  H   0.996        C  168 0.968
   179  H   0.997        C  169 0.965
   180  H   0.876        O  171 0.855
   181  N   3.498        C  162 1.352    C  182 0.975    H  193 0.890    O  163 0.183
   182  C   3.964        N  181 0.975    C  185 0.964    H  194 0.953    C  183 0.940
   183  C   3.948        O  184 1.616    N  202 1.294    C  182 0.940
   184  O   1.966        C  183 1.616    N  202 0.186
   185  C   3.989        C  186 1.004    H  195 0.967    H  196 0.965    C  182 0.964
   186  C   3.986        C  187 1.408    C  188 1.406    C  185 1.004
   187  C   3.989        C  189 1.453    C  186 1.408    H  197 0.965    C  190 0.104
   188  C   3.992        C  190 1.456    C  186 1.406    H  198 0.970    C  189 0.107
   189  C   3.986        C  187 1.453    C  191 1.366    H  199 0.964    C  188 0.107
   190  C   3.987        C  188 1.456    C  191 1.368    H  200 0.965    C  187 0.104
   191  C   3.947        C  190 1.368    C  189 1.366    O  192 1.084
   192  O   2.108        C  191 1.084    H  201 0.856
   193  H   0.952        N  181 0.890
   194  H   0.996        C  182 0.953
   195  H   0.996        C  185 0.967
   196  H   0.997        C  185 0.965
   197  H   0.998        C  187 0.965
   198  H   0.999        C  188 0.970
   199  H   0.996        C  189 0.964
   200  H   0.998        C  190 0.965
   201  H   0.877        O  192 0.856
   202  N   3.456        C  183 1.294    C  203 0.971    H  213 0.922    O  184 0.186
   203  C   3.959        N  202 0.971    C  206 0.969    H  214 0.949    C  204 0.934
   204  C   3.949        O  205 1.643    N  222 1.292    C  203 0.934
   205  O   1.959        C  204 1.643    N  222 0.195
   206  C   3.984        C  207 1.006    C  203 0.969    H  215 0.969    H  216 0.959
   207  C   3.987        C  209 1.420    C  208 1.405    C  206 1.006    C  212 0.110
   208  C   3.992        C  210 1.453    C  207 1.405    H  217 0.968    C  211 0.112
   209  C   3.990        C  211 1.436    C  207 1.420    H  218 0.967    C  210 0.110
   210  C   3.990        C  208 1.453    C  212 1.431    H  219 0.965    C  209 0.110
   211  C   3.991        C  212 1.444    C  209 1.436    H  220 0.966    C  208 0.112
   212  C   3.990        C  211 1.444    C  210 1.431    H  221 0.970    C  207 0.110
   213  H   0.957        N  202 0.922
   214  H   0.994        C  203 0.949
   215  H   0.995        C  206 0.969
   216  H   0.994        C  206 0.959
   217  H   0.999        C  208 0.968
   218  H   0.999        C  209 0.967
   219  H   0.997        C  210 0.965
   220  H   0.998        C  211 0.966
   221  H   0.997        C  212 0.970
   222  N   3.457        C  204 1.292    C  223 0.973    H  230 0.915    O  205 0.195
   223  C   3.960        C  226 0.981    N  222 0.973    H  231 0.952    C  224 0.931
   224  C   3.942        O  225 1.641    N  241 1.292    C  223 0.931
   225  O   1.960        C  224 1.641    N  241 0.196
   226  C   3.984        C  227 0.993    C  223 0.981    H  233 0.970    H  232 0.969
   227  C   3.993        C  228 1.009    C  229 1.007    C  226 0.993    H  234 0.968
   228  C   3.995        C  227 1.009    H  237 0.985    H  235 0.985    H  236 0.985
   229  C   3.994        C  227 1.007    H  239 0.985    H  238 0.985    H  240 0.984
   230  H   0.956        N  222 0.915
   231  H   0.993        C  223 0.952
   232  H   0.994        C  226 0.969
   233  H   0.997        C  226 0.970
   234  H   1.000        C  227 0.968
   235  H   0.998        C  228 0.985
   236  H   0.999        C  228 0.985
   237  H   0.997        C  228 0.985
   238  H   0.997        C  229 0.985
   239  H   0.997        C  229 0.985
   240  H   0.998        C  229 0.984
   241  N   3.453        C  224 1.292    C  242 0.983    H  248 0.886    O  225 0.196
   242  C   3.966        N  241 0.983    H  249 0.952    C  245 0.949    C  243 0.938
   243  C   3.948        O  244 1.636    N  255 1.296    C  242 0.938
   244  O   1.950        C  243 1.636    N  255 0.196
   245  C   3.958        C  247 1.005    O  246 1.000    H  250 0.957    C  242 0.949
   246  O   1.956        C  245 1.000    H  251 0.856
   247  C   3.988        C  245 1.005    H  253 0.984    H  254 0.982    H  252 0.981
   248  H   0.949        N  241 0.886
   249  H   0.994        C  242 0.952
   250  H   1.000        C  245 0.957
   251  H   0.903        O  246 0.856
   252  H   0.995        C  247 0.981
   253  H   0.998        C  247 0.984
   254  H   0.995        C  247 0.982
   255  N   3.465        C  243 1.296    C  256 0.985    H  261 0.894    O  244 0.196
   256  C   3.966        N  255 0.985    C  257 0.974    C  259 0.961    H  262 0.943
   257  C   3.903        O  258 1.905    C  256 0.974    H  290 0.954
   258  O   2.042        C  257 1.905
   259  C   3.961        O  260 1.013    H  264 0.966    C  256 0.961    H  263 0.959
   260  O   1.938        C  259 1.013    H  265 0.861
   261  H   0.952        N  255 0.894
   262  H   0.990        C  256 0.943
   263  H   0.998        C  259 0.959
   264  H   0.998        C  259 0.966
   265  H   0.885        O  260 0.861
   266  N   2.992        C  267 1.014    H  291 0.958    H  278 0.944
   267  C   3.985        N  266 1.014    C  268 0.981    H  279 0.955    C  270 0.945
   268  C   3.890        O  269 1.886    C  267 0.981    H  292 0.952
   269  O   2.024        C  268 1.886
   270  C   3.990        C  271 1.009    H  280 0.972    H  281 0.968    C  267 0.945
   271  C   3.988        C  273 1.407    C  272 1.396    C  270 1.009
   272  C   3.991        C  274 1.466    C  271 1.396    H  282 0.966    C  275 0.105
   273  C   3.987        C  275 1.444    C  271 1.407    H  283 0.965    C  274 0.105
   274  C   3.988        C  272 1.466    C  276 1.358    H  284 0.969    C  273 0.105
   275  C   3.984        C  273 1.444    C  276 1.373    H  285 0.965    C  272 0.105
   276  C   3.926        C  275 1.373    C  274 1.358    O  277 1.064
   277  O   2.097        C  276 1.064    H  286 0.871
   278  H   0.973        N  266 0.944
   279  H   0.999        C  267 0.955
   280  H   0.995        C  270 0.972
   281  H   0.996        C  270 0.968
   282  H   0.998        C  272 0.966
   283  H   0.996        C  273 0.965
   284  H   0.998        C  274 0.969
   285  H   0.998        C  275 0.965
   286  H   0.894        O  277 0.871
   287  H   0.965        N    1 0.953
   288  H   0.995        C    3 0.954
   289  H   0.971        N   20 0.955
   290  H   0.994        C  257 0.954
   291  H   0.969        N  266 0.958
   292  H   0.993        C  268 0.952
 
molecular dipole:
                 x           y           z       tot (Debye)
 q only:      -56.046     -83.518     -96.188
   full:      -56.891     -81.600     -95.326     350.199
molecular quadrupole (traceless):
                xx          xy          yy          xz          yz          zz
 q only:     4959.815   -6924.588    -736.473   -7923.282  -12300.574   -4223.342
  q+dip:     4609.443   -6864.048    -427.055   -7971.557  -11904.098   -4182.388
   full:     4611.857   -6863.309    -425.936   -7970.811  -11908.536   -4185.921


           -------------------------------------------------
          | TOTAL ENERGY             -459.495168241766 Eh   |
          | GRADIENT NORM               0.389512191648 Eh/α |
          | HOMO-LUMO GAP               1.568348988584 eV   |
           -------------------------------------------------

------------------------------------------------------------------------
 * finished run on 2019/05/31 at 07:36:01.633     
------------------------------------------------------------------------
 total:
 * wall-time:     0 d,  0 h,  0 min,  7.731 sec
 *  cpu-time:     0 d,  0 h,  0 min,  3.512 sec
 * ratio c/w:     0.454 speedup
 SCF:
 * wall-time:     0 d,  0 h,  0 min,  7.011 sec
 *  cpu-time:     0 d,  0 h,  0 min,  3.272 sec
 * ratio c/w:     0.467 speedup

