      -----------------------------------------------------------      
     |                   =====================                   |     
     |                           x T B                           |     
     |                   =====================                   |     
     |                         S. Grimme                         |     
     |          Mulliken Center for Theoretical Chemistry        |     
     |                    University of Bonn                     |     
     |                Version 6.1 RC1 (SAW190329)                |     
      -----------------------------------------------------------      

   This program is distributed in the hope that it will be useful,
   but WITHOUT ANY WARRANTY; without even the implied warranty of
   MERCHANTABILITY or FITNESS FOR A PARTICULAR PURPOSE.
   
   FOR NON-COMMERCIAL, ACADEMIA USE ONLY.
   
   Cite this work as:
   S. Grimme, C. Bannwarth, P. Shushkov, J. Comput. Theory Chem., 2017,
   13, 1989-2009. DOI: 10.1021/acs.jctc.7b00118
   C. Bannwarth, S. Ehlert and S. Grimme., J. Comput. Theory Chem., 2019,
   just accepted. DOI: 10.1021/acs.jctc.8b01176
   
   for sTDA-xTB:
   S. Grimme and C. Bannwarth, J. Chem. Phys., 2016, 145, 054103.
   DOI: 10.1063/1.4959605
   
   in the mass-spec context:
   V. Asgeirsson, C. Bauer and S. Grimme, Chem. Sci., 2017, 8, 4879.
   DOI: 10.1039/c7sc00601b
   
   for metadynamics refer to:
   S. Grimme, ChemRxiv, Preprint. DOI: 10.26434/chemrxiv.7660532.v1
   
   with help from (in alphabetical order)
   C. Bannwarth, F. Bohle, G. Brandenburg, E. Caldeweyher, M. Checinski,
   S. Dohm, S. Ehlert, S. Ehrlich, F. März, H. Neugebauer, J. Pisarek,
   P. Pracht, P. Shushkov, and S. Spicher.
   
 * started run on 2019/05/31 at 05:35:21.828     

           -------------------------------------------------
          |                Calculation Setup                |
           -------------------------------------------------

          program call               : /home/lum/install/xtb/xtb-190329/bin/xtb xtb_tmp.xyz --chrg 2 --grad --gfn 2 --etemp 500 --acc 0.1 --gbsa h2o --parallel 2
          hostname                   : cpu02
          coordinate file            : xtb_tmp.xyz
          omp threads                :                     2
          number of atoms            :                   257
          number of electrons        :                   666
          charge                     :                     2
          spin                       :                   0.0
          first test random number   :      0.78080701565770


molecular fragmentation (1/2 indicates fragments):
111111111111111111122222222222222222222222222222222222222222222222222222
222222222222222222222222222222222222222222222222222222222222222222222222
222222222222222222222222222222222222222222222222222222222222222222222222
22222222222222222222222222222112222222222
# atoms in fragment 1/2:    21   236
 fragment masses (1/2) :      115.17     1545.88
CMA distance (Bohr)    :  17.226
constraining FC (au)   :  0.0500

########################################################################
# WARNING! Please study the warnings concerning your input carefully
#  - XTBPATH is not set, using XTBHOME instead
#  - Process number higher than OMP_NUM_THREADS, I hope you know what you are doing.
########################################################################

           ------------------------------------------------- 
          |                 G F N 2 - x T B                 |
          | Geometry, Frequencies, Noncovalent interactions |
          |            JCTC 2018 parametrisation            |
           ------------------------------------------------- 
 
             k(s)              :                1.8500
             k(p)              :                2.2300
             k(d)              :                2.2300
             k(f)              :                2.0000
             kEN (H0ij)        :               -2.0000
             D4 a1             :                0.5200
             D4 a2             :                5.0000
             D4 s6             :                1.0000
             D4 s8             :                2.7000
             D4 s9             :                5.0000
             alphaj            :                2.0000

  Z AO/shell   Hii/eV     exponent
  1     Wed Apr 25 08:07:45 CEST 2018   EN: 2.200 GM2: 0.406  GM3: 0.0800  RAES: 1.40
     1s    -10.707211    1.230000
  6     Wed Apr 25 08:07:45 CEST 2018   EN: 2.550 GM2: 0.538  GM3: 0.1500  RAES: 3.00
     2s    -13.970922    2.096432
     2p    -10.063292    1.800000
  7     Wed Apr 25 08:07:45 CEST 2018   EN: 3.040 GM2: 0.461  GM3:-0.0640  RAES: 1.90
     2s    -16.686243    2.339881
     2p    -12.523956    2.014332
  8     Wed Apr 25 08:07:45 CEST 2018   EN: 3.440 GM2: 0.452  GM3:-0.0517  RAES: 1.80
     2s    -20.229985    2.439742
     2p    -15.503117    2.137023

 Solvent             : h2o
 Using internal parameter file: .param_gbsa2_h2o
 Gsolv ref. state (COSMO-RS): gsolv [1 M gas/solution]
 temperature (mdtemp)       :    298.150000000000     
 dielectric constant        :    80.2000000000000     
 rho                        :    1.00000000000000     
 mass                       :    18.0000000000000     
 surface tension            :    15.5689454083859     
 probe radius               :   0.975313790000000     
 vdW radii scaling          :    1.00000000000000     
 Gshift (Eh)                :   1.857443126794793E-003
 c1                         :    1.55243817000000     
 soset                      :   0.130326360000000     
 HB correction              :  T
 Number of grid points      :          230

            Z     q(EN)     CN     RAES       Cart. coordinates
     1  N   5.0   -0.72    3.00    1.92   373.16508   122.62442   201.49499
     2  C   4.0    0.06    3.98    3.58   370.55812   122.04626   202.12301
     3  C   4.0    0.06    3.00    3.02   370.28635   120.44913   204.50809
     4  O   6.0   -0.46    1.00    1.80   368.33929   119.25826   204.90793
     5  C   4.0   -0.11    3.99    3.60   369.12174   120.73551   199.96157
     6  C   4.0   -0.10    3.98    3.58   369.12775   122.19318   197.46478
     7  C   4.0   -0.22    3.99    3.60   367.40106   120.85219   195.57521
     8  C   4.0   -0.21    3.98    3.59   368.22718   124.90362   197.83971
     9  H   1.0    0.27    1.00    1.43   373.57725   124.49118   201.34118
    10  H   1.0    0.12    0.99    1.43   369.64981   123.85853   202.54079
    11  H   1.0    0.11    0.99    1.43   369.95911   118.87930   199.68255
    12  H   1.0    0.11    0.99    1.43   367.17821   120.48761   200.60015
    13  H   1.0    0.13    0.99    1.43   371.04801   122.23939   196.70169
    14  H   1.0    0.11    0.99    1.43   367.38079   121.87953   193.79897
    15  H   1.0    0.11    0.99    1.43   368.04444   118.94326   195.18521
    16  H   1.0    0.10    0.99    1.43   365.47894   120.76846   196.29633
    17  H   1.0    0.11    0.99    1.43   368.08032   125.83623   196.02263
    18  H   1.0    0.11    0.99    1.43   366.38292   124.91835   198.74350
    19  H   1.0    0.12    0.99    1.43   369.54149   125.99093   198.98417
    20  N   5.0   -0.71    3.00    1.93   364.33280   115.52122   204.76833
    21  C   4.0    0.06    3.98    3.59   364.98655   112.89715   204.34188
    22  C   4.0    0.09    3.00    3.02   364.40475   111.28037   206.65618
    23  O   6.0   -0.49    1.00    1.80   363.37135   109.20753   206.40324
    24  C   4.0   -0.14    3.98    3.59   367.76354   112.63796   203.58870
    25  C   4.0   -0.17    3.98    3.59   368.16867   113.30029   200.80645
    26  C   4.0   -0.15    3.98    3.59   370.98141   113.37685   200.16288
    27  C   4.0   -0.06    3.98    3.58   371.39379   113.91762   197.36014
    28  N   5.0   -0.72    3.98    2.82   374.04922   114.71837   196.93168
    29  H   1.0    0.32    1.00    1.43   365.75531   116.80611   204.82993
    30  H   1.0    0.11    0.99    1.43   363.77421   112.15683   202.82769
    31  H   1.0    0.13    0.99    1.43   368.88100   113.87817   204.79991
    32  H   1.0    0.12    0.99    1.43   368.36443   110.69625   203.92936
    33  H   1.0    0.10    0.99    1.43   367.22633   111.88770   199.63939
    34  H   1.0    0.10    0.99    1.43   367.32482   115.13854   200.41632
    35  H   1.0    0.12    0.99    1.43   371.87495   114.87020   201.26939
    36  H   1.0    0.12    0.99    1.43   371.84670   111.58140   200.68118
    37  H   1.0    0.11    0.99    1.43   370.98527   112.25031   196.22067
    38  H   1.0    0.10    0.99    1.43   370.15667   115.45158   196.75447
    39  H   1.0    0.25    1.00    1.43   374.34058   115.22621   195.07965
    40  H   1.0    0.24    0.99    1.43   374.44026   116.27092   198.10243
    41  H   1.0    0.25    1.00    1.43   375.27487   113.28805   197.40608
    42  N   5.0   -0.69    3.00    1.93   357.43404   110.17095   206.72715
    43  C   4.0    0.07    3.98    3.59   356.75148   108.41991   204.73756
    44  C   4.0    0.28    3.01    3.02   357.40123   105.70676   205.49687
    45  O   6.0   -0.45    1.00    1.80   355.93546   103.94921   205.11774
    46  C   4.0   -0.13    3.99    3.60   358.12677   109.10737   202.29373
    47  C   4.0   -0.11    3.98    3.58   357.20501   111.56294   201.05526
    48  C   4.0   -0.24    3.99    3.60   358.90583   112.13829   198.79629
    49  C   4.0   -0.23    3.98    3.59   354.45734   111.37903   200.19765
    50  H   1.0    0.27    1.00    1.43   358.62948   111.60987   206.29429
    51  H   1.0    0.10    0.99    1.43   354.69594   108.45934   204.46609
    52  H   1.0    0.13    0.99    1.43   360.13581   109.26352   202.73613
    53  H   1.0    0.11    0.99    1.43   357.89923   107.55235   200.95922
    54  H   1.0    0.11    0.99    1.43   357.37466   113.10058   202.42327
    55  H   1.0    0.09    0.99    1.43   358.21335   113.78659   197.79030
    56  H   1.0    0.09    0.99    1.43   360.82753   112.50451   199.42124
    57  H   1.0    0.10    0.99    1.43   358.92045   110.53794   197.50773
    58  H   1.0    0.10    0.99    1.43   353.91712   113.07132   199.16721
    59  H   1.0    0.10    0.99    1.43   354.20032   109.75786   198.96193
    60  H   1.0    0.10    0.99    1.43   353.18601   111.18275   201.79676
    61  N   5.0   -0.48    3.01    1.93   359.67922   105.41401   206.52932
    62  C   4.0    0.08    3.99    3.60   360.59516   102.96180   207.32495
    63  C   4.0    0.08    3.00    3.02   358.74208   101.82255   209.22160
    64  O   6.0   -0.41    1.00    1.80   357.89705    99.67298   208.98662
    65  C   4.0    0.04    3.98    3.58   363.26061   103.20261   208.48935
    66  O   6.0   -0.45    1.99    1.82   364.99887   104.15724   206.72162
    67  C   4.0   -0.17    3.98    3.59   364.20932   100.62875   209.36823
    68  H   1.0    0.30    1.00    1.43   360.80949   106.93975   206.78704
    69  H   1.0    0.16    0.99    1.43   360.67597   101.69107   205.68349
    70  H   1.0    0.13    0.99    1.43   363.11823   104.48685   210.12160
    71  H   1.0    0.31    0.99    1.43   364.54728   105.88936   206.30893
    72  H   1.0    0.14    0.99    1.43   366.07345   100.83766   210.19850
    73  H   1.0    0.13    0.99    1.43   362.92319    99.83051   210.75320
    74  H   1.0    0.14    0.99    1.43   364.33761    99.35636   207.76202
    75  N   5.0   -0.69    3.00    1.93   353.02215   102.98534   209.96129
    76  C   4.0    0.09    3.98    3.59   350.70902   102.43107   208.62308
    77  C   4.0    0.29    3.01    3.02   350.88175   100.14560   206.84036
    78  O   6.0   -0.38    1.00    1.80   348.98758    99.40281   205.73074
    79  C   4.0   -0.20    3.99    3.60   349.89121   104.74309   207.11202
    80  H   1.0    0.28    1.00    1.43   353.98542   104.54954   209.41863
    81  H   1.0    0.13    0.99    1.43   349.25491   101.92037   210.01621
    82  H   1.0    0.13    0.99    1.43   348.16847   104.30701   206.08497
    83  H   1.0    0.11    0.99    1.43   349.57359   106.33346   208.36965
    84  H   1.0    0.12    0.99    1.43   351.37782   105.21840   205.77568
    85  N   5.0   -0.47    3.00    1.93   353.14727    99.07123   206.57900
    86  C   4.0    0.05    3.99    3.61   353.52435    96.83375   205.07558
    87  C   4.0    0.29    3.01    3.02   354.00095    97.35820   202.27431
    88  O   6.0   -0.36    1.00    1.80   353.57854    95.74704   200.66692
    89  H   1.0    0.33    1.00    1.43   354.65643    99.71074   207.56688
    90  H   1.0    0.14    0.99    1.43   355.14014    95.79537   205.82955
    91  H   1.0    0.16    0.99    1.43   351.83780    95.64094   205.18686
    92  N   5.0   -0.46    3.01    1.93   354.89710    99.65175   201.73088
    93  C   4.0    0.09    4.00    3.62   355.28219   100.45077   199.14505
    94  C   4.0    0.28    3.01    3.02   357.97614    99.79702   198.29459
    95  O   6.0   -0.37    1.00    1.80   359.84038   100.41869   199.49420
    96  C   4.0   -0.09    3.98    3.59   354.81877   103.30611   198.93435
    97  C   4.0   -0.22    3.98    3.59   355.60621   104.30832   196.35053
    98  C   4.0   -0.21    3.98    3.59   352.04256   103.88490   199.45193
    99  H   1.0    0.30    1.00    1.43   355.24799   100.92086   203.12690
   100  H   1.0    0.14    0.99    1.43   353.92344    99.40377   197.98365
   101  H   1.0    0.14    0.99    1.43   355.97742   104.19107   200.39763
   102  H   1.0    0.09    0.99    1.43   355.15163   106.30697   196.22903
   103  H   1.0    0.14    0.99    1.43   357.62731   104.09198   196.04559
   104  H   1.0    0.11    0.99    1.43   354.58207   103.31243   194.87294
   105  H   1.0    0.10    0.99    1.43   351.73307   105.91423   199.48176
   106  H   1.0    0.12    0.99    1.43   350.85317   103.06418   197.99067
   107  H   1.0    0.14    0.99    1.43   351.46499   103.10662   201.26404
   108  N   5.0   -0.49    3.00    1.93   358.08490    98.63030   196.02132
   109  C   4.0    0.10    3.99    3.61   360.43472    97.61574   195.04183
   110  C   4.0    0.27    3.01    3.02   361.58762    99.24377   192.94232
   111  O   6.0   -0.39    1.00    1.80   363.80040    99.03286   192.32045
   112  C   4.0    0.04    3.98    3.58   359.98162    94.94275   193.94257
   113  O   6.0   -0.44    1.99    1.82   358.30543    93.70637   195.61535
   114  C   4.0   -0.19    3.98    3.59   362.45922    93.51025   193.62197
   115  H   1.0    0.26    1.00    1.43   356.51346    97.70024   195.46169
   116  H   1.0    0.16    0.99    1.43   361.78970    97.49947   196.60382
   117  H   1.0    0.13    0.99    1.43   359.05073    95.15903   192.08593
   118  H   1.0    0.27    0.99    1.43   358.24686    91.93248   195.20247
   119  H   1.0    0.12    0.99    1.43   362.14867    91.76550   192.58267
   120  H   1.0    0.15    0.99    1.43   363.81423    94.66407   192.60008
   121  H   1.0    0.14    0.99    1.43   363.23398    93.06436   195.47199
   122  N   5.0   -0.48    3.00    1.93   359.95333   100.72666   191.69659
   123  C   4.0    0.02    4.00    3.61   360.77919   102.20576   189.55145
   124  C   4.0    0.29    3.01    3.02   362.30531   104.53562   190.34985
   125  O   6.0   -0.40    1.00    1.80   361.70865   105.84453   192.15529
   126  H   1.0    0.25    1.00    1.43   358.25090   101.08572   192.47493
   127  H   1.0    0.14    0.99    1.43   361.93541   100.98864   188.35172
   128  H   1.0    0.11    0.99    1.43   359.11149   102.84074   188.51898
   129  N   5.0   -0.46    3.01    1.93   364.26035   105.07400   188.84012
   130  C   4.0    0.10    4.00    3.61   365.84868   107.25113   189.31708
   131  C   4.0    0.28    3.01    3.02   364.19707   109.64345   189.25396
   132  O   6.0   -0.40    1.00    1.80   362.41475   109.85391   187.80529
   133  C   4.0    0.04    3.98    3.58   367.91620   107.39347   187.26923
   134  O   6.0   -0.46    1.99    1.82   368.87432   104.91014   187.00071
   135  C   4.0   -0.21    3.98    3.59   369.99005   109.26043   187.99742
   136  H   1.0    0.27    1.00    1.43   364.93919   103.80329   187.59053
   137  H   1.0    0.13    0.99    1.43   366.72579   107.03700   191.18360
   138  H   1.0    0.14    0.99    1.43   367.01494   107.98045   185.48530
   139  H   1.0    0.27    0.99    1.43   370.36242   104.94939   185.94859
   140  H   1.0    0.12    0.99    1.43   371.39843   109.34586   186.50325
   141  H   1.0    0.13    0.99    1.43   369.22535   111.14609   188.26865
   142  H   1.0    0.12    0.99    1.43   370.90315   108.61784   189.72179
   143  N   5.0   -0.49    3.01    1.93   364.95259   111.44826   190.85386
   144  C   4.0    0.07    3.99    3.60   363.69761   113.85618   191.19376
   145  C   4.0    0.27    3.01    3.02   365.26510   116.00919   190.03002
   146  O   6.0   -0.42    1.00    1.80   367.55862   115.91454   189.83698
   147  C   4.0   -0.22    3.99    3.60   363.36925   114.36929   194.01570
   148  H   1.0    0.23    1.00    1.43   366.45949   111.12523   191.97511
   149  H   1.0    0.15    0.99    1.43   361.87483   113.74017   190.22808
   150  H   1.0    0.09    0.99    1.43   362.32432   116.10734   194.30265
   151  H   1.0    0.10    0.99    1.43   362.33286   112.82363   194.88013
   152  H   1.0    0.10    0.99    1.43   365.20886   114.53713   194.91317
   153  N   5.0   -0.48    3.01    1.93   363.85399   118.01887   189.39450
   154  C   4.0    0.07    3.98    3.59   364.78104   120.24093   188.08875
   155  C   4.0    0.07    3.00    3.02   363.05039   122.46980   188.75280
   156  O   6.0   -0.46    1.00    1.80   360.98540   122.09031   189.72790
   157  C   4.0    0.00    3.98    3.58   364.75206   119.76201   185.19802
   158  O   6.0   -0.48    1.99    1.82   362.32729   119.22499   184.27661
   159  H   1.0    0.28    1.00    1.43   361.94592   117.84906   189.43775
   160  H   1.0    0.12    0.99    1.43   366.72910   120.59153   188.68217
   161  H   1.0    0.12    0.99    1.43   365.38606   121.44643   184.18798
   162  H   1.0    0.13    0.99    1.43   366.05471   118.19715   184.80308
   163  H   1.0    0.30    0.99    1.43   361.69677   117.68716   185.05758
   164  N   5.0   -0.67    3.00    1.93   353.95893   124.33039   192.88179
   165  C   4.0    0.08    3.99    3.61   355.75924   122.27594   192.70773
   166  C   4.0    0.29    3.01    3.02   354.65353   120.40442   190.79635
   167  O   6.0   -0.45    1.00    1.80   352.50928   119.54210   191.04814
   168  C   4.0   -0.09    3.98    3.58   356.28785   121.05385   195.27605
   169  C   4.0   -0.23    3.99    3.60   358.14286   118.87814   194.91056
   170  C   4.0   -0.22    3.99    3.60   357.41515   123.01270   197.06280
   171  H   1.0    0.32    1.00    1.43   352.31688   124.03112   193.83375
   172  H   1.0    0.14    0.99    1.43   357.51285   123.05679   191.94818
   173  H   1.0    0.12    0.99    1.43   354.50848   120.33289   196.04877
   174  H   1.0    0.09    0.99    1.43   358.67883   118.09881   196.73300
   175  H   1.0    0.11    0.99    1.43   357.32300   117.37830   193.76867
   176  H   1.0    0.12    0.99    1.43   359.82150   119.58219   193.95544
   177  H   1.0    0.10    0.99    1.43   357.68453   122.19746   198.92556
   178  H   1.0    0.11    0.99    1.43   359.23386   123.63174   196.33855
   179  H   1.0    0.12    0.99    1.43   356.18462   124.64567   197.22060
   180  N   5.0   -0.49    3.01    1.93   356.12740   119.96573   188.80745
   181  C   4.0    0.07    4.00    3.61   355.43396   118.34203   186.71617
   182  C   4.0    0.27    3.01    3.02   356.79692   115.81301   187.05543
   183  O   6.0   -0.45    1.00    1.80   359.09553   115.71169   187.34485
   184  C   4.0   -0.13    3.99    3.60   356.19147   119.55416   184.20888
   185  C   4.0   -0.15    3.98    3.59   355.37070   117.96837   181.94256
   186  C   4.0   -0.14    3.98    3.59   356.46582   119.11105   179.53474
   187  C   4.0   -0.04    3.98    3.58   355.34426   117.95625   177.15184
   188  N   5.0   -0.70    3.96    2.77   356.33639   119.32940   174.92242
   189  H   1.0    0.29    1.00    1.43   357.93021   120.63600   188.82502
   190  H   1.0    0.14    0.99    1.43   353.39314   118.03801   186.77632
   191  H   1.0    0.13    0.99    1.43   355.31176   121.41312   184.08558
   192  H   1.0    0.15    0.99    1.43   358.23699   119.79823   184.16349
   193  H   1.0    0.15    0.99    1.43   356.01517   116.01916   182.13782
   194  H   1.0    0.12    0.99    1.43   353.31011   117.90221   181.83756
   195  H   1.0    0.12    0.99    1.43   356.06781   121.13260   179.52497
   196  H   1.0    0.13    0.99    1.43   358.51134   118.86551   179.55506
   197  H   1.0    0.15    0.99    1.43   355.75490   115.93874   177.03619
   198  H   1.0    0.13    0.99    1.43   353.29297   118.16233   177.17846
   199  H   1.0    0.26    1.00    1.43   355.40294   118.80598   173.31546
   200  H   1.0    0.23    0.97    1.43   356.01703   121.40221   175.25873
   201  H   1.0    0.26    1.00    1.43   358.23200   119.01392   174.71457
   202  N   5.0   -0.49    3.02    1.93   355.25624   113.82601   187.10356
   203  C   4.0    0.08    3.99    3.61   356.02840   111.22074   187.47399
   204  C   4.0    0.27    3.02    3.02   354.91244   109.79005   185.22867
   205  O   6.0   -0.40    1.00    1.80   352.66776   109.22170   185.16187
   206  C   4.0   -0.07    3.98    3.59   354.92933   110.17666   189.95602
   207  C   4.0   -0.21    3.98    3.59   355.57959   107.38455   190.24347
   208  C   4.0   -0.22    3.98    3.59   355.89620   111.68109   192.21122
   209  H   1.0    0.25    1.00    1.43   353.39293   114.10058   186.72648
   210  H   1.0    0.16    0.99    1.43   358.09541   111.13728   187.49163
   211  H   1.0    0.13    0.99    1.43   352.87135   110.36918   189.81746
   212  H   1.0    0.10    0.99    1.43   354.59540   106.61766   191.86958
   213  H   1.0    0.13    0.99    1.43   354.99637   106.32495   188.58053
   214  H   1.0    0.14    0.99    1.43   357.59936   107.13768   190.52919
   215  H   1.0    0.09    0.99    1.43   355.03064   110.99577   193.94047
   216  H   1.0    0.12    0.99    1.43   357.93355   111.46540   192.36430
   217  H   1.0    0.12    0.99    1.43   355.44212   113.67321   191.99359
   218  N   5.0   -0.48    3.00    1.93   356.51013   109.30128   183.32944
   219  C   4.0    0.02    3.99    3.60   355.63079   108.19109   180.97743
   220  C   4.0    0.10    3.00    3.02   353.63239   109.91932   179.77315
   221  O   6.0   -0.40    1.00    1.80   354.22446   111.94819   178.83630
   222  H   1.0    0.26    1.00    1.43   358.33436   109.83631   183.47340
   223  H   1.0    0.13    0.99    1.43   357.22219   108.03147   179.68540
   224  H   1.0    0.13    0.99    1.43   354.81469   106.32666   181.32805
   225  N   5.0   -0.66    3.00    1.93   347.36795   120.28805   192.69524
   226  C   4.0    0.07    3.98    3.59   346.63246   120.90504   195.26110
   227  C   4.0    0.09    3.00    3.02   346.98165   123.74510   195.67503
   228  O   6.0   -0.40    1.00    1.80   349.00930   124.75042   195.17195
   229  C   4.0   -0.12    3.99    3.60   348.30293   119.48749   197.17331
   230  C   4.0   -0.04    3.03    3.02   347.85122   116.68964   197.09036
   231  C   4.0   -0.11    3.03    3.02   349.09826   115.16720   195.34724
   232  C   4.0   -0.10    3.03    3.02   346.14738   115.58168   198.75077
   233  C   4.0   -0.08    3.03    3.02   348.65848   112.59316   195.26276
   234  C   4.0   -0.09    3.03    3.02   345.72165   113.00583   198.70651
   235  C   4.0    0.10    3.03    3.02   346.98179   111.49715   196.96482
   236  O   6.0   -0.45    1.99    1.83   346.55680   108.95402   196.83412
   237  H   1.0    0.33    1.00    1.43   349.23931   120.45164   192.27060
   238  H   1.0    0.12    0.99    1.43   344.65299   120.39741   195.52468
   239  H   1.0    0.12    0.99    1.43   350.27496   119.91138   196.74040
   240  H   1.0    0.11    0.99    1.43   347.84721   120.22517   199.04026
   241  H   1.0    0.13    1.00    1.43   350.43380   115.99749   194.04684
   242  H   1.0    0.12    1.00    1.43   345.14045   116.74495   200.09154
   243  H   1.0    0.13    1.00    1.43   349.61992   111.41288   193.90680
   244  H   1.0    0.13    1.00    1.43   344.41575   112.17362   200.03461
   245  H   1.0    0.26    0.99    1.43   345.71286   108.38833   198.36348
   246  H   1.0    0.31    1.00    1.43   374.19084   122.00235   202.70056
   247  H   1.0    0.14    1.00    1.43   371.70167   120.36859   205.75767
   248  H   1.0    0.29    1.00    1.43   363.30596   116.05990   203.52415
   249  H   1.0    0.15    1.00    1.43   364.86156   111.90122   208.38156
   250  H   1.0    0.29    1.00    1.43   356.03231   110.92773   207.32296
   251  H   1.0    0.15    1.00    1.43   358.17784   102.83338   210.71522
   252  H   1.0    0.31    1.00    1.43   352.68323   103.20711   211.61311
   253  H   1.0    0.13    1.00    1.43   363.60680   124.23890   188.38982
   254  H   1.0    0.31    1.00    1.43   354.68183   125.65360   193.66862
   255  H   1.0    0.15    1.00    1.43   351.81816   109.39110   179.74758
   256  H   1.0    0.31    1.00    1.43   346.95763   118.67192   192.36008
   257  H   1.0    0.14    1.00    1.43   345.55676   124.78293   196.35596

           ------------------------------------------------- 
          |        Self-Consistent Charge Iterations        |
           ------------------------------------------------- 

          ...................................................
          :                      SETUP                      :
          :.................................................:
          :  # basis functions                 605          :
          :  # atomic orbitals                 605          :
          :  # shells                          373          :
          :  # electrons                       666          :
          :  max. iterations                   250          :
          :  Hamiltonian                  GFN2-xTB          :
          :  restarted?                      false          :
          :  GBSA solvation                   true          :
          :  PC potential                    false          :
          :  electronic temp.          500.0000000     K    :
          :  accuracy                    0.1000000          :
          :  -> integral cutoff          0.3500000E+02      :
          :  -> integral neglect         0.1000000E-08      :
          :  -> SCF convergence          0.1000000E-06 Eh   :
          :  -> wf. convergence          0.1000000E-04 e    :
          :  Broyden damping             0.4000000          :
          ...................................................

 iter      E             dE          RMSdq      gap      omega  full diag
   1   -380.5005404 -0.380501E+03  0.414E+00    1.90       0.0  T
   2   -381.4848161 -0.984276E+00  0.215E+00    1.40       1.0  T
   3   -381.5179580 -0.331419E-01  0.117E+00    1.70       1.0  T
   4   -381.5308197 -0.128617E-01  0.280E-01    1.15       1.0  T
   5   -381.5420049 -0.111852E-01  0.106E-01    1.30       1.0  T
   6   -381.5424138 -0.408887E-03  0.493E-02    1.31       1.0  T
   7   -381.5424349 -0.211320E-04  0.214E-02    1.32       1.0  T
   8   -381.5424735 -0.385554E-04  0.792E-03    1.33       1.0  T
   9   -381.5424762 -0.273825E-05  0.376E-03    1.33       1.7  T
  10   -381.5424768 -0.603459E-06  0.151E-03    1.33       4.1  T
  11   -381.5424769 -0.708213E-07  0.504E-04    1.34      12.4  T
  12   -381.5424769 -0.138110E-07  0.209E-04    1.34      29.8  T
  13   -381.5424769 -0.245097E-08  0.969E-05    1.34      64.4  T
  14   -381.5424769 -0.236469E-09  0.408E-05    1.34     152.8  T

   *** convergence criteria satisfied after 14 iterations ***

         #    Occupation            Energy/Eh            Energy/eV
      -------------------------------------------------------------
         1        2.0000           -0.7420848             -20.1932
       ...           ...                  ...                  ...
       327        2.0000           -0.3840457             -10.4504
       328        2.0000           -0.3792559             -10.3201
       329        2.0000           -0.3695458             -10.0559
       330        2.0000           -0.3674992             -10.0002
       331        2.0000           -0.3605934              -9.8122
       332        2.0000           -0.3566600              -9.7052
       333        2.0000           -0.3497588              -9.5174 (HOMO)
       334        0.0000           -0.3006664              -8.1815 (LUMO)
       335                         -0.2974932              -8.0952
       336                         -0.2957008              -8.0464
       337                         -0.2938975              -7.9974
       338                         -0.2884643              -7.8495
       ...                                ...                  ...
       605                          0.6581657              17.9096
      -------------------------------------------------------------
                  HL-Gap            0.0490924 Eh            1.3359 eV
             Fermi-level           -0.3253413 Eh           -8.8530 eV

 SCC (total)                   0 d,  0 h,  0 min,  2.290 sec
 SCC setup                      ...        0 min,  0.033 sec (  1.435%)
 Dispersion                     ...        0 min,  0.024 sec (  1.039%)
 integral evaluation            ...        0 min,  0.087 sec (  3.799%)
 zeroth order Hamiltonian       ...        0 min,  0.002 sec (  0.088%)
 iterations                     ...        0 min,  1.792 sec ( 78.256%)
 molecular gradient             ...        0 min,  0.341 sec ( 14.913%)
 printout                       ...        0 min,  0.011 sec (  0.468%)

         :::::::::::::::::::::::::::::::::::::::::::::::::::::
         ::                     SUMMARY                     ::
         :::::::::::::::::::::::::::::::::::::::::::::::::::::
         :: total energy             -376.864177418705 Eh   ::
         :: total w/o Gsasa/hb       -376.805297532344 Eh   ::
         :: gradient norm               0.549383209600 Eh/α ::
         :: HOMO-LUMO gap               1.335872856516 eV   ::
         ::.................................................::
         :: SCC energy               -381.555599699595 Eh   ::
         :: -> isotropic ES             1.161234732345 Eh   ::
         :: -> anisotropic ES          -0.037046865232 Eh   ::
         :: -> anisotropic XC           0.137163728058 Eh   ::
         :: -> dispersion              -0.291485185092 Eh   ::
         :: -> Gsolv                   -0.388208836043 Eh   ::
         ::    -> Gborn                -0.329328949683 Eh   ::
         ::    -> Gsasa                -0.014980233185 Eh   ::
         ::    -> Ghb                  -0.045757096303 Eh   ::
         ::    -> Gshift                0.001857443127 Eh   ::
         :: repulsion energy            4.671339177494 Eh   ::
         :: add. restraining            0.000000000000 Eh   ::
         :::::::::::::::::::::::::::::::::::::::::::::::::::::

           -------------------------------------------------
          |                Property Printout                |
           -------------------------------------------------

    * Orbital Energies and Occupations

         #    Occupation            Energy/Eh            Energy/eV
      -------------------------------------------------------------
         1        2.0000           -0.7420848             -20.1932
       ...           ...                  ...                  ...
       321        2.0000           -0.3994774             -10.8703
       322        2.0000           -0.3960968             -10.7783
       323        2.0000           -0.3942439             -10.7279
       324        2.0000           -0.3930820             -10.6963
       325        2.0000           -0.3919487             -10.6655
       326        2.0000           -0.3894031             -10.5962
       327        2.0000           -0.3840457             -10.4504
       328        2.0000           -0.3792559             -10.3201
       329        2.0000           -0.3695458             -10.0559
       330        2.0000           -0.3674992             -10.0002
       331        2.0000           -0.3605934              -9.8122
       332        2.0000           -0.3566600              -9.7052
       333        2.0000           -0.3497588              -9.5174 (HOMO)
       334        0.0000           -0.3006664              -8.1815 (LUMO)
       335                         -0.2974932              -8.0952
       336                         -0.2957008              -8.0464
       337                         -0.2938975              -7.9974
       338                         -0.2884643              -7.8495
       339                         -0.2870944              -7.8122
       340                         -0.2381180              -6.4795
       341                         -0.2316449              -6.3034
       342                         -0.2278509              -6.2001
       343                         -0.2260524              -6.1512
       344                         -0.2258055              -6.1445
       ...                                ...                  ...
       605                          0.6581657              17.9096
      -------------------------------------------------------------
                  HL-Gap            0.0490924 Eh            1.3359 eV
             Fermi-level           -0.3253413 Eh           -8.8530 eV

   #   Z        covCN         q      C6AA      α(0)
   1   7 N      2.632    -0.371    29.588     8.079
   2   6 C      3.782     0.033    20.030     6.376
   3   6 C      2.766     0.189    23.953     8.015
   4   8 O      0.856    -0.383    21.345     6.194
   5   6 C      3.811    -0.079    21.993     6.675
   6   6 C      3.850    -0.019    20.872     6.498
   7   6 C      3.758    -0.120    22.855     6.816
   8   6 C      3.757    -0.114    22.729     6.797
   9   1 H      0.860     0.154     1.375     1.837
  10   1 H      0.924     0.067     2.115     2.274
  11   1 H      0.925     0.070     2.080     2.255
  12   1 H      0.924     0.061     2.184     2.311
  13   1 H      0.924     0.060     2.202     2.320
  14   1 H      0.925     0.037     2.495     2.470
  15   1 H      0.925     0.053     2.284     2.363
  16   1 H      0.925     0.039     2.455     2.450
  17   1 H      0.925     0.037     2.482     2.464
  18   1 H      0.925     0.033     2.545     2.495
  19   1 H      0.925     0.029     2.604     2.523
  20   7 N      2.635    -0.406    30.546     8.208
  21   6 C      3.784     0.040    19.927     6.359
  22   6 C      2.766     0.198    23.789     7.988
  23   8 O      0.856    -0.391    21.509     6.218
  24   6 C      3.807    -0.073    21.891     6.660
  25   6 C      3.804    -0.075    21.937     6.668
  26   6 C      3.804    -0.094    22.282     6.720
  27   6 C      3.732    -0.049    21.543     6.625
  28   7 N      3.483    -0.146    24.158     7.300
  29   1 H      0.860     0.195     1.132     1.667
  30   1 H      0.923     0.055     2.259     2.350
  31   1 H      0.924     0.062     2.172     2.305
  32   1 H      0.924     0.046     2.373     2.409
  33   1 H      0.924     0.060     2.201     2.320
  34   1 H      0.925     0.065     2.136     2.286
  35   1 H      0.924     0.071     2.070     2.250
  36   1 H      0.925     0.077     2.009     2.217
  37   1 H      0.924     0.118     1.631     1.997
  38   1 H      0.924     0.112     1.681     2.028
  39   1 H      0.859     0.308     0.690     1.301
  40   1 H      0.857     0.294     0.733     1.341
  41   1 H      0.859     0.298     0.720     1.329
  42   7 N      2.636    -0.395    30.234     8.166
  43   6 C      3.787     0.034    20.010     6.371
  44   6 C      2.758     0.264    22.544     7.775
  45   8 O      0.858    -0.505    23.901     6.555
  46   6 C      3.812    -0.074    21.899     6.661
  47   6 C      3.849    -0.010    20.722     6.475
  48   6 C      3.759    -0.122    22.888     6.821
  49   6 C      3.756    -0.108    22.614     6.780
  50   1 H      0.860     0.164     1.310     1.793
  51   1 H      0.924     0.032     2.564     2.504
  52   1 H      0.924     0.057     2.239     2.340
  53   1 H      0.924     0.038     2.470     2.458
  54   1 H      0.924     0.035     2.521     2.483
  55   1 H      0.925     0.054     2.276     2.359
  56   1 H      0.925     0.048     2.346     2.395
  57   1 H      0.925     0.047     2.364     2.404
  58   1 H      0.925     0.043     2.409     2.427
  59   1 H      0.925     0.034     2.531     2.488
  60   1 H      0.925     0.023     2.682     2.561
  61   7 N      2.692    -0.178    24.846     7.403
  62   6 C      3.794     0.014    20.349     6.424
  63   6 C      2.766     0.201    23.730     7.978
  64   8 O      0.856    -0.369    21.069     6.154
  65   6 C      3.727     0.118    18.740     6.181
  66   8 O      1.656    -0.462    22.095     6.345
  67   6 C      3.754    -0.128    23.022     6.842
  68   1 H      0.860     0.245     0.902     1.488
  69   1 H      0.923     0.085     1.927     2.171
  70   1 H      0.923     0.037     2.490     2.468
  71   1 H      0.804     0.338     0.618     1.234
  72   1 H      0.925     0.076     2.020     2.222
  73   1 H      0.925     0.045     2.387     2.416
  74   1 H      0.925     0.064     2.149     2.292
  75   7 N      2.635    -0.391    30.134     8.153
  76   6 C      3.784     0.038    19.960     6.364
  77   6 C      2.756     0.269    22.451     7.759
  78   8 O      0.859    -0.521    24.263     6.604
  79   6 C      3.758    -0.113    22.710     6.794
  80   1 H      0.860     0.155     1.366     1.831
  81   1 H      0.923     0.036     2.500     2.473
  82   1 H      0.925     0.046     2.375     2.410
  83   1 H      0.925     0.051     2.306     2.375
  84   1 H      0.925     0.053     2.287     2.365
  85   7 N      2.685    -0.169    24.666     7.376
  86   6 C      3.747    -0.031    21.187     6.566
  87   6 C      2.754     0.277    22.313     7.735
  88   8 O      0.859    -0.507    23.949     6.561
  89   1 H      0.860     0.228     0.974     1.546
  90   1 H      0.924     0.087     1.905     2.158
  91   1 H      0.924     0.083     1.944     2.180
  92   7 N      2.691    -0.175    24.784     7.394
  93   6 C      3.803     0.020    20.235     6.404
  94   6 C      2.754     0.281    22.251     7.724
  95   8 O      0.858    -0.468    23.077     6.441
  96   6 C      3.855    -0.013    20.767     6.481
  97   6 C      3.756    -0.117    22.791     6.807
  98   6 C      3.757    -0.113    22.720     6.796
  99   1 H      0.860     0.225     0.988     1.557
 100   1 H      0.924     0.058     2.223     2.332
 101   1 H      0.924     0.051     2.311     2.377
 102   1 H      0.925     0.065     2.140     2.288
 103   1 H      0.925     0.046     2.368     2.406
 104   1 H      0.925     0.043     2.406     2.426
 105   1 H      0.925     0.056     2.241     2.341
 106   1 H      0.925     0.046     2.375     2.410
 107   1 H      0.925     0.033     2.540     2.492
 108   7 N      2.688    -0.190    25.129     7.445
 109   6 C      3.794     0.013    20.359     6.425
 110   6 C      2.759     0.269    22.465     7.762
 111   8 O      0.859    -0.474    23.227     6.462
 112   6 C      3.727     0.119    18.725     6.178
 113   8 O      1.656    -0.492    22.728     6.436
 114   6 C      3.752    -0.140    23.252     6.876
 115   1 H      0.860     0.212     1.044     1.601
 116   1 H      0.924     0.082     1.959     2.189
 117   1 H      0.922     0.024     2.673     2.557
 118   1 H      0.805     0.343     0.605     1.222
 119   1 H      0.925     0.061     2.191     2.315
 120   1 H      0.925     0.071     2.071     2.250
 121   1 H      0.925     0.059     2.207     2.323
 122   7 N      2.686    -0.159    24.445     7.343
 123   6 C      3.748    -0.038    21.319     6.585
 124   6 C      2.754     0.279    22.281     7.730
 125   8 O      0.859    -0.478    23.296     6.471
 126   1 H      0.860     0.206     1.076     1.625
 127   1 H      0.924     0.088     1.901     2.156
 128   1 H      0.924     0.100     1.789     2.092
 129   7 N      2.693    -0.166    24.600     7.366
 130   6 C      3.799     0.013    20.358     6.424
 131   6 C      2.752     0.275    22.358     7.743
 132   8 O      0.858    -0.480    23.335     6.477
 133   6 C      3.727     0.114    18.807     6.192
 134   8 O      1.656    -0.493    22.739     6.437
 135   6 C      3.752    -0.150    23.468     6.908
 136   1 H      0.860     0.221     1.003     1.569
 137   1 H      0.924     0.067     2.114     2.274
 138   1 H      0.923     0.030     2.582     2.513
 139   1 H      0.805     0.345     0.600     1.217
 140   1 H      0.925     0.067     2.116     2.275
 141   1 H      0.925     0.072     2.065     2.247
 142   1 H      0.925     0.073     2.050     2.239
 143   7 N      2.692    -0.161    24.486     7.349
 144   6 C      3.793     0.009    20.434     6.437
 145   6 C      2.752     0.268    22.476     7.763
 146   8 O      0.858    -0.461    22.944     6.422
 147   6 C      3.758    -0.142    23.283     6.879
 148   1 H      0.860     0.214     1.036     1.594
 149   1 H      0.924     0.086     1.923     2.168
 150   1 H      0.925     0.073     2.058     2.243
 151   1 H      0.925     0.071     2.077     2.254
 152   1 H      0.925     0.076     2.018     2.222
 153   7 N      2.693    -0.168    24.636     7.372
 154   6 C      3.785     0.008    20.463     6.443
 155   6 C      2.766     0.200    23.739     7.979
 156   8 O      0.856    -0.356    20.816     6.117
 157   6 C      3.676     0.067    19.674     6.355
 158   8 O      1.655    -0.458    22.002     6.332
 159   1 H      0.860     0.217     1.025     1.586
 160   1 H      0.924     0.111     1.692     2.034
 161   1 H      0.924     0.077     2.007     2.216
 162   1 H      0.924     0.058     2.222     2.331
 163   1 H      0.804     0.332     0.632     1.249
 164   7 N      2.640    -0.403    30.455     8.196
 165   6 C      3.796     0.023    20.186     6.398
 166   6 C      2.758     0.272    22.400     7.750
 167   8 O      0.858    -0.504    23.872     6.551
 168   6 C      3.852    -0.013    20.775     6.483
 169   6 C      3.759    -0.118    22.802     6.808
 170   6 C      3.759    -0.113    22.713     6.794
 171   1 H      0.860     0.164     1.308     1.792
 172   1 H      0.924     0.056     2.242     2.342
 173   1 H      0.924     0.016     2.792     2.613
 174   1 H      0.925     0.052     2.290     2.367
 175   1 H      0.925     0.027     2.629     2.536
 176   1 H      0.925     0.052     2.293     2.368
 177   1 H      0.925     0.042     2.417     2.431
 178   1 H      0.925     0.048     2.346     2.395
 179   1 H      0.925     0.030     2.584     2.514
 180   7 N      2.693    -0.180    24.888     7.409
 181   6 C      3.798     0.017    20.298     6.415
 182   6 C      2.755     0.268    22.470     7.762
 183   8 O      0.858    -0.474    23.207     6.459
 184   6 C      3.810    -0.091    22.228     6.711
 185   6 C      3.803    -0.069    21.816     6.650
 186   6 C      3.807    -0.096    22.325     6.726
 187   6 C      3.732    -0.051    21.581     6.631
 188   7 N      3.466    -0.147    24.164     7.301
 189   1 H      0.860     0.229     0.967     1.541
 190   1 H      0.924     0.060     2.194     2.316
 191   1 H      0.924     0.067     2.113     2.273
 192   1 H      0.924     0.089     1.887     2.148
 193   1 H      0.924     0.042     2.420     2.433
 194   1 H      0.924     0.048     2.344     2.394
 195   1 H      0.924     0.078     2.005     2.214
 196   1 H      0.924     0.087     1.912     2.162
 197   1 H      0.924     0.125     1.576     1.963
 198   1 H      0.924     0.109     1.709     2.045
 199   1 H      0.860     0.297     0.723     1.332
 200   1 H      0.839     0.304     0.704     1.316
 201   1 H      0.859     0.298     0.719     1.328
 202   7 N      2.699    -0.163    24.517     7.354
 203   6 C      3.796     0.008    20.446     6.439
 204   6 C      2.765     0.268    22.473     7.763
 205   8 O      0.859    -0.486    23.468     6.495
 206   6 C      3.854    -0.011    20.732     6.476
 207   6 C      3.756    -0.120    22.857     6.817
 208   6 C      3.756    -0.111    22.668     6.788
 209   1 H      0.860     0.197     1.121     1.659
 210   1 H      0.924     0.095     1.835     2.118
 211   1 H      0.924     0.042     2.421     2.433
 212   1 H      0.925     0.050     2.320     2.382
 213   1 H      0.925     0.031     2.578     2.511
 214   1 H      0.925     0.054     2.271     2.357
 215   1 H      0.925     0.049     2.337     2.391
 216   1 H      0.925     0.054     2.268     2.355
 217   1 H      0.925     0.034     2.534     2.489
 218   7 N      2.687    -0.162    24.494     7.350
 219   6 C      3.741    -0.031    21.198     6.569
 220   6 C      2.762     0.205    23.648     7.964
 221   8 O      0.856    -0.336    20.438     6.061
 222   1 H      0.860     0.228     0.975     1.547
 223   1 H      0.925     0.120     1.615     1.987
 224   1 H      0.924     0.085     1.928     2.171
 225   7 N      2.636    -0.397    30.280     8.173
 226   6 C      3.784     0.046    19.819     6.341
 227   6 C      2.769     0.200    23.738     7.979
 228   8 O      0.856    -0.359    20.876     6.126
 229   6 C      3.813    -0.062    21.684     6.628
 230   6 C      2.970     0.002    27.985     8.677
 231   6 C      2.924    -0.040    28.997     8.831
 232   6 C      2.925    -0.044    29.081     8.844
 233   6 C      2.917    -0.059    29.456     8.900
 234   6 C      2.917    -0.074    29.841     8.958
 235   6 C      2.847     0.142    24.897     8.178
 236   8 O      1.658    -0.438    21.602     6.274
 237   1 H      0.860     0.191     1.156     1.684
 238   1 H      0.924     0.041     2.436     2.441
 239   1 H      0.924     0.053     2.278     2.360
 240   1 H      0.925     0.035     2.518     2.482
 241   1 H      0.926     0.055     2.255     2.349
 242   1 H      0.926     0.036     2.509     2.477
 243   1 H      0.926     0.052     2.293     2.368
 244   1 H      0.926     0.034     2.529     2.487
 245   1 H      0.804     0.338     0.617     1.233
 246   1 H      0.862     0.177     1.230     1.737
 247   1 H      0.930     0.059     2.213     2.326
 248   1 H      0.862     0.178     1.223     1.732
 249   1 H      0.930     0.078     1.996     2.209
 250   1 H      0.862     0.177     1.229     1.737
 251   1 H      0.930     0.080     1.979     2.200
 252   1 H      0.862     0.185     1.187     1.706
 253   1 H      0.930     0.092     1.861     2.133
 254   1 H      0.862     0.174     1.251     1.752
 255   1 H      0.930     0.078     2.004     2.214
 256   1 H      0.862     0.178     1.223     1.732
 257   1 H      0.930     0.066     2.129     2.282

 Mol. C6AA /au·bohr⁶  :     556956.712275
 Mol. C8AA /au·bohr⁸  :   12181729.633440
 Mol. α(0) /au        :       1114.283950


Wiberg/Mayer (AO) data.
largest (>0.10) Wiberg bond orders for each atom
          total WBO             WBO to atom ...
     1  N   3.009        C    2 1.016    H    9 0.962    H  246 0.954
     2  C   3.982        N    1 1.016    C    3 1.000    C    5 0.964    H   10 0.913
     3  C   3.904        O    4 1.847    C    2 1.000    H  247 0.953
     4  O   2.044        C    3 1.847
     5  C   3.987        C    6 0.997    H   12 0.970    H   11 0.968    C    2 0.964
     6  C   3.994        C    8 1.010    C    7 1.006    C    5 0.997    H   13 0.967
     7  C   3.994        C    6 1.006    H   16 0.986    H   14 0.985    H   15 0.981
     8  C   3.996        C    6 1.010    H   18 0.987    H   17 0.985    H   19 0.982
     9  H   0.976        N    1 0.962
    10  H   0.995        C    2 0.913
    11  H   0.995        C    5 0.968
    12  H   0.996        C    5 0.970
    13  H   0.996        C    6 0.967
    14  H   0.998        C    7 0.985
    15  H   0.997        C    7 0.981
    16  H   0.998        C    7 0.986
    17  H   0.998        C    8 0.985
    18  H   0.999        C    8 0.987
    19  H   0.999        C    8 0.982
    20  N   2.996        C   21 1.017    H  248 0.956    H   29 0.921
    21  C   3.984        N   20 1.017    C   22 0.984    C   24 0.952    H   30 0.951
    22  C   3.870        O   23 1.828    C   21 0.984    H  249 0.954
    23  O   2.048        C   22 1.828
    24  C   3.988        C   25 1.002    H   32 0.974    H   31 0.970    C   21 0.952
    25  C   3.991        C   26 1.003    C   24 1.002    H   33 0.975    H   34 0.971
    26  C   3.986        C   27 1.009    C   25 1.003    H   36 0.972    H   35 0.967
    27  C   3.915        C   26 1.009    H   37 0.965    N   28 0.959    H   38 0.959
    28  N   3.664        C   27 0.959    H   41 0.897    H   40 0.896    H   39 0.892
    29  H   0.962        N   20 0.921
    30  H   0.997        C   21 0.951
    31  H   0.996        C   24 0.970
    32  H   0.998        C   24 0.974
    33  H   0.996        C   25 0.975
    34  H   0.996        C   25 0.971
    35  H   0.995        C   26 0.967
    36  H   0.994        C   26 0.972
    37  H   0.986        C   27 0.965
    38  H   0.987        C   27 0.959
    39  H   0.905        N   28 0.892
    40  H   0.914        N   28 0.896
    41  H   0.911        N   28 0.897
    42  N   2.995        C   43 1.014    H  250 0.958    H   50 0.951
    43  C   3.984        N   42 1.014    C   46 0.976    H   51 0.957    C   44 0.936
    44  C   3.938        O   45 1.599    N   61 1.315    C   43 0.936
    45  O   1.958        C   44 1.599    N   61 0.193
    46  C   3.989        C   47 0.992    C   43 0.976    H   52 0.967    H   53 0.966
    47  C   3.995        C   49 1.010    C   48 1.006    C   46 0.992    H   54 0.966
    48  C   3.993        C   47 1.006    H   57 0.984    H   56 0.982    H   55 0.981
    49  C   3.995        C   47 1.010    H   58 0.984    H   60 0.983    H   59 0.981
    50  H   0.973        N   42 0.951
    51  H   0.998        C   43 0.957
    52  H   0.997        C   46 0.967
    53  H   0.998        C   46 0.966
    54  H   0.998        C   47 0.966
    55  H   0.996        C   48 0.981
    56  H   0.998        C   48 0.982
    57  H   0.998        C   48 0.984
    58  H   0.998        C   49 0.984
    59  H   0.999        C   49 0.981
    60  H   0.999        C   49 0.983
    61  N   3.472        C   44 1.315    C   62 0.981    H   68 0.872    O   45 0.193
    62  C   3.968        N   61 0.981    C   63 0.979    H   69 0.948    C   65 0.935
    63  C   3.897        O   64 1.859    C   62 0.979    H  251 0.952
    64  O   2.045        C   63 1.859
    65  C   3.960        O   66 1.009    C   67 1.005    H   70 0.958    C   62 0.935
    66  O   1.961        C   65 1.009    H   71 0.841
    67  C   3.988        C   65 1.005    H   74 0.983    H   73 0.982    H   72 0.981
    68  H   0.940        N   61 0.872
    69  H   0.992        C   62 0.948
    70  H   0.999        C   65 0.958
    71  H   0.886        O   66 0.841
    72  H   0.994        C   67 0.981
    73  H   0.998        C   67 0.982
    74  H   0.996        C   67 0.983
    75  N   3.007        C   76 1.020    H  252 0.956    H   80 0.955
    76  C   3.986        N   75 1.020    C   79 0.992    H   81 0.955    C   77 0.937
    77  C   3.942        O   78 1.616    N   85 1.310    C   76 0.937
    78  O   1.922        C   77 1.616    N   85 0.193
    79  C   3.993        C   76 0.992    H   82 0.985    H   83 0.984    H   84 0.980
    80  H   0.976        N   75 0.955
    81  H   0.998        C   76 0.955
    82  H   0.998        C   79 0.985
    83  H   0.997        C   79 0.984
    84  H   0.997        C   79 0.980
    85  N   3.480        C   77 1.310    C   86 1.004    H   89 0.884    O   78 0.193
    86  C   3.969        N   85 1.004    H   91 0.956    H   90 0.951    C   87 0.947
    87  C   3.953        O   88 1.621    N   92 1.316    C   86 0.947
    88  O   1.934        C   87 1.621    N   92 0.197
    89  H   0.948        N   85 0.884
    90  H   0.992        C   86 0.951
    91  H   0.992        C   86 0.956
    92  N   3.480        C   87 1.316    C   93 0.980    H   99 0.890    O   88 0.197
    93  C   3.962        N   92 0.980    C   96 0.961    H  100 0.954    C   94 0.932
    94  C   3.945        O   95 1.674    N  108 1.256    C   93 0.932
    95  O   1.980        C   94 1.674    N  108 0.186
    96  C   3.987        C   98 1.008    C   97 1.007    C   93 0.961    H  101 0.954
    97  C   3.993        C   96 1.007    H  104 0.983    H  103 0.982    H  102 0.977
    98  C   3.993        C   96 1.008    H  106 0.985    H  107 0.984    H  105 0.981
    99  H   0.949        N   92 0.890
   100  H   0.996        C   93 0.954
   101  H   0.997        C   96 0.954
   102  H   0.995        C   97 0.977
   103  H   0.998        C   97 0.982
   104  H   0.998        C   97 0.983
   105  H   0.996        C   98 0.981
   106  H   0.998        C   98 0.985
   107  H   0.999        C   98 0.984
   108  N   3.427        C   94 1.256    C  109 0.986    H  115 0.917    O   95 0.186
   109  C   3.965        N  108 0.986    C  112 0.952    H  116 0.948    C  110 0.938
   110  C   3.955        O  111 1.645    N  122 1.296    C  109 0.938
   111  O   1.965        C  110 1.645    N  122 0.197
   112  C   3.954        C  114 1.005    O  113 0.987    H  117 0.959    C  109 0.952
   113  O   1.929        C  112 0.987    H  118 0.864
   114  C   3.988        C  112 1.005    H  121 0.984    H  119 0.982    H  120 0.976
   115  H   0.955        N  108 0.917
   116  H   0.993        C  109 0.948
   117  H   0.999        C  112 0.959
   118  H   0.882        O  113 0.864
   119  H   0.996        C  114 0.982
   120  H   0.995        C  114 0.976
   121  H   0.996        C  114 0.984
   122  N   3.470        C  110 1.296    C  123 0.994    H  126 0.921    O  111 0.197
   123  C   3.960        N  122 0.994    H  127 0.961    H  128 0.951    C  124 0.942
   124  C   3.954        O  125 1.643    N  129 1.304    C  123 0.942
   125  O   1.965        C  124 1.643    N  129 0.200
   126  H   0.957        N  122 0.921
   127  H   0.992        C  123 0.961
   128  H   0.990        C  123 0.951
   129  N   3.470        C  124 1.304    C  130 0.983    H  136 0.913    O  125 0.200
   130  C   3.964        N  129 0.983    C  133 0.962    H  137 0.949    C  131 0.930
   131  C   3.955        O  132 1.643    N  143 1.307    C  130 0.930
   132  O   1.966        C  131 1.643    N  143 0.201
   133  C   3.952        C  135 1.003    O  134 0.986    C  130 0.962    H  138 0.960
   134  O   1.930        C  133 0.986    H  139 0.862
   135  C   3.986        C  133 1.003    H  142 0.982    H  140 0.981    H  141 0.978
   136  H   0.951        N  129 0.913
   137  H   0.995        C  130 0.949
   138  H   0.999        C  133 0.960
   139  H   0.881        O  134 0.862
   140  H   0.995        C  135 0.981
   141  H   0.995        C  135 0.978
   142  H   0.995        C  135 0.982
   143  N   3.481        C  131 1.307    C  144 0.981    H  148 0.921    O  132 0.201
   144  C   3.959        C  147 0.985    N  143 0.981    H  149 0.946    C  145 0.930
   145  C   3.953        O  146 1.659    N  153 1.285    C  144 0.930
   146  O   1.974        C  145 1.659    N  153 0.198
   147  C   3.981        C  144 0.985    H  152 0.980    H  151 0.977    H  150 0.975
   148  H   0.954        N  143 0.921
   149  H   0.993        C  144 0.946
   150  H   0.994        C  147 0.975
   151  H   0.995        C  147 0.977
   152  H   0.994        C  147 0.980
   153  N   3.464        C  145 1.285    C  154 0.994    H  159 0.905    O  146 0.198
   154  C   3.971        N  153 0.994    C  155 0.994    H  160 0.935    C  157 0.926
   155  C   3.897        O  156 1.866    C  154 0.994    H  253 0.952
   156  O   2.076        C  155 1.866
   157  C   3.956        O  158 1.020    H  161 0.967    H  162 0.962    C  154 0.926
   158  O   1.966        C  157 1.020    H  163 0.857
   159  H   0.953        N  153 0.905
   160  H   0.987        C  154 0.935
   161  H   0.993        C  157 0.967
   162  H   0.996        C  157 0.962
   163  H   0.890        O  158 0.857
   164  N   2.996        C  165 1.013    H  254 0.951    H  171 0.932
   165  C   3.981        N  164 1.013    C  168 0.962    H  172 0.955    C  166 0.939
   166  C   3.941        O  167 1.611    N  180 1.312    C  165 0.939
   167  O   1.949        C  166 1.611    N  180 0.191
   168  C   3.996        C  170 1.008    C  169 1.007    H  173 0.964    C  165 0.962
   169  C   3.995        C  168 1.007    H  175 0.983    H  174 0.982    H  176 0.980
   170  C   3.995        C  168 1.008    H  178 0.985    H  177 0.985    H  179 0.982
   171  H   0.973        N  164 0.932
   172  H   0.997        C  165 0.955
   173  H   0.999        C  168 0.964
   174  H   0.997        C  169 0.982
   175  H   0.999        C  169 0.983
   176  H   0.997        C  169 0.980
   177  H   0.998        C  170 0.985
   178  H   0.998        C  170 0.985
   179  H   0.999        C  170 0.982
   180  N   3.472        C  166 1.312    C  181 0.977    H  189 0.883    O  167 0.191
   181  C   3.964        N  180 0.977    C  184 0.974    H  190 0.956    C  182 0.931
   182  C   3.946        O  183 1.609    N  202 1.312    C  181 0.931
   183  O   1.961        C  182 1.609    N  202 0.193
   184  C   3.981        C  185 1.005    C  181 0.974    H  191 0.971    H  192 0.960
   185  C   3.994        C  184 1.005    C  186 1.005    H  194 0.975    H  193 0.975
   186  C   3.986        C  187 1.011    C  185 1.005    H  196 0.970    H  195 0.967
   187  C   3.915        C  186 1.011    H  198 0.966    N  188 0.962    H  197 0.958
   188  N   3.666        C  187 0.962    H  199 0.899    H  201 0.898    H  200 0.886
   189  H   0.947        N  180 0.883
   190  H   0.996        C  181 0.956
   191  H   0.995        C  184 0.971
   192  H   0.992        C  184 0.960
   193  H   0.998        C  185 0.975
   194  H   0.998        C  185 0.975
   195  H   0.994        C  186 0.967
   196  H   0.992        C  186 0.970
   197  H   0.984        C  187 0.958
   198  H   0.988        C  187 0.966
   199  H   0.912        N  188 0.899
   200  H   0.908        N  188 0.886
   201  H   0.911        N  188 0.898
   202  N   3.493        C  182 1.312    C  203 0.969    H  209 0.926    O  183 0.193
   203  C   3.957        N  202 0.969    C  206 0.964    H  210 0.949    C  204 0.933
   204  C   3.949        O  205 1.641    N  218 1.297    C  203 0.933
   205  O   1.966        C  204 1.641    N  218 0.201
   206  C   3.991        C  208 1.009    C  207 1.007    H  211 0.965    C  203 0.964
   207  C   3.993        C  206 1.007    H  213 0.984    H  214 0.981    H  212 0.980
   208  C   3.994        C  206 1.009    H  216 0.983    H  217 0.983    H  215 0.982
   209  H   0.961        N  202 0.926
   210  H   0.991        C  203 0.949
   211  H   0.998        C  206 0.965
   212  H   0.997        C  207 0.980
   213  H   0.999        C  207 0.984
   214  H   0.997        C  207 0.981
   215  H   0.997        C  208 0.982
   216  H   0.997        C  208 0.983
   217  H   0.999        C  208 0.983
   218  N   3.472        C  204 1.297    C  219 0.981    H  222 0.921    O  205 0.201
   219  C   3.960        N  218 0.981    C  220 0.975    H  224 0.965    H  223 0.951
   220  C   3.902        O  221 1.918    C  219 0.975    H  255 0.955
   221  O   2.055        C  220 1.918
   222  H   0.948        N  218 0.921
   223  H   0.985        C  219 0.951
   224  H   0.993        C  219 0.965
   225  N   2.995        C  226 1.020    H  256 0.950    H  237 0.920
   226  C   3.988        N  225 1.020    C  227 0.981    H  238 0.966    C  229 0.931
   227  C   3.892        O  228 1.888    C  226 0.981    H  257 0.955
   228  O   2.057        C  227 1.888
   229  C   3.994        C  230 1.013    H  240 0.972    H  239 0.964    C  226 0.931
   230  C   3.988        C  232 1.405    C  231 1.400    C  229 1.013
   231  C   3.990        C  233 1.456    C  230 1.400    H  241 0.965    C  234 0.104
   232  C   3.990        C  234 1.454    C  230 1.405    H  242 0.969    C  233 0.107
   233  C   3.987        C  231 1.456    C  235 1.368    H  243 0.967    C  232 0.107
   234  C   3.987        C  232 1.454    C  235 1.372    H  244 0.966    C  231 0.104
   235  C   3.934        C  234 1.372    C  233 1.368    O  236 1.064
   236  O   2.082        C  235 1.064    H  245 0.865
   237  H   0.964        N  225 0.920
   238  H   0.998        C  226 0.966
   239  H   0.997        C  229 0.964
   240  H   0.998        C  229 0.972
   241  H   0.997        C  231 0.965
   242  H   0.999        C  232 0.969
   243  H   0.997        C  233 0.967
   244  H   0.999        C  234 0.966
   245  H   0.886        O  236 0.865
   246  H   0.969        N    1 0.954
   247  H   0.996        C    3 0.953
   248  H   0.968        N   20 0.956
   249  H   0.994        C   22 0.954
   250  H   0.969        N   42 0.958
   251  H   0.994        C   63 0.952
   252  H   0.966        N   75 0.956
   253  H   0.991        C  155 0.952
   254  H   0.969        N  164 0.951
   255  H   0.994        C  220 0.955
   256  H   0.968        N  225 0.950
   257  H   0.995        C  227 0.955
 
molecular dipole:
                 x           y           z       tot (Debye)
 q only:      737.972     240.359     370.371
   full:      737.485     240.838     371.970    2186.908
molecular quadrupole (traceless):
                xx          xy          yy          xz          yz          zz
 q only:   223542.442  132823.129 -141833.770  205422.851   66920.143  -81708.671
  q+dip:   222833.713  133014.934 -141871.024  206130.853   67365.878  -80962.689
   full:   222830.798  133013.694 -141871.580  206132.096   67364.140  -80959.218


           -------------------------------------------------
          | TOTAL ENERGY             -376.864177418705 Eh   |
          | GRADIENT NORM               0.549383209600 Eh/α |
          | HOMO-LUMO GAP               1.335872856516 eV   |
           -------------------------------------------------

------------------------------------------------------------------------
 * finished run on 2019/05/31 at 05:35:24.553     
------------------------------------------------------------------------
 total:
 * wall-time:     0 d,  0 h,  0 min,  2.725 sec
 *  cpu-time:     0 d,  0 h,  0 min,  4.610 sec
 * ratio c/w:     1.692 speedup
 SCF:
 * wall-time:     0 d,  0 h,  0 min,  2.291 sec
 *  cpu-time:     0 d,  0 h,  0 min,  4.128 sec
 * ratio c/w:     1.802 speedup

