      -----------------------------------------------------------      
     |                   =====================                   |     
     |                           x T B                           |     
     |                   =====================                   |     
     |                         S. Grimme                         |     
     |          Mulliken Center for Theoretical Chemistry        |     
     |                    University of Bonn                     |     
     |                 Version 6.0.1 (SAW181210)                 |     
      -----------------------------------------------------------      

   This program is distributed in the hope that it will be useful,
   but WITHOUT ANY WARRANTY; without even the implied warranty of
   MERCHANTABILITY or FITNESS FOR A PARTICULAR PURPOSE.
   
   FOR NON-COMMERCIAL, ACADEMIA USE ONLY.
   
   Cite this work as:
   S. Grimme, C. Bannwarth, P. Shushkov, J. Comput. Theory Chem., 2017,
   13, 1989-2009.
   C. Bannwarth, S. Ehlert and S. Grimme., ChemRxiv, 2018, preprint.
   http://doi.org/10.26434/chemrxiv.7246238.v1
   
   for sTDA-xTB:
   S. Grimme and C. Bannwarth, J. Chem. Phys., 2016, 145, 054103.
   
   in the mass-spec context:
   V. Asgeirsson, C. Bauer and S. Grimme, Chem. Sci., 2017, 8, 4879.
   
   if GBSA is used:
   P. Shushkov, F. März and S. Grimme, unpublished.
   
   for ANC optimizer:
   S. Grimme, unpublished.
   Rational Function algorithm used in ANCopt:
   F. Eckert, P. Pulay, H.-J. Werner, J. Comput. Chem., 1997, 18, 1473.
   
   with help from (in alphabetical order)
   C. Bannwarth, F. Bohle, G. Brandenburg, E. Caldeweyher, M. Checinski,
   S. Dohm, S. Ehlert, S. Ehrlich, F. März, H. Neugebauer, J. Pisarek,
   P. Pracht, P. Shushkov, and S. Spicher.
   
 * started run on 2019/03/14 at 16:03:17.107     
========================================================================
 # omp threads = 1
========================================================================
number of atoms            : 405
number of electrons        : 1106
charge                     : -2
spin                       : .0
first test random number   : .1734

########################################################################
# WARNING! Please study the warnings concerning your input carefully
#  - XTBPATH is not set, using XTBHOME instead
########################################################################

           ------------------------------------------------- 
          |                 G F N 2 - x T B                 |
          | Geometry, Frequencies, Noncovalent interactions |
          |            JCTC 2018 parametrisation            |
           ------------------------------------------------- 
 
      method parameters     
 k(s)        :  1.8500
 k(p)        :  2.2300
 k(d)        :  2.2300
 k(f)        :  2.0000
 kEN (H0ij)  : -2.0000
 D4 a1       :  0.5200
 D4 a2       :  5.0000
 D4 s6       :  1.0000
 D4 s8       :  2.7000
 D4 s9       :  5.0000
 alphaj      :  2.0000

 Solvent             : h2o
 Using internal parameter file: .param_gbsa2_h2o
 Gsolv ref. state (COSMO-RS): gsolv [1 M gas/solution]
 temperature (mdtemp)       :    298.150000000000     
 dielectric constant        :    80.2000000000000     
 rho                        :    1.00000000000000     
 mass                       :    18.0000000000000     
 surface tension            :    15.5689454083859     
 probe radius               :   0.975313790000000     
 vdW radii scaling          :    1.00000000000000     
 Gshift (Eh)                :   1.857443126794793E-003
 c1                         :    1.55243817000000     
 soset                      :   0.130326360000000     
 HB correction              :  T

            Z     q(EN)     CN     RAES       Cart. coordinates
     1  N   5.0   -0.23    3.20    1.96    23.01710    22.76398    51.79277
     2  C   4.0    0.03    4.14    3.87    23.30339    23.94082    49.34097
     3  C   4.0    0.07    3.18    3.03    26.10449    24.10047    48.60660
     4  O   6.0   -0.32    1.12    1.80    26.78840    24.03939    46.38781
     5  C   4.0   -0.07    4.09    3.78    21.93294    26.46461    49.27120
     6  H   1.0    0.07    1.02    1.43    22.26319    23.77738    53.24817
     7  H   1.0    0.04    1.06    1.44    22.46227    22.66944    47.92963
     8  H   1.0    0.05    1.00    1.43    22.21408    27.37934    47.45606
     9  H   1.0    0.04    1.00    1.43    19.92288    26.12909    49.52122
    10  H   1.0    0.04    1.00    1.43    22.61058    27.70607    50.76089
    11  N   5.0   -0.21    3.24    1.97    28.31445    19.15187    43.78277
    12  C   4.0    0.03    4.23    4.05    27.86023    19.85350    41.16984
    13  C   4.0    0.14    3.42    3.09    30.09876    21.36356    40.11076
    14  O   6.0   -0.31    1.24    1.80    30.71705    21.23557    37.88392
    15  C   4.0   -0.07    4.11    3.82    25.43104    21.38484    40.97574
    16  H   1.0    0.09    1.03    1.43    27.04709    19.65299    45.11682
    17  H   1.0    0.04    1.05    1.44    27.73403    18.14101    39.99635
    18  H   1.0    0.04    1.00    1.43    25.11306    21.90070    39.01696
    19  H   1.0    0.04    1.00    1.43    23.85450    20.24209    41.62733
    20  H   1.0    0.06    1.00    1.43    25.57378    23.08001    42.12737
    21  N   5.0   -0.15    3.47    2.06    31.22698    22.96679    41.71780
    22  C   4.0    0.03    4.43    4.43    33.37955    24.42217    40.86490
    23  C   4.0    0.08    3.27    3.05    35.67033    22.75017    40.35607
    24  O   6.0   -0.32    1.16    1.80    37.21243    23.28706    38.71124
    25  C   4.0   -0.03    4.33    4.25    34.23049    26.48230    42.72576
    26  C   4.0   -0.05    4.20    3.99    31.99699    27.81178    44.00435
    27  C   4.0   -0.07    4.12    3.84    35.97149    28.35893    41.39168
    28  C   4.0   -0.08    4.00    3.63    30.16472    29.28086    42.34170
    29  H   1.0    0.09    1.07    1.44    30.83857    22.86813    43.58019
    30  H   1.0    0.05    1.06    1.44    32.83211    25.28434    39.06310
    31  H   1.0    0.03    1.06    1.44    35.28536    25.50757    44.21785
    32  H   1.0    0.05    1.04    1.43    30.91483    26.39016    45.02345
    33  H   1.0    0.03    1.03    1.43    32.79397    29.12574    45.37587
    34  H   1.0    0.04    1.00    1.43    36.56337    29.80555    42.71941
    35  H   1.0    0.05    1.00    1.43    37.64214    27.44115    40.62491
    36  H   1.0    0.04    1.00    1.43    34.98696    29.25122    39.82945
    37  H   1.0    0.04    1.00    1.43    28.57866    29.85767    43.51496
    38  H   1.0    0.04    1.00    1.43    31.05480    30.95572    41.55878
    39  H   1.0    0.04    1.00    1.43    29.40627    28.12980    40.82121
    40  N   5.0   -0.20    3.21    1.96    35.76275    20.96178    33.92459
    41  C   4.0    0.03    4.15    3.91    36.49359    22.87855    32.11823
    42  C   4.0    0.07    3.20    3.04    39.20209    22.55454    31.15901
    43  O   6.0   -0.31    1.15    1.80    39.78910    23.16535    29.00818
    44  C   4.0   -0.07    4.13    3.86    36.26749    25.46416    33.34416
    45  H   1.0    0.12    1.06    1.44    35.61706    21.49389    35.75303
    46  H   1.0    0.05    1.05    1.44    35.24643    22.69454    30.47109
    47  H   1.0    0.04    1.00    1.43    36.81288    26.94634    32.03445
    48  H   1.0    0.04    1.01    1.43    34.32752    25.72087    33.95321
    49  H   1.0    0.06    1.01    1.43    37.48718    25.52835    34.99258
    50  N   5.0   -0.21    3.27    1.97    40.50835    16.45119    25.65389
    51  C   4.0    0.04    4.33    4.25    40.02043    16.49944    22.96370
    52  C   4.0    0.16    3.39    3.08    42.13189    17.83329    21.46730
    53  O   6.0   -0.29    1.23    1.80    42.13688    17.83247    19.16395
    54  C   4.0   -0.03    4.33    4.25    37.49622    17.77739    22.39582
    55  C   4.0    0.15    3.23    3.04    35.32252    16.32195    23.58912
    56  O   6.0   -0.30    1.20    1.80    34.75041    14.19084    22.91599
    57  N   5.0   -0.19    3.18    1.95    34.00233    17.61450    25.32734
    58  H   1.0    0.09    1.02    1.43    39.77209    17.83235    26.74333
    59  H   1.0    0.06    1.05    1.44    39.95047    14.53239    22.31164
    60  H   1.0    0.05    1.09    1.44    37.55262    19.72234    23.06259
    61  H   1.0    0.06    1.03    1.43    37.24493    17.76012    20.35093
    62  H   1.0    0.10    1.03    1.43    32.60722    16.74464    26.29050
    63  H   1.0    0.08    1.03    1.43    34.64827    19.24880    26.05348
    64  N   5.0   -0.12    3.51    2.09    43.85431    19.04032    22.86625
    65  C   4.0    0.03    4.29    4.18    45.93959    20.41261    21.76488
    66  C   4.0    0.07    3.19    3.03    48.27660    18.71348    21.57141
    67  O   6.0   -0.29    1.13    1.80    48.40956    16.66223    22.61868
    68  C   4.0   -0.05    4.32    4.24    46.34030    22.91616    23.17210
    69  C   4.0   -0.02    4.17    3.94    46.86629    22.81102    26.02035
    70  C   4.0   -0.07    4.10    3.80    49.59758    22.12938    26.64183
    71  C   4.0   -0.07    4.12    3.85    46.27572    25.41958    27.11507
    72  H   1.0    0.09    1.09    1.44    43.86600    18.81254    24.75572
    73  H   1.0    0.06    1.07    1.44    45.32094    20.83640    19.82905
    74  H   1.0    0.04    1.03    1.43    47.88735    23.95488    22.29716
    75  H   1.0    0.05    1.04    1.43    44.59282    23.98595    22.91547
    76  H   1.0    0.05    1.05    1.44    45.62890    21.41483    26.92217
    77  H   1.0    0.04    1.00    1.43    49.79494    21.87288    28.67309
    78  H   1.0    0.05    1.00    1.43    50.16369    20.36480    25.75463
    79  H   1.0    0.05    1.00    1.43    50.83835    23.65490    26.04238
    80  H   1.0    0.04    1.00    1.43    46.79012    25.48430    29.09688
    81  H   1.0    0.06    1.01    1.43    47.38752    26.85641    26.15208
    82  H   1.0    0.05    1.00    1.43    44.27792    25.87366    26.93766
    83  N   5.0   -0.22    3.20    1.95    57.00816    25.10134    19.74633
    84  C   4.0    0.03    4.22    4.05    55.31217    27.11208    20.51253
    85  C   4.0    0.09    3.28    3.05    55.93769    27.95147    23.21925
    86  O   6.0   -0.28    1.13    1.80    56.28873    30.18562    23.73261
    87  C   4.0   -0.05    4.25    4.10    52.55916    26.28400    20.30399
    88  C   4.0   -0.04    4.17    3.94    50.72699    28.48355    20.61248
    89  C   4.0    0.26    3.13    3.03    50.78686    29.74635    23.29114
    90  O   6.0   -0.31    1.22    1.80    51.29413    28.36441    25.12191
    91  O   6.0   -0.29    1.16    1.80    50.22301    32.02960    23.36835
    92  H   1.0    0.07    1.02    1.43    56.26864    23.49519    19.01747
    93  H   1.0    0.04    1.05    1.44    55.63145    28.75508    19.27741
    94  H   1.0    0.03    1.03    1.43    52.26479    25.40311    18.45563
    95  H   1.0    0.04    1.03    1.43    52.20151    24.87420    21.76561
    96  H   1.0    0.05    1.02    1.43    51.04578    29.94934    19.19544
    97  H   1.0    0.04    1.02    1.43    48.79058    27.80276    20.36477
    98  N   5.0   -0.22    3.19    1.95    29.20254    38.80777    45.05328
    99  C   4.0    0.03    4.13    3.86    27.94743    37.90544    42.78478
   100  C   4.0    0.07    3.19    3.04    28.09256    39.89219    40.66747
   101  O   6.0   -0.32    1.12    1.80    28.69902    39.34176    38.50702
   102  C   4.0   -0.08    4.10    3.81    25.19452    37.28670    43.34934
   103  H   1.0    0.07    1.02    1.43    28.26436    38.69727    46.72264
   104  H   1.0    0.04    1.05    1.44    28.92384    36.21517    42.07814
   105  H   1.0    0.04    1.00    1.43    24.23648    36.75644    41.61323
   106  H   1.0    0.04    1.00    1.43    25.07527    35.72694    44.68077
   107  H   1.0    0.04    1.00    1.43    24.24760    38.92122    44.15693
   108  N   5.0   -0.21    3.23    1.96    34.87550    41.29837    38.31129
   109  C   4.0    0.03    4.37    4.32    35.66273    39.22591    36.70310
   110  C   4.0    0.14    3.46    3.10    35.01535    39.82222    33.95390
   111  O   6.0   -0.32    1.27    1.80    36.58460    39.82156    32.25390
   112  C   4.0    0.05    4.25    4.09    34.36545    36.74318    37.53956
   113  O   6.0   -0.27    2.11    1.84    35.04884    36.09067    40.02480
   114  C   4.0   -0.07    4.10    3.81    35.13826    34.58215    35.80052
   115  H   1.0    0.08    1.03    1.43    33.90152    40.89725    39.91025
   116  H   1.0    0.04    1.05    1.44    37.71616    38.97717    36.84498
   117  H   1.0    0.05    1.04    1.43    32.30793    37.02168    37.42501
   118  H   1.0    0.11    1.02    1.43    34.32599    37.30746    41.19262
   119  H   1.0    0.04    1.00    1.43    34.34094    32.83451    36.51227
   120  H   1.0    0.04    1.01    1.43    34.44640    34.92426    33.90394
   121  H   1.0    0.04    1.00    1.43    37.17994    34.38421    35.74523
   122  N   5.0   -0.15    3.49    2.07    32.56399    40.26632    33.56007
   123  C   4.0    0.03    4.25    4.10    31.56703    40.67117    31.04021
   124  C   4.0    0.09    3.27    3.05    33.20090    42.59272    29.63745
   125  O   6.0   -0.32    1.18    1.80    33.96760    42.20190    27.48403
   126  C   4.0   -0.08    4.10    3.80    28.82053    41.51550    31.20789
   127  H   1.0    0.09    1.07    1.44    31.33972    40.32481    35.02598
   128  H   1.0    0.05    1.05    1.44    31.69740    38.89629    29.97292
   129  H   1.0    0.04    1.00    1.43    27.99147    41.59312    29.33381
   130  H   1.0    0.05    1.00    1.43    27.78732    40.13734    32.32784
   131  H   1.0    0.04    1.00    1.43    28.71262    43.33839    32.14852
   132  N   5.0   -0.20    3.22    1.96    39.65477    40.48972    27.29331
   133  C   4.0    0.03    4.31    4.22    39.29967    38.54000    25.41538
   134  C   4.0    0.14    3.44    3.09    38.46122    39.62636    22.86955
   135  O   6.0   -0.33    1.35    1.80    39.60248    39.05869    20.92543
   136  C   4.0   -0.04    4.37    4.33    37.34712    36.60098    26.27275
   137  C   4.0   -0.02    4.17    3.94    38.04830    35.05992    28.62908
   138  C   4.0   -0.08    4.12    3.84    35.85950    33.26508    29.20523
   139  C   4.0   -0.08    4.10    3.81    40.46090    33.51483    28.28299
   140  H   1.0    0.11    1.04    1.43    38.50817    40.48948    28.82722
   141  H   1.0    0.04    1.05    1.44    41.13256    37.63462    25.06006
   142  H   1.0    0.06    1.03    1.43    35.60090    37.63408    26.63463
   143  H   1.0    0.04    1.03    1.43    37.03600    35.29935    24.70627
   144  H   1.0    0.06    1.06    1.44    38.29212    36.34994    30.22422
   145  H   1.0    0.03    1.00    1.43    36.26988    32.16089    30.88497
   146  H   1.0    0.04    1.00    1.43    34.10365    34.28913    29.50613
   147  H   1.0    0.04    1.00    1.43    35.58669    31.96442    27.63869
   148  H   1.0    0.04    1.00    1.43    40.93861    32.55371    30.03508
   149  H   1.0    0.04    1.00    1.43    40.20034    32.09115    26.82452
   150  H   1.0    0.04    1.00    1.43    42.06453    34.68622    27.76974
   151  N   5.0   -0.15    3.45    2.04    36.41124    41.07671    22.82912
   152  C   4.0    0.04    4.35    4.29    35.46802    41.97873    20.42415
   153  C   4.0    0.08    3.23    3.04    37.14928    43.98273    19.17038
   154  O   6.0   -0.32    1.13    1.80    36.75936    44.61650    16.98562
   155  C   4.0   -0.05    4.26    4.12    32.76475    42.97241    20.58524
   156  C   4.0   -0.04    4.19    3.99    32.55675    45.32395    22.25403
   157  C   4.0   -0.01    4.21    4.02    30.10743    46.79011    21.73485
   158  N   5.0   -0.15    3.40    2.02    29.76662    48.83659    23.52939
   159  C   4.0    0.09    3.35    3.06    28.92981    48.53912    25.87897
   160  N   5.0   -0.19    3.26    1.97    28.19396    46.29074    26.72822
   161  N   5.0   -0.20    3.24    1.97    28.71590    50.55604    27.37129
   162  H   1.0    0.11    1.10    1.44    35.53914    41.58931    24.45903
   163  H   1.0    0.06    1.06    1.44    35.52594    40.37476    19.10695
   164  H   1.0    0.05    1.03    1.43    32.19947    43.42677    18.65590
   165  H   1.0    0.04    1.03    1.43    31.56032    41.45687    21.28404
   166  H   1.0    0.06    1.03    1.43    32.65379    44.76683    24.23486
   167  H   1.0    0.04    1.03    1.43    34.16769    46.56499    21.90216
   168  H   1.0    0.03    1.03    1.43    30.17120    47.61882    19.84984
   169  H   1.0    0.04    1.02    1.43    28.46125    45.54934    21.80896
   170  H   1.0    0.07    1.07    1.44    30.53918    50.51444    23.04441
   171  H   1.0    0.08    1.03    1.43    28.41742    44.70891    25.69430
   172  H   1.0    0.08    1.03    1.43    27.50544    46.12206    28.49596
   173  H   1.0    0.07    1.03    1.43    29.16815    52.28532    26.72877
   174  H   1.0    0.07    1.03    1.43    28.19399    50.38734    29.19784
   175  N   5.0   -0.20    3.17    1.95    44.48215    38.14374    19.88607
   176  C   4.0    0.01    4.16    3.93    43.95472    35.49435    19.48623
   177  C   4.0    0.15    3.31    3.05    42.62216    34.96415    16.95815
   178  O   6.0   -0.31    1.24    1.80    43.14602    33.12038    15.68063
   179  H   1.0    0.10    1.04    1.43    43.50971    39.08595    21.22889
   180  H   1.0    0.05    1.02    1.43    45.73049    34.43558    19.52120
   181  H   1.0    0.05    1.03    1.43    42.74252    34.81529    21.00579
   182  N   5.0   -0.14    3.49    2.07    40.74899    36.59343    16.47543
   183  C   4.0    0.03    4.37    4.33    39.36221    36.78206    14.11234
   184  C   4.0    0.16    3.42    3.09    38.26430    34.20601    13.32149
   185  O   6.0   -0.31    1.25    1.80    38.52135    33.34506    11.20752
   186  C   4.0   -0.03    4.37    4.33    40.96114    37.82056    11.92893
   187  C   4.0   -0.03    4.17    3.95    42.18724    40.39554    12.40639
   188  C   4.0   -0.09    4.12    3.83    43.90749    41.02833    10.17791
   189  C   4.0   -0.07    4.11    3.82    40.24505    42.49908    12.72549
   190  H   1.0    0.11    1.12    1.45    40.53401    38.01392    17.74156
   191  H   1.0    0.04    1.05    1.44    37.78032    38.06753    14.46542
   192  H   1.0    0.06    1.03    1.43    42.42973    36.43762    11.49657
   193  H   1.0    0.05    1.03    1.43    39.74831    37.95221    10.26798
   194  H   1.0    0.05    1.05    1.44    43.34363    40.28476    14.11540
   195  H   1.0    0.03    1.00    1.43    44.83956    42.83271    10.48859
   196  H   1.0    0.04    1.00    1.43    45.34842    39.58609     9.92572
   197  H   1.0    0.03    1.00    1.43    42.78902    41.15493     8.45900
   198  H   1.0    0.04    1.00    1.43    41.18680    44.29113    13.09397
   199  H   1.0    0.04    1.00    1.43    39.12207    42.70559    11.01811
   200  H   1.0    0.06    1.01    1.43    38.97564    42.16322    14.30057
   201  N   5.0   -0.13    3.47    2.06    36.86847    33.04011    15.10779
   202  C   4.0    0.03    4.43    4.43    35.90275    30.51998    14.71178
   203  C   4.0    0.14    3.47    3.10    33.07754    30.41664    15.22367
   204  O   6.0   -0.31    1.32    1.80    32.08329    31.54104    16.98107
   205  C   4.0   -0.04    4.30    4.20    37.16047    28.62785    16.51941
   206  C   4.0   -0.03    4.23    4.07    39.93664    28.19113    15.87396
   207  C   4.0    0.15    3.22    3.04    41.23227    26.75637    17.99801
   208  O   6.0   -0.30    1.21    1.80    40.41625    24.77568    18.85898
   209  N   5.0   -0.19    3.19    1.95    43.32513    27.88816    18.87437
   210  H   1.0    0.09    1.06    1.44    36.78133    33.73778    16.87902
   211  H   1.0    0.06    1.07    1.44    36.30411    30.03375    12.74435
   212  H   1.0    0.05    1.03    1.43    37.01751    29.39286    18.43077
   213  H   1.0    0.04    1.03    1.43    36.16386    26.82586    16.47750
   214  H   1.0    0.05    1.03    1.43    40.08709    27.08633    14.14143
   215  H   1.0    0.07    1.06    1.44    40.89642    29.98383    15.57377
   216  H   1.0    0.10    1.03    1.43    43.95254    29.52234    18.12464
   217  H   1.0    0.09    1.03    1.43    44.30462    27.11297    20.31506
   218  N   5.0   -0.15    3.50    2.07    31.78804    28.83239    13.73627
   219  C   4.0    0.03    4.40    4.38    29.08547    28.49527    14.09261
   220  C   4.0    0.16    3.46    3.10    28.57151    27.62327    16.80562
   221  O   6.0   -0.31    1.27    1.80    26.74833    28.34872    18.03169
   222  C   4.0   -0.04    4.26    4.11    28.06488    26.72141    12.03592
   223  C   4.0   -0.03    4.16    3.92    25.31489    27.20379    11.34395
   224  C   4.0    0.25    3.11    3.02    24.65178    25.50757     9.01078
   225  O   6.0   -0.30    1.16    1.80    23.99681    23.29391     9.47662
   226  O   6.0   -0.30    1.16    1.80    24.88367    26.50474     6.89076
   227  H   1.0    0.07    1.06    1.44    32.61550    28.03169    12.21463
   228  H   1.0    0.06    1.06    1.44    28.15845    30.34258    13.90641
   229  H   1.0    0.05    1.04    1.43    29.18246    27.02515    10.32338
   230  H   1.0    0.05    1.02    1.43    28.28245    24.74320    12.57767
   231  H   1.0    0.05    1.02    1.43    24.05829    26.70940    12.89765
   232  H   1.0    0.05    1.02    1.43    25.03315    29.17303    10.80543
   233  N   5.0   -0.14    3.51    2.08    30.33765    26.12422    17.84768
   234  C   4.0    0.03    4.40    4.38    30.04853    25.20627    20.41755
   235  C   4.0    0.15    3.46    3.10    29.85789    27.32998    22.39744
   236  O   6.0   -0.32    1.31    1.80    28.98949    26.88516    24.49901
   237  C   4.0   -0.05    4.31    4.21    32.18528    23.37661    21.11178
   238  C   4.0   -0.03    4.05    3.72    34.80847    24.59651    21.15367
   239  S   6.0   -0.01    2.59    3.10    36.52593    24.13676    24.10517
   240  C   4.0   -0.06    3.89    3.45    34.61469    26.01390    26.24856
   241  H   1.0    0.07    1.07    1.44    31.70591    25.32677    16.78774
   242  H   1.0    0.05    1.06    1.44    28.26167    24.15324    20.50859
   243  H   1.0    0.05    1.05    1.44    31.74840    22.59191    22.96679
   244  H   1.0    0.04    1.03    1.43    32.15230    21.80355    19.78046
   245  H   1.0    0.06    1.09    1.44    36.08324    23.75865    19.77343
   246  H   1.0    0.05    1.07    1.44    34.72755    26.62564    20.81495
   247  H   1.0    0.05    1.06    1.44    35.68239    26.04706    27.99115
   248  H   1.0    0.04    1.04    1.43    34.42658    27.90913    25.49487
   249  H   1.0    0.06    1.03    1.43    32.76726    25.17279    26.55446
   250  N   5.0   -0.14    3.51    2.08    30.71184    29.62048    21.77706
   251  C   4.0    0.03    4.35    4.29    30.47411    31.70888    23.56223
   252  C   4.0    0.16    3.44    3.09    27.70221    31.99225    24.39678
   253  O   6.0   -0.31    1.22    1.80    27.06578    32.35683    26.58172
   254  C   4.0   -0.07    4.10    3.79    31.52004    34.13522    22.41299
   255  H   1.0    0.11    1.12    1.45    31.21551    30.05064    19.97413
   256  H   1.0    0.05    1.05    1.44    31.55827    31.23527    25.26403
   257  H   1.0    0.04    1.00    1.43    31.38009    35.65394    23.78389
   258  H   1.0    0.05    1.00    1.43    33.49900    33.85697    21.93464
   259  H   1.0    0.06    1.00    1.43    30.52120    34.65425    20.69743
   260  N   5.0   -0.14    3.42    2.03    26.05665    31.87977    22.47293
   261  C   4.0    0.02    4.25    4.10    23.35888    31.90313    22.89953
   262  C   4.0    0.16    3.38    3.07    22.39607    29.49129    24.15092
   263  O   6.0   -0.31    1.33    1.80    20.78818    29.52390    25.81869
   264  H   1.0    0.10    1.09    1.44    26.69417    31.38297    20.74259
   265  H   1.0    0.07    1.03    1.43    22.86890    33.52171    24.09526
   266  H   1.0    0.05    1.03    1.43    22.40591    32.12142    21.08913
   267  N   5.0   -0.14    3.49    2.07    23.44110    27.34127    23.32859
   268  C   4.0    0.04    4.43    4.43    22.81695    24.96225    24.55246
   269  C   4.0    0.17    3.59    3.16    22.92263    25.29044    27.42845
   270  O   6.0   -0.31    1.27    1.80    21.31151    24.38957    28.82232
   271  C   4.0   -0.04    4.28    4.16    24.63942    22.85668    23.78512
   272  C   4.0   -0.04    4.24    4.09    24.11732    20.40620    25.22807
   273  C   4.0    0.16    3.25    3.04    25.38976    20.37185    27.80949
   274  O   6.0   -0.30    1.21    1.80    27.59586    20.98660    28.10242
   275  N   5.0   -0.18    3.18    1.95    23.97451    19.44067    29.69900
   276  H   1.0    0.10    1.07    1.44    24.55335    27.36217    21.77305
   277  H   1.0    0.05    1.05    1.44    20.87354    24.41599    24.06293
   278  H   1.0    0.04    1.02    1.43    24.44557    22.53177    21.75762
   279  H   1.0    0.07    1.04    1.43    26.56486    23.45747    24.21388
   280  H   1.0    0.04    1.03    1.43    22.09338    20.09230    25.41494
   281  H   1.0    0.04    1.03    1.43    24.93605    18.83032    24.17693
   282  H   1.0    0.08    1.03    1.43    22.08438    19.31034    29.55974
   283  H   1.0    0.09    1.03    1.43    24.73781    19.33169    31.44265
   284  N   5.0   -0.13    3.53    2.10    24.91506    26.57326    28.29840
   285  C   4.0    0.04    4.48    4.51    25.19140    26.88477    31.00371
   286  C   4.0    0.16    3.52    3.13    23.00382    28.47019    32.00044
   287  O   6.0   -0.32    1.32    1.80    21.74698    27.84788    33.85911
   288  C   4.0   -0.05    4.36    4.31    27.70591    28.11010    31.69768
   289  C   4.0   -0.02    4.20    4.00    27.99070    28.41513    34.56825
   290  C   4.0   -0.07    4.12    3.84    27.65248    25.89284    35.93106
   291  C   4.0   -0.08    4.11    3.82    30.55326    29.58936    35.15595
   292  H   1.0    0.11    1.09    1.44    26.35911    27.05507    27.13760
   293  H   1.0    0.06    1.06    1.44    25.02567    25.02547    31.89597
   294  H   1.0    0.05    1.03    1.43    29.23350    26.92846    30.97441
   295  H   1.0    0.05    1.03    1.43    27.83096    29.94660    30.76617
   296  H   1.0    0.04    1.06    1.44    26.52965    29.70151    35.24686
   297  H   1.0    0.04    1.00    1.43    28.07331    26.06528    37.93366
   298  H   1.0    0.05    1.00    1.43    25.71225    25.22729    35.79720
   299  H   1.0    0.06    1.00    1.43    28.88981    24.45177    35.14784
   300  H   1.0    0.03    1.00    1.43    30.78044    29.82176    37.17932
   301  H   1.0    0.04    1.01    1.43    32.05721    28.38577    34.45756
   302  H   1.0    0.04    1.00    1.43    30.73105    31.41969    34.24970
   303  N   5.0   -0.14    3.52    2.09    22.60184    30.61714    30.76007
   304  C   4.0    0.03    4.42    4.42    20.59521    32.33368    31.48883
   305  C   4.0    0.16    3.49    3.11    18.09228    30.92720    31.93172
   306  O   6.0   -0.31    1.32    1.80    16.78364    31.39679    33.81025
   307  C   4.0   -0.04    4.28    4.16    20.24886    34.39915    29.50302
   308  C   4.0   -0.04    4.22    4.04    22.50810    36.20942    29.40755
   309  C   4.0    0.15    3.22    3.04    22.10889    38.21559    27.38669
   310  O   6.0   -0.30    1.20    1.80    21.69232    37.69013    25.17575
   311  N   5.0   -0.20    3.18    1.95    22.35776    40.60142    28.20767
   312  H   1.0    0.10    1.07    1.44    23.69976    31.05593    29.25554
   313  H   1.0    0.05    1.06    1.44    21.10334    33.19724    33.30416
   314  H   1.0    0.07    1.03    1.43    19.96815    33.49996    27.67126
   315  H   1.0    0.05    1.03    1.43    18.53302    35.43946    29.97231
   316  H   1.0    0.04    1.03    1.43    22.79288    37.08259    31.24943
   317  H   1.0    0.06    1.03    1.43    24.21742    35.17470    28.88787
   318  H   1.0    0.07    1.03    1.43    22.57796    40.97734    30.05763
   319  H   1.0    0.09    1.03    1.43    22.05189    42.04341    26.99853
   320  N   5.0   -0.13    3.48    2.07    17.43823    29.27092    30.16584
   321  C   4.0    0.04    4.32    4.24    15.18572    27.69840    30.28319
   322  C   4.0    0.16    3.45    3.10    14.60587    26.83617    32.99062
   323  O   6.0   -0.28    1.22    1.80    12.46359    26.92146    33.85118
   324  C   4.0   -0.07    4.12    3.83    15.52180    25.41060    28.56002
   325  H   1.0    0.11    1.10    1.44    18.57929    29.05834    28.63486
   326  H   1.0    0.05    1.05    1.44    13.52330    28.78024    29.67021
   327  H   1.0    0.04    1.00    1.43    13.88090    24.18223    28.67096
   328  H   1.0    0.05    1.00    1.43    15.74771    26.05870    26.62395
   329  H   1.0    0.07    1.01    1.43    17.19659    24.35347    29.09873
   330  N   5.0   -0.14    3.50    2.08    16.57585    25.84215    34.23872
   331  C   4.0    0.04    4.33    4.26    16.34915    24.94684    36.80534
   332  C   4.0    0.15    3.43    3.09    16.91244    26.96040    38.81541
   333  O   6.0   -0.28    1.26    1.80    15.98721    26.79398    40.93788
   334  C   4.0   -0.07    4.11    3.82    18.07580    22.67065    37.20009
   335  H   1.0    0.11    1.09    1.44    18.33812    25.95570    33.50086
   336  H   1.0    0.07    1.06    1.44    14.36919    24.40351    37.10067
   337  H   1.0    0.05    1.00    1.43    17.91178    22.02255    39.13932
   338  H   1.0    0.04    1.00    1.43    17.51573    21.15290    35.93649
   339  H   1.0    0.05    1.00    1.43    20.02009    23.20578    36.81203
   340  N   5.0   -0.13    3.47    2.06    18.48231    28.83432    38.16737
   341  C   4.0    0.04    4.49    4.52    19.26077    30.63972    40.07391
   342  C   4.0    0.17    3.53    3.13    17.01364    31.75152    41.50418
   343  O   6.0   -0.28    1.23    1.80    17.08086    32.04572    43.79135
   344  C   4.0    0.05    4.26    4.11    20.71635    32.94715    39.04312
   345  O   6.0   -0.25    2.14    1.84    19.31822    34.35211    37.28098
   346  C   4.0   -0.08    4.06    3.73    23.30812    32.18176    38.01918
   347  H   1.0    0.11    1.10    1.44    19.30850    28.81637    36.43629
   348  H   1.0    0.05    1.05    1.44    20.45045    29.68043    41.47722
   349  H   1.0    0.05    1.05    1.44    20.96496    34.21821    40.66668
   350  H   1.0    0.15    1.08    1.44    18.40166    33.21928    36.14299
   351  H   1.0    0.05    1.00    1.43    24.18921    33.80123    37.11507
   352  H   1.0    0.03    1.00    1.43    24.51851    31.52788    39.53978
   353  H   1.0    0.06    1.01    1.43    23.08771    30.66446    36.66122
   354  N   5.0   -0.13    3.54    2.11    15.19942    32.71489    40.01658
   355  C   4.0    0.04    4.46    4.48    13.06171    34.01903    41.10868
   356  C   4.0    0.16    3.43    3.09    11.60292    32.22943    42.85995
   357  O   6.0   -0.29    1.22    1.80    11.09567    32.82343    45.02929
   358  C   4.0   -0.04    4.31    4.21    11.33319    35.03608    39.03148
   359  C   4.0    0.06    3.77    3.30    12.52020    37.13229    37.56902
   360  N   5.0   -0.18    2.53    1.90    13.06749    39.41790    38.63663
   361  C   4.0   -0.01    3.60    3.16    13.14684    37.18298    35.05657
   362  C   4.0    0.06    3.64    3.19    13.99467    40.80215    36.81446
   363  N   5.0   -0.12    3.45    2.04    14.08378    39.54110    34.60279
   364  H   1.0    0.10    1.07    1.44    15.08737    32.22046    38.17827
   365  H   1.0    0.06    1.05    1.44    13.76495    35.57008    42.28943
   366  H   1.0    0.05    1.03    1.43    10.83731    33.49104    37.75313
   367  H   1.0    0.05    1.03    1.43     9.59748    35.70209    39.92695
   368  H   1.0    0.05    1.02    1.43    13.00429    35.73854    33.64841
   369  H   1.0    0.04    1.02    1.43    14.57936    42.72106    37.05383
   370  H   1.0    0.07    1.04    1.43    14.65552    40.22891    32.91302
   371  N   5.0   -0.13    3.50    2.08    10.95229    30.07176    41.71746
   372  C   4.0    0.05    4.35    4.29     9.59578    27.94795    42.78014
   373  C   4.0    0.25    3.22    3.04     8.38124    26.48065    40.49151
   374  O   6.0   -0.30    1.19    1.80     8.67102    24.14694    40.44883
   375  C   4.0   -0.03    4.29    4.18     7.54100    28.80543    44.62268
   376  C   4.0   -0.04    4.24    4.08     5.82891    26.61761    45.41743
   377  C   4.0    0.15    3.25    3.04     7.34755    24.45214    46.52347
   378  O   6.0   -0.30    1.20    1.80     8.51259    24.64871    48.51004
   379  N   5.0   -0.19    3.19    1.95     7.13647    22.23825    45.26853
   380  O   6.0   -0.29    1.18    1.80     7.21438    27.79483    38.93278
   381  H   1.0    0.10    1.09    1.44    11.45323    29.83540    39.89327
   382  H   1.0    0.07    1.04    1.43    10.93570    26.68888    43.75420
   383  H   1.0    0.07    1.03    1.43     8.42733    29.63718    46.28629
   384  H   1.0    0.05    1.03    1.43     6.42665    30.27386    43.69282
   385  H   1.0    0.04    1.03    1.43     4.55930    27.29615    46.89142
   386  H   1.0    0.05    1.03    1.43     4.73120    25.96464    43.80270
   387  H   1.0    0.10    1.05    1.44     6.75710    22.30578    43.39790
   388  H   1.0    0.09    1.03    1.43     8.28996    20.81349    45.79552
   389  H   1.0    0.09    1.07    1.44    22.00036    21.40746    51.65614
   390  H   1.0    0.04    1.05    1.44    27.42558    24.25860    49.94853
   391  H   1.0    0.08    1.07    1.44    28.41042    17.45841    43.90742
   392  H   1.0    0.05    1.05    1.44    35.93871    21.18013    41.37294
   393  H   1.0    0.10    1.07    1.44    34.23346    20.34409    33.50949
   394  H   1.0    0.05    1.05    1.44    40.52732    21.83280    32.29652
   395  H   1.0    0.10    1.07    1.44    39.89695    15.00883    26.31598
   396  H   1.0    0.04    1.05    1.44    49.76992    19.27254    20.55725
   397  H   1.0    0.08    1.07    1.44    58.05893    25.67447    18.53803
   398  H   1.0    0.06    1.04    1.44    56.06527    26.66839    24.60073
   399  H   1.0    0.08    1.07    1.44    30.63384    37.92295    45.30033
   400  H   1.0    0.05    1.05    1.44    27.68392    41.69959    41.03810
   401  H   1.0    0.09    1.07    1.44    36.24446    42.15656    38.84232
   402  H   1.0    0.05    1.05    1.44    33.67290    44.22058    30.47312
   403  H   1.0    0.09    1.07    1.44    41.23075    40.38946    27.92479
   404  H   1.0    0.05    1.04    1.44    38.56534    44.77061    20.14252
   405  H   1.0    0.09    1.07    1.44    46.11367    38.33781    20.32542

  Z AO/shell   Hii/eV     exponent
  1     Wed Apr 25 08:07:45 CEST 2018   EN: 2.200 GM2: 0.406  GM3: 0.0800  RAES: 1.40
     1s    -10.707211    1.230000
  6     Wed Apr 25 08:07:45 CEST 2018   EN: 2.550 GM2: 0.538  GM3: 0.1500  RAES: 3.00
     2s    -13.970922    2.096432
     2p    -10.063292    1.800000
  7     Wed Apr 25 08:07:45 CEST 2018   EN: 3.040 GM2: 0.461  GM3:-0.0640  RAES: 1.90
     2s    -16.686243    2.339881
     2p    -12.523956    2.014332
  8     Wed Apr 25 08:07:45 CEST 2018   EN: 3.440 GM2: 0.452  GM3:-0.0517  RAES: 1.80
     2s    -20.229985    2.439742
     2p    -15.503117    2.137023
 16     Tue Apr 24 11:44:34 CEST 2018   EN: 2.580 GM2: 0.340  GM3:-0.0502  RAES: 3.10
     3s    -20.029654    1.981333
     3p    -11.377694    2.025643
     3d     -0.420282    1.702555
 no old-style atom pair restraining (fixing) potential

molecular fragmentation (1/2 indicates fragments):
111111111122222222222222222222222222222222222222222222222222222222222222
222222222222222222222222222222222222222222222222222222222222222222222222
222222222222222222222222222222222222222222222222222222222222222222222222
222222222222222222222222222222222222222222222222222222222222222222222222
222222222222222222222222222222222222222222222222222222222222222222222222
222222222222222222222222222211222222222222222
# atoms in fragment 1/2:    12   393
 fragment masses (1/2) :       73.09     2719.14
CMA distance (Bohr)    :  22.256
constraining FC (au)   :  0.0500
           ------------------------------------------------- 
          |        Self-Consistent Charge Iterations        |
           ------------------------------------------------- 

 Ncao       : 993
 Nao        : 992
 Nshell     : 600
 Nel        : 1106
 T(el)      :   500.0
 intcut     :    35.0
 scfconv/Eh :  0.100E-06
   qconv/e  :  0.100E-04
 intneglect :  0.100E-08
 broydamp   :      0.400
 iter      E             dE          RMSdq      gap      omega  full diag
   1   -634.7085152 -0.634709E+03  0.475E+00    3.39       0.0  T
   2   -636.4148553 -0.170634E+01  0.217E+00    1.92       1.0  T
   3   -636.5289631 -0.114108E+00  0.127E+00    2.07       1.0  T
   4   -636.6328877 -0.103925E+00  0.252E-01    1.44       1.0  T
   5   -636.6385676 -0.567985E-02  0.125E-01    1.65       1.0  T
   6   -636.6394519 -0.884294E-03  0.512E-02    1.70       1.0  T
   7   -636.6397007 -0.248844E-03  0.231E-02    1.75       1.0  T
   8   -636.6397340 -0.332841E-04  0.122E-02    1.77       1.0  T
   9   -636.6397519 -0.178405E-04  0.570E-03    1.78       1.0  T
  10   -636.6397546 -0.278014E-05  0.280E-03    1.79       1.8  T
  11   -636.6397552 -0.608163E-06  0.130E-03    1.79       3.8  T
  12   -636.6397553 -0.106386E-06  0.615E-04    1.79       8.1  T
  13   -636.6397554 -0.300641E-07  0.303E-04    1.79      16.4  T
  14   -636.6397554 -0.392220E-08  0.123E-04    1.79      40.4  T
  15   -636.6397554 -0.130274E-08  0.537E-05    1.79      92.6  T
  16   -636.6397554 -0.149839E-09  0.239E-05    1.79     207.8  T
speedup  1.00
cpu  time for SCC    6.65 s
wall time for SCC    6.64 s

   *** convergence criteria satisfied after 16 iterations ***

          eigenvalues
 #    :         541        542        543        544        545        546        547        548
 occ. :        2.000      2.000      2.000      2.000      2.000      2.000      2.000      2.000
 eps  :       -10.154    -10.133    -10.128    -10.103    -10.096    -10.010     -9.891     -9.778
 #    :         549        550        551        552        553        554        555        556
 occ. :        2.000      2.000      2.000      2.000      2.000      0.000      0.000      0.000
 eps  :        -9.769     -9.751     -9.746     -9.718     -9.691     -7.899     -7.856     -7.803
 #    :         557        558        559        560        561        562        563        564
 occ. :        0.000      0.000      0.000      0.000      0.000      0.000      0.000      0.000
 eps  :        -7.789     -7.741     -7.657     -7.527     -7.400     -7.050     -6.828     -6.712


   #   Z            q   n(s)   n(p)   n(d)      C6AA      α(0)
   1   7 N     -0.392  1.307  4.085  0.000    30.149     8.155
   2   6 C      0.046  1.051  2.903  0.000    19.820     6.342
   3   6 C      0.192  1.097  2.711  0.000    23.904     8.007
   4   8 O     -0.368  1.752  4.616  0.000    21.051     6.151
   5   6 C     -0.114  1.040  3.074  0.000    22.735     6.799
   6   1 H      0.169  0.831  0.000  0.000     1.276     1.770
   7   1 H      0.046  0.954  0.000  0.000     2.366     2.405
   8   1 H      0.044  0.956  0.000  0.000     2.397     2.421
   9   1 H      0.051  0.949  0.000  0.000     2.310     2.377
  10   1 H      0.064  0.936  0.000  0.000     2.148     2.292
  11   7 N     -0.392  1.305  4.087  0.000    30.163     8.157
  12   6 C      0.037  1.056  2.907  0.000    19.965     6.365
  13   6 C      0.265  1.052  2.683  0.000    22.521     7.771
  14   8 O     -0.502  1.750  4.753  0.000    23.837     6.546
  15   6 C     -0.118  1.041  3.077  0.000    22.810     6.809
  16   1 H      0.159  0.841  0.000  0.000     1.342     1.815
  17   1 H      0.030  0.970  0.000  0.000     2.591     2.517
  18   1 H      0.039  0.961  0.000  0.000     2.456     2.451
  19   1 H      0.045  0.955  0.000  0.000     2.379     2.412
  20   1 H      0.068  0.932  0.000  0.000     2.111     2.272
  21   7 N     -0.169  1.242  3.927  0.000    24.656     7.375
  22   6 C      0.025  1.059  2.916  0.000    20.160     6.393
  23   6 C      0.201  1.086  2.713  0.000    23.728     7.978
  24   8 O     -0.366  1.754  4.613  0.000    21.022     6.147
  25   6 C     -0.018  1.065  2.953  0.000    20.851     6.494
  26   6 C     -0.070  1.051  3.019  0.000    21.830     6.652
  27   6 C     -0.120  1.038  3.082  0.000    22.851     6.816
  28   6 C     -0.110  1.035  3.075  0.000    22.664     6.789
  29   1 H      0.220  0.780  0.000  0.000     1.010     1.574
  30   1 H      0.095  0.905  0.000  0.000     1.830     2.116
  31   1 H      0.043  0.957  0.000  0.000     2.405     2.425
  32   1 H      0.049  0.951  0.000  0.000     2.338     2.391
  33   1 H      0.059  0.941  0.000  0.000     2.206     2.323
  34   1 H      0.063  0.937  0.000  0.000     2.162     2.299
  35   1 H      0.042  0.958  0.000  0.000     2.421     2.433
  36   1 H      0.057  0.943  0.000  0.000     2.233     2.337
  37   1 H      0.038  0.962  0.000  0.000     2.476     2.461
  38   1 H      0.052  0.948  0.000  0.000     2.296     2.370
  39   1 H      0.036  0.964  0.000  0.000     2.500     2.473
  40   7 N     -0.395  1.311  4.085  0.000    30.242     8.167
  41   6 C      0.047  1.050  2.903  0.000    19.811     6.340
  42   6 C      0.195  1.093  2.712  0.000    23.839     7.996
  43   8 O     -0.374  1.758  4.616  0.000    21.175     6.170
  44   6 C     -0.117  1.042  3.075  0.000    22.778     6.804
  45   1 H      0.167  0.833  0.000  0.000     1.292     1.781
  46   1 H      0.047  0.953  0.000  0.000     2.355     2.400
  47   1 H      0.042  0.958  0.000  0.000     2.425     2.435
  48   1 H      0.064  0.936  0.000  0.000     2.156     2.296
  49   1 H      0.073  0.927  0.000  0.000     2.048     2.238
  50   7 N     -0.388  1.305  4.084  0.000    30.055     8.142
  51   6 C      0.038  1.057  2.905  0.000    19.949     6.361
  52   6 C      0.273  1.046  2.681  0.000    22.376     7.746
  53   8 O     -0.506  1.748  4.758  0.000    23.914     6.556
  54   6 C     -0.102  1.061  3.041  0.000    22.438     6.743
  55   6 C      0.294  1.036  2.669  0.000    22.007     7.681
  56   8 O     -0.501  1.751  4.750  0.000    23.804     6.541
  57   7 N     -0.275  1.265  4.011  0.000    27.115     7.734
  58   1 H      0.158  0.842  0.000  0.000     1.345     1.817
  59   1 H      0.055  0.945  0.000  0.000     2.257     2.349
  60   1 H      0.068  0.932  0.000  0.000     2.108     2.270
  61   1 H      0.067  0.933  0.000  0.000     2.120     2.277
  62   1 H      0.226  0.774  0.000  0.000     0.981     1.551
  63   1 H      0.211  0.789  0.000  0.000     1.054     1.608
  64   7 N     -0.157  1.231  3.926  0.000    24.393     7.335
  65   6 C      0.026  1.059  2.916  0.000    20.154     6.394
  66   6 C      0.202  1.084  2.714  0.000    23.701     7.973
  67   8 O     -0.365  1.751  4.614  0.000    20.998     6.144
  68   6 C     -0.068  1.058  3.010  0.000    21.794     6.645
  69   6 C     -0.005  1.056  2.949  0.000    20.642     6.462
  70   6 C     -0.111  1.039  3.072  0.000    22.678     6.790
  71   6 C     -0.107  1.039  3.068  0.000    22.587     6.775
  72   1 H      0.217  0.783  0.000  0.000     1.025     1.586
  73   1 H      0.095  0.905  0.000  0.000     1.827     2.114
  74   1 H      0.051  0.949  0.000  0.000     2.309     2.377
  75   1 H      0.058  0.942  0.000  0.000     2.226     2.333
  76   1 H      0.039  0.961  0.000  0.000     2.458     2.452
  77   1 H      0.045  0.955  0.000  0.000     2.379     2.412
  78   1 H      0.033  0.967  0.000  0.000     2.539     2.492
  79   1 H      0.044  0.956  0.000  0.000     2.402     2.424
  80   1 H      0.042  0.958  0.000  0.000     2.418     2.432
  81   1 H      0.034  0.966  0.000  0.000     2.528     2.487
  82   1 H      0.037  0.963  0.000  0.000     2.487     2.466
  83   7 N     -0.397  1.314  4.083  0.000    30.290     8.174
  84   6 C      0.049  1.054  2.897  0.000    19.771     6.334
  85   6 C      0.218  1.088  2.694  0.000    23.400     7.922
  86   8 O     -0.407  1.762  4.646  0.000    21.829     6.264
  87   6 C     -0.053  1.054  2.999  0.000    21.517     6.604
  88   6 C     -0.093  1.068  3.025  0.000    22.275     6.720
  89   6 C      0.373  1.025  2.603  0.000    20.683     7.442
  90   8 O     -0.620  1.766  4.854  0.000    26.617     6.917
  91   8 O     -0.651  1.773  4.878  0.000    27.404     7.018
  92   1 H      0.174  0.826  0.000  0.000     1.246     1.749
  93   1 H      0.031  0.969  0.000  0.000     2.576     2.510
  94   1 H      0.046  0.954  0.000  0.000     2.368     2.407
  95   1 H      0.043  0.957  0.000  0.000     2.404     2.425
  96   1 H      0.015  0.985  0.000  0.000     2.808     2.621
  97   1 H      0.020  0.980  0.000  0.000     2.734     2.586
  98   7 N     -0.389  1.307  4.082  0.000    30.079     8.145
  99   6 C      0.042  1.053  2.905  0.000    19.892     6.354
 100   6 C      0.192  1.099  2.710  0.000    23.898     8.006
 101   8 O     -0.362  1.741  4.621  0.000    20.933     6.134
 102   6 C     -0.121  1.042  3.079  0.000    22.863     6.817
 103   1 H      0.168  0.832  0.000  0.000     1.286     1.776
 104   1 H      0.047  0.953  0.000  0.000     2.354     2.399
 105   1 H      0.048  0.952  0.000  0.000     2.349     2.397
 106   1 H      0.054  0.946  0.000  0.000     2.271     2.357
 107   1 H      0.062  0.938  0.000  0.000     2.176     2.307
 108   7 N     -0.387  1.306  4.081  0.000    30.003     8.135
 109   6 C      0.016  1.064  2.919  0.000    20.312     6.419
 110   6 C      0.267  1.047  2.686  0.000    22.494     7.767
 111   8 O     -0.489  1.748  4.741  0.000    23.543     6.505
 112   6 C      0.109  1.049  2.842  0.000    18.889     6.205
 113   8 O     -0.468  1.724  4.744  0.000    22.212     6.362
 114   6 C     -0.127  1.040  3.087  0.000    22.999     6.838
 115   1 H      0.156  0.844  0.000  0.000     1.358     1.826
 116   1 H      0.031  0.969  0.000  0.000     2.571     2.507
 117   1 H      0.042  0.958  0.000  0.000     2.423     2.434
 118   1 H      0.312  0.688  0.000  0.000     0.687     1.302
 119   1 H      0.064  0.936  0.000  0.000     2.150     2.293
 120   1 H      0.051  0.949  0.000  0.000     2.303     2.373
 121   1 H      0.047  0.953  0.000  0.000     2.360     2.402
 122   7 N     -0.167  1.243  3.924  0.000    24.617     7.369
 123   6 C      0.025  1.056  2.920  0.000    20.166     6.395
 124   6 C      0.200  1.088  2.712  0.000    23.739     7.979
 125   8 O     -0.357  1.739  4.618  0.000    20.831     6.119
 126   6 C     -0.156  1.049  3.107  0.000    23.570     6.922
 127   1 H      0.230  0.770  0.000  0.000     0.963     1.537
 128   1 H      0.076  0.924  0.000  0.000     2.022     2.224
 129   1 H      0.093  0.907  0.000  0.000     1.852     2.128
 130   1 H      0.085  0.915  0.000  0.000     1.928     2.171
 131   1 H      0.094  0.906  0.000  0.000     1.843     2.123
 132   7 N     -0.393  1.304  4.089  0.000    30.186     8.160
 133   6 C      0.039  1.053  2.908  0.000    19.928     6.359
 134   6 C      0.258  1.052  2.689  0.000    22.654     7.795
 135   8 O     -0.515  1.747  4.768  0.000    24.128     6.586
 136   6 C     -0.075  1.061  3.014  0.000    21.921     6.664
 137   6 C     -0.010  1.056  2.954  0.000    20.725     6.475
 138   6 C     -0.113  1.043  3.070  0.000    22.703     6.793
 139   6 C     -0.102  1.035  3.066  0.000    22.500     6.763
 140   1 H      0.183  0.817  0.000  0.000     1.198     1.714
 141   1 H      0.011  0.989  0.000  0.000     2.870     2.650
 142   1 H      0.065  0.935  0.000  0.000     2.142     2.289
 143   1 H      0.026  0.974  0.000  0.000     2.642     2.542
 144   1 H      0.053  0.947  0.000  0.000     2.287     2.365
 145   1 H      0.042  0.958  0.000  0.000     2.425     2.435
 146   1 H      0.045  0.955  0.000  0.000     2.377     2.411
 147   1 H      0.030  0.970  0.000  0.000     2.593     2.518
 148   1 H      0.031  0.969  0.000  0.000     2.566     2.505
 149   1 H      0.024  0.976  0.000  0.000     2.679     2.560
 150   1 H      0.020  0.980  0.000  0.000     2.732     2.585
 151   7 N     -0.171  1.244  3.928  0.000    24.710     7.383
 152   6 C      0.023  1.057  2.920  0.000    20.195     6.398
 153   6 C      0.204  1.083  2.713  0.000    23.661     7.966
 154   8 O     -0.359  1.754  4.605  0.000    20.879     6.126
 155   6 C     -0.085  1.056  3.030  0.000    22.123     6.696
 156   6 C     -0.093  1.055  3.038  0.000    22.273     6.719
 157   6 C     -0.033  1.055  2.978  0.000    21.241     6.576
 158   7 N     -0.139  1.211  3.928  0.000    24.008     7.277
 159   6 C      0.229  1.019  2.752  0.000    23.188     7.884
 160   7 N     -0.234  1.218  4.017  0.000    26.142     7.594
 161   7 N     -0.256  1.232  4.024  0.000    26.658     7.668
 162   1 H      0.256  0.744  0.000  0.000     0.862     1.454
 163   1 H      0.083  0.917  0.000  0.000     1.947     2.182
 164   1 H      0.082  0.918  0.000  0.000     1.956     2.187
 165   1 H      0.081  0.919  0.000  0.000     1.974     2.197
 166   1 H      0.084  0.916  0.000  0.000     1.942     2.179
 167   1 H      0.063  0.937  0.000  0.000     2.169     2.303
 168   1 H      0.091  0.909  0.000  0.000     1.866     2.136
 169   1 H      0.092  0.908  0.000  0.000     1.857     2.131
 170   1 H      0.236  0.764  0.000  0.000     0.938     1.517
 171   1 H      0.236  0.764  0.000  0.000     0.940     1.519
 172   1 H      0.246  0.754  0.000  0.000     0.899     1.485
 173   1 H      0.249  0.751  0.000  0.000     0.887     1.475
 174   1 H      0.260  0.740  0.000  0.000     0.845     1.440
 175   7 N     -0.385  1.299  4.086  0.000    29.960     8.129
 176   6 C      0.000  1.043  2.957  0.000    20.661     6.486
 177   6 C      0.275  1.045  2.680  0.000    22.354     7.742
 178   8 O     -0.513  1.748  4.764  0.000    24.074     6.578
 179   1 H      0.176  0.824  0.000  0.000     1.238     1.743
 180   1 H      0.026  0.974  0.000  0.000     2.643     2.542
 181   1 H      0.038  0.962  0.000  0.000     2.470     2.458
 182   7 N     -0.185  1.251  3.934  0.000    25.009     7.427
 183   6 C      0.017  1.065  2.918  0.000    20.298     6.417
 184   6 C      0.282  1.043  2.674  0.000    22.218     7.719
 185   8 O     -0.470  1.745  4.725  0.000    23.134     6.449
 186   6 C     -0.065  1.052  3.013  0.000    21.742     6.637
 187   6 C     -0.013  1.055  2.957  0.000    20.766     6.482
 188   6 C     -0.114  1.042  3.072  0.000    22.739     6.798
 189   6 C     -0.118  1.041  3.077  0.000    22.812     6.810
 190   1 H      0.248  0.752  0.000  0.000     0.892     1.480
 191   1 H      0.078  0.922  0.000  0.000     1.997     2.210
 192   1 H      0.041  0.959  0.000  0.000     2.434     2.440
 193   1 H      0.058  0.942  0.000  0.000     2.228     2.334
 194   1 H      0.032  0.968  0.000  0.000     2.560     2.502
 195   1 H      0.048  0.952  0.000  0.000     2.342     2.393
 196   1 H      0.028  0.972  0.000  0.000     2.617     2.530
 197   1 H      0.044  0.956  0.000  0.000     2.396     2.421
 198   1 H      0.049  0.951  0.000  0.000     2.329     2.387
 199   1 H      0.046  0.954  0.000  0.000     2.373     2.409
 200   1 H      0.045  0.955  0.000  0.000     2.388     2.417
 201   7 N     -0.173  1.236  3.937  0.000    24.741     7.387
 202   6 C      0.014  1.059  2.927  0.000    20.335     6.420
 203   6 C      0.266  1.045  2.690  0.000    22.521     7.772
 204   8 O     -0.459  1.725  4.734  0.000    22.889     6.414
 205   6 C     -0.056  1.053  3.003  0.000    21.575     6.611
 206   6 C     -0.104  1.057  3.047  0.000    22.478     6.749
 207   6 C      0.291  1.037  2.672  0.000    22.072     7.693
 208   8 O     -0.486  1.749  4.737  0.000    23.476     6.496
 209   7 N     -0.275  1.258  4.016  0.000    27.106     7.732
 210   1 H      0.203  0.797  0.000  0.000     1.090     1.635
 211   1 H      0.084  0.916  0.000  0.000     1.940     2.178
 212   1 H      0.052  0.948  0.000  0.000     2.289     2.366
 213   1 H      0.055  0.945  0.000  0.000     2.253     2.347
 214   1 H      0.070  0.930  0.000  0.000     2.083     2.257
 215   1 H      0.080  0.920  0.000  0.000     1.979     2.200
 216   1 H      0.213  0.787  0.000  0.000     1.043     1.600
 217   1 H      0.198  0.802  0.000  0.000     1.118     1.656
 218   7 N     -0.186  1.254  3.932  0.000    25.023     7.429
 219   6 C      0.018  1.067  2.915  0.000    20.269     6.411
 220   6 C      0.278  1.045  2.678  0.000    22.299     7.733
 221   8 O     -0.478  1.733  4.745  0.000    23.292     6.471
 222   6 C     -0.051  1.052  2.999  0.000    21.476     6.597
 223   6 C     -0.095  1.067  3.029  0.000    22.323     6.728
 224   6 C      0.372  1.024  2.604  0.000    20.693     7.444
 225   8 O     -0.649  1.775  4.873  0.000    27.350     7.012
 226   8 O     -0.643  1.773  4.870  0.000    27.200     6.992
 227   1 H      0.211  0.789  0.000  0.000     1.050     1.605
 228   1 H      0.090  0.910  0.000  0.000     1.877     2.142
 229   1 H      0.049  0.951  0.000  0.000     2.327     2.386
 230   1 H      0.040  0.960  0.000  0.000     2.446     2.446
 231   1 H      0.023  0.977  0.000  0.000     2.681     2.560
 232   1 H      0.030  0.970  0.000  0.000     2.581     2.512
 233   7 N     -0.186  1.246  3.940  0.000    25.029     7.430
 234   6 C      0.018  1.063  2.918  0.000    20.272     6.412
 235   6 C      0.274  1.041  2.685  0.000    22.372     7.745
 236   8 O     -0.481  1.737  4.744  0.000    23.373     6.482
 237   6 C     -0.075  1.055  3.020  0.000    21.924     6.663
 238   6 C     -0.020  1.062  2.958  0.000    20.945     6.517
 239  16 S     -0.217  1.929  4.227  0.061   150.294    20.634
 240   6 C     -0.062  1.052  3.009  0.000    21.761     6.654
 241   1 H      0.200  0.800  0.000  0.000     1.108     1.649
 242   1 H      0.075  0.925  0.000  0.000     2.035     2.231
 243   1 H      0.083  0.917  0.000  0.000     1.953     2.185
 244   1 H      0.061  0.939  0.000  0.000     2.191     2.315
 245   1 H      0.064  0.936  0.000  0.000     2.156     2.296
 246   1 H      0.043  0.957  0.000  0.000     2.408     2.427
 247   1 H      0.076  0.924  0.000  0.000     2.017     2.221
 248   1 H      0.049  0.951  0.000  0.000     2.330     2.387
 249   1 H      0.064  0.936  0.000  0.000     2.156     2.296
 250   7 N     -0.188  1.255  3.933  0.000    25.071     7.436
 251   6 C      0.019  1.063  2.918  0.000    20.252     6.408
 252   6 C      0.274  1.043  2.683  0.000    22.373     7.746
 253   8 O     -0.463  1.729  4.734  0.000    22.978     6.427
 254   6 C     -0.134  1.043  3.092  0.000    23.143     6.860
 255   1 H      0.219  0.781  0.000  0.000     1.016     1.579
 256   1 H      0.079  0.921  0.000  0.000     1.986     2.204
 257   1 H      0.090  0.910  0.000  0.000     1.880     2.144
 258   1 H      0.061  0.939  0.000  0.000     2.189     2.314
 259   1 H      0.079  0.921  0.000  0.000     1.993     2.208
 260   7 N     -0.168  1.238  3.930  0.000    24.637     7.372
 261   6 C     -0.041  1.052  2.990  0.000    21.380     6.595
 262   6 C      0.273  1.043  2.684  0.000    22.377     7.746
 263   8 O     -0.483  1.735  4.748  0.000    23.419     6.488
 264   1 H      0.206  0.794  0.000  0.000     1.075     1.624
 265   1 H      0.125  0.875  0.000  0.000     1.575     1.962
 266   1 H      0.099  0.901  0.000  0.000     1.798     2.097
 267   7 N     -0.179  1.244  3.935  0.000    24.875     7.407
 268   6 C      0.020  1.063  2.917  0.000    20.234     6.405
 269   6 C      0.282  1.040  2.678  0.000    22.220     7.720
 270   8 O     -0.496  1.741  4.754  0.000    23.688     6.525
 271   6 C     -0.074  1.054  3.021  0.000    21.917     6.664
 272   6 C     -0.104  1.059  3.045  0.000    22.475     6.749
 273   6 C      0.287  1.040  2.673  0.000    22.139     7.704
 274   8 O     -0.489  1.745  4.743  0.000    23.534     6.504
 275   7 N     -0.288  1.269  4.019  0.000    27.443     7.780
 276   1 H      0.207  0.793  0.000  0.000     1.071     1.621
 277   1 H      0.068  0.932  0.000  0.000     2.106     2.270
 278   1 H      0.055  0.945  0.000  0.000     2.257     2.349
 279   1 H      0.082  0.918  0.000  0.000     1.957     2.188
 280   1 H      0.063  0.937  0.000  0.000     2.159     2.298
 281   1 H      0.086  0.914  0.000  0.000     1.921     2.168
 282   1 H      0.223  0.777  0.000  0.000     0.997     1.564
 283   1 H      0.223  0.777  0.000  0.000     0.995     1.563
 284   7 N     -0.187  1.249  3.938  0.000    25.053     7.434
 285   6 C      0.030  1.056  2.915  0.000    20.068     6.377
 286   6 C      0.278  1.044  2.678  0.000    22.299     7.733
 287   8 O     -0.509  1.742  4.767  0.000    23.986     6.566
 288   6 C     -0.084  1.060  3.023  0.000    22.086     6.690
 289   6 C     -0.016  1.056  2.961  0.000    20.831     6.492
 290   6 C     -0.106  1.037  3.069  0.000    22.583     6.776
 291   6 C     -0.127  1.042  3.085  0.000    22.998     6.837
 292   1 H      0.225  0.775  0.000  0.000     0.986     1.555
 293   1 H      0.066  0.934  0.000  0.000     2.127     2.281
 294   1 H      0.061  0.939  0.000  0.000     2.192     2.315
 295   1 H      0.071  0.929  0.000  0.000     2.072     2.251
 296   1 H      0.041  0.959  0.000  0.000     2.439     2.442
 297   1 H      0.040  0.960  0.000  0.000     2.450     2.448
 298   1 H      0.020  0.980  0.000  0.000     2.736     2.587
 299   1 H      0.043  0.957  0.000  0.000     2.405     2.425
 300   1 H      0.055  0.945  0.000  0.000     2.256     2.349
 301   1 H      0.043  0.957  0.000  0.000     2.408     2.426
 302   1 H      0.059  0.941  0.000  0.000     2.216     2.328
 303   7 N     -0.163  1.241  3.922  0.000    24.533     7.356
 304   6 C      0.010  1.066  2.924  0.000    20.406     6.432
 305   6 C      0.275  1.043  2.683  0.000    22.358     7.743
 306   8 O     -0.520  1.757  4.763  0.000    24.228     6.599
 307   6 C     -0.072  1.051  3.021  0.000    21.869     6.657
 308   6 C     -0.115  1.062  3.053  0.000    22.701     6.783
 309   6 C      0.287  1.036  2.677  0.000    22.138     7.704
 310   8 O     -0.501  1.757  4.744  0.000    23.806     6.542
 311   7 N     -0.284  1.265  4.019  0.000    27.329     7.764
 312   1 H      0.227  0.773  0.000  0.000     0.978     1.549
 313   1 H      0.097  0.903  0.000  0.000     1.809     2.104
 314   1 H      0.075  0.925  0.000  0.000     2.036     2.232
 315   1 H      0.061  0.939  0.000  0.000     2.192     2.315
 316   1 H      0.079  0.921  0.000  0.000     1.993     2.208
 317   1 H      0.093  0.907  0.000  0.000     1.854     2.129
 318   1 H      0.236  0.764  0.000  0.000     0.939     1.518
 319   1 H      0.244  0.756  0.000  0.000     0.908     1.493
 320   7 N     -0.175  1.249  3.926  0.000    24.785     7.394
 321   6 C      0.025  1.061  2.914  0.000    20.159     6.394
 322   6 C      0.290  1.038  2.673  0.000    22.087     7.696
 323   8 O     -0.514  1.765  4.749  0.000    24.093     6.581
 324   6 C     -0.136  1.044  3.092  0.000    23.177     6.864
 325   1 H      0.241  0.759  0.000  0.000     0.919     1.502
 326   1 H      0.067  0.933  0.000  0.000     2.115     2.274
 327   1 H      0.062  0.938  0.000  0.000     2.174     2.306
 328   1 H      0.075  0.925  0.000  0.000     2.036     2.231
 329   1 H      0.083  0.917  0.000  0.000     1.944     2.181
 330   7 N     -0.186  1.246  3.940  0.000    25.028     7.430
 331   6 C      0.032  1.054  2.914  0.000    20.035     6.374
 332   6 C      0.274  1.045  2.681  0.000    22.364     7.744
 333   8 O     -0.519  1.765  4.754  0.000    24.206     6.596
 334   6 C     -0.127  1.043  3.085  0.000    22.996     6.837
 335   1 H      0.220  0.780  0.000  0.000     1.011     1.575
 336   1 H      0.058  0.942  0.000  0.000     2.223     2.332
 337   1 H      0.065  0.935  0.000  0.000     2.137     2.286
 338   1 H      0.077  0.923  0.000  0.000     2.013     2.219
 339   1 H      0.070  0.930  0.000  0.000     2.088     2.260
 340   7 N     -0.192  1.250  3.942  0.000    25.155     7.449
 341   6 C      0.016  1.064  2.921  0.000    20.310     6.416
 342   6 C      0.289  1.038  2.673  0.000    22.093     7.698
 343   8 O     -0.496  1.747  4.748  0.000    23.695     6.526
 344   6 C      0.112  1.045  2.842  0.000    18.822     6.192
 345   8 O     -0.477  1.710  4.767  0.000    22.396     6.388
 346   6 C     -0.142  1.046  3.096  0.000    23.298     6.883
 347   1 H      0.233  0.767  0.000  0.000     0.951     1.528
 348   1 H      0.063  0.937  0.000  0.000     2.166     2.302
 349   1 H      0.049  0.951  0.000  0.000     2.333     2.389
 350   1 H      0.320  0.680  0.000  0.000     0.664     1.280
 351   1 H      0.083  0.917  0.000  0.000     1.950     2.184
 352   1 H      0.062  0.938  0.000  0.000     2.175     2.306
 353   1 H      0.058  0.942  0.000  0.000     2.225     2.333
 354   7 N     -0.180  1.243  3.937  0.000    24.902     7.411
 355   6 C      0.028  1.062  2.910  0.000    20.094     6.382
 356   6 C      0.282  1.040  2.678  0.000    22.221     7.719
 357   8 O     -0.485  1.740  4.746  0.000    23.461     6.494
 358   6 C     -0.066  1.048  3.018  0.000    21.756     6.640
 359   6 C      0.057  1.061  2.882  0.000    26.193     8.341
 360   7 N     -0.301  1.490  3.811  0.000    28.648     7.936
 361   6 C     -0.027  1.062  2.965  0.000    28.632     8.776
 362   6 C      0.083  1.062  2.854  0.000    25.848     8.312
 363   7 N     -0.090  1.241  3.849  0.000    22.990     7.121
 364   1 H      0.195  0.805  0.000  0.000     1.130     1.665
 365   1 H      0.089  0.911  0.000  0.000     1.892     2.151
 366   1 H      0.026  0.974  0.000  0.000     2.640     2.541
 367   1 H      0.060  0.940  0.000  0.000     2.205     2.322
 368   1 H      0.031  0.969  0.000  0.000     2.578     2.511
 369   1 H      0.072  0.928  0.000  0.000     2.061     2.245
 370   1 H      0.224  0.776  0.000  0.000     0.991     1.559
 371   7 N     -0.177  1.243  3.934  0.000    24.823     7.400
 372   6 C      0.027  1.068  2.904  0.000    20.131     6.392
 373   6 C      0.369  1.024  2.607  0.000    20.744     7.454
 374   8 O     -0.628  1.763  4.865  0.000    26.808     6.942
 375   6 C     -0.048  1.048  2.999  0.000    21.426     6.590
 376   6 C     -0.091  1.057  3.033  0.000    22.225     6.711
 377   6 C      0.296  1.042  2.662  0.000    21.978     7.676
 378   8 O     -0.497  1.745  4.751  0.000    23.710     6.528
 379   7 N     -0.298  1.292  4.006  0.000    27.685     7.815
 380   8 O     -0.620  1.768  4.852  0.000    26.604     6.915
 381   1 H      0.167  0.833  0.000  0.000     1.292     1.781
 382   1 H      0.003  0.997  0.000  0.000     3.009     2.713
 383   1 H      0.061  0.939  0.000  0.000     2.182     2.310
 384   1 H      0.041  0.959  0.000  0.000     2.438     2.442
 385   1 H      0.080  0.920  0.000  0.000     1.975     2.198
 386   1 H      0.041  0.959  0.000  0.000     2.440     2.443
 387   1 H      0.215  0.785  0.000  0.000     1.032     1.591
 388   1 H      0.225  0.775  0.000  0.000     0.987     1.556
 389   1 H      0.180  0.820  0.000  0.000     1.215     1.727
 390   1 H      0.087  0.913  0.000  0.000     1.910     2.161
 391   1 H      0.180  0.820  0.000  0.000     1.214     1.726
 392   1 H      0.067  0.933  0.000  0.000     2.122     2.278
 393   1 H      0.179  0.821  0.000  0.000     1.221     1.731
 394   1 H      0.072  0.928  0.000  0.000     2.061     2.245
 395   1 H      0.186  0.814  0.000  0.000     1.182     1.703
 396   1 H      0.074  0.926  0.000  0.000     2.043     2.235
 397   1 H      0.192  0.808  0.000  0.000     1.148     1.679
 398   1 H      0.067  0.933  0.000  0.000     2.115     2.274
 399   1 H      0.179  0.821  0.000  0.000     1.219     1.730
 400   1 H      0.086  0.914  0.000  0.000     1.919     2.166
 401   1 H      0.186  0.814  0.000  0.000     1.179     1.701
 402   1 H      0.092  0.908  0.000  0.000     1.857     2.131
 403   1 H      0.165  0.835  0.000  0.000     1.305     1.790
 404   1 H      0.073  0.927  0.000  0.000     2.056     2.242
 405   1 H      0.172  0.828  0.000  0.000     1.262     1.760

 Mol. C6AA /au·bohr⁶  :    1504126.617133
 Mol. C8AA /au·bohr⁸  :   33282169.729791
 Mol. α(0) /au        :       1829.561560

 
 Wiberg/Mayer (AO) data. WBOs > 0.1 written file <wbo>
 largest (>0.05) Wiberg bond orders for each atom
           total WBO             WBO to atom ...
     1  N   2.994    C    2 1.017    H  389 0.956    H    6 0.953
     2  C   3.988    N    1 1.017    C    3 0.978    C    5 0.978    H    7 0.951    O    4 0.057
     3  C   3.892    O    4 1.889    C    2 0.978    H  390 0.952
     4  O   2.040    C    3 1.889    C    2 0.057
     5  C   3.991    H    8 0.985    H   10 0.983    H    9 0.981    C    2 0.978
     6  H   0.971    N    1 0.953
     7  H   0.998    C    2 0.951
     8  H   0.998    C    5 0.985
     9  H   0.997    C    5 0.981
    10  H   0.996    C    5 0.983
    11  N   2.995    C   12 1.014    H  391 0.957    H   16 0.953
    12  C   3.985    N   11 1.014    C   15 0.992    H   17 0.963    C   13 0.938
    13  C   3.944    O   14 1.632    N   21 1.296    C   12 0.938
    14  O   1.942    C   13 1.632    N   21 0.193
    15  C   3.991    C   12 0.992    H   18 0.983    H   19 0.983    H   20 0.980
    16  H   0.975    N   11 0.953
    17  H   0.999    C   12 0.963
    18  H   0.998    C   15 0.983
    19  H   0.998    C   15 0.983
    20  H   0.995    C   15 0.980
    21  N   3.467    C   13 1.296    C   22 0.986    H   29 0.910    O   14 0.193
    22  C   3.964    N   21 0.986    C   23 0.982    C   25 0.940    H   30 0.938    O   24 0.059
    23  C   3.902    O   24 1.866    C   22 0.982    H  392 0.954
    24  O   2.044    C   23 1.866    C   22 0.059
    25  C   3.983    C   27 1.010    C   26 0.988    H   31 0.965    C   22 0.940
    26  C   3.993    C   28 1.020    C   25 0.988    H   33 0.971    H   32 0.968
    27  C   3.990    C   25 1.010    H   35 0.983    H   34 0.982    H   36 0.981
    28  C   3.995    C   26 1.020    H   37 0.985    H   38 0.984    H   39 0.973
    29  H   0.952    N   21 0.910
    30  H   0.991    C   22 0.938
    31  H   0.998    C   25 0.965
    32  H   0.998    C   26 0.968
    33  H   0.996    C   26 0.971
    34  H   0.996    C   27 0.982
    35  H   0.998    C   27 0.983
    36  H   0.997    C   27 0.981
    37  H   0.998    C   28 0.985
    38  H   0.997    C   28 0.984
    39  H   0.999    C   28 0.973
    40  N   2.993    C   41 1.018    H  393 0.956    H   45 0.937
    41  C   3.987    N   40 1.018    C   42 0.976    C   44 0.970    H   46 0.954    O   43 0.058
    42  C   3.890    O   43 1.892    C   41 0.976    H  394 0.953
    43  O   2.041    C   42 1.892    C   41 0.058
    44  C   3.989    H   47 0.981    H   49 0.977    C   41 0.970    H   48 0.963
    45  H   0.972    N   40 0.937
    46  H   0.998    C   41 0.954
    47  H   0.998    C   44 0.981
    48  H   0.996    C   44 0.963
    49  H   0.995    C   44 0.977
    50  N   3.008    C   51 1.023    H   58 0.956    H  395 0.954
    51  C   3.985    N   50 1.023    C   54 0.962    H   59 0.954    C   52 0.933    O   53 0.053
    52  C   3.945    O   53 1.632    N   64 1.306    C   51 0.933
    53  O   1.944    C   52 1.632    N   64 0.195    C   51 0.053
    54  C   3.991    C   55 0.967    C   51 0.962    H   60 0.959    H   61 0.956    O   56 0.053
    55  C   3.944    O   56 1.647    N   57 1.299    C   54 0.967
    56  O   1.946    C   55 1.647    N   57 0.198    C   54 0.053
    57  N   3.394    C   55 1.299    H   63 0.932    H   62 0.927    O   56 0.198
    58  H   0.975    N   50 0.956
    59  H   0.996    C   51 0.954
    60  H   0.995    C   54 0.959
    61  H   0.996    C   54 0.956
    62  H   0.948    N   57 0.927
    63  H   0.956    N   57 0.932
    64  N   3.479    C   52 1.306    C   65 0.993    H   72 0.907    O   53 0.195
    65  C   3.971    N   64 0.993    C   66 0.983    C   68 0.959    H   73 0.926    O   67 0.064
    66  C   3.906    O   67 1.890    C   65 0.983    H  396 0.953
    67  O   2.040    C   66 1.890    C   65 0.064
    68  C   3.986    C   69 0.994    H   74 0.967    H   75 0.965    C   65 0.959
    69  C   3.995    C   70 1.011    C   71 1.005    C   68 0.994    H   76 0.961
    70  C   3.996    C   69 1.011    H   77 0.985    H   79 0.982    H   78 0.981
    71  C   3.993    C   69 1.005    H   82 0.986    H   80 0.985    H   81 0.981
    72  H   0.953    N   64 0.907
    73  H   0.991    C   65 0.926
    74  H   0.997    C   68 0.967
    75  H   0.997    C   68 0.965
    76  H   0.998    C   69 0.961
    77  H   0.998    C   70 0.985
    78  H   0.999    C   70 0.981
    79  H   0.998    C   70 0.982
    80  H   0.997    C   71 0.985
    81  H   0.999    C   71 0.981
    82  H   0.999    C   71 0.986
    83  N   2.991    C   84 1.011    H  397 0.954    H   92 0.951
    84  C   3.987    N   83 1.011    C   87 0.972    C   85 0.968    H   93 0.963    O   86 0.054
    85  C   3.885    O   86 1.869    C   84 0.968    H  398 0.954
    86  O   2.015    C   85 1.869    C   84 0.054
    87  C   3.995    C   88 1.011    C   84 0.972    H   95 0.970    H   94 0.969
    88  C   3.988    C   87 1.011    H   96 0.979    H   97 0.959    C   89 0.909    O   90 0.055    O   91 0.054
    89  C   3.932    O   91 1.503    O   90 1.494    C   88 0.909
    90  O   1.831    C   89 1.494    O   91 0.208    C   88 0.055
    91  O   1.791    C   89 1.503    O   90 0.208    C   88 0.054
    92  H   0.970    N   83 0.951
    93  H   0.999    C   84 0.963
    94  H   0.998    C   87 0.969
    95  H   0.998    C   87 0.970
    96  H   1.000    C   88 0.979
    97  H   1.000    C   88 0.959
    98  N   2.995    C   99 1.011    H  399 0.957    H  103 0.953
    99  C   3.986    N   98 1.011    C  102 0.981    C  100 0.971    H  104 0.960    O  101 0.055
   100  C   3.891    O  101 1.893    C   99 0.971    H  400 0.952
   101  O   2.043    C  100 1.893    C   99 0.055
   102  C   3.990    H  107 0.983    C   99 0.981    H  105 0.979    H  106 0.979
   103  H   0.972    N   98 0.953
   104  H   0.998    C   99 0.960
   105  H   0.998    C  102 0.979
   106  H   0.997    C  102 0.979
   107  H   0.996    C  102 0.983
   108  N   2.992    C  109 1.012    H  401 0.955    H  115 0.949
   109  C   3.984    N  108 1.012    H  116 0.964    C  112 0.952    C  110 0.937
   110  C   3.949    O  111 1.615    N  122 1.314    C  109 0.937
   111  O   1.977    C  110 1.615    N  122 0.198
   112  C   3.953    C  114 1.006    O  113 0.991    H  117 0.952    C  109 0.952
   113  O   1.954    C  112 0.991    H  118 0.879
   114  C   3.992    C  112 1.006    H  121 0.985    H  119 0.978    H  120 0.978
   115  H   0.975    N  108 0.949
   116  H   0.998    C  109 0.964
   117  H   0.998    C  112 0.952
   118  H   0.903    O  113 0.879
   119  H   0.996    C  114 0.978
   120  H   0.997    C  114 0.978
   121  H   0.998    C  114 0.985
   122  N   3.476    C  110 1.314    C  123 0.969    H  127 0.908    O  111 0.198
   123  C   3.961    C  126 0.981    C  124 0.976    N  122 0.969    H  128 0.949    O  125 0.053
   124  C   3.896    O  125 1.865    C  123 0.976    H  402 0.950
   125  O   2.069    C  124 1.865    C  123 0.053
   126  C   3.972    C  123 0.981    H  131 0.978    H  129 0.975    H  130 0.974
   127  H   0.947    N  122 0.908
   128  H   0.994    C  123 0.949
   129  H   0.991    C  126 0.975
   130  H   0.993    C  126 0.974
   131  H   0.991    C  126 0.978
   132  N   2.992    C  133 1.017    H  403 0.962    H  140 0.935
   133  C   3.987    N  132 1.017    C  136 0.977    H  141 0.961    C  134 0.938
   134  C   3.945    O  135 1.585    N  151 1.334    C  133 0.938
   135  O   1.950    C  134 1.585    N  151 0.194
   136  C   3.994    C  137 0.993    C  133 0.977    H  143 0.973    H  142 0.967
   137  C   3.994    C  139 1.009    C  138 1.006    C  136 0.993    H  144 0.960
   138  C   3.994    C  137 1.006    H  145 0.983    H  146 0.983    H  147 0.982
   139  C   3.995    C  137 1.009    H  149 0.987    H  148 0.986    H  150 0.983
   140  H   0.966    N  132 0.935
   141  H   0.999    C  133 0.961
   142  H   0.996    C  136 0.967
   143  H   0.999    C  136 0.973
   144  H   0.997    C  137 0.960
   145  H   0.998    C  138 0.983
   146  H   0.998    C  138 0.983
   147  H   0.999    C  138 0.982
   148  H   0.999    C  139 0.986
   149  H   0.999    C  139 0.987
   150  H   1.000    C  139 0.983
   151  N   3.479    C  134 1.334    C  152 0.988    H  162 0.872    O  135 0.194
   152  C   3.967    N  151 0.988    C  153 0.971    C  155 0.969    H  163 0.929    O  154 0.064
   153  C   3.901    O  154 1.895    C  152 0.971    H  404 0.953
   154  O   2.050    C  153 1.895    C  152 0.064
   155  C   3.978    C  156 1.004    H  165 0.971    C  152 0.969    H  164 0.968
   156  C   3.988    C  155 1.004    C  157 0.994    H  167 0.971    H  166 0.962
   157  C   3.955    C  156 0.994    N  158 0.990    H  168 0.968    H  169 0.959
   158  N   3.470    C  159 1.312    C  157 0.990    H  170 0.915    N  161 0.101    N  160 0.099
   159  C   3.978    N  160 1.319    N  161 1.318    N  158 1.312
   160  N   3.404    C  159 1.319    H  171 0.918    H  172 0.917    N  161 0.102    N  158 0.099
   161  N   3.391    C  159 1.318    H  173 0.919    H  174 0.913    N  160 0.102    N  158 0.101
   162  H   0.934    N  151 0.872
   163  H   0.993    C  152 0.929
   164  H   0.992    C  155 0.968
   165  H   0.993    C  155 0.971
   166  H   0.993    C  156 0.962
   167  H   0.996    C  156 0.971
   168  H   0.991    C  157 0.968
   169  H   0.991    C  157 0.959
   170  H   0.944    N  158 0.915
   171  H   0.944    N  160 0.918
   172  H   0.939    N  160 0.917
   173  H   0.938    N  161 0.919
   174  H   0.932    N  161 0.913
   175  N   2.992    C  176 1.029    H  405 0.959    H  179 0.940
   176  C   3.989    N  175 1.029    H  180 0.975    H  181 0.955    C  177 0.944    O  178 0.053
   177  C   3.946    O  178 1.610    N  182 1.318    C  176 0.944
   178  O   1.948    C  177 1.610    N  182 0.193    C  176 0.053
   179  H   0.969    N  175 0.940
   180  H   0.999    C  176 0.975
   181  H   0.998    C  176 0.955
   182  N   3.467    C  177 1.318    C  183 0.978    H  190 0.879    O  178 0.193
   183  C   3.967    C  186 0.981    N  182 0.978    H  191 0.945    C  184 0.934    O  185 0.053
   184  C   3.942    O  185 1.672    N  201 1.259    C  183 0.934
   185  O   1.982    C  184 1.672    N  201 0.190    C  183 0.053
   186  C   3.988    C  187 0.995    C  183 0.981    H  192 0.974    H  193 0.970
   187  C   3.994    C  189 1.010    C  188 1.007    C  186 0.995    H  194 0.968
   188  C   3.995    C  187 1.007    H  196 0.987    H  197 0.986    H  195 0.986
   189  C   3.994    C  187 1.010    H  199 0.986    H  198 0.985    H  200 0.975
   190  H   0.939    N  182 0.879
   191  H   0.994    C  183 0.945
   192  H   0.998    C  186 0.974
   193  H   0.996    C  186 0.970
   194  H   0.999    C  187 0.968
   195  H   0.997    C  188 0.986
   196  H   0.999    C  188 0.987
   197  H   0.998    C  188 0.986
   198  H   0.997    C  189 0.985
   199  H   0.998    C  189 0.986
   200  H   0.998    C  189 0.975
   201  N   3.445    C  184 1.259    C  202 0.993    H  210 0.927    O  185 0.190
   202  C   3.970    N  201 0.993    C  205 0.961    H  211 0.949    C  203 0.944
   203  C   3.949    O  204 1.615    N  218 1.300    C  202 0.944
   204  O   1.976    C  203 1.615    N  218 0.191
   205  C   3.992    C  206 0.996    H  212 0.971    H  213 0.968    C  202 0.961
   206  C   3.989    C  205 0.996    C  207 0.964    H  214 0.957    H  215 0.955    O  208 0.055
   207  C   3.941    O  208 1.653    N  209 1.296    C  206 0.964
   208  O   1.958    C  207 1.653    N  209 0.200    C  206 0.055
   209  N   3.399    C  207 1.296    H  217 0.929    H  216 0.927    O  208 0.200
   210  H   0.959    N  201 0.927
   211  H   0.993    C  202 0.949
   212  H   0.997    C  205 0.971
   213  H   0.996    C  205 0.968
   214  H   0.995    C  206 0.957
   215  H   0.993    C  206 0.955
   216  H   0.955    N  209 0.927
   217  H   0.960    N  209 0.929
   218  N   3.467    C  203 1.300    C  219 0.975    H  227 0.919    O  204 0.191
   219  C   3.960    N  218 0.975    C  222 0.973    H  228 0.944    C  220 0.944
   220  C   3.949    O  221 1.627    N  233 1.289    C  219 0.944
   221  O   1.959    C  220 1.627    N  233 0.190
   222  C   3.990    C  223 1.004    H  230 0.977    C  219 0.973    H  229 0.966
   223  C   3.988    C  222 1.004    H  231 0.979    H  232 0.979    C  224 0.903    O  226 0.053    O  225 0.053
   224  C   3.933    O  226 1.506    O  225 1.503    C  223 0.903
   225  O   1.795    C  224 1.503    O  226 0.219    C  223 0.053
   226  O   1.798    C  224 1.506    O  225 0.219    C  223 0.053
   227  H   0.955    N  218 0.919
   228  H   0.991    C  219 0.944
   229  H   0.997    C  222 0.966
   230  H   0.998    C  222 0.977
   231  H   0.999    C  223 0.979
   232  H   0.999    C  223 0.979
   233  N   3.457    C  220 1.289    C  234 0.976    H  241 0.925    O  221 0.190
   234  C   3.960    C  237 0.980    N  233 0.976    H  242 0.937    C  235 0.937    O  236 0.051
   235  C   3.955    O  236 1.605    N  250 1.325    C  234 0.937
   236  O   1.968    C  235 1.605    N  250 0.197    C  234 0.051
   237  C   3.986    C  238 1.008    C  234 0.980    H  244 0.971    H  243 0.964
   238  C   3.982    C  237 1.008    S  239 0.990    H  246 0.970    H  245 0.968
   239  S   2.116    C  240 1.007    C  238 0.990
   240  C   3.974    S  239 1.007    H  248 0.978    H  249 0.978    H  247 0.970
   241  H   0.960    N  233 0.925
   242  H   0.994    C  234 0.937
   243  H   0.992    C  237 0.964
   244  H   0.996    C  237 0.971
   245  H   0.996    C  238 0.968
   246  H   0.998    C  238 0.970
   247  H   0.994    C  240 0.970
   248  H   0.997    C  240 0.978
   249  H   0.996    C  240 0.978
   250  N   3.477    C  235 1.325    C  251 0.966    H  255 0.881    O  236 0.197
   251  C   3.955    C  254 0.996    N  250 0.966    H  256 0.948    C  252 0.930    O  253 0.053
   252  C   3.950    O  253 1.645    N  260 1.293    C  251 0.930
   253  O   1.973    C  252 1.645    N  260 0.195    C  251 0.053
   254  C   3.980    C  251 0.996    H  259 0.980    H  258 0.979    H  257 0.977
   255  H   0.952    N  250 0.881
   256  H   0.993    C  251 0.948
   257  H   0.991    C  254 0.977
   258  H   0.996    C  254 0.979
   259  H   0.994    C  254 0.980
   260  N   3.469    C  252 1.293    C  261 0.997    H  264 0.915    O  253 0.195
   261  C   3.958    N  260 0.997    C  262 0.953    H  266 0.949    H  265 0.944    O  263 0.051
   262  C   3.944    O  263 1.608    N  267 1.305    C  261 0.953
   263  O   1.975    C  262 1.608    N  267 0.193    C  261 0.051
   264  H   0.957    N  260 0.915
   265  H   0.984    C  261 0.944
   266  H   0.990    C  261 0.949
   267  N   3.470    C  262 1.305    C  268 0.977    H  276 0.917    O  263 0.193
   268  C   3.966    C  271 0.982    N  267 0.977    H  277 0.952    C  269 0.936    O  270 0.050
   269  C   3.951    O  270 1.619    N  284 1.311    C  268 0.936
   270  O   1.946    C  269 1.619    N  284 0.194    C  268 0.050
   271  C   3.987    C  272 1.000    C  268 0.982    H  278 0.970    H  279 0.957
   272  C   3.993    C  271 1.000    H  280 0.972    C  273 0.968    H  281 0.950    O  274 0.056
   273  C   3.945    O  274 1.651    N  275 1.297    C  272 0.968
   274  O   1.953    C  273 1.651    N  275 0.196    C  272 0.056
   275  N   3.386    C  273 1.297    H  282 0.929    H  283 0.929    O  274 0.196
   276  H   0.957    N  267 0.917
   277  H   0.995    C  268 0.952
   278  H   0.996    C  271 0.970
   279  H   0.993    C  271 0.957
   280  H   0.996    C  272 0.972
   281  H   0.992    C  272 0.950
   282  H   0.950    N  275 0.929
   283  H   0.950    N  275 0.929
   284  N   3.467    C  269 1.311    C  285 0.974    H  292 0.896    O  270 0.194
   285  C   3.960    C  288 0.978    N  284 0.974    H  293 0.948    C  286 0.942
   286  C   3.945    O  287 1.570    N  303 1.338    C  285 0.942
   287  O   1.952    C  286 1.570    N  303 0.190
   288  C   3.982    C  289 0.992    C  285 0.978    H  294 0.970    H  295 0.968
   289  C   3.992    C  290 1.009    C  291 1.008    C  288 0.992    H  296 0.959
   290  C   3.995    C  289 1.009    H  299 0.983    H  298 0.981    H  297 0.973
   291  C   3.991    C  289 1.008    H  302 0.982    H  300 0.976    H  301 0.970
   292  H   0.949    N  284 0.896
   293  H   0.995    C  285 0.948
   294  H   0.996    C  288 0.970
   295  H   0.995    C  288 0.968
   296  H   0.998    C  289 0.959
   297  H   0.998    C  290 0.973
   298  H   1.000    C  290 0.981
   299  H   0.998    C  290 0.983
   300  H   0.997    C  291 0.976
   301  H   0.998    C  291 0.970
   302  H   0.997    C  291 0.982
   303  N   3.493    C  286 1.338    C  304 0.977    H  312 0.903    O  287 0.190
   304  C   3.957    C  307 0.977    N  303 0.977    C  305 0.937    H  313 0.936
   305  C   3.940    O  306 1.565    N  320 1.348    C  304 0.937
   306  O   1.954    C  305 1.565    N  320 0.191
   307  C   3.982    C  308 0.994    C  304 0.977    H  315 0.972    H  314 0.964
   308  C   3.987    C  307 0.994    H  316 0.970    C  309 0.967    H  317 0.946    O  310 0.053
   309  C   3.949    O  310 1.645    N  311 1.311    C  308 0.967
   310  O   1.955    C  309 1.645    N  311 0.201    C  308 0.053
   311  N   3.391    C  309 1.311    H  318 0.924    H  319 0.919    O  310 0.201
   312  H   0.948    N  303 0.903
   313  H   0.990    C  304 0.936
   314  H   0.994    C  307 0.964
   315  H   0.996    C  307 0.972
   316  H   0.994    C  308 0.970
   317  H   0.991    C  308 0.946
   318  H   0.944    N  311 0.924
   319  H   0.940    N  311 0.919
   320  N   3.494    C  305 1.348    C  321 0.978    H  325 0.884    O  306 0.191
   321  C   3.967    C  324 0.992    N  320 0.978    H  326 0.952    C  322 0.937    O  323 0.052
   322  C   3.941    O  323 1.638    N  330 1.287    C  321 0.937
   323  O   1.947    C  322 1.638    N  330 0.192    C  321 0.052
   324  C   3.981    C  321 0.992    H  327 0.982    H  328 0.979    H  329 0.972
   325  H   0.942    N  320 0.884
   326  H   0.995    C  321 0.952
   327  H   0.995    C  324 0.982
   328  H   0.994    C  324 0.979
   329  H   0.993    C  324 0.972
   330  N   3.458    C  322 1.287    C  331 0.989    H  335 0.902    O  323 0.192
   331  C   3.968    N  330 0.989    C  334 0.986    H  336 0.953    C  332 0.933
   332  C   3.944    O  333 1.621    N  340 1.310    C  331 0.933
   333  O   1.943    C  332 1.621    N  340 0.196
   334  C   3.984    C  331 0.986    H  337 0.982    H  339 0.982    H  338 0.981
   335  H   0.952    N  330 0.902
   336  H   0.996    C  331 0.953
   337  H   0.995    C  334 0.982
   338  H   0.994    C  334 0.981
   339  H   0.995    C  334 0.982
   340  N   3.459    C  332 1.310    C  341 0.978    H  347 0.879    O  333 0.196
   341  C   3.961    N  340 0.978    H  348 0.952    C  344 0.949    C  342 0.939    O  343 0.053
   342  C   3.945    O  343 1.640    N  354 1.280    C  341 0.939
   343  O   1.950    C  342 1.640    N  354 0.188    C  341 0.053
   344  C   3.954    O  345 1.007    C  346 0.990    H  349 0.954    C  341 0.949
   345  O   1.951    C  344 1.007    H  350 0.825
   346  C   3.987    C  344 0.990    H  352 0.983    H  351 0.979    H  353 0.967
   347  H   0.945    N  340 0.879
   348  H   0.996    C  341 0.952
   349  H   0.997    C  344 0.954
   350  H   0.897    O  345 0.825
   351  H   0.993    C  346 0.979
   352  H   0.996    C  346 0.983
   353  H   0.997    C  346 0.967
   354  N   3.453    C  342 1.280    C  355 0.978    H  364 0.921    O  343 0.188
   355  C   3.962    N  354 0.978    C  358 0.973    H  365 0.952    C  356 0.926    O  357 0.053
   356  C   3.943    O  357 1.637    N  371 1.300    C  355 0.926
   357  O   1.955    C  356 1.637    N  371 0.199    C  355 0.053
   358  C   3.989    C  359 1.008    C  355 0.973    H  366 0.970    H  367 0.961
   359  C   3.975    C  361 1.553    N  360 1.282    C  358 1.008    N  363 0.054
   360  N   3.015    C  362 1.540    C  359 1.282    N  363 0.104
   361  C   3.950    C  359 1.553    N  363 1.224    H  368 0.971    C  362 0.120
   362  C   3.952    N  360 1.540    N  363 1.272    H  369 0.962    C  361 0.120
   363  N   3.597    C  362 1.272    C  361 1.224    H  370 0.921    N  360 0.104    C  359 0.054
   364  H   0.962    N  354 0.921
   365  H   0.992    C  355 0.952
   366  H   0.999    C  358 0.970
   367  H   0.996    C  358 0.961
   368  H   0.999    C  361 0.971
   369  H   0.995    C  362 0.962
   370  H   0.950    N  363 0.921
   371  N   3.473    C  356 1.300    C  372 0.972    H  381 0.935    O  357 0.199
   372  C   3.948    C  375 0.987    N  371 0.972    H  382 0.958    C  373 0.882    O  380 0.054    O  374 0.052
   373  C   3.938    O  380 1.522    O  374 1.496    C  372 0.882
   374  O   1.811    C  373 1.496    O  380 0.221    C  372 0.052
   375  C   3.993    C  376 0.991    C  372 0.987    H  384 0.975    H  383 0.971
   376  C   3.996    C  375 0.991    H  386 0.976    C  377 0.973    H  385 0.958    O  378 0.052
   377  C   3.942    O  378 1.654    N  379 1.282    C  376 0.973
   378  O   1.941    C  377 1.654    N  379 0.185    C  376 0.052
   379  N   3.354    C  377 1.282    H  388 0.927    H  387 0.916    O  378 0.185
   380  O   1.824    C  373 1.522    O  374 0.221    C  372 0.054
   381  H   0.972    N  371 0.935
   382  H   1.000    C  372 0.958
   383  H   0.996    C  375 0.971
   384  H   0.998    C  375 0.975
   385  H   0.993    C  376 0.958
   386  H   0.998    C  376 0.976
   387  H   0.954    N  379 0.916
   388  H   0.949    N  379 0.927
   389  H   0.968    N    1 0.956
   390  H   0.992    C    3 0.952
   391  H   0.968    N   11 0.957
   392  H   0.995    C   23 0.954
   393  H   0.968    N   40 0.956
   394  H   0.995    C   42 0.953
   395  H   0.965    N   50 0.954
   396  H   0.994    C   66 0.953
   397  H   0.963    N   83 0.954
   398  H   0.995    C   85 0.954
   399  H   0.968    N   98 0.957
   400  H   0.993    C  100 0.952
   401  H   0.965    N  108 0.955
   402  H   0.991    C  124 0.950
   403  H   0.973    N  132 0.962
   404  H   0.995    C  153 0.953
   405  H   0.970    N  175 0.959
 MOs/occ written to file <molden.input>
 
molecular dipole:
                 x           y           z       tot (Debye)
 q only:      -54.728     -25.165     -47.512
   full:      -54.547     -26.986     -48.228     197.372
molecular quadrupole (traceless):
                xx          xy          yy          xz          yz          zz
 q only:    -2068.772   -1050.915    2752.000   -1289.297    -824.776    -683.227
  q+dip:    -1982.931   -1078.597    2639.455   -1295.804    -932.878    -656.524
   full:    -1978.123   -1080.784    2641.554   -1293.936    -932.791    -663.431
speedup  0.96
cpu  time for grad    9.72 s
wall time for grad   10.13 s

SCC energy    :    -636.6592179
rep           :       7.5323360
ES            :       2.2636295
AES           :      -0.0559632
AXC           :       0.2078066
disp          :      -0.5075146
XB            :       0.0000000
fix           :       0.0000000
Gborn         :       0.0000000
Gsasa         :       0.0000000
Ghb           :       0.0000000
Gshift        :       0.0000000
Gsolv         :      -0.6431573     -403.59
Etot ala COSMO:    -636.6592179
grad norm     :       0.6491921
total E       :    -629.0854309
atomizationE  :     112.5380808    70618.71
(atE without considering molecular charge,
 total energy contains solvation terms)
H-L gap (eV)  :          1.7914

------------------------------------------------------------------------
 * finished run on 2019/03/14 at 16:03:27.959     
------------------------------------------------------------------------
 total:
 * wall-time:     0 d,  0 h,  0 min, 10.850 sec
 *  cpu-time:     0 d,  0 h,  0 min, 10.299 sec
 * ratio c/w:     0.949 speedup
 SCF:
 * wall-time:     0 d,  0 h,  0 min, 10.570 sec
 *  cpu-time:     0 d,  0 h,  0 min, 10.168 sec
 * ratio c/w:     0.962 speedup

