      -----------------------------------------------------------      
     |                   =====================                   |     
     |                           x T B                           |     
     |                   =====================                   |     
     |                         S. Grimme                         |     
     |          Mulliken Center for Theoretical Chemistry        |     
     |                    University of Bonn                     |     
     |                Version 6.1 RC1 (SAW190329)                |     
      -----------------------------------------------------------      

   This program is distributed in the hope that it will be useful,
   but WITHOUT ANY WARRANTY; without even the implied warranty of
   MERCHANTABILITY or FITNESS FOR A PARTICULAR PURPOSE.
   
   FOR NON-COMMERCIAL, ACADEMIA USE ONLY.
   
   Cite this work as:
   S. Grimme, C. Bannwarth, P. Shushkov, J. Comput. Theory Chem., 2017,
   13, 1989-2009. DOI: 10.1021/acs.jctc.7b00118
   C. Bannwarth, S. Ehlert and S. Grimme., J. Comput. Theory Chem., 2019,
   just accepted. DOI: 10.1021/acs.jctc.8b01176
   
   for sTDA-xTB:
   S. Grimme and C. Bannwarth, J. Chem. Phys., 2016, 145, 054103.
   DOI: 10.1063/1.4959605
   
   in the mass-spec context:
   V. Asgeirsson, C. Bauer and S. Grimme, Chem. Sci., 2017, 8, 4879.
   DOI: 10.1039/c7sc00601b
   
   for metadynamics refer to:
   S. Grimme, ChemRxiv, Preprint. DOI: 10.26434/chemrxiv.7660532.v1
   
   with help from (in alphabetical order)
   C. Bannwarth, F. Bohle, G. Brandenburg, E. Caldeweyher, M. Checinski,
   S. Dohm, S. Ehlert, S. Ehrlich, F. März, H. Neugebauer, J. Pisarek,
   P. Pracht, P. Shushkov, and S. Spicher.
   
 * started run on 2019/05/31 at 05:35:23.139     

           -------------------------------------------------
          |                Calculation Setup                |
           -------------------------------------------------

          program call               : /home/lum/install/xtb/xtb-190329/bin/xtb xtb_tmp.xyz --chrg -1 --grad --gfn 2 --etemp 500 --acc 0.1 --gbsa h2o --parallel 2
          hostname                   : cpu02
          coordinate file            : xtb_tmp.xyz
          omp threads                :                     2
          number of atoms            :                   443
          number of electrons        :                  1194
          charge                     :                    -1
          spin                       :                   0.0
          first test random number   :      0.14492748133784


molecular fragmentation (1/2 indicates fragments):
111111111111111111111111111111111111111111111111111111111111111111111111
111111111111111111111111111111111111111111111111111111111111111111111111
111111111111111111111111111111111111111111111111111111111111111111111111
111122222222222222222222222222222222222222222222222222222222222222222222
222222222222222222222222222222222222222222222222222222222222222222222222
222222222222222222222222222222222222222222222222222222222222222222222222
21122222222
# atoms in fragment 1/2:   222   221
 fragment masses (1/2) :     1552.75     1443.77
CMA distance (Bohr)    :  15.256
constraining FC (au)   :  0.0500

########################################################################
# WARNING! Please study the warnings concerning your input carefully
#  - XTBPATH is not set, using XTBHOME instead
#  - Process number higher than OMP_NUM_THREADS, I hope you know what you are doing.
########################################################################

           ------------------------------------------------- 
          |                 G F N 2 - x T B                 |
          | Geometry, Frequencies, Noncovalent interactions |
          |            JCTC 2018 parametrisation            |
           ------------------------------------------------- 
 
             k(s)              :                1.8500
             k(p)              :                2.2300
             k(d)              :                2.2300
             k(f)              :                2.0000
             kEN (H0ij)        :               -2.0000
             D4 a1             :                0.5200
             D4 a2             :                5.0000
             D4 s6             :                1.0000
             D4 s8             :                2.7000
             D4 s9             :                5.0000
             alphaj            :                2.0000

  Z AO/shell   Hii/eV     exponent
  1     Wed Apr 25 08:07:45 CEST 2018   EN: 2.200 GM2: 0.406  GM3: 0.0800  RAES: 1.40
     1s    -10.707211    1.230000
  6     Wed Apr 25 08:07:45 CEST 2018   EN: 2.550 GM2: 0.538  GM3: 0.1500  RAES: 3.00
     2s    -13.970922    2.096432
     2p    -10.063292    1.800000
  7     Wed Apr 25 08:07:45 CEST 2018   EN: 3.040 GM2: 0.461  GM3:-0.0640  RAES: 1.90
     2s    -16.686243    2.339881
     2p    -12.523956    2.014332
  8     Wed Apr 25 08:07:45 CEST 2018   EN: 3.440 GM2: 0.452  GM3:-0.0517  RAES: 1.80
     2s    -20.229985    2.439742
     2p    -15.503117    2.137023

 Solvent             : h2o
 Using internal parameter file: .param_gbsa2_h2o
 Gsolv ref. state (COSMO-RS): gsolv [1 M gas/solution]
 temperature (mdtemp)       :    298.150000000000     
 dielectric constant        :    80.2000000000000     
 rho                        :    1.00000000000000     
 mass                       :    18.0000000000000     
 surface tension            :    15.5689454083859     
 probe radius               :   0.975313790000000     
 vdW radii scaling          :    1.00000000000000     
 Gshift (Eh)                :   1.857443126794793E-003
 c1                         :    1.55243817000000     
 soset                      :   0.130326360000000     
 HB correction              :  T
 Number of grid points      :          230

            Z     q(EN)     CN     RAES       Cart. coordinates
     1  N   5.0   -0.72    3.00    1.93   275.82865   137.19722   212.55484
     2  C   4.0    0.08    3.99    3.60   278.28591   138.27086   211.98686
     3  C   4.0    0.28    3.01    3.02   279.70873   136.57402   210.14127
     4  O   6.0   -0.46    1.00    1.80   280.87080   137.41684   208.30952
     5  C   4.0   -0.14    3.99    3.60   279.85410   138.57145   214.39732
     6  C   4.0   -0.12    3.98    3.58   279.13482   140.96621   215.83175
     7  C   4.0    0.31    2.99    3.02   279.93121   143.30101   214.20921
     8  O   6.0   -0.36    1.00    1.80   282.21208   143.89237   214.27848
     9  O   6.0   -0.38    1.00    1.80   278.24096   144.33670   212.93271
    10  H   1.0    0.25    1.00    1.43   275.37945   136.85395   214.38951
    11  H   1.0    0.14    0.99    1.43   278.04897   140.13061   211.09295
    12  H   1.0    0.10    0.99    1.43   279.59401   136.88735   215.56215
    13  H   1.0    0.13    0.99    1.43   281.84895   138.72287   213.88306
    14  H   1.0    0.11    0.99    1.43   277.10577   141.03580   216.18472
    15  H   1.0    0.12    0.99    1.43   280.16264   141.04407   217.61608
    16  N   5.0   -0.49    3.01    1.93   279.68431   134.12343   210.70218
    17  C   4.0    0.07    4.00    3.62   280.91640   132.29362   209.07262
    18  C   4.0    0.29    3.01    3.02   279.78105   132.48956   206.41235
    19  O   6.0   -0.46    1.00    1.80   281.11291   132.63830   204.52881
    20  C   4.0   -0.10    3.98    3.59   280.69815   129.63041   210.20870
    21  C   4.0   -0.16    3.98    3.59   282.41173   129.49711   212.54463
    22  C   4.0   -0.23    3.98    3.59   281.37371   127.63204   208.24122
    23  C   4.0   -0.23    3.98    3.58   282.08474   127.10520   214.10889
    24  H   1.0    0.23    1.00    1.43   278.80198   133.50954   212.29491
    25  H   1.0    0.12    0.99    1.43   282.92458   132.79426   208.88595
    26  H   1.0    0.11    0.99    1.43   278.72896   129.36279   210.78016
    27  H   1.0    0.11    0.99    1.43   284.37845   129.64651   211.93854
    28  H   1.0    0.11    0.99    1.43   282.00187   131.11779   213.75357
    29  H   1.0    0.09    0.99    1.43   281.20609   125.75508   209.04951
    30  H   1.0    0.11    0.99    1.43   280.10564   127.75613   206.63114
    31  H   1.0    0.10    0.99    1.43   283.29441   127.90075   207.56880
    32  H   1.0    0.11    0.99    1.43   283.40430   127.13684   215.68161
    33  H   1.0    0.10    0.99    1.43   280.17736   127.00001   214.86490
    34  H   1.0    0.10    0.99    1.43   282.45589   125.41604   213.00519
    35  N   5.0   -0.49    3.01    1.93   277.26592   132.49155   206.36918
    36  C   4.0    0.07    3.99    3.61   275.81541   132.66707   204.05561
    37  C   4.0    0.32    3.01    3.02   276.78783   134.90385   202.49570
    38  O   6.0   -0.44    1.00    1.80   277.44525   134.62674   200.30232
    39  C   4.0   -0.11    3.99    3.60   273.00228   132.88264   204.70158
    40  C   4.0    0.27    3.00    3.02   271.31951   132.50759   202.39350
    41  O   6.0   -0.38    1.00    1.80   271.68434   133.58819   200.40124
    42  N   5.0   -0.65    3.00    1.93   269.28901   131.00936   202.78736
    43  H   1.0    0.23    1.00    1.43   276.27493   132.24474   207.99709
    44  H   1.0    0.12    0.99    1.43   276.14407   130.96586   202.90689
    45  H   1.0    0.09    0.99    1.43   272.55955   131.49420   206.15704
    46  H   1.0    0.12    0.99    1.43   272.65303   134.77432   205.45234
    47  H   1.0    0.27    1.00    1.43   268.25599   130.50406   201.26290
    48  H   1.0    0.25    1.00    1.43   269.19970   129.77425   204.23570
    49  N   5.0   -0.46    3.01    1.93   276.95622   137.08463   203.74855
    50  C   4.0    0.09    4.00    3.61   277.84569   139.35913   202.50669
    51  C   4.0    0.30    3.02    3.02   280.41606   138.86968   201.28106
    52  O   6.0   -0.44    1.00    1.80   280.86062   139.49841   199.09714
    53  C   4.0   -0.09    3.99    3.60   278.07703   141.59181   204.34378
    54  C   4.0    0.29    3.00    3.02   275.65993   143.15539   204.41197
    55  O   6.0   -0.36    1.00    1.80   275.49573   145.19891   203.35193
    56  N   5.0   -0.63    3.00    1.93   273.74309   142.12032   205.69169
    57  H   1.0    0.25    1.00    1.43   276.35969   137.20034   205.56255
    58  H   1.0    0.18    0.99    1.43   276.51793   139.84202   200.98115
    59  H   1.0    0.14    0.99    1.43   278.55074   140.91101   206.23044
    60  H   1.0    0.14    0.99    1.43   279.58425   142.84263   203.70061
    61  H   1.0    0.29    1.00    1.43   272.08252   143.04692   205.74111
    62  H   1.0    0.26    1.00    1.43   273.94073   140.48737   206.65473
    63  N   5.0   -0.46    3.01    1.93   282.14695   137.76598   202.75105
    64  C   4.0    0.08    4.00    3.62   284.63638   137.24419   201.72342
    65  C   4.0    0.29    3.01    3.02   284.34449   135.73329   199.25646
    66  O   6.0   -0.48    1.00    1.80   285.55978   136.29016   197.36137
    67  C   4.0   -0.11    3.99    3.60   286.26662   135.75668   203.60063
    68  C   4.0    0.28    3.00    3.02   287.52286   137.47465   205.53601
    69  O   6.0   -0.45    1.00    1.80   289.38379   138.73860   205.01021
    70  N   5.0   -0.65    3.00    1.93   286.49875   137.43806   207.85040
    71  H   1.0    0.30    1.00    1.43   281.81601   137.47873   204.61348
    72  H   1.0    0.14    0.99    1.43   285.57894   139.02768   201.22853
    73  H   1.0    0.13    0.99    1.43   285.10300   134.32980   204.51993
    74  H   1.0    0.10    0.99    1.43   287.79304   134.83156   202.56620
    75  H   1.0    0.29    1.00    1.43   287.25386   138.55031   209.20301
    76  H   1.0    0.30    1.00    1.43   284.72178   136.80731   208.14875
    77  N   5.0   -0.48    3.01    1.93   282.78760   133.76777   199.35931
    78  C   4.0    0.07    4.00    3.61   282.45991   132.11078   197.20391
    79  C   4.0    0.29    3.01    3.02   281.21350   133.43556   194.94789
    80  O   6.0   -0.47    1.00    1.80   281.77056   132.84549   192.77104
    81  C   4.0   -0.14    3.99    3.60   280.95658   129.77151   197.99122
    82  C   4.0   -0.10    3.98    3.58   282.36149   128.11873   199.91984
    83  C   4.0   -0.23    3.98    3.59   280.57307   126.12538   200.99782
    84  C   4.0   -0.24    3.98    3.59   284.64469   126.82613   198.72540
    85  H   1.0    0.30    1.00    1.43   281.80748   133.37484   200.96349
    86  H   1.0    0.11    0.99    1.43   284.33765   131.55304   196.52530
    87  H   1.0    0.13    0.99    1.43   279.17371   130.42064   198.79811
    88  H   1.0    0.11    0.99    1.43   280.54570   128.66108   196.30417
    89  H   1.0    0.13    0.99    1.43   282.99342   129.31757   201.47948
    90  H   1.0    0.09    0.99    1.43   281.50099   125.07037   202.49516
    91  H   1.0    0.10    0.99    1.43   278.88973   127.00835   201.77555
    92  H   1.0    0.10    0.99    1.43   279.99191   124.80131   199.53754
    93  H   1.0    0.09    0.99    1.43   285.54868   125.58981   200.09151
    94  H   1.0    0.10    0.99    1.43   284.04973   125.70187   197.11309
    95  H   1.0    0.09    0.99    1.43   286.03813   128.19281   198.09152
    96  N   5.0   -0.47    3.01    1.93   279.50647   135.20426   195.48076
    97  C   4.0    0.07    4.00    3.61   278.34619   136.71363   193.51436
    98  C   4.0    0.29    3.01    3.02   280.37482   138.23578   192.10075
    99  O   6.0   -0.44    1.00    1.80   280.39196   138.42205   189.79143
   100  C   4.0   -0.14    3.99    3.60   276.38124   138.50520   194.63974
   101  C   4.0   -0.10    3.98    3.59   274.06069   137.10116   195.65427
   102  C   4.0    0.29    3.00    3.02   272.37205   138.93191   197.07347
   103  O   6.0   -0.38    1.00    1.80   273.02839   139.95974   199.03633
   104  N   5.0   -0.64    3.00    1.93   270.11556   139.37895   196.01296
   105  H   1.0    0.31    1.00    1.43   278.99566   135.54203   197.29774
   106  H   1.0    0.12    0.99    1.43   277.46435   135.45796   192.11828
   107  H   1.0    0.15    0.99    1.43   277.26411   139.57048   196.16964
   108  H   1.0    0.12    0.99    1.43   275.80588   139.84879   193.18361
   109  H   1.0    0.10    0.99    1.43   273.02483   136.21161   194.11697
   110  H   1.0    0.16    0.99    1.43   274.64233   135.65236   197.00087
   111  H   1.0    0.26    1.00    1.43   269.57947   138.53595   194.39894
   112  H   1.0    0.29    1.00    1.43   268.92204   140.60290   196.85139
   113  N   5.0   -0.47    3.01    1.93   282.09820   139.31230   193.58540
   114  C   4.0    0.08    4.00    3.61   284.20885   140.70595   192.52953
   115  C   4.0    0.29    3.02    3.02   285.76099   138.92166   190.86011
   116  O   6.0   -0.46    1.00    1.80   286.57144   139.53812   188.77700
   117  C   4.0   -0.15    3.99    3.60   285.82478   141.75544   194.68260
   118  C   4.0   -0.15    3.98    3.59   287.73915   143.71677   193.77935
   119  C   4.0   -0.02    3.99    3.60   286.46943   146.28642   193.43203
   120  N   5.0   -0.47    3.02    1.93   288.30039   148.15987   192.64317
   121  C   4.0    0.38    3.00    3.02   287.98039   149.95409   190.91319
   122  N   5.0   -0.62    3.01    1.93   285.89259   150.14964   189.55190
   123  N   5.0   -0.65    3.02    1.93   289.83588   151.65422   190.61635
   124  H   1.0    0.30    1.00    1.43   281.93845   139.22214   195.49079
   125  H   1.0    0.15    0.99    1.43   283.50664   142.23207   191.31031
   126  H   1.0    0.13    0.99    1.43   284.56572   142.61142   196.07563
   127  H   1.0    0.13    0.99    1.43   286.77295   140.16645   195.58905
   128  H   1.0    0.12    0.99    1.43   289.25183   143.89662   195.16753
   129  H   1.0    0.13    0.99    1.43   288.56029   143.10537   191.99066
   130  H   1.0    0.15    0.99    1.43   284.97763   146.13981   192.02696
   131  H   1.0    0.12    0.99    1.43   285.62662   146.88052   195.22723
   132  H   1.0    0.25    1.00    1.43   289.92082   148.16617   193.65854
   133  H   1.0    0.33    1.00    1.43   284.61772   148.66810   189.33973
   134  H   1.0    0.28    1.00    1.43   285.81324   151.45575   188.17120
   135  H   1.0    0.27    1.00    1.43   291.36599   151.63163   191.74373
   136  H   1.0    0.27    1.00    1.43   289.64987   153.07383   189.36712
   137  N   5.0   -0.47    3.01    1.93   286.15375   136.63194   191.84317
   138  C   4.0    0.08    4.00    3.62   287.57414   134.76400   190.43409
   139  C   4.0    0.29    3.01    3.02   286.34807   134.38405   187.84300
   140  O   6.0   -0.46    1.00    1.80   287.64653   134.35373   185.91838
   141  C   4.0   -0.09    3.98    3.58   287.86918   132.28366   191.90537
   142  C   4.0   -0.24    3.99    3.59   289.13049   130.29651   190.23959
   143  C   4.0   -0.23    3.98    3.59   289.46226   132.71380   194.27674
   144  H   1.0    0.29    1.00    1.43   285.63964   136.25466   193.65059
   145  H   1.0    0.11    0.99    1.43   289.46241   135.53067   190.02913
   146  H   1.0    0.13    0.99    1.43   285.97623   131.64294   192.42899
   147  H   1.0    0.08    0.99    1.43   289.37199   128.55395   191.29384
   148  H   1.0    0.11    0.99    1.43   288.00485   129.91659   188.57021
   149  H   1.0    0.09    0.99    1.43   290.97976   130.95192   189.62905
   150  H   1.0    0.09    0.99    1.43   289.68161   130.94898   195.30333
   151  H   1.0    0.09    0.99    1.43   291.33557   133.38817   193.76560
   152  H   1.0    0.13    0.99    1.43   288.60622   134.09321   195.53157
   153  N   5.0   -0.48    3.00    1.93   283.84646   134.07493   187.79127
   154  C   4.0    0.07    4.00    3.62   282.57314   133.82355   185.37735
   155  C   4.0    0.30    3.01    3.02   283.62203   135.74217   183.46654
   156  O   6.0   -0.41    1.00    1.80   284.18126   135.11949   181.31007
   157  C   4.0   -0.15    3.99    3.60   279.72798   134.26837   185.61093
   158  C   4.0   -0.15    3.98    3.58   278.33544   132.13996   186.97998
   159  C   4.0   -0.04    3.99    3.60   275.51378   132.79380   187.14564
   160  N   5.0   -0.48    3.01    1.93   274.02277   130.80242   188.29350
   161  C   4.0    0.36    3.01    3.02   273.29381   128.70181   187.09524
   162  N   5.0   -0.65    3.02    1.93   273.70692   128.35866   184.65426
   163  N   5.0   -0.65    3.02    1.93   272.01678   126.93198   188.34666
   164  H   1.0    0.30    1.00    1.43   282.82542   133.96523   189.41130
   165  H   1.0    0.11    0.99    1.43   282.94937   131.94020   184.58190
   166  H   1.0    0.15    0.99    1.43   279.43611   136.04783   186.60551
   167  H   1.0    0.11    0.99    1.43   278.97441   134.46624   183.70143
   168  H   1.0    0.11    0.99    1.43   278.58676   130.37199   185.95077
   169  H   1.0    0.13    0.99    1.43   279.10902   131.88564   188.87398
   170  H   1.0    0.11    0.99    1.43   275.26422   134.49937   188.27352
   171  H   1.0    0.11    0.99    1.43   274.77170   133.19487   185.26266
   172  H   1.0    0.23    1.00    1.43   273.85965   130.82521   190.19439
   173  H   1.0    0.25    1.00    1.43   274.66428   129.62016   183.60857
   174  H   1.0    0.25    1.00    1.43   273.23822   126.63506   183.91182
   175  H   1.0    0.26    1.00    1.43   271.63150   127.06855   190.20236
   176  H   1.0    0.26    1.00    1.43   271.57546   125.32740   187.39788
   177  N   5.0   -0.47    3.01    1.93   283.61420   138.13891   184.26510
   178  C   4.0    0.07    4.00    3.61   284.33345   140.20827   182.62845
   179  C   4.0    0.30    3.01    3.02   287.00039   139.85209   181.58053
   180  O   6.0   -0.38    1.00    1.80   287.53846   140.31107   179.36760
   181  C   4.0   -0.13    3.99    3.61   284.32583   142.72046   184.06777
   182  C   4.0   -0.11    3.98    3.58   281.73541   143.54875   185.03019
   183  C   4.0    0.31    3.00    3.02   282.16454   146.15918   186.29013
   184  O   6.0   -0.39    1.00    1.80   281.88376   148.08767   184.98751
   185  O   6.0   -0.47    1.00    1.80   282.89100   146.11211   188.54970
   186  H   1.0    0.29    1.00    1.43   283.17043   138.56871   186.07404
   187  H   1.0    0.13    0.99    1.43   283.03335   140.30197   181.01366
   188  H   1.0    0.15    0.99    1.43   285.59806   142.56329   185.68506
   189  H   1.0    0.13    0.99    1.43   285.05200   144.18957   182.80806
   190  H   1.0    0.12    0.99    1.43   280.39501   143.74606   183.47834
   191  H   1.0    0.14    0.99    1.43   281.01303   142.23049   186.43886
   192  N   5.0   -0.47    3.01    1.93   288.69891   139.15498   183.30084
   193  C   4.0    0.07    3.99    3.61   291.35373   138.82907   182.70574
   194  C   4.0    0.29    3.01    3.02   291.67261   136.76571   180.70376
   195  O   6.0   -0.38    1.00    1.80   293.01541   137.08446   178.83519
   196  C   4.0   -0.15    3.99    3.60   292.80001   138.19604   185.12399
   197  C   4.0   -0.10    3.98    3.58   292.80178   140.41713   186.99198
   198  C   4.0   -0.23    3.98    3.59   293.48928   139.51331   189.64183
   199  C   4.0   -0.23    3.98    3.59   294.64412   142.47851   186.16645
   200  H   1.0    0.29    1.00    1.43   288.13833   138.83270   185.10586
   201  H   1.0    0.13    0.99    1.43   292.08834   140.57197   181.85340
   202  H   1.0    0.12    0.99    1.43   291.89031   136.55529   185.97925
   203  H   1.0    0.10    0.99    1.43   294.73900   137.68779   184.64950
   204  H   1.0    0.14    0.99    1.43   290.89579   141.21833   187.06070
   205  H   1.0    0.10    0.99    1.43   293.20766   141.03642   190.98726
   206  H   1.0    0.10    0.99    1.43   292.31059   137.93038   190.20185
   207  H   1.0    0.10    0.99    1.43   295.45759   138.93048   189.71044
   208  H   1.0    0.10    0.99    1.43   294.48047   144.11944   187.39072
   209  H   1.0    0.10    0.99    1.43   296.58019   141.79162   186.28600
   210  H   1.0    0.11    0.99    1.43   294.29447   143.08826   184.23532
   211  N   5.0   -0.47    3.01    1.93   290.39294   134.64988   181.15543
   212  C   4.0    0.07    3.99    3.60   290.39449   132.54974   179.38753
   213  C   4.0    0.11    3.00    3.02   289.68537   133.52104   176.75786
   214  O   6.0   -0.38    1.00    1.80   291.02480   133.15333   174.89467
   215  C   4.0   -0.22    3.98    3.59   288.54458   130.53701   180.28525
   216  H   1.0    0.30    1.00    1.43   289.31976   134.48619   182.73993
   217  H   1.0    0.13    0.99    1.43   292.31408   131.77405   179.24011
   218  H   1.0    0.10    0.99    1.43   288.45818   129.01235   178.91522
   219  H   1.0    0.10    0.99    1.43   289.17694   129.78652   182.08797
   220  H   1.0    0.14    0.99    1.43   286.67890   131.36486   180.51179
   221  N   5.0   -0.73    3.00    1.93   304.09811   140.99749   192.54166
   222  C   4.0    0.08    3.98    3.59   301.66724   141.64449   193.62641
   223  C   4.0    0.28    3.01    3.02   300.22549   139.25327   194.37697
   224  O   6.0   -0.45    1.00    1.80   299.30621   139.01316   196.49548
   225  C   4.0   -0.15    3.98    3.59   300.18181   143.26857   191.76384
   226  C   4.0   -0.12    3.98    3.58   297.52529   143.81657   192.70665
   227  C   4.0    0.31    2.99    3.02   297.29896   145.36436   195.17386
   228  O   6.0   -0.49    1.00    1.80   295.03800   145.75962   195.81743
   229  O   6.0   -0.40    1.00    1.80   299.19299   146.09251   196.32880
   230  H   1.0    0.25    1.00    1.43   304.44832   141.49110   190.72529
   231  H   1.0    0.14    0.99    1.43   301.96704   142.71538   195.37919
   232  H   1.0    0.11    0.99    1.43   301.21625   145.03212   191.48527
   233  H   1.0    0.09    0.99    1.43   300.08427   142.27199   189.95766
   234  H   1.0    0.10    0.99    1.43   296.47574   144.84296   191.26051
   235  H   1.0    0.11    0.99    1.43   296.54712   142.03970   193.07124
   236  N   5.0   -0.50    3.01    1.93   299.99555   137.48132   192.59776
   237  C   4.0    0.06    4.00    3.62   298.79421   135.07877   193.17647
   238  C   4.0    0.29    3.01    3.02   299.81368   134.06241   195.68715
   239  O   6.0   -0.48    1.00    1.80   298.43614   133.23155   197.34764
   240  C   4.0   -0.09    3.98    3.59   299.24181   133.10838   191.07777
   241  C   4.0   -0.17    3.98    3.59   297.86224   133.88402   188.64822
   242  C   4.0   -0.22    3.98    3.59   298.38681   130.50208   191.98045
   243  C   4.0   -0.24    3.98    3.58   298.32079   132.06897   186.45579
   244  H   1.0    0.23    1.00    1.43   300.81213   137.71850   190.88040
   245  H   1.0    0.11    0.99    1.43   296.75651   135.38421   193.43034
   246  H   1.0    0.11    0.99    1.43   301.27651   133.05079   190.70413
   247  H   1.0    0.09    0.99    1.43   295.83715   133.98796   189.01900
   248  H   1.0    0.10    0.99    1.43   298.50984   135.75793   188.08295
   249  H   1.0    0.11    0.99    1.43   298.84904   129.08030   190.57729
   250  H   1.0    0.12    0.99    1.43   299.33395   129.98102   193.72516
   251  H   1.0    0.09    0.99    1.43   296.36014   130.49916   192.31448
   252  H   1.0    0.10    0.99    1.43   297.55855   132.86078   184.71962
   253  H   1.0    0.11    0.99    1.43   300.33445   131.74679   186.18009
   254  H   1.0    0.10    0.99    1.43   297.41845   130.25594   186.78169
   255  N   5.0   -0.48    3.01    1.93   302.32831   134.04510   195.83316
   256  C   4.0    0.08    3.99    3.61   303.66255   132.93392   197.93996
   257  C   4.0    0.29    3.02    3.02   302.88889   134.24481   200.38729
   258  O   6.0   -0.43    1.00    1.80   302.27499   133.04618   202.27123
   259  C   4.0    0.03    3.98    3.58   306.54281   133.07430   197.49715
   260  O   6.0   -0.47    1.99    1.82   307.19542   131.91650   195.18141
   261  C   4.0   -0.19    3.98    3.59   307.95021   131.71007   199.60533
   262  H   1.0    0.24    1.00    1.43   303.34304   134.81313   194.40998
   263  H   1.0    0.13    0.99    1.43   303.11067   130.93935   198.12338
   264  H   1.0    0.11    0.99    1.43   307.07892   135.08302   197.45632
   265  H   1.0    0.25    0.99    1.43   306.56660   132.96834   193.81402
   266  H   1.0    0.11    0.99    1.43   309.96786   132.02152   199.40646
   267  H   1.0    0.13    0.99    1.43   307.31399   132.38201   201.43563
   268  H   1.0    0.13    0.99    1.43   307.57914   129.69489   199.48030
   269  N   5.0   -0.47    3.01    1.93   302.88576   136.76774   200.32384
   270  C   4.0    0.07    4.00    3.62   302.00777   138.16987   202.50811
   271  C   4.0    0.31    3.01    3.02   299.43120   137.13054   203.35170
   272  O   6.0   -0.45    1.00    1.80   299.00339   136.62112   205.57277
   273  C   4.0   -0.14    3.98    3.59   301.80322   140.99911   201.94310
   274  C   4.0   -0.11    3.98    3.59   301.08371   142.44645   204.35121
   275  C   4.0    0.29    3.00    3.02   300.30780   145.15955   203.82309
   276  O   6.0   -0.41    1.00    1.80   298.14831   145.90987   204.15020
   277  N   5.0   -0.64    3.00    1.93   302.17829   146.68330   203.06835
   278  H   1.0    0.25    1.00    1.43   303.47275   137.72691   198.77130
   279  H   1.0    0.12    0.99    1.43   303.31910   137.86082   204.08964
   280  H   1.0    0.10    0.99    1.43   303.61631   141.64527   201.20342
   281  H   1.0    0.15    0.99    1.43   300.38775   141.29222   200.47119
   282  H   1.0    0.14    0.99    1.43   299.49866   141.50196   205.27055
   283  H   1.0    0.11    0.99    1.43   302.66918   142.44765   205.66895
   284  H   1.0    0.25    1.00    1.43   303.90229   145.99245   202.67312
   285  H   1.0    0.29    1.00    1.43   301.77310   148.46353   202.52647
   286  N   5.0   -0.47    3.01    1.93   297.70939   136.97015   201.52302
   287  C   4.0    0.08    4.00    3.61   295.13250   136.18913   202.04127
   288  C   4.0    0.30    3.01    3.02   295.13986   133.67959   203.49151
   289  O   6.0   -0.45    1.00    1.80   293.83594   133.35234   205.38123
   290  C   4.0   -0.15    3.98    3.59   293.64875   135.87441   199.57543
   291  C   4.0   -0.15    3.98    3.58   293.28072   138.34989   198.12759
   292  C   4.0   -0.03    3.98    3.59   291.30640   140.10068   199.34847
   293  N   5.0   -0.47    3.02    1.93   292.13194   142.70956   199.31430
   294  C   4.0    0.39    3.00    3.02   293.02443   144.04920   201.25576
   295  N   5.0   -0.63    3.01    1.93   292.73438   143.33744   203.65158
   296  N   5.0   -0.61    3.02    1.93   294.06030   146.27687   200.72776
   297  H   1.0    0.30    1.00    1.43   298.15913   137.44232   199.71966
   298  H   1.0    0.14    0.99    1.43   294.22591   137.58415   203.28157
   299  H   1.0    0.14    0.99    1.43   294.67479   134.53848   198.39094
   300  H   1.0    0.10    0.99    1.43   291.80684   135.06969   200.02485
   301  H   1.0    0.15    0.99    1.43   295.07805   139.34979   197.99927
   302  H   1.0    0.10    0.99    1.43   292.69129   137.89589   196.20725
   303  H   1.0    0.11    0.99    1.43   289.52910   139.98018   198.30812
   304  H   1.0    0.15    0.99    1.43   290.93073   139.51893   201.28445
   305  H   1.0    0.27    1.00    1.43   292.71984   143.38153   197.60640
   306  H   1.0    0.30    1.00    1.43   291.72712   141.80779   204.18073
   307  H   1.0    0.29    1.00    1.43   293.56462   144.38647   205.00275
   308  H   1.0    0.33    1.00    1.43   294.61965   146.50756   198.85537
   309  H   1.0    0.31    1.00    1.43   295.11704   147.10259   202.08448
   310  N   5.0   -0.47    3.01    1.93   296.56491   131.88739   202.43936
   311  C   4.0    0.07    4.00    3.61   296.68218   129.35058   203.45976
   312  C   4.0    0.29    3.01    3.02   297.58539   129.43813   206.20556
   313  O   6.0   -0.41    1.00    1.80   296.46259   128.42854   207.95982
   314  C   4.0   -0.14    3.99    3.60   298.47028   127.66511   201.94438
   315  C   4.0   -0.10    3.98    3.58   297.65191   127.18821   199.20511
   316  C   4.0   -0.21    3.98    3.59   299.72029   125.69652   197.85150
   317  C   4.0   -0.23    3.98    3.59   295.15175   125.75638   199.07987
   318  H   1.0    0.30    1.00    1.43   297.59248   132.31865   200.87860
   319  H   1.0    0.11    0.99    1.43   294.78151   128.52258   203.50103
   320  H   1.0    0.14    0.99    1.43   300.34943   128.51736   201.96011
   321  H   1.0    0.11    0.99    1.43   298.59360   125.85613   202.93418
   322  H   1.0    0.13    0.99    1.43   297.42846   129.00676   198.24608
   323  H   1.0    0.12    0.99    1.43   299.22778   125.38295   195.88304
   324  H   1.0    0.11    0.99    1.43   301.52199   126.68168   197.93560
   325  H   1.0    0.12    0.99    1.43   299.97747   123.85034   198.72266
   326  H   1.0    0.10    0.99    1.43   294.82116   125.07016   197.17349
   327  H   1.0    0.11    0.99    1.43   295.20269   124.12880   200.33888
   328  H   1.0    0.09    0.99    1.43   293.57978   126.95263   199.63847
   329  N   5.0   -0.46    3.01    1.93   299.68896   130.79855   206.52763
   330  C   4.0    0.09    4.00    3.62   300.87377   130.98234   208.98095
   331  C   4.0    0.30    3.01    3.02   298.93523   131.93506   210.90233
   332  O   6.0   -0.37    1.00    1.80   298.76448   131.02261   213.03209
   333  C   4.0   -0.10    3.99    3.60   303.11878   132.79213   208.86392
   334  C   4.0    0.28    3.00    3.02   305.31268   131.68272   207.34993
   335  O   6.0   -0.40    1.00    1.80   305.17061   129.73278   206.13455
   336  N   5.0   -0.66    3.00    1.93   307.43217   133.08144   207.44541
   337  H   1.0    0.31    1.00    1.43   300.68654   131.43251   205.01904
   338  H   1.0    0.15    0.99    1.43   301.48927   129.09708   209.60825
   339  H   1.0    0.14    0.99    1.43   302.49413   134.54671   207.97366
   340  H   1.0    0.11    0.99    1.43   303.75860   133.19916   210.78024
   341  H   1.0    0.27    1.00    1.43   309.00308   132.40034   206.61017
   342  H   1.0    0.25    1.00    1.43   307.58128   134.59920   208.57993
   343  N   5.0   -0.47    3.01    1.93   297.55696   133.89389   210.12944
   344  C   4.0    0.09    4.00    3.62   295.70572   135.04098   211.78399
   345  C   4.0    0.30    3.02    3.02   293.66592   133.14016   212.50040
   346  O   6.0   -0.35    1.00    1.80   292.99797   132.85565   214.70800
   347  C   4.0   -0.13    3.98    3.59   294.55840   137.39084   210.56356
   348  C   4.0   -0.10    3.98    3.58   292.50620   138.56438   212.21211
   349  C   4.0    0.32    2.99    3.02   293.32536   139.27529   214.93040
   350  O   6.0   -0.37    1.00    1.80   295.58963   139.06571   215.55343
   351  O   6.0   -0.35    1.00    1.80   291.60531   140.04251   216.35327
   352  H   1.0    0.31    1.00    1.43   297.78386   134.61844   208.36784
   353  H   1.0    0.17    0.99    1.43   296.63953   135.59275   213.55241
   354  H   1.0    0.13    0.99    1.43   296.07299   138.75926   210.28080
   355  H   1.0    0.15    0.99    1.43   293.75624   136.86744   208.73514
   356  H   1.0    0.12    0.99    1.43   291.79308   140.29244   211.33777
   357  H   1.0    0.14    0.99    1.43   290.90613   137.27245   212.41471
   358  N   5.0   -0.48    3.01    1.93   292.63807   131.84584   210.59942
   359  C   4.0    0.08    4.00    3.62   290.80025   129.88438   211.11943
   360  C   4.0    0.11    3.00    3.02   291.74990   128.25651   213.30683
   361  O   6.0   -0.40    1.00    1.80   290.39040   127.71384   215.11027
   362  C   4.0   -0.09    3.98    3.59   290.27293   128.27055   208.76236
   363  C   4.0   -0.15    3.98    3.59   288.80830   129.85124   206.82285
   364  C   4.0   -0.23    3.98    3.59   288.85498   125.87022   209.51231
   365  C   4.0   -0.24    3.98    3.58   288.42141   128.49664   204.31068
   366  H   1.0    0.30    1.00    1.43   293.26320   132.06975   208.80177
   367  H   1.0    0.13    0.99    1.43   289.03340   130.76485   211.77906
   368  H   1.0    0.14    0.99    1.43   292.10144   127.72675   207.95924
   369  H   1.0    0.10    0.99    1.43   286.97674   130.36730   207.62199
   370  H   1.0    0.14    0.99    1.43   289.85560   131.59408   206.48273
   371  H   1.0    0.09    0.99    1.43   288.37637   124.76605   207.85166
   372  H   1.0    0.12    0.99    1.43   290.03386   124.69576   210.72406
   373  H   1.0    0.10    0.99    1.43   287.13639   126.33074   210.54027
   374  H   1.0    0.10    0.99    1.43   287.64644   129.80083   202.92812
   375  H   1.0    0.10    0.99    1.43   290.21433   127.77555   203.61195
   376  H   1.0    0.09    0.99    1.43   287.12583   126.91749   204.50494
   377  N   5.0   -0.73    3.00    1.93   292.29533   115.40287   197.25070
   378  C   4.0    0.06    3.98    3.59   293.28557   117.52994   195.86807
   379  C   4.0    0.05    3.00    3.02   295.87641   118.42434   196.76577
   380  O   6.0   -0.49    1.00    1.80   296.94274   120.19157   195.72211
   381  C   4.0   -0.14    3.99    3.60   291.44615   119.76719   195.93421
   382  C   4.0   -0.11    3.98    3.58   288.87727   119.19838   194.72342
   383  C   4.0   -0.24    3.99    3.60   287.13606   121.45335   195.16980
   384  C   4.0   -0.24    3.98    3.59   289.11487   118.64731   191.90210
   385  H   1.0    0.25    1.00    1.43   291.93346   115.61328   199.11321
   386  H   1.0    0.11    0.99    1.43   293.53557   116.87907   193.91565
   387  H   1.0    0.10    0.99    1.43   291.17254   120.29846   197.91097
   388  H   1.0    0.11    0.99    1.43   292.35247   121.34561   194.96633
   389  H   1.0    0.10    0.99    1.43   288.07159   117.53168   195.65621
   390  H   1.0    0.10    0.99    1.43   285.28288   121.08922   194.36917
   391  H   1.0    0.09    0.99    1.43   286.91239   121.78701   197.18286
   392  H   1.0    0.09    0.99    1.43   287.92981   123.13928   194.30756
   393  H   1.0    0.09    0.99    1.43   287.24795   118.36115   191.09506
   394  H   1.0    0.09    0.99    1.43   290.02841   120.21794   190.94514
   395  H   1.0    0.09    0.99    1.43   290.20434   116.93399   191.59216
   396  N   5.0   -0.69    3.00    1.93   300.18498   119.13636   191.13464
   397  C   4.0    0.06    3.98    3.58   299.36467   120.64313   188.98504
   398  C   4.0    0.07    3.00    3.02   301.54834   122.36811   188.16288
   399  O   6.0   -0.40    1.00    1.80   302.47085   123.92343   189.61153
   400  C   4.0   -0.13    3.99    3.60   297.07111   122.19239   189.81091
   401  C   4.0   -0.11    3.98    3.58   296.07039   124.02518   187.80720
   402  C   4.0   -0.24    3.98    3.59   295.18498   122.65118   185.43412
   403  C   4.0   -0.24    3.99    3.60   293.88506   125.54182   188.92805
   404  H   1.0    0.31    1.00    1.43   299.49481   119.63990   192.84898
   405  H   1.0    0.09    0.99    1.43   298.91497   119.35262   187.43740
   406  H   1.0    0.10    0.99    1.43   295.58079   120.88465   190.38002
   407  H   1.0    0.13    0.99    1.43   297.62657   123.25854   191.48927
   408  H   1.0    0.11    0.99    1.43   297.60481   125.31904   187.29791
   409  H   1.0    0.09    0.99    1.43   294.37376   124.00460   184.12085
   410  H   1.0    0.09    0.99    1.43   296.75426   121.70595   184.51134
   411  H   1.0    0.09    0.99    1.43   293.74979   121.26705   185.92945
   412  H   1.0    0.09    0.99    1.43   293.24169   126.96575   187.59674
   413  H   1.0    0.09    0.99    1.43   292.31251   124.29202   189.36021
   414  H   1.0    0.09    0.99    1.43   294.46394   126.47035   190.66505
   415  N   5.0   -0.72    3.00    1.93   282.93678   119.10048   187.42942
   416  C   4.0    0.06    3.98    3.59   282.13495   121.20897   188.98329
   417  C   4.0    0.07    3.00    3.02   279.29679   120.99019   189.52166
   418  O   6.0   -0.43    1.00    1.80   278.43919   121.22153   191.66470
   419  C   4.0   -0.09    3.98    3.59   282.84475   123.72447   187.71770
   420  C   4.0   -0.17    3.98    3.59   285.73247   123.94369   187.50888
   421  C   4.0   -0.22    3.98    3.59   281.75140   125.93496   189.21669
   422  C   4.0   -0.25    3.98    3.58   286.57178   125.77910   185.45425
   423  H   1.0    0.25    1.00    1.43   283.56893   119.46740   185.65744
   424  H   1.0    0.11    0.99    1.43   283.07929   121.06678   190.82665
   425  H   1.0    0.11    0.99    1.43   282.01778   123.70322   185.82124
   426  H   1.0    0.09    0.99    1.43   286.48590   124.54888   189.32877
   427  H   1.0    0.10    0.99    1.43   286.53186   122.09910   187.06213
   428  H   1.0    0.10    0.99    1.43   282.37298   127.72090   188.42038
   429  H   1.0    0.12    0.99    1.43   279.69796   125.88277   189.19606
   430  H   1.0    0.11    0.99    1.43   282.37873   125.84535   191.17108
   431  H   1.0    0.09    0.99    1.43   288.61628   125.97219   185.48753
   432  H   1.0    0.10    0.99    1.43   286.02359   125.07371   183.60408
   433  H   1.0    0.10    0.99    1.43   285.74165   127.64216   185.69909
   434  H   1.0    0.30    1.00    1.43   274.60930   138.24464   211.99927
   435  H   1.0    0.16    1.00    1.43   288.08363   134.49258   176.50965
   436  H   1.0    0.29    1.00    1.43   305.33647   141.74101   193.43955
   437  H   1.0    0.16    1.00    1.43   293.52228   127.60104   213.29674
   438  H   1.0    0.29    1.00    1.43   290.81009   114.92666   196.57259
   439  H   1.0    0.13    1.00    1.43   296.72078   117.56439   198.22131
   440  H   1.0    0.29    1.00    1.43   299.71658   117.51757   190.90506
   441  H   1.0    0.11    1.00    1.43   302.24850   122.23696   186.41256
   442  H   1.0    0.28    1.00    1.43   284.22192   118.28913   188.19275
   443  H   1.0    0.13    1.00    1.43   278.09026   120.65041   188.10749

           ------------------------------------------------- 
          |        Self-Consistent Charge Iterations        |
           ------------------------------------------------- 

          ...................................................
          :                      SETUP                      :
          :.................................................:
          :  # basis functions                1073          :
          :  # atomic orbitals                1073          :
          :  # shells                          653          :
          :  # electrons                      1194          :
          :  max. iterations                   250          :
          :  Hamiltonian                  GFN2-xTB          :
          :  restarted?                      false          :
          :  GBSA solvation                   true          :
          :  PC potential                    false          :
          :  electronic temp.          500.0000000     K    :
          :  accuracy                    0.1000000          :
          :  -> integral cutoff          0.3500000E+02      :
          :  -> integral neglect         0.1000000E-08      :
          :  -> SCF convergence          0.1000000E-06 Eh   :
          :  -> wf. convergence          0.1000000E-04 e    :
          :  Broyden damping             0.4000000          :
          ...................................................

 iter      E             dE          RMSdq      gap      omega  full diag
   1   -684.0115299 -0.684012E+03  0.417E+00    1.64       0.0  T
   2   -685.9290995 -0.191757E+01  0.214E+00    1.66       1.0  T
   3   -686.0030865 -0.739869E-01  0.114E+00    2.17       1.0  T
   4   -686.0211411 -0.180547E-01  0.258E-01    1.77       1.0  T
   5   -686.0351446 -0.140035E-01  0.117E-01    1.99       1.0  T
   6   -686.0358622 -0.717560E-03  0.495E-02    2.05       1.0  T
   7   -686.0359535 -0.913729E-04  0.200E-02    2.05       1.0  T
   8   -686.0359866 -0.330539E-04  0.819E-03    2.04       1.0  T
   9   -686.0359919 -0.529485E-05  0.363E-03    2.04       1.3  T
  10   -686.0359926 -0.772699E-06  0.141E-03    2.03       3.4  T
  11   -686.0359929 -0.224076E-06  0.602E-04    2.03       7.9  T
  12   -686.0359929 -0.314260E-07  0.304E-04    2.03      15.6  T
  13   -686.0359929 -0.866805E-08  0.133E-04    2.03      35.8  T
  14   -686.0359929 -0.190494E-08  0.593E-05    2.03      80.1  T
  15   -686.0359929 -0.382101E-09  0.285E-05    2.03     166.6  T

   *** convergence criteria satisfied after 15 iterations ***

         #    Occupation            Energy/Eh            Energy/eV
      -------------------------------------------------------------
         1        2.0000           -0.7383367             -20.0912
       ...           ...                  ...                  ...
       591        2.0000           -0.3675284             -10.0010
       592        2.0000           -0.3652348              -9.9385
       593        2.0000           -0.3621255              -9.8539
       594        2.0000           -0.3611901              -9.8285
       595        2.0000           -0.3608509              -9.8193
       596        2.0000           -0.3570672              -9.7163
       597        2.0000           -0.3538188              -9.6279 (HOMO)
       598                         -0.2791292              -7.5955 (LUMO)
       599                         -0.2779910              -7.5645
       600                         -0.2756930              -7.5020
       601                         -0.2753617              -7.4930
       602                         -0.2732499              -7.4355
       ...                                ...                  ...
      1073                          0.6349825              17.2788
      -------------------------------------------------------------
                  HL-Gap            0.0746896 Eh            2.0324 eV
             Fermi-level           -0.3167841 Eh           -8.6201 eV

 SCC (total)                   0 d,  0 h,  0 min,  6.787 sec
 SCC setup                      ...        0 min,  0.113 sec (  1.664%)
 Dispersion                     ...        0 min,  0.121 sec (  1.778%)
 integral evaluation            ...        0 min,  0.233 sec (  3.439%)
 zeroth order Hamiltonian       ...        0 min,  0.005 sec (  0.067%)
 iterations                     ...        0 min,  5.166 sec ( 76.122%)
 molecular gradient             ...        0 min,  1.112 sec ( 16.389%)
 printout                       ...        0 min,  0.037 sec (  0.540%)

         :::::::::::::::::::::::::::::::::::::::::::::::::::::
         ::                     SUMMARY                     ::
         :::::::::::::::::::::::::::::::::::::::::::::::::::::
         :: total energy             -677.920196865982 Eh   ::
         :: total w/o Gsasa/hb       -677.840070640056 Eh   ::
         :: gradient norm               0.502844974669 Eh/α ::
         :: HOMO-LUMO gap               2.032406720793 eV   ::
         ::.................................................::
         :: SCC energy               -686.052584805380 Eh   ::
         :: -> isotropic ES             2.362425481569 Eh   ::
         :: -> anisotropic ES          -0.094984775836 Eh   ::
         :: -> anisotropic XC           0.207966645385 Eh   ::
         :: -> dispersion              -0.600426135273 Eh   ::
         :: -> Gsolv                   -0.637566738769 Eh   ::
         ::    -> Gborn                -0.557440512843 Eh   ::
         ::    -> Gsasa                -0.018449336685 Eh   ::
         ::    -> Ghb                  -0.063534332368 Eh   ::
         ::    -> Gshift                0.001857443127 Eh   ::
         :: repulsion energy            8.065676691787 Eh   ::
         :: add. restraining            0.000000000000 Eh   ::
         :::::::::::::::::::::::::::::::::::::::::::::::::::::

           -------------------------------------------------
          |                Property Printout                |
           -------------------------------------------------

    * Orbital Energies and Occupations

         #    Occupation            Energy/Eh            Energy/eV
      -------------------------------------------------------------
         1        2.0000           -0.7383367             -20.0912
       ...           ...                  ...                  ...
       585        2.0000           -0.3874498             -10.5430
       586        2.0000           -0.3866424             -10.5211
       587        2.0000           -0.3828657             -10.4183
       588        2.0000           -0.3820908             -10.3972
       589        2.0000           -0.3809552             -10.3663
       590        2.0000           -0.3712005             -10.1009
       591        2.0000           -0.3675284             -10.0010
       592        2.0000           -0.3652348              -9.9385
       593        2.0000           -0.3621255              -9.8539
       594        2.0000           -0.3611901              -9.8285
       595        2.0000           -0.3608509              -9.8193
       596        2.0000           -0.3570672              -9.7163
       597        2.0000           -0.3538188              -9.6279 (HOMO)
       598                         -0.2791292              -7.5955 (LUMO)
       599                         -0.2779910              -7.5645
       600                         -0.2756930              -7.5020
       601                         -0.2753617              -7.4930
       602                         -0.2732499              -7.4355
       603                         -0.2547310              -6.9316
       604                         -0.2494448              -6.7877
       605                         -0.2493003              -6.7838
       606                         -0.2448713              -6.6633
       607                         -0.2425197              -6.5993
       608                         -0.2419213              -6.5830
       ...                                ...                  ...
      1073                          0.6349825              17.2788
      -------------------------------------------------------------
                  HL-Gap            0.0746896 Eh            2.0324 eV
             Fermi-level           -0.3167841 Eh           -8.6201 eV

   #   Z        covCN         q      C6AA      α(0)
   1   7 N      2.635    -0.387    30.017     8.137
   2   6 C      3.788     0.036    19.976     6.366
   3   6 C      2.761     0.260    22.612     7.787
   4   8 O      0.859    -0.514    24.086     6.580
   5   6 C      3.809    -0.044    21.360     6.579
   6   6 C      3.799    -0.091    22.238     6.714
   7   6 C      2.685     0.374    20.670     7.440
   8   8 O      0.856    -0.664    27.737     7.061
   9   8 O      0.856    -0.644    27.213     6.994
  10   1 H      0.860     0.172     1.260     1.759
  11   1 H      0.923     0.028     2.611     2.527
  12   1 H      0.924     0.044     2.391     2.418
  13   1 H      0.924     0.010     2.898     2.662
  14   1 H      0.924     0.029     2.597     2.520
  15   1 H      0.924     0.013     2.848     2.639
  16   7 N      2.692    -0.172    24.731     7.386
  17   6 C      3.805     0.012    20.376     6.426
  18   6 C      2.754     0.275    22.352     7.742
  19   8 O      0.858    -0.460    22.927     6.420
  20   6 C      3.853    -0.032    21.116     6.536
  21   6 C      3.805    -0.059    21.624     6.620
  22   6 C      3.755    -0.126    22.974     6.834
  23   6 C      3.751    -0.114    22.741     6.801
  24   1 H      0.860     0.223     0.995     1.562
  25   1 H      0.923     0.061     2.186     2.312
  26   1 H      0.924     0.065     2.137     2.286
  27   1 H      0.924     0.029     2.600     2.522
  28   1 H      0.924     0.024     2.674     2.557
  29   1 H      0.925     0.073     2.048     2.238
  30   1 H      0.925     0.059     2.211     2.325
  31   1 H      0.925     0.056     2.250     2.346
  32   1 H      0.925     0.034     2.533     2.489
  33   1 H      0.925     0.052     2.300     2.372
  34   1 H      0.925     0.056     2.245     2.343
  35   7 N      2.693    -0.182    24.947     7.418
  36   6 C      3.796     0.023    20.195     6.399
  37   6 C      2.758     0.284    22.186     7.713
  38   8 O      0.859    -0.448    22.673     6.384
  39   6 C      3.808    -0.118    22.744     6.789
  40   6 C      2.743     0.292    22.043     7.687
  41   8 O      0.859    -0.471    23.144     6.450
  42   7 N      2.637    -0.293    27.567     7.798
  43   1 H      0.860     0.222     1.000     1.567
  44   1 H      0.923     0.094     1.838     2.120
  45   1 H      0.925     0.096     1.822     2.111
  46   1 H      0.924     0.079     1.994     2.208
  47   1 H      0.860     0.243     0.912     1.496
  48   1 H      0.860     0.236     0.939     1.518
  49   7 N      2.690    -0.171    24.703     7.382
  50   6 C      3.798     0.023    20.195     6.399
  51   6 C      2.763     0.278    22.299     7.733
  52   8 O      0.859    -0.479    23.317     6.474
  53   6 C      3.809    -0.101    22.413     6.739
  54   6 C      2.743     0.296    21.986     7.677
  55   8 O      0.859    -0.489    23.546     6.506
  56   7 N      2.638    -0.276    27.140     7.737
  57   1 H      0.860     0.190     1.159     1.686
  58   1 H      0.923     0.110     1.700     2.039
  59   1 H      0.924     0.065     2.139     2.287
  60   1 H      0.924     0.067     2.120     2.277
  61   1 H      0.860     0.245     0.904     1.489
  62   1 H      0.860     0.209     1.062     1.614
  63   7 N      2.690    -0.181    24.927     7.415
  64   6 C      3.801     0.027    20.122     6.387
  65   6 C      2.759     0.271    22.423     7.755
  66   8 O      0.859    -0.482    23.397     6.485
  67   6 C      3.809    -0.110    22.601     6.767
  68   6 C      2.743     0.291    22.071     7.692
  69   8 O      0.859    -0.485    23.455     6.493
  70   7 N      2.638    -0.272    27.048     7.724
  71   1 H      0.860     0.217     1.024     1.585
  72   1 H      0.923     0.073     2.050     2.239
  73   1 H      0.925     0.097     1.817     2.108
  74   1 H      0.924     0.092     1.864     2.135
  75   1 H      0.860     0.190     1.159     1.686
  76   1 H      0.860     0.219     1.016     1.579
  77   7 N      2.689    -0.169    24.666     7.376
  78   6 C      3.798     0.012    20.373     6.427
  79   6 C      2.756     0.265    22.531     7.773
  80   8 O      0.859    -0.480    23.355     6.479
  81   6 C      3.810    -0.084    22.085     6.690
  82   6 C      3.850    -0.020    20.903     6.503
  83   6 C      3.757    -0.120    22.848     6.815
  84   6 C      3.757    -0.125    22.942     6.829
  85   1 H      0.860     0.230     0.967     1.540
  86   1 H      0.924     0.090     1.882     2.145
  87   1 H      0.924     0.062     2.179     2.309
  88   1 H      0.924     0.079     1.985     2.203
  89   1 H      0.924     0.039     2.463     2.454
  90   1 H      0.925     0.046     2.365     2.405
  91   1 H      0.925     0.031     2.572     2.508
  92   1 H      0.925     0.058     2.222     2.331
  93   1 H      0.925     0.047     2.363     2.404
  94   1 H      0.925     0.059     2.215     2.327
  95   1 H      0.925     0.036     2.503     2.474
  96   7 N      2.690    -0.178    24.863     7.406
  97   6 C      3.799     0.014    20.334     6.421
  98   6 C      2.758     0.271    22.417     7.753
  99   8 O      0.858    -0.490    23.564     6.508
 100   6 C      3.809    -0.067    21.784     6.644
 101   6 C      3.806    -0.109    22.574     6.764
 102   6 C      2.746     0.296    21.986     7.678
 103   8 O      0.859    -0.518    24.177     6.592
 104   7 N      2.639    -0.291    27.497     7.788
 105   1 H      0.860     0.227     0.978     1.549
 106   1 H      0.924     0.093     1.847     2.125
 107   1 H      0.924     0.056     2.249     2.345
 108   1 H      0.924     0.057     2.240     2.340
 109   1 H      0.925     0.079     1.994     2.208
 110   1 H      0.924     0.098     1.799     2.098
 111   1 H      0.860     0.242     0.916     1.499
 112   1 H      0.860     0.225     0.985     1.555
 113   7 N      2.693    -0.185    25.006     7.427
 114   6 C      3.799     0.020    20.248     6.407
 115   6 C      2.762     0.278    22.297     7.733
 116   8 O      0.859    -0.497    23.719     6.530
 117   6 C      3.809    -0.084    22.101     6.692
 118   6 C      3.804    -0.080    22.030     6.682
 119   6 C      3.739    -0.030    21.191     6.568
 120   7 N      2.702    -0.143    24.099     7.291
 121   6 C      2.735     0.238    23.023     7.856
 122   7 N      2.647    -0.269    26.958     7.711
 123   7 N      2.655    -0.276    27.141     7.737
 124   1 H      0.860     0.220     1.008     1.573
 125   1 H      0.923     0.079     1.986     2.204
 126   1 H      0.924     0.062     2.176     2.307
 127   1 H      0.924     0.072     2.063     2.246
 128   1 H      0.924     0.069     2.096     2.264
 129   1 H      0.924     0.062     2.173     2.305
 130   1 H      0.925     0.100     1.789     2.092
 131   1 H      0.924     0.072     2.063     2.246
 132   1 H      0.860     0.224     0.993     1.561
 133   1 H      0.858     0.255     0.866     1.458
 134   1 H      0.860     0.226     0.981     1.551
 135   1 H      0.860     0.243     0.912     1.496
 136   1 H      0.860     0.248     0.891     1.479
 137   7 N      2.691    -0.185    25.011     7.428
 138   6 C      3.804     0.022    20.209     6.400
 139   6 C      2.761     0.278    22.304     7.734
 140   8 O      0.859    -0.496    23.687     6.525
 141   6 C      3.852    -0.028    21.039     6.524
 142   6 C      3.758    -0.122    22.889     6.821
 143   6 C      3.757    -0.129    23.022     6.841
 144   1 H      0.860     0.224     0.992     1.560
 145   1 H      0.923     0.061     2.192     2.315
 146   1 H      0.924     0.066     2.125     2.279
 147   1 H      0.925     0.067     2.118     2.276
 148   1 H      0.925     0.051     2.309     2.376
 149   1 H      0.925     0.047     2.361     2.403
 150   1 H      0.925     0.058     2.224     2.332
 151   1 H      0.925     0.041     2.436     2.441
 152   1 H      0.925     0.050     2.317     2.380
 153   7 N      2.688    -0.180    24.896     7.411
 154   6 C      3.801     0.020    20.233     6.404
 155   6 C      2.758     0.284    22.194     7.715
 156   8 O      0.858    -0.496    23.692     6.526
 157   6 C      3.810    -0.090    22.205     6.708
 158   6 C      3.801    -0.091    22.228     6.713
 159   6 C      3.741    -0.029    21.164     6.564
 160   7 N      2.697    -0.142    24.081     7.288
 161   6 C      2.737     0.229    23.189     7.884
 162   7 N      2.653    -0.241    26.294     7.616
 163   7 N      2.656    -0.258    26.697     7.674
 164   1 H      0.860     0.233     0.954     1.530
 165   1 H      0.923     0.079     1.990     2.206
 166   1 H      0.925     0.075     2.028     2.227
 167   1 H      0.924     0.062     2.179     2.308
 168   1 H      0.924     0.078     2.004     2.214
 169   1 H      0.924     0.075     2.029     2.227
 170   1 H      0.925     0.080     1.982     2.202
 171   1 H      0.924     0.088     1.903     2.157
 172   1 H      0.860     0.231     0.963     1.537
 173   1 H      0.860     0.247     0.896     1.483
 174   1 H      0.859     0.259     0.849     1.444
 175   1 H      0.860     0.254     0.870     1.461
 176   1 H      0.860     0.258     0.853     1.447
 177   7 N      2.690    -0.180    24.907     7.412
 178   6 C      3.798     0.029    20.089     6.382
 179   6 C      2.760     0.281    22.235     7.722
 180   8 O      0.858    -0.522    24.276     6.606
 181   6 C      3.816    -0.050    21.460     6.593
 182   6 C      3.799    -0.093    22.284     6.721
 183   6 C      2.691     0.368    20.762     7.457
 184   8 O      0.856    -0.622    26.676     6.925
 185   8 O      0.857    -0.608    26.307     6.877
 186   1 H      0.860     0.211     1.051     1.606
 187   1 H      0.923     0.056     2.247     2.344
 188   1 H      0.924     0.058     2.223     2.332
 189   1 H      0.924     0.028     2.621     2.532
 190   1 H      0.925     0.024     2.679     2.559
 191   1 H      0.925     0.040     2.451     2.448
 192   7 N      2.693    -0.181    24.912     7.413
 193   6 C      3.797     0.028    20.103     6.384
 194   6 C      2.756     0.279    22.278     7.729
 195   8 O      0.858    -0.515    24.129     6.586
 196   6 C      3.810    -0.081    22.033     6.682
 197   6 C      3.850    -0.013    20.781     6.484
 198   6 C      3.757    -0.115    22.745     6.800
 199   6 C      3.756    -0.114    22.730     6.798
 200   1 H      0.860     0.226     0.982     1.552
 201   1 H      0.924     0.057     2.233     2.337
 202   1 H      0.924     0.068     2.109     2.271
 203   1 H      0.925     0.062     2.179     2.308
 204   1 H      0.924     0.037     2.491     2.468
 205   1 H      0.925     0.044     2.397     2.421
 206   1 H      0.925     0.039     2.468     2.457
 207   1 H      0.925     0.048     2.345     2.395
 208   1 H      0.925     0.042     2.427     2.436
 209   1 H      0.925     0.044     2.392     2.419
 210   1 H      0.925     0.032     2.563     2.504
 211   7 N      2.692    -0.178    24.859     7.405
 212   6 C      3.792     0.036    19.986     6.367
 213   6 C      2.766     0.215    23.449     7.930
 214   8 O      0.856    -0.376    21.200     6.173
 215   6 C      3.757    -0.136    23.171     6.863
 216   1 H      0.860     0.241     0.921     1.503
 217   1 H      0.923     0.081     1.968     2.194
 218   1 H      0.925     0.078     2.000     2.211
 219   1 H      0.925     0.088     1.897     2.154
 220   1 H      0.925     0.081     1.970     2.195
 221   7 N      2.636    -0.403    30.457     8.196
 222   6 C      3.787     0.031    20.068     6.380
 223   6 C      2.758     0.265    22.531     7.773
 224   8 O      0.859    -0.504    23.875     6.551
 225   6 C      3.806    -0.058    21.621     6.619
 226   6 C      3.802    -0.100    22.406     6.739
 227   6 C      2.684     0.364    20.822     7.467
 228   8 O      0.857    -0.622    26.659     6.923
 229   8 O      0.856    -0.608    26.313     6.877
 230   1 H      0.860     0.169     1.280     1.772
 231   1 H      0.923     0.045     2.379     2.412
 232   1 H      0.924     0.041     2.437     2.441
 233   1 H      0.924     0.039     2.457     2.451
 234   1 H      0.924     0.041     2.437     2.441
 235   1 H      0.924     0.037     2.487     2.466
 236   7 N      2.689    -0.174    24.767     7.391
 237   6 C      3.803     0.008    20.438     6.436
 238   6 C      2.757     0.283    22.210     7.717
 239   8 O      0.858    -0.470    23.131     6.448
 240   6 C      3.853    -0.030    21.074     6.529
 241   6 C      3.803    -0.065    21.736     6.637
 242   6 C      3.756    -0.118    22.821     6.811
 243   6 C      3.751    -0.114    22.748     6.802
 244   1 H      0.860     0.217     1.022     1.584
 245   1 H      0.923     0.081     1.968     2.194
 246   1 H      0.924     0.051     2.306     2.375
 247   1 H      0.924     0.051     2.304     2.374
 248   1 H      0.924     0.035     2.514     2.480
 249   1 H      0.925     0.068     2.109     2.271
 250   1 H      0.925     0.040     2.444     2.445
 251   1 H      0.925     0.058     2.228     2.334
 252   1 H      0.925     0.040     2.443     2.444
 253   1 H      0.925     0.043     2.414     2.429
 254   1 H      0.925     0.054     2.273     2.358
 255   7 N      2.693    -0.181    24.927     7.415
 256   6 C      3.798     0.006    20.481     6.444
 257   6 C      2.762     0.274    22.362     7.744
 258   8 O      0.859    -0.478    23.298     6.472
 259   6 C      3.726     0.112    18.844     6.198
 260   8 O      1.655    -0.461    22.066     6.341
 261   6 C      3.754    -0.130    23.051     6.846
 262   1 H      0.860     0.205     1.079     1.627
 263   1 H      0.923     0.087     1.905     2.158
 264   1 H      0.923     0.032     2.564     2.504
 265   1 H      0.804     0.335     0.625     1.241
 266   1 H      0.925     0.079     1.991     2.207
 267   1 H      0.925     0.047     2.358     2.401
 268   1 H      0.925     0.072     2.065     2.247
 269   7 N      2.690    -0.173    24.753     7.389
 270   6 C      3.803     0.019    20.246     6.406
 271   6 C      2.757     0.281    22.235     7.722
 272   8 O      0.858    -0.508    23.965     6.564
 273   6 C      3.805    -0.073    21.891     6.661
 274   6 C      3.807    -0.100    22.407     6.738
 275   6 C      2.743     0.290    22.089     7.695
 276   8 O      0.859    -0.500    23.785     6.539
 277   7 N      2.639    -0.280    27.228     7.750
 278   1 H      0.860     0.211     1.050     1.605
 279   1 H      0.923     0.073     2.050     2.239
 280   1 H      0.924     0.075     2.030     2.228
 281   1 H      0.924     0.068     2.103     2.268
 282   1 H      0.924     0.054     2.274     2.358
 283   1 H      0.924     0.075     2.029     2.227
 284   1 H      0.860     0.233     0.953     1.529
 285   1 H      0.860     0.234     0.946     1.524
 286   7 N      2.690    -0.179    24.887     7.409
 287   6 C      3.798     0.021    20.232     6.405
 288   6 C      2.758     0.277    22.310     7.735
 289   8 O      0.858    -0.508    23.960     6.563
 290   6 C      3.806    -0.086    22.143     6.699
 291   6 C      3.801    -0.081    22.038     6.684
 292   6 C      3.736    -0.031    21.209     6.572
 293   7 N      2.702    -0.162    24.509     7.353
 294   6 C      2.735     0.239    23.002     7.852
 295   7 N      2.647    -0.257    26.679     7.671
 296   7 N      2.655    -0.295    27.608     7.804
 297   1 H      0.860     0.236     0.938     1.517
 298   1 H      0.923     0.063     2.164     2.300
 299   1 H      0.925     0.095     1.831     2.116
 300   1 H      0.925     0.064     2.156     2.296
 301   1 H      0.924     0.062     2.171     2.304
 302   1 H      0.925     0.073     2.053     2.241
 303   1 H      0.924     0.081     1.974     2.197
 304   1 H      0.925     0.085     1.929     2.172
 305   1 H      0.860     0.229     0.970     1.543
 306   1 H      0.860     0.231     0.959     1.534
 307   1 H      0.860     0.227     0.978     1.549
 308   1 H      0.858     0.262     0.840     1.436
 309   1 H      0.860     0.232     0.955     1.531
 310   7 N      2.691    -0.178    24.847     7.403
 311   6 C      3.799     0.024    20.166     6.394
 312   6 C      2.761     0.278    22.295     7.733
 313   8 O      0.858    -0.506    23.920     6.557
 314   6 C      3.811    -0.076    21.944     6.668
 315   6 C      3.849    -0.015    20.811     6.489
 316   6 C      3.757    -0.110    22.660     6.787
 317   6 C      3.756    -0.118    22.811     6.810
 318   1 H      0.860     0.235     0.943     1.522
 319   1 H      0.924     0.074     2.041     2.234
 320   1 H      0.924     0.053     2.287     2.365
 321   1 H      0.924     0.051     2.306     2.375
 322   1 H      0.924     0.051     2.303     2.373
 323   1 H      0.925     0.058     2.223     2.332
 324   1 H      0.925     0.027     2.630     2.536
 325   1 H      0.925     0.042     2.417     2.431
 326   1 H      0.925     0.063     2.165     2.301
 327   1 H      0.925     0.035     2.517     2.481
 328   1 H      0.925     0.040     2.446     2.446
 329   7 N      2.694    -0.190    25.127     7.445
 330   6 C      3.801     0.039    19.912     6.353
 331   6 C      2.761     0.285    22.175     7.712
 332   8 O      0.858    -0.524    24.323     6.612
 333   6 C      3.811    -0.110    22.586     6.765
 334   6 C      2.743     0.292    22.052     7.689
 335   8 O      0.859    -0.470    23.134     6.449
 336   7 N      2.639    -0.292    27.541     7.794
 337   1 H      0.860     0.239     0.927     1.508
 338   1 H      0.923     0.066     2.134     2.284
 339   1 H      0.924     0.086     1.915     2.164
 340   1 H      0.924     0.071     2.071     2.251
 341   1 H      0.860     0.243     0.912     1.496
 342   1 H      0.860     0.229     0.969     1.542
 343   7 N      2.691    -0.193    25.193     7.455
 344   6 C      3.802     0.041    19.884     6.349
 345   6 C      2.762     0.291    22.072     7.694
 346   8 O      0.859    -0.529    24.425     6.626
 347   6 C      3.805    -0.055    21.558     6.610
 348   6 C      3.800    -0.083    22.084     6.691
 349   6 C      2.684     0.373    20.677     7.441
 350   8 O      0.856    -0.640    27.112     6.981
 351   8 O      0.857    -0.664    27.757     7.064
 352   1 H      0.860     0.229     0.968     1.541
 353   1 H      0.924     0.060     2.195     2.317
 354   1 H      0.924     0.051     2.312     2.378
 355   1 H      0.924     0.054     2.267     2.354
 356   1 H      0.924     0.028     2.612     2.527
 357   1 H      0.924     0.007     2.943     2.683
 358   7 N      2.691    -0.185    25.015     7.428
 359   6 C      3.801     0.041    19.889     6.349
 360   6 C      2.766     0.222    23.314     7.908
 361   8 O      0.856    -0.379    21.265     6.183
 362   6 C      3.853    -0.022    20.937     6.508
 363   6 C      3.804    -0.065    21.745     6.639
 364   6 C      3.755    -0.121    22.871     6.819
 365   6 C      3.752    -0.114    22.742     6.801
 366   1 H      0.860     0.232     0.955     1.531
 367   1 H      0.923     0.057     2.235     2.338
 368   1 H      0.924     0.062     2.182     2.310
 369   1 H      0.924     0.035     2.519     2.482
 370   1 H      0.924     0.035     2.513     2.479
 371   1 H      0.925     0.083     1.948     2.183
 372   1 H      0.925     0.031     2.572     2.508
 373   1 H      0.925     0.056     2.241     2.341
 374   1 H      0.925     0.056     2.250     2.346
 375   1 H      0.925     0.042     2.428     2.437
 376   1 H      0.925     0.064     2.153     2.294
 377   7 N      2.634    -0.396    30.258     8.170
 378   6 C      3.783     0.037    19.970     6.366
 379   6 C      2.766     0.192    23.887     8.004
 380   8 O      0.856    -0.373    21.149     6.166
 381   6 C      3.812    -0.070    21.835     6.651
 382   6 C      3.849    -0.011    20.731     6.476
 383   6 C      3.759    -0.116    22.778     6.804
 384   6 C      3.755    -0.112    22.693     6.792
 385   1 H      0.860     0.155     1.365     1.830
 386   1 H      0.924     0.078     2.000     2.211
 387   1 H      0.924     0.036     2.509     2.477
 388   1 H      0.924     0.054     2.273     2.358
 389   1 H      0.924     0.029     2.603     2.523
 390   1 H      0.925     0.044     2.392     2.418
 391   1 H      0.925     0.042     2.427     2.436
 392   1 H      0.925     0.047     2.358     2.402
 393   1 H      0.925     0.040     2.452     2.449
 394   1 H      0.925     0.046     2.368     2.406
 395   1 H      0.925     0.035     2.523     2.484
 396   7 N      2.638    -0.392    30.160     8.156
 397   6 C      3.782     0.042    19.892     6.353
 398   6 C      2.765     0.201    23.720     7.976
 399   8 O      0.856    -0.366    21.020     6.147
 400   6 C      3.812    -0.067    21.781     6.643
 401   6 C      3.849    -0.012    20.758     6.480
 402   6 C      3.756    -0.119    22.836     6.813
 403   6 C      3.758    -0.117    22.782     6.805
 404   1 H      0.860     0.171     1.269     1.765
 405   1 H      0.924     0.040     2.453     2.449
 406   1 H      0.924     0.051     2.313     2.378
 407   1 H      0.924     0.053     2.278     2.361
 408   1 H      0.924     0.016     2.801     2.617
 409   1 H      0.925     0.047     2.356     2.400
 410   1 H      0.925     0.030     2.586     2.515
 411   1 H      0.925     0.050     2.319     2.382
 412   1 H      0.925     0.045     2.385     2.415
 413   1 H      0.925     0.047     2.359     2.402
 414   1 H      0.925     0.041     2.432     2.439
 415   7 N      2.636    -0.389    30.056     8.142
 416   6 C      3.786     0.035    19.998     6.370
 417   6 C      2.764     0.198    23.779     7.986
 418   8 O      0.856    -0.380    21.280     6.185
 419   6 C      3.853    -0.028    21.043     6.524
 420   6 C      3.804    -0.064    21.719     6.635
 421   6 C      3.756    -0.121    22.866     6.818
 422   6 C      3.751    -0.111    22.693     6.793
 423   1 H      0.860     0.169     1.281     1.773
 424   1 H      0.923     0.048     2.351     2.398
 425   1 H      0.924     0.051     2.304     2.373
 426   1 H      0.924     0.046     2.364     2.405
 427   1 H      0.925     0.041     2.435     2.440
 428   1 H      0.925     0.053     2.282     2.363
 429   1 H      0.925     0.042     2.419     2.432
 430   1 H      0.925     0.045     2.380     2.413
 431   1 H      0.925     0.040     2.447     2.446
 432   1 H      0.925     0.040     2.445     2.445
 433   1 H      0.925     0.032     2.554     2.499
 434   1 H      0.862     0.184     1.193     1.711
 435   1 H      0.930     0.063     2.167     2.302
 436   1 H      0.862     0.183     1.196     1.713
 437   1 H      0.930     0.051     2.305     2.374
 438   1 H      0.862     0.187     1.177     1.699
 439   1 H      0.930     0.060     2.194     2.316
 440   1 H      0.862     0.179     1.218     1.728
 441   1 H      0.930     0.060     2.194     2.316
 442   1 H      0.862     0.172     1.260     1.759
 443   1 H      0.930     0.079     1.990     2.206

 Mol. C6AA /au·bohr⁶  :    1753799.537821
 Mol. C8AA /au·bohr⁸  :   38475024.880554
 Mol. α(0) /au        :       1969.985446


Wiberg/Mayer (AO) data.
largest (>0.10) Wiberg bond orders for each atom
          total WBO             WBO to atom ...
     1  N   2.989        C    2 1.016    H  434 0.956    H   10 0.950
     2  C   3.987        N    1 1.016    C    5 0.973    H   11 0.959    C    3 0.944
     3  C   3.945        O    4 1.579    N   16 1.329    C    2 0.944
     4  O   1.938        C    3 1.579    N   16 0.190
     5  C   3.995        C    6 0.999    H   13 0.976    C    2 0.973    H   12 0.970
     6  C   3.991        C    5 0.999    H   14 0.979    H   15 0.976    C    7 0.913
     7  C   3.930        O    8 1.503    O    9 1.494    C    6 0.913
     8  O   1.791        C    7 1.503    O    9 0.217
     9  O   1.790        C    7 1.494    O    8 0.217
    10  H   0.970        N    1 0.950
    11  H   0.999        C    2 0.959
    12  H   0.998        C    5 0.970
    13  H   1.000        C    5 0.976
    14  H   0.999        C    6 0.979
    15  H   0.999        C    6 0.976
    16  N   3.482        C    3 1.329    C   17 0.969    H   24 0.911    O    4 0.190
    17  C   3.951        N   16 0.969    C   20 0.964    H   25 0.948    C   18 0.931
    18  C   3.952        O   19 1.630    N   35 1.302    C   17 0.931
    19  O   1.993        C   18 1.630    N   35 0.195
    20  C   3.982        C   22 1.007    C   21 0.994    C   17 0.964    H   26 0.960
    21  C   3.994        C   23 1.018    C   20 0.994    H   28 0.973    H   27 0.971
    22  C   3.987        C   20 1.007    H   31 0.980    H   30 0.979    H   29 0.978
    23  C   3.992        C   21 1.018    H   33 0.987    H   32 0.986    H   34 0.982
    24  H   0.950        N   16 0.911
    25  H   0.996        C   17 0.948
    26  H   0.995        C   20 0.960
    27  H   0.999        C   21 0.971
    28  H   0.999        C   21 0.973
    29  H   0.994        C   22 0.978
    30  H   0.997        C   22 0.979
    31  H   0.997        C   22 0.980
    32  H   0.998        C   23 0.986
    33  H   0.997        C   23 0.987
    34  H   0.997        C   23 0.982
    35  N   3.462        C   18 1.302    C   36 0.973    H   43 0.914    O   19 0.195
    36  C   3.960        C   39 0.981    N   35 0.973    H   44 0.947    C   37 0.933
    37  C   3.946        O   38 1.631    N   49 1.295    C   36 0.933
    38  O   2.004        C   37 1.631    N   49 0.194
    39  C   3.984        C   36 0.981    H   45 0.962    C   40 0.960    H   46 0.953
    40  C   3.952        O   41 1.675    N   42 1.294    C   39 0.960
    41  O   1.985        C   40 1.675    N   42 0.205
    42  N   3.377        C   40 1.294    H   48 0.924    H   47 0.920    O   41 0.205
    43  H   0.950        N   35 0.914
    44  H   0.991        C   36 0.947
    45  H   0.990        C   39 0.962
    46  H   0.994        C   39 0.953
    47  H   0.941        N   42 0.920
    48  H   0.944        N   42 0.924
    49  N   3.470        C   37 1.295    C   50 0.979    H   57 0.924    O   38 0.194
    50  C   3.960        N   49 0.979    C   53 0.971    C   51 0.936    H   58 0.930
    51  C   3.951        O   52 1.613    N   63 1.313    C   50 0.936
    52  O   1.965        C   51 1.613    N   63 0.196
    53  C   3.991        C   50 0.971    H   60 0.970    C   54 0.960    H   59 0.958
    54  C   3.948        O   55 1.659    N   56 1.305    C   53 0.960
    55  O   1.959        C   54 1.659    N   56 0.202
    56  N   3.395        C   54 1.305    H   62 0.934    H   61 0.919    O   55 0.202
    57  H   0.964        N   49 0.924
    58  H   0.988        C   50 0.930
    59  H   0.996        C   53 0.958
    60  H   0.995        C   53 0.970
    61  H   0.940        N   56 0.919
    62  H   0.956        N   56 0.934
    63  N   3.473        C   51 1.313    C   64 0.977    H   71 0.901    O   52 0.196
    64  C   3.960        N   63 0.977    C   67 0.973    H   72 0.951    C   65 0.927
    65  C   3.959        O   66 1.592    N   77 1.348    C   64 0.927
    66  O   1.958        C   65 1.592    N   77 0.200
    67  C   3.985        C   64 0.973    C   68 0.964    H   73 0.958    H   74 0.955
    68  C   3.938        O   69 1.634    N   70 1.306    C   67 0.964
    69  O   1.963        C   68 1.634    N   70 0.194
    70  N   3.400        C   68 1.306    H   75 0.940    H   76 0.908    O   69 0.194
    71  H   0.953        N   63 0.901
    72  H   0.994        C   64 0.951
    73  H   0.991        C   67 0.958
    74  H   0.991        C   67 0.955
    75  H   0.963        N   70 0.940
    76  H   0.952        N   70 0.908
    77  N   3.499        C   65 1.348    C   78 0.972    H   85 0.888    O   66 0.200
    78  C   3.952        C   81 0.977    N   77 0.972    H   86 0.938    C   79 0.937
    79  C   3.951        O   80 1.596    N   96 1.328    C   78 0.937
    80  O   1.954        C   79 1.596    N   96 0.195
    81  C   3.981        C   82 0.992    C   78 0.977    H   88 0.968    H   87 0.968
    82  C   3.993        C   84 1.010    C   83 1.007    C   81 0.992    H   89 0.963
    83  C   3.993        C   82 1.007    H   90 0.985    H   92 0.985    H   91 0.984
    84  C   3.994        C   82 1.010    H   93 0.983    H   94 0.983    H   95 0.981
    85  H   0.947        N   77 0.888
    86  H   0.991        C   78 0.938
    87  H   0.996        C   81 0.968
    88  H   0.993        C   81 0.968
    89  H   0.998        C   82 0.963
    90  H   0.997        C   83 0.985
    91  H   0.999        C   83 0.984
    92  H   0.996        C   83 0.985
    93  H   0.998        C   84 0.983
    94  H   0.996        C   84 0.983
    95  H   0.999        C   84 0.981
    96  N   3.487        C   79 1.328    C   97 0.982    H  105 0.882    O   80 0.195
    97  C   3.966        N   96 0.982    C  100 0.982    H  106 0.945    C   98 0.930
    98  C   3.946        O   99 1.614    N  113 1.320    C   97 0.930
    99  O   1.951        C   98 1.614    N  113 0.198
   100  C   3.989        C  101 0.990    C   97 0.982    H  108 0.973    H  107 0.967
   101  C   3.988        C  100 0.990    H  109 0.972    C  102 0.969    H  110 0.948
   102  C   3.938        O  103 1.630    N  104 1.311    C  101 0.969
   103  O   1.947        C  102 1.630    N  104 0.196
   104  N   3.392        C  102 1.311    H  112 0.928    H  111 0.922    O  103 0.196
   105  H   0.948        N   96 0.882
   106  H   0.991        C   97 0.945
   107  H   0.997        C  100 0.967
   108  H   0.996        C  100 0.973
   109  H   0.994        C  101 0.972
   110  H   0.990        C  101 0.948
   111  H   0.941        N  104 0.922
   112  H   0.949        N  104 0.928
   113  N   3.480        C   98 1.320    C  114 0.977    H  124 0.898    O   99 0.198
   114  C   3.962        C  117 0.982    N  113 0.977    H  125 0.946    C  115 0.937
   115  C   3.950        O  116 1.605    N  137 1.324    C  114 0.937
   116  O   1.955        C  115 1.605    N  137 0.197
   117  C   3.987        C  118 1.006    C  114 0.982    H  126 0.968    H  127 0.959
   118  C   3.991        C  117 1.006    C  119 1.002    H  129 0.973    H  128 0.968
   119  C   3.952        C  118 1.002    N  120 0.987    H  131 0.960    H  130 0.951
   120  N   3.467        C  121 1.310    C  119 0.987    H  132 0.917    N  122 0.107
   121  C   3.976        N  122 1.351    N  120 1.310    N  123 1.281
   122  N   3.395        C  121 1.351    H  134 0.926    H  133 0.822    N  120 0.107    N  123 0.101
   123  N   3.356        C  121 1.281    H  135 0.922    H  136 0.920    N  122 0.101
   124  H   0.951        N  113 0.898
   125  H   0.993        C  114 0.946
   126  H   0.996        C  117 0.968
   127  H   0.994        C  117 0.959
   128  H   0.995        C  118 0.968
   129  H   0.996        C  118 0.973
   130  H   0.990        C  119 0.951
   131  H   0.995        C  119 0.960
   132  H   0.950        N  120 0.917
   133  H   0.935        N  122 0.822
   134  H   0.949        N  122 0.926
   135  H   0.941        N  123 0.922
   136  H   0.938        N  123 0.920
   137  N   3.475        C  115 1.324    C  138 0.974    H  144 0.890    O  116 0.197
   138  C   3.957        N  137 0.974    C  141 0.966    C  139 0.938    H  145 0.937
   139  C   3.948        O  140 1.592    N  153 1.327    C  138 0.938
   140  O   1.964        C  139 1.592    N  153 0.194
   141  C   3.984        C  143 1.008    C  142 1.007    C  138 0.966    H  146 0.956
   142  C   3.990        C  141 1.007    H  149 0.984    H  147 0.982    H  148 0.979
   143  C   3.992        C  141 1.008    H  151 0.984    H  150 0.982    H  152 0.974
   144  H   0.950        N  137 0.890
   145  H   0.996        C  138 0.937
   146  H   0.995        C  141 0.956
   147  H   0.995        C  142 0.982
   148  H   0.997        C  142 0.979
   149  H   0.998        C  142 0.984
   150  H   0.996        C  143 0.982
   151  H   0.998        C  143 0.984
   152  H   0.997        C  143 0.974
   153  N   3.478        C  139 1.327    C  154 0.978    H  164 0.888    O  140 0.194
   154  C   3.962        C  157 0.979    N  153 0.978    H  165 0.949    C  155 0.932
   155  C   3.941        O  156 1.630    N  177 1.292    C  154 0.932
   156  O   1.949        C  155 1.630    N  177 0.190
   157  C   3.981        C  158 1.003    C  154 0.979    H  167 0.970    H  166 0.961
   158  C   3.987        C  157 1.003    C  159 0.992    H  168 0.970    H  169 0.968
   159  C   3.957        N  160 0.993    C  158 0.992    H  170 0.967    H  171 0.959
   160  N   3.458        C  161 1.296    C  159 0.993    H  172 0.918
   161  C   3.977        N  162 1.334    N  163 1.318    N  160 1.296
   162  N   3.408        C  161 1.334    H  173 0.914    H  174 0.911    N  163 0.106
   163  N   3.390        C  161 1.318    H  175 0.917    H  176 0.912    N  162 0.106
   164  H   0.946        N  153 0.888
   165  H   0.993        C  154 0.949
   166  H   0.994        C  157 0.961
   167  H   0.995        C  157 0.970
   168  H   0.994        C  158 0.970
   169  H   0.994        C  158 0.968
   170  H   0.994        C  159 0.967
   171  H   0.992        C  159 0.959
   172  H   0.947        N  160 0.918
   173  H   0.939        N  162 0.914
   174  H   0.933        N  162 0.911
   175  H   0.936        N  163 0.917
   176  H   0.933        N  163 0.912
   177  N   3.464        C  155 1.292    C  178 0.986    H  186 0.911    O  156 0.190
   178  C   3.973        N  177 0.986    C  181 0.974    H  187 0.954    C  179 0.935
   179  C   3.947        O  180 1.615    N  192 1.317    C  178 0.935
   180  O   1.924        C  179 1.615    N  192 0.196
   181  C   3.989        C  182 0.995    H  189 0.975    C  178 0.974    H  188 0.968
   182  C   3.990        C  181 0.995    H  190 0.979    H  191 0.973    C  183 0.922
   183  C   3.933        O  184 1.537    O  185 1.443    C  182 0.922
   184  O   1.824        C  183 1.537    O  185 0.211
   185  O   1.861        C  183 1.443    O  184 0.211
   186  H   0.955        N  177 0.911
   187  H   0.996        C  178 0.954
   188  H   0.997        C  181 0.968
   189  H   0.999        C  181 0.975
   190  H   0.999        C  182 0.979
   191  H   0.998        C  182 0.973
   192  N   3.473        C  179 1.317    C  193 0.975    H  200 0.896    O  180 0.196
   193  C   3.962        C  196 0.982    N  192 0.975    H  201 0.950    C  194 0.931
   194  C   3.948        O  195 1.615    N  211 1.325    C  193 0.931
   195  O   1.938        C  194 1.615    N  211 0.200
   196  C   3.985        C  197 0.992    C  193 0.982    H  203 0.972    H  202 0.965
   197  C   3.994        C  199 1.010    C  198 1.008    C  196 0.992    H  204 0.963
   198  C   3.994        C  197 1.008    H  207 0.981    H  205 0.980    H  206 0.972
   199  C   3.995        C  197 1.010    H  209 0.984    H  208 0.983    H  210 0.982
   200  H   0.949        N  192 0.896
   201  H   0.996        C  193 0.950
   202  H   0.995        C  196 0.965
   203  H   0.996        C  196 0.972
   204  H   0.998        C  197 0.963
   205  H   0.997        C  198 0.980
   206  H   0.998        C  198 0.972
   207  H   0.998        C  198 0.981
   208  H   0.998        C  199 0.983
   209  H   0.998        C  199 0.984
   210  H   0.999        C  199 0.982
   211  N   3.476        C  194 1.325    C  212 0.970    H  216 0.883    O  195 0.200
   212  C   3.961        C  215 0.984    C  213 0.971    N  211 0.970    H  217 0.952
   213  C   3.894        O  214 1.894    C  212 0.971    H  435 0.956
   214  O   2.031        C  213 1.894
   215  C   3.976        C  212 0.984    H  218 0.980    H  220 0.977    H  219 0.975
   216  H   0.942        N  211 0.883
   217  H   0.993        C  212 0.952
   218  H   0.993        C  215 0.980
   219  H   0.992        C  215 0.975
   220  H   0.993        C  215 0.977
   221  N   2.986        C  222 1.009    H  436 0.956    H  230 0.952
   222  C   3.983        N  221 1.009    C  225 0.978    H  231 0.961    C  223 0.941
   223  C   3.940        O  224 1.601    N  236 1.311    C  222 0.941
   224  O   1.958        C  223 1.601    N  236 0.192
   225  C   3.995        C  226 1.010    C  222 0.978    H  232 0.974    H  233 0.971
   226  C   3.991        C  225 1.010    H  234 0.963    H  235 0.958    C  227 0.931
   227  C   3.933        O  229 1.553    O  228 1.416    C  226 0.931
   228  O   1.852        C  227 1.416    O  229 0.205
   229  O   1.847        C  227 1.553    O  228 0.205
   230  H   0.971        N  221 0.952
   231  H   0.998        C  222 0.961
   232  H   0.998        C  225 0.974
   233  H   0.998        C  225 0.971
   234  H   0.998        C  226 0.963
   235  H   0.999        C  226 0.958
   236  N   3.471        C  223 1.311    C  237 0.973    H  244 0.915    O  224 0.192
   237  C   3.957        N  236 0.973    C  240 0.962    H  245 0.949    C  238 0.937
   238  C   3.942        O  239 1.627    N  255 1.282    C  237 0.937
   239  O   1.989        C  238 1.627    N  255 0.185
   240  C   3.984        C  242 1.007    C  241 0.994    H  246 0.963    C  237 0.962
   241  C   3.994        C  243 1.017    C  240 0.994    H  247 0.974    H  248 0.971
   242  C   3.990        C  240 1.007    H  251 0.983    H  250 0.980    H  249 0.978
   243  C   3.992        C  241 1.017    H  253 0.987    H  252 0.986    H  254 0.983
   244  H   0.953        N  236 0.915
   245  H   0.993        C  237 0.949
   246  H   0.997        C  240 0.963
   247  H   0.997        C  241 0.974
   248  H   0.999        C  241 0.971
   249  H   0.995        C  242 0.978
   250  H   0.998        C  242 0.980
   251  H   0.997        C  242 0.983
   252  H   0.998        C  243 0.986
   253  H   0.998        C  243 0.987
   254  H   0.997        C  243 0.983
   255  N   3.452        C  238 1.282    C  256 0.981    H  262 0.916    O  239 0.185
   256  C   3.963        N  255 0.981    C  259 0.949    H  263 0.945    C  257 0.940
   257  C   3.945        O  258 1.622    N  269 1.296    C  256 0.940
   258  O   1.989        C  257 1.622    N  269 0.195
   259  C   3.959        C  261 1.006    O  260 1.001    H  264 0.959    C  256 0.949
   260  O   1.955        C  259 1.001    H  265 0.867
   261  C   3.986        C  259 1.006    H  267 0.982    H  268 0.982    H  266 0.981
   262  H   0.958        N  255 0.916
   263  H   0.992        C  256 0.945
   264  H   0.999        C  259 0.959
   265  H   0.888        O  260 0.867
   266  H   0.993        C  261 0.981
   267  H   0.998        C  261 0.982
   268  H   0.995        C  261 0.982
   269  N   3.466        C  257 1.296    C  270 0.979    H  278 0.919    O  258 0.195
   270  C   3.966        C  273 0.984    N  269 0.979    H  279 0.952    C  271 0.930
   271  C   3.947        O  272 1.600    N  286 1.330    C  270 0.930
   272  O   1.961        C  271 1.600    N  286 0.198
   273  C   3.987        C  274 0.993    C  270 0.984    H  281 0.970    H  280 0.968
   274  C   3.992        C  273 0.993    H  282 0.973    C  275 0.967    H  283 0.961
   275  C   3.946        O  276 1.631    N  277 1.319    C  274 0.967
   276  O   1.949        C  275 1.631    N  277 0.198
   277  N   3.402        C  275 1.319    H  284 0.927    H  285 0.924    O  276 0.198
   278  H   0.955        N  269 0.919
   279  H   0.994        C  270 0.952
   280  H   0.994        C  273 0.968
   281  H   0.995        C  273 0.970
   282  H   0.997        C  274 0.973
   283  H   0.994        C  274 0.961
   284  H   0.946        N  277 0.927
   285  H   0.945        N  277 0.924
   286  N   3.481        C  271 1.330    C  287 0.976    H  297 0.886    O  272 0.198
   287  C   3.962        C  290 0.980    N  286 0.976    H  298 0.949    C  288 0.934
   288  C   3.947        O  289 1.600    N  310 1.327    C  287 0.934
   289  O   1.955        C  288 1.600    N  310 0.196
   290  C   3.981        C  291 1.006    C  287 0.980    H  300 0.970    H  299 0.957
   291  C   3.991        C  290 1.006    C  292 0.991    H  302 0.973    H  301 0.965
   292  C   3.950        C  291 0.991    N  293 0.987    H  303 0.957    H  304 0.952
   293  N   3.438        C  294 1.297    C  292 0.987    H  305 0.888
   294  C   3.974        N  296 1.332    N  295 1.308    N  293 1.297
   295  N   3.393        C  294 1.308    H  307 0.927    H  306 0.908    N  296 0.101
   296  N   3.356        C  294 1.332    H  309 0.907    H  308 0.819    N  295 0.101
   297  H   0.944        N  286 0.886
   298  H   0.996        C  287 0.949
   299  H   0.990        C  290 0.957
   300  H   0.995        C  290 0.970
   301  H   0.996        C  291 0.965
   302  H   0.994        C  291 0.973
   303  H   0.993        C  292 0.957
   304  H   0.992        C  292 0.952
   305  H   0.948        N  293 0.888
   306  H   0.946        N  295 0.908
   307  H   0.948        N  295 0.927
   308  H   0.931        N  296 0.819
   309  H   0.946        N  296 0.907
   310  N   3.480        C  288 1.327    C  311 0.978    H  318 0.886    O  289 0.196
   311  C   3.963        C  314 0.980    N  310 0.978    H  319 0.947    C  312 0.932
   312  C   3.940        O  313 1.622    N  329 1.306    C  311 0.932
   313  O   1.951        C  312 1.622    N  329 0.195
   314  C   3.982        C  315 0.990    C  311 0.980    H  321 0.970    H  320 0.968
   315  C   3.991        C  317 1.009    C  316 1.007    C  314 0.990    H  322 0.960
   316  C   3.993        C  315 1.007    H  325 0.986    H  324 0.983    H  323 0.982
   317  C   3.994        C  315 1.009    H  327 0.986    H  328 0.984    H  326 0.982
   318  H   0.944        N  310 0.886
   319  H   0.994        C  311 0.947
   320  H   0.997        C  314 0.968
   321  H   0.997        C  314 0.970
   322  H   0.997        C  315 0.960
   323  H   0.996        C  316 0.982
   324  H   0.999        C  316 0.983
   325  H   0.998        C  316 0.986
   326  H   0.996        C  317 0.982
   327  H   0.999        C  317 0.986
   328  H   0.998        C  317 0.984
   329  N   3.464        C  312 1.306    C  330 0.988    H  337 0.882    O  313 0.195
   330  C   3.975        N  329 0.988    C  333 0.986    H  338 0.952    C  331 0.934
   331  C   3.942        O  332 1.614    N  343 1.313    C  330 0.934
   332  O   1.925        C  331 1.614    N  343 0.195
   333  C   3.988        C  330 0.986    C  334 0.961    H  340 0.960    H  339 0.949
   334  C   3.954        O  335 1.668    N  336 1.296    C  333 0.961
   335  O   1.975        C  334 1.668    N  336 0.201
   336  N   3.378        C  334 1.296    H  342 0.930    H  341 0.920    O  335 0.201
   337  H   0.943        N  329 0.882
   338  H   0.995        C  330 0.952
   339  H   0.993        C  333 0.949
   340  H   0.994        C  333 0.960
   341  H   0.940        N  336 0.920
   342  H   0.948        N  336 0.930
   343  N   3.468        C  331 1.313    C  344 0.980    H  352 0.887    O  332 0.195
   344  C   3.968        C  347 0.982    N  343 0.980    H  353 0.947    C  345 0.938
   345  C   3.943        O  346 1.603    N  358 1.322    C  344 0.938
   346  O   1.941        C  345 1.603    N  358 0.195
   347  C   3.993        C  348 1.010    C  344 0.982    H  354 0.974    H  355 0.970
   348  C   3.989        C  347 1.010    H  357 0.970    H  356 0.968    C  349 0.921
   349  C   3.933        O  350 1.500    O  351 1.490    C  348 0.921
   350  O   1.800        C  349 1.500    O  351 0.213
   351  O   1.775        C  349 1.490    O  350 0.213
   352  H   0.947        N  343 0.887
   353  H   0.996        C  344 0.947
   354  H   0.997        C  347 0.974
   355  H   0.997        C  347 0.970
   356  H   0.999        C  348 0.968
   357  H   1.000        C  348 0.970
   358  N   3.467        C  345 1.322    C  359 0.968    H  366 0.886    O  346 0.195
   359  C   3.954        C  360 0.975    N  358 0.968    H  367 0.949    C  362 0.948
   360  C   3.901        O  361 1.874    C  359 0.975    H  437 0.957
   361  O   2.022        C  360 1.874
   362  C   3.975        C  364 1.006    C  363 0.992    H  368 0.958    C  359 0.948
   363  C   3.992        C  365 1.016    C  362 0.992    H  369 0.971    H  370 0.970
   364  C   3.989        C  362 1.006    H  372 0.982    H  373 0.981    H  371 0.977
   365  C   3.991        C  363 1.016    H  375 0.984    H  374 0.983    H  376 0.981
   366  H   0.946        N  358 0.886
   367  H   0.997        C  359 0.949
   368  H   0.996        C  362 0.958
   369  H   0.999        C  363 0.971
   370  H   0.999        C  363 0.970
   371  H   0.993        C  364 0.977
   372  H   0.999        C  364 0.982
   373  H   0.997        C  364 0.981
   374  H   0.996        C  365 0.983
   375  H   0.998        C  365 0.984
   376  H   0.996        C  365 0.981
   377  N   2.997        C  378 1.026    H  385 0.958    H  438 0.946
   378  C   3.985        N  377 1.026    C  379 0.994    C  381 0.953    H  386 0.924
   379  C   3.903        O  380 1.866    C  378 0.994    H  439 0.955
   380  O   2.038        C  379 1.866
   381  C   3.990        C  382 0.993    H  387 0.975    H  388 0.970    C  378 0.953
   382  C   3.995        C  384 1.010    C  383 1.006    C  381 0.993    H  389 0.963
   383  C   3.994        C  382 1.006    H  392 0.985    H  391 0.984    H  390 0.979
   384  C   3.996        C  382 1.010    H  394 0.984    H  395 0.982    H  393 0.981
   385  H   0.976        N  377 0.958
   386  H   0.994        C  378 0.924
   387  H   0.999        C  381 0.975
   388  H   0.997        C  381 0.970
   389  H   0.999        C  382 0.963
   390  H   0.997        C  383 0.979
   391  H   0.998        C  383 0.984
   392  H   0.998        C  383 0.985
   393  H   0.998        C  384 0.981
   394  H   0.998        C  384 0.984
   395  H   0.999        C  384 0.982
   396  N   2.998        C  397 1.003    H  440 0.957    H  404 0.938
   397  C   3.984        N  396 1.003    C  400 0.969    C  398 0.968    H  405 0.968
   398  C   3.893        O  399 1.907    C  397 0.968    H  441 0.956
   399  O   2.039        C  398 1.907
   400  C   3.990        C  401 0.994    H  406 0.971    H  407 0.970    C  397 0.969
   401  C   3.996        C  402 1.009    C  403 1.008    C  400 0.994    H  408 0.966
   402  C   3.995        C  401 1.009    H  411 0.985    H  410 0.985    H  409 0.985
   403  C   3.995        C  401 1.008    H  412 0.984    H  414 0.984    H  413 0.984
   404  H   0.971        N  396 0.938
   405  H   0.998        C  397 0.968
   406  H   0.997        C  400 0.971
   407  H   0.997        C  400 0.970
   408  H   1.000        C  401 0.966
   409  H   0.998        C  402 0.985
   410  H   0.999        C  402 0.985
   411  H   0.997        C  402 0.985
   412  H   0.998        C  403 0.984
   413  H   0.998        C  403 0.984
   414  H   0.998        C  403 0.984
   415  N   3.004        C  416 1.009    H  442 0.954    H  423 0.950
   416  C   3.982        N  415 1.009    C  417 0.975    H  424 0.954    C  419 0.950
   417  C   3.890        O  418 1.891    C  416 0.975    H  443 0.953
   418  O   2.028        C  417 1.891
   419  C   3.991        C  421 1.010    C  420 0.993    H  425 0.964    C  416 0.950
   420  C   3.995        C  422 1.018    C  419 0.993    H  426 0.975    H  427 0.971
   421  C   3.994        C  419 1.010    H  430 0.985    H  429 0.983    H  428 0.981
   422  C   3.994        C  420 1.018    H  432 0.987    H  431 0.984    H  433 0.981
   423  H   0.971        N  415 0.950
   424  H   0.998        C  416 0.954
   425  H   0.997        C  419 0.964
   426  H   0.998        C  420 0.975
   427  H   0.998        C  420 0.971
   428  H   0.997        C  421 0.981
   429  H   0.998        C  421 0.983
   430  H   0.998        C  421 0.985
   431  H   0.997        C  422 0.984
   432  H   0.998        C  422 0.987
   433  H   0.999        C  422 0.981
   434  H   0.966        N    1 0.956
   435  H   0.996        C  213 0.956
   436  H   0.966        N  221 0.956
   437  H   0.997        C  360 0.957
   438  H   0.965        N  377 0.946
   439  H   0.996        C  379 0.955
   440  H   0.968        N  396 0.957
   441  H   0.996        C  398 0.956
   442  H   0.970        N  415 0.954
   443  H   0.994        C  417 0.953
 
molecular dipole:
                 x           y           z       tot (Debye)
 q only:     -305.250    -159.930    -229.544
   full:     -304.892    -157.460    -226.565    1045.185
molecular quadrupole (traceless):
                xx          xy          yy          xz          yz          zz
 q only:   -53802.282  -72129.701   47565.520 -104302.978  -53880.422    6236.763
  q+dip:   -54499.084  -70964.593   47515.712 -102940.346  -52545.781    6983.372
   full:   -54499.954  -70967.741   47521.927 -102938.733  -52544.223    6978.027


           -------------------------------------------------
          | TOTAL ENERGY             -677.920196865982 Eh   |
          | GRADIENT NORM               0.502844974669 Eh/α |
          | HOMO-LUMO GAP               2.032406720793 eV   |
           -------------------------------------------------

------------------------------------------------------------------------
 * finished run on 2019/05/31 at 05:35:30.549     
------------------------------------------------------------------------
 total:
 * wall-time:     0 d,  0 h,  0 min,  7.410 sec
 *  cpu-time:     0 d,  0 h,  0 min, 13.841 sec
 * ratio c/w:     1.868 speedup
 SCF:
 * wall-time:     0 d,  0 h,  0 min,  6.789 sec
 *  cpu-time:     0 d,  0 h,  0 min, 12.934 sec
 * ratio c/w:     1.905 speedup

