      -----------------------------------------------------------      
     |                   =====================                   |     
     |                           x T B                           |     
     |                   =====================                   |     
     |                         S. Grimme                         |     
     |          Mulliken Center for Theoretical Chemistry        |     
     |                    University of Bonn                     |     
     |                 Version 6.0.1 (SAW181210)                 |     
      -----------------------------------------------------------      

   This program is distributed in the hope that it will be useful,
   but WITHOUT ANY WARRANTY; without even the implied warranty of
   MERCHANTABILITY or FITNESS FOR A PARTICULAR PURPOSE.
   
   FOR NON-COMMERCIAL, ACADEMIA USE ONLY.
   
   Cite this work as:
   S. Grimme, C. Bannwarth, P. Shushkov, J. Comput. Theory Chem., 2017,
   13, 1989-2009.
   C. Bannwarth, S. Ehlert and S. Grimme., ChemRxiv, 2018, preprint.
   http://doi.org/10.26434/chemrxiv.7246238.v1
   
   for sTDA-xTB:
   S. Grimme and C. Bannwarth, J. Chem. Phys., 2016, 145, 054103.
   
   in the mass-spec context:
   V. Asgeirsson, C. Bauer and S. Grimme, Chem. Sci., 2017, 8, 4879.
   
   if GBSA is used:
   P. Shushkov, F. März and S. Grimme, unpublished.
   
   for ANC optimizer:
   S. Grimme, unpublished.
   Rational Function algorithm used in ANCopt:
   F. Eckert, P. Pulay, H.-J. Werner, J. Comput. Chem., 1997, 18, 1473.
   
   with help from (in alphabetical order)
   C. Bannwarth, F. Bohle, G. Brandenburg, E. Caldeweyher, M. Checinski,
   S. Dohm, S. Ehlert, S. Ehrlich, F. März, H. Neugebauer, J. Pisarek,
   P. Pracht, P. Shushkov, and S. Spicher.
   
 * started run on 2019/03/14 at 15:08:19.951     
========================================================================
 # omp threads = 1
========================================================================
number of atoms            : 564
number of electrons        : 1434
charge                     : -1
spin                       : .0
first test random number   : .1675
           ------------------------------------------------- 
          |                 G F N 2 - x T B                 |
          | Geometry, Frequencies, Noncovalent interactions |
          |            JCTC 2018 parametrisation            |
           ------------------------------------------------- 
 
      method parameters     
 k(s)        :  1.8500
 k(p)        :  2.2300
 k(d)        :  2.2300
 k(f)        :  2.0000
 kEN (H0ij)  : -2.0000
 D4 a1       :  0.5200
 D4 a2       :  5.0000
 D4 s6       :  1.0000
 D4 s8       :  2.7000
 D4 s9       :  5.0000
 alphaj      :  2.0000

 Solvent             : h2o
 Using internal parameter file: .param_gbsa2_h2o
 Gsolv ref. state (COSMO-RS): gsolv [1 M gas/solution]
 temperature (mdtemp)       :    298.150000000000     
 dielectric constant        :    80.2000000000000     
 rho                        :    1.00000000000000     
 mass                       :    18.0000000000000     
 surface tension            :    15.5689454083859     
 probe radius               :   0.975313790000000     
 vdW radii scaling          :    1.00000000000000     
 Gshift (Eh)                :   1.857443126794793E-003
 c1                         :    1.55243817000000     
 soset                      :   0.130326360000000     
 HB correction              :  T

            Z     q(EN)     CN     RAES       Cart. coordinates
     1  N   5.0   -0.22    3.24    1.96    75.74200    95.29306    64.81673
     2  C   4.0    0.03    4.26    4.13    76.63462    97.38928    66.33128
     3  C   4.0    0.07    3.21    3.04    74.48565    98.40161    67.96762
     4  O   6.0   -0.29    1.12    1.80    74.77973    98.74361    70.23914
     5  C   4.0   -0.04    4.32    4.24    77.71540    99.45880    64.63366
     6  C   4.0   -0.02    3.55    3.14    79.95615    98.60311    63.09632
     7  C   4.0   -0.05    3.47    3.10    80.86089   100.14754    61.17042
     8  C   4.0   -0.05    3.51    3.12    81.12877    96.29380    63.49837
     9  C   4.0   -0.05    3.37    3.07    82.86343    99.39414    59.66932
    10  C   4.0   -0.05    3.39    3.07    83.09433    95.51770    61.96514
    11  C   4.0   -0.05    3.37    3.07    83.98567    97.06273    60.05650
    12  H   1.0    0.08    1.03    1.43    76.09241    95.34363    62.93141
    13  H   1.0    0.05    1.05    1.44    78.08600    96.73328    67.67008
    14  H   1.0    0.04    1.03    1.43    76.22915   100.08867    63.34545
    15  H   1.0    0.04    1.03    1.43    78.25041   101.06400    65.81871
    16  H   1.0    0.04    1.03    1.43    79.98449   101.96544    60.86553
    17  H   1.0    0.04    1.04    1.43    80.52313    95.07188    65.01189
    18  H   1.0    0.04    1.03    1.43    83.53106   100.61401    58.17792
    19  H   1.0    0.04    1.03    1.43    83.90319    93.67022    62.26264
    20  H   1.0    0.04    1.03    1.43    85.55980    96.45294    58.90979
    21  N   5.0   -0.21    3.22    1.96    73.25679    97.32459    84.37668
    22  C   4.0    0.03    4.21    4.02    74.70602    98.80963    86.15957
    23  C   4.0    0.08    3.19    3.04    72.81867   100.40878    87.68632
    24  O   6.0   -0.29    1.11    1.80    72.88407   100.49729    90.01175
    25  C   4.0   -0.05    4.31    4.21    76.76075   100.37901    84.86734
    26  C   4.0   -0.03    4.18    3.96    78.65562    98.74733    83.38459
    27  C   4.0   -0.07    4.11    3.82    80.40431   100.43936    81.83243
    28  C   4.0   -0.07    4.10    3.80    80.26167    97.05839    85.08498
    29  H   1.0    0.08    1.02    1.43    73.14971    97.88314    82.55373
    30  H   1.0    0.05    1.06    1.44    75.60803    97.50456    87.49188
    31  H   1.0    0.04    1.03    1.43    75.88773   101.72104    83.56414
    32  H   1.0    0.04    1.03    1.43    77.77884   101.43238    86.31857
    33  H   1.0    0.04    1.05    1.44    77.58639    97.53593    82.08927
    34  H   1.0    0.06    1.00    1.43    81.76260    99.31339    80.77326
    35  H   1.0    0.04    1.00    1.43    79.33699   101.58122    80.49964
    36  H   1.0    0.05    1.00    1.43    81.50326   101.67957    83.04805
    37  H   1.0    0.05    1.00    1.43    81.67985    96.10903    83.93597
    38  H   1.0    0.05    1.00    1.43    81.26217    98.16281    86.50105
    39  H   1.0    0.04    1.00    1.43    79.13226    95.62087    86.02056
    40  N   5.0   -0.17    3.40    2.02   116.08652    97.02889    69.19274
    41  C   4.0    0.03    4.40    4.37   113.75252    97.08116    67.74023
    42  C   4.0    0.07    3.24    3.04   113.72849    99.41220    66.09085
    43  O   6.0   -0.34    1.29    1.80   113.06335    99.26777    63.89203
    44  C   4.0   -0.05    4.29    4.17   111.55832    97.13108    69.62349
    45  C   4.0   -0.05    4.22    4.05   112.76264    97.85289    72.15161
    46  C   4.0   -0.01    4.24    4.09   115.63494    97.81323    71.77359
    47  H   1.0    0.04    1.05    1.44   113.61612    95.46921    66.45074
    48  H   1.0    0.03    1.03    1.43   110.14811    98.50519    69.01523
    49  H   1.0    0.03    1.02    1.43   110.62764    95.29921    69.72150
    50  H   1.0    0.03    1.02    1.43   112.17274    99.74223    72.71535
    51  H   1.0    0.03    1.02    1.43   112.26692    96.50880    73.62226
    52  H   1.0    0.03    1.02    1.43   116.39647    99.69869    72.08465
    53  H   1.0    0.03    1.02    1.43   116.55180    96.54055    73.10183
    54  N   5.0   -0.22    3.25    1.97   113.39636    99.20653    59.03379
    55  C   4.0    0.03    4.33    4.25   111.09043   100.34649    58.09650
    56  C   4.0    0.07    3.26    3.05   111.84907   102.46054    56.30957
    57  O   6.0   -0.30    1.12    1.80   110.67323   102.85532    54.34999
    58  C   4.0   -0.02    4.33    4.25   109.30648   101.20520    60.22413
    59  C   4.0   -0.04    4.20    4.00   108.05887    98.86962    61.39941
    60  C   4.0   -0.07    4.15    3.89   107.35477   103.03740    59.15870
    61  C   4.0   -0.08    4.01    3.64   106.72301    99.40886    63.88737
    62  H   1.0    0.13    1.13    1.45   113.70888    99.37186    60.91437
    63  H   1.0    0.04    1.06    1.44   110.08111    98.97078    56.92924
    64  H   1.0    0.05    1.06    1.44   110.42496   102.18150    61.65709
    65  H   1.0    0.03    1.03    1.43   106.65524    98.14297    60.08154
    66  H   1.0    0.05    1.03    1.43   109.50594    97.42984    61.66639
    67  H   1.0    0.03    1.00    1.43   105.96630   103.55075    60.57885
    68  H   1.0    0.05    1.01    1.43   108.27796   104.74567    58.49142
    69  H   1.0    0.05    1.00    1.43   106.38052   102.17541    57.57032
    70  H   1.0    0.03    1.00    1.43   106.02598    97.66267    64.71593
    71  H   1.0    0.04    1.00    1.43   107.96951   100.32262    65.24040
    72  H   1.0    0.03    1.01    1.43   105.11610   100.62932    63.54828
    73  N   5.0   -0.22    3.22    1.96    92.37055    93.55808    53.40887
    74  C   4.0    0.02    4.25    4.10    93.99256    92.21514    55.17041
    75  C   4.0    0.15    3.46    3.10    95.35353    94.08898    56.90689
    76  O   6.0   -0.32    1.38    1.80    95.09231    94.03658    59.20534
    77  C   4.0   -0.08    4.13    3.87    95.87271    90.62619    53.69049
    78  H   1.0    0.07    1.03    1.43    92.69906    93.27396    51.53667
    79  H   1.0    0.04    1.05    1.44    92.83728    91.00250    56.39585
    80  H   1.0    0.04    1.00    1.43    97.18103    89.69409    54.97061
    81  H   1.0    0.03    1.00    1.43    94.84978    89.21015    52.60958
    82  H   1.0    0.04    1.00    1.43    96.93124    91.82295    52.40043
    83  N   5.0   -0.15    3.53    2.10    96.85613    95.69897    55.69661
    84  C   4.0    0.03    4.50    4.54    98.29416    97.63884    56.97397
    85  C   4.0    0.16    3.52    3.12    96.65111    98.80356    59.04253
    86  O   6.0   -0.33    1.27    1.80    97.44199    99.11562    61.19049
    87  C   4.0   -0.03    4.26    4.12    99.25295    99.63727    55.08675
    88  C   4.0   -0.07    4.12    3.85   100.59307   101.76744    56.49605
    89  C   4.0   -0.08    4.12    3.84   101.03875    98.42459    53.17190
    90  H   1.0    0.07    1.08    1.44    96.68805    95.81156    53.79571
    91  H   1.0    0.05    1.05    1.44    99.92152    96.77059    57.93535
    92  H   1.0    0.04    1.05    1.44    97.61666   100.40229    54.08208
    93  H   1.0    0.04    1.00    1.43   101.45378   103.07621    55.16641
    94  H   1.0    0.05    1.00    1.43    99.27513   102.80322    57.68018
    95  H   1.0    0.04    1.00    1.43   102.06627   100.99515    57.70085
    96  H   1.0    0.04    1.00    1.43   101.80529    99.84288    51.89684
    97  H   1.0    0.04    1.00    1.43   102.59286    97.50556    54.13717
    98  H   1.0    0.04    1.00    1.43   100.05148    97.02182    52.05291
    99  N   5.0   -0.14    3.50    2.08    94.34168    99.49882    58.27660
   100  C   4.0    0.03    4.45    4.46    92.52396   100.65773    59.95316
   101  C   4.0    0.15    3.52    3.12    91.67899    98.84249    62.03107
   102  O   6.0   -0.32    1.38    1.80    91.82465    99.51991    64.25190
   103  C   4.0    0.05    4.23    4.05    90.24088   101.70553    58.45157
   104  O   6.0   -0.26    2.12    1.84    91.02569   103.55704    56.71071
   105  C   4.0   -0.07    4.10    3.80    88.34982   102.95789    60.22650
   106  H   1.0    0.07    1.07    1.44    93.78129    99.23425    56.46455
   107  H   1.0    0.06    1.06    1.44    93.47248   102.22624    60.93852
   108  H   1.0    0.03    1.03    1.43    89.34517   100.10977    57.46598
   109  H   1.0    0.11    1.02    1.43    91.69390   102.72815    55.21617
   110  H   1.0    0.04    1.00    1.43    86.85974   103.84866    59.12932
   111  H   1.0    0.04    1.00    1.43    87.51652   101.59677    61.51261
   112  H   1.0    0.04    1.00    1.43    89.32471   104.41046    61.29824
   113  N   5.0   -0.14    3.49    2.07    90.82331    96.56939    61.37578
   114  C   4.0    0.03    4.52    4.56    90.07731    94.84418    63.37040
   115  C   4.0    0.17    3.58    3.15    92.16347    94.88279    65.38553
   116  O   6.0   -0.32    1.28    1.80    91.69321    94.94745    67.65354
   117  C   4.0   -0.03    4.26    4.13    89.72978    92.03916    62.62001
   118  C   4.0   -0.08    4.13    3.86    88.35210    90.70838    64.78416
   119  C   4.0   -0.08    4.09    3.79    88.37814    91.55032    60.12353
   120  H   1.0    0.08    1.06    1.44    90.59530    96.06540    59.54040
   121  H   1.0    0.05    1.05    1.44    88.32836    95.55508    64.24696
   122  H   1.0    0.04    1.07    1.44    91.60787    91.19955    62.42886
   123  H   1.0    0.03    1.00    1.43    87.94209    88.75576    64.29702
   124  H   1.0    0.05    1.00    1.43    89.49517    90.73198    66.48903
   125  H   1.0    0.04    1.00    1.43    86.58151    91.66872    65.19164
   126  H   1.0    0.03    1.00    1.43    88.26868    89.51862    59.82705
   127  H   1.0    0.03    1.01    1.43    86.47924    92.30593    60.10574
   128  H   1.0    0.04    1.00    1.43    89.40297    92.38966    58.56593
   129  N   5.0   -0.14    3.60    2.16    94.47710    94.60286    64.42123
   130  C   4.0    0.03    4.42    4.41    96.71383    94.18319    65.94690
   131  C   4.0    0.16    3.48    3.11    96.96248    96.40917    67.77366
   132  O   6.0   -0.32    1.30    1.80    97.08250    96.11593    70.07045
   133  C   4.0   -0.04    4.31    4.23    99.07373    93.91463    64.28720
   134  C   4.0   -0.01    3.53    3.13    99.14750    91.63766    62.55999
   135  C   4.0   -0.05    3.48    3.11   101.42448    90.98038    61.41357
   136  C   4.0   -0.03    3.54    3.13    97.01296    90.25072    61.92642
   137  C   4.0   -0.05    3.38    3.07   101.55493    89.01443    59.69367
   138  C   4.0   -0.04    3.40    3.08    97.10749    88.39783    60.08433
   139  C   4.0   -0.04    3.37    3.07    99.38664    87.73209    58.99402
   140  H   1.0    0.12    1.13    1.45    94.73921    94.60161    62.51997
   141  H   1.0    0.05    1.05    1.44    96.44871    92.47754    67.10323
   142  H   1.0    0.06    1.04    1.43    99.23124    95.60600    63.10436
   143  H   1.0    0.03    1.03    1.43   100.72386    93.87996    65.52614
   144  H   1.0    0.04    1.03    1.43   103.13183    91.98617    61.90147
   145  H   1.0    0.05    1.05    1.44    95.24352    90.60470    62.86128
   146  H   1.0    0.04    1.03    1.43   103.35125    88.51538    58.86658
   147  H   1.0    0.04    1.03    1.43    95.38151    87.50484    59.46641
   148  H   1.0    0.05    1.03    1.43    99.46122    86.19736    57.65352
   149  N   5.0   -0.14    3.51    2.09    97.05101    98.67336    66.67482
   150  C   4.0    0.04    4.45    4.47    97.33260   100.92484    68.19562
   151  C   4.0    0.16    3.50    3.11    95.23960   101.15253    70.16443
   152  O   6.0   -0.32    1.31    1.80    95.73473   101.87673    72.31633
   153  C   4.0   -0.05    4.37    4.33    97.33918   103.31816    66.58088
   154  C   4.0   -0.02    4.18    3.97    99.62321   103.48525    64.80509
   155  C   4.0   -0.08    4.10    3.80    99.43787   105.88155    63.20903
   156  C   4.0   -0.09    4.12    3.84   102.07388   103.43262    66.32547
   157  H   1.0    0.11    1.09    1.44    96.89431    98.85272    64.77121
   158  H   1.0    0.05    1.06    1.44    99.10157   100.78448    69.27038
   159  H   1.0    0.05    1.03    1.43    95.58325   103.37123    65.50275
   160  H   1.0    0.04    1.03    1.43    97.35203   104.93774    67.86225
   161  H   1.0    0.06    1.07    1.44    99.58758   101.86510    63.52777
   162  H   1.0    0.04    1.00    1.43   100.94135   105.93749    61.80920
   163  H   1.0    0.04    1.00    1.43    97.63551   105.95003    62.22666
   164  H   1.0    0.04    1.00    1.43    99.58642   107.55450    64.39045
   165  H   1.0    0.03    1.00    1.43   103.62950   104.18816    65.22087
   166  H   1.0    0.03    1.00    1.43   101.88707   104.56763    68.02523
   167  H   1.0    0.03    1.00    1.43   102.53290   101.50985    66.87215
   168  N   5.0   -0.14    3.52    2.09    92.89878   100.67872    69.37442
   169  C   4.0    0.04    4.44    4.44    90.79633   100.89556    71.11177
   170  C   4.0    0.16    3.50    3.11    91.23617    99.11521    73.35217
   171  O   6.0   -0.29    1.27    1.80    91.04023    99.83714    75.54961
   172  C   4.0   -0.04    4.34    4.26    88.26918   100.36810    69.82487
   173  C   4.0   -0.02    4.18    3.96    87.65706   102.19485    67.65236
   174  C   4.0   -0.08    4.11    3.81    85.14727   101.44897    66.43845
   175  C   4.0   -0.08    4.11    3.82    87.53712   104.93671    68.53079
   176  H   1.0    0.12    1.11    1.44    92.54817   100.02756    67.60866
   177  H   1.0    0.05    1.06    1.44    90.78650   102.80990    71.91444
   178  H   1.0    0.06    1.03    1.43    88.29338    98.43392    69.10300
   179  H   1.0    0.05    1.03    1.43    86.80189   100.48426    71.27666
   180  H   1.0    0.06    1.07    1.44    89.14584   102.01075    66.23441
   181  H   1.0    0.04    1.00    1.43    84.68347   102.73165    64.90279
   182  H   1.0    0.04    1.00    1.43    85.23753    99.53531    65.69543
   183  H   1.0    0.04    1.00    1.43    83.63663   101.53007    67.82991
   184  H   1.0    0.04    1.00    1.43    86.99319   106.14798    66.96531
   185  H   1.0    0.04    1.00    1.43    86.14763   105.14587    70.03210
   186  H   1.0    0.04    1.00    1.43    89.35499   105.57021    69.24151
   187  N   5.0   -0.13    3.53    2.10    92.00321    96.77973    72.75999
   188  C   4.0    0.04    4.45    4.47    92.39748    95.00424    74.79898
   189  C   4.0    0.15    3.51    3.12    94.62093    95.83213    76.43386
   190  O   6.0   -0.32    1.29    1.80    94.73407    95.27636    78.69857
   191  C   4.0   -0.04    4.36    4.31    92.86824    92.31068    73.89090
   192  C   4.0   -0.02    4.18    3.96    90.68557    91.16219    72.37759
   193  C   4.0   -0.08    4.11    3.82    91.47067    88.52668    71.49974
   194  C   4.0   -0.07    4.10    3.81    88.25121    91.03149    73.91489
   195  H   1.0    0.11    1.10    1.44    92.02348    96.15731    70.94583
   196  H   1.0    0.06    1.06    1.44    90.72799    95.05789    76.03931
   197  H   1.0    0.05    1.03    1.43    94.57610    92.31626    72.73128
   198  H   1.0    0.05    1.03    1.43    93.20003    91.16619    75.57954
   199  H   1.0    0.06    1.06    1.44    90.34818    92.35849    70.72839
   200  H   1.0    0.03    1.00    1.43    89.99930    87.67459    70.35033
   201  H   1.0    0.04    1.00    1.43    93.20560    88.64283    70.40705
   202  H   1.0    0.04    1.00    1.43    91.79418    87.32158    73.13289
   203  H   1.0    0.04    1.00    1.43    86.74456    90.19293    72.79925
   204  H   1.0    0.04    1.00    1.43    88.51327    89.89216    75.60825
   205  H   1.0    0.06    1.00    1.43    87.62644    92.89682    74.51937
   206  N   5.0   -0.13    3.54    2.11    96.46790    97.12491    75.31815
   207  C   4.0    0.03    4.45    4.47    98.53047    98.10808    76.83119
   208  C   4.0    0.15    3.48    3.11    97.49352   100.11706    78.64106
   209  O   6.0   -0.33    1.27    1.80    98.17206   100.20585    80.86590
   210  C   4.0   -0.05    4.33    4.26   100.68011    99.12935    75.19630
   211  C   4.0   -0.02    4.19    3.97   101.88903    97.12024    73.48361
   212  C   4.0   -0.08    4.11    3.82   103.92363    98.36339    71.85651
   213  C   4.0   -0.08    4.11    3.81   103.04866    94.93963    74.97081
   214  H   1.0    0.12    1.10    1.44    96.46671    97.38319    73.42055
   215  H   1.0    0.05    1.06    1.44    99.20838    96.56670    78.03924
   216  H   1.0    0.05    1.03    1.43    99.92027   100.65429    74.03221
   217  H   1.0    0.04    1.03    1.43   102.12043    99.90742    76.44763
   218  H   1.0    0.06    1.07    1.44   100.41391    96.36406    72.25723
   219  H   1.0    0.03    1.00    1.43   104.64570    97.03453    70.46721
   220  H   1.0    0.03    1.00    1.43   103.14772    99.98624    70.87002
   221  H   1.0    0.03    1.00    1.43   105.48735    98.99341    73.02654
   222  H   1.0    0.04    1.00    1.43   103.89158    93.60443    73.65930
   223  H   1.0    0.03    1.00    1.43   104.51384    95.62237    76.23416
   224  H   1.0    0.04    1.00    1.43   101.61401    93.94828    76.05365
   225  N   5.0   -0.14    3.55    2.11    95.87155   101.72582    77.60184
   226  C   4.0    0.04    4.33    4.26    94.48181   103.57669    79.02875
   227  C   4.0    0.16    3.40    3.08    92.58316   102.34436    80.87553
   228  O   6.0   -0.31    1.23    1.80    91.33121   103.69716    82.26390
   229  C   4.0   -0.06    4.12    3.85    92.99771   105.32847    77.28960
   230  H   1.0    0.12    1.12    1.45    95.45897   101.63023    75.72751
   231  H   1.0    0.05    1.05    1.44    95.84701   104.67833    80.15565
   232  H   1.0    0.05    1.00    1.43    92.21953   106.87872    78.38613
   233  H   1.0    0.05    1.00    1.43    94.15946   106.06740    75.76622
   234  H   1.0    0.07    1.01    1.43    91.44293   104.23720    76.50554
   235  N   5.0   -0.12    3.54    2.11    92.65393    99.80034    80.97617
   236  C   4.0    0.04    4.43    4.44    91.16690    98.26025    82.67054
   237  C   4.0    0.14    3.45    3.09    92.73867    96.83812    84.62201
   238  O   6.0   -0.30    1.23    1.80    91.74313    96.19335    86.62656
   239  C   4.0   -0.02    4.26    4.12    89.47661    96.39093    81.28424
   240  C   4.0    0.26    3.10    3.02    87.39775    97.82834    79.73127
   241  O   6.0   -0.28    1.19    1.80    86.83600    99.97981    80.47094
   242  O   6.0   -0.30    1.16    1.80    86.43195    96.63886    77.93981
   243  H   1.0    0.11    1.13    1.45    93.20237    98.88746    79.38937
   244  H   1.0    0.07    1.07    1.44    89.93026    99.47611    83.79624
   245  H   1.0    0.06    1.03    1.43    90.58219    95.15024    80.06473
   246  H   1.0    0.06    1.03    1.43    88.47313    95.23313    82.67529
   247  N   5.0   -0.14    3.49    2.07    95.19059    96.49261    84.11185
   248  C   4.0    0.04    4.38    4.34    96.95093    95.44423    85.94860
   249  C   4.0    0.15    3.45    3.09    97.89726    97.60436    87.64379
   250  O   6.0   -0.31    1.25    1.80    98.18473    97.34754    89.93660
   251  C   4.0   -0.04    4.21    4.02    99.18150    93.97732    84.76446
   252  C   4.0   -0.04    4.22    4.05   101.03103    95.69410    83.36229
   253  C   4.0   -0.05    4.14    3.89   103.53924    94.46610    82.57854
   254  C   4.0   -0.05    4.13    3.85   105.51721    96.52139    82.10827
   255  N   5.0   -0.12    4.02    2.91   106.46726    97.56835    84.54557
   256  H   1.0    0.11    1.09    1.44    95.77855    97.00133    82.36595
   257  H   1.0    0.07    1.05    1.44    95.88354    94.16096    87.19084
   258  H   1.0    0.05    1.03    1.43   100.14703    93.04026    86.32953
   259  H   1.0    0.05    1.02    1.43    98.42451    92.52799    83.50801
   260  H   1.0    0.06    1.04    1.43   100.06526    96.47664    81.72590
   261  H   1.0    0.05    1.07    1.44   101.43024    97.25863    84.63112
   262  H   1.0    0.04    1.03    1.43   104.17131    93.17578    84.05356
   263  H   1.0    0.03    1.02    1.43   103.30260    93.36246    80.86009
   264  H   1.0    0.03    1.02    1.43   107.13311    95.77662    81.07205
   265  H   1.0    0.03    1.02    1.43   104.64560    98.04949    81.03169
   266  H   1.0    0.05    1.02    1.43   107.54083    99.16342    84.22996
   267  H   1.0    0.05    1.02    1.43   104.96581    98.03189    85.69871
   268  H   1.0    0.05    1.02    1.43   107.53764    96.23820    85.48594
   269  N   5.0   -0.15    3.55    2.12    98.51370    99.74799    86.44186
   270  C   4.0    0.03    4.50    4.53    99.43373   101.97775    87.73458
   271  C   4.0    0.14    3.56    3.14    97.58883   103.09884    89.64002
   272  O   6.0   -0.32    1.34    1.80    98.42370   104.07252    91.58080
   273  C   4.0   -0.02    4.28    4.15   100.25795   103.95335    85.75971
   274  C   4.0   -0.08    4.15    3.91   100.97386   106.42308    87.05276
   275  C   4.0   -0.08    4.12    3.85   102.52697   102.96199    84.26883
   276  H   1.0    0.10    1.10    1.44    98.05662   100.01393    84.59357
   277  H   1.0    0.05    1.06    1.44   101.11514   101.46207    88.84266
   278  H   1.0    0.05    1.05    1.44    98.64542   104.25166    84.49659
   279  H   1.0    0.03    1.01    1.43   101.69263   107.74456    85.66551
   280  H   1.0    0.05    1.00    1.43    99.36077   107.27209    87.99521
   281  H   1.0    0.04    1.00    1.43   102.42139   106.09214    88.47108
   282  H   1.0    0.04    1.00    1.43   103.09177   104.37816    82.89649
   283  H   1.0    0.03    1.00    1.43   104.10114   102.64633    85.55003
   284  H   1.0    0.05    1.00    1.43   102.01442   101.24963    83.26830
   285  N   5.0   -0.10    3.68    2.25    95.10025   103.15644    89.16850
   286  C   4.0    0.03    4.63    4.70    93.48923   104.23245    91.10292
   287  C   4.0    0.16    3.52    3.12    93.65936   102.64154    93.48302
   288  O   6.0   -0.32    1.38    1.80    93.99389   103.61045    95.56363
   289  C   4.0   -0.05    4.30    4.19    90.82948   104.30812    89.97428
   290  C   4.0   -0.04    4.23    4.06    90.83770   102.29704    87.88963
   291  C   4.0   -0.00    4.41    4.41    93.63278   101.79081    87.31815
   292  H   1.0    0.06    1.06    1.44    94.19204   106.10919    91.60172
   293  H   1.0    0.04    1.02    1.43    89.43391   103.94695    91.44205
   294  H   1.0    0.04    1.02    1.43    90.48706   106.17435    89.18200
   295  H   1.0    0.05    1.02    1.43    89.96630   100.52017    88.48401
   296  H   1.0    0.06    1.03    1.43    89.86946   102.89189    86.17034
   297  H   1.0    0.06    1.08    1.44    93.93765    99.77250    87.54419
   298  H   1.0    0.06    1.03    1.43    94.14016   102.38706    85.41476
   299  N   5.0   -0.14    3.54    2.11    93.51258   100.14332    93.20091
   300  C   4.0    0.03    4.44    4.45    93.53712    98.55149    95.42673
   301  C   4.0    0.16    3.51    3.12    95.98003    99.07478    96.88282
   302  O   6.0   -0.30    1.25    1.80    96.01521    99.39445    99.16634
   303  C   4.0   -0.04    4.27    4.13    93.26374    95.76912    94.72515
   304  C   4.0   -0.03    4.17    3.94    90.79259    95.18245    93.37060
   305  C   4.0    0.26    3.08    3.02    90.44846    92.28705    92.83110
   306  O   6.0   -0.28    1.18    1.80    92.29664    90.88330    93.21416
   307  O   6.0   -0.28    1.16    1.80    88.32829    91.64081    92.02832
   308  H   1.0    0.08    1.07    1.44    93.15277    99.31149    91.52879
   309  H   1.0    0.05    1.05    1.44    91.97793    99.10502    96.67872
   310  H   1.0    0.07    1.03    1.43    94.81873    95.17110    93.51040
   311  H   1.0    0.06    1.03    1.43    93.34930    94.66577    96.46615
   312  H   1.0    0.05    1.02    1.43    89.15757    95.81524    94.45795
   313  H   1.0    0.06    1.02    1.43    90.70176    96.07634    91.50988
   314  N   5.0   -0.13    3.51    2.09    98.06047    99.22655    95.44214
   315  C   4.0    0.04    4.46    4.48   100.49210    99.69479    96.61761
   316  C   4.0    0.16    3.50    3.11   100.37688   102.19495    98.08314
   317  O   6.0   -0.28    1.24    1.80   101.19796   102.37498   100.24119
   318  C   4.0    0.05    4.22    4.04   102.63860    99.75054    94.64059
   319  O   6.0   -0.25    2.11    1.84   102.86082    97.47446    93.28480
   320  C   4.0   -0.06    4.10    3.81   105.16381   100.20993    95.95480
   321  H   1.0    0.11    1.08    1.44    97.97162    98.77437    93.58418
   322  H   1.0    0.06    1.05    1.44   100.85484    98.21018    98.02511
   323  H   1.0    0.05    1.04    1.43   102.22138   101.32029    93.33705
   324  H   1.0    0.14    1.03    1.43   101.27986    97.01358    92.49033
   325  H   1.0    0.04    1.00    1.43   106.68630   100.15364    94.58215
   326  H   1.0    0.05    1.00    1.43   105.13297   102.02504    96.90923
   327  H   1.0    0.05    1.00    1.43   105.48360    98.73176    97.34278
   328  N   5.0   -0.14    3.50    2.08    99.39103   104.16020    96.84146
   329  C   4.0    0.04    4.39    4.36    99.27010   106.63283    98.01528
   330  C   4.0    0.17    3.47    3.10    97.87156   106.59556   100.54869
   331  O   6.0   -0.28    1.23    1.80    98.54398   107.97439   102.28096
   332  C   4.0    0.04    4.15    3.89    98.04556   108.56710    96.22339
   333  O   6.0   -0.25    2.06    1.83    95.39998   108.53373    96.19788
   334  H   1.0    0.12    1.11    1.44    98.73973   104.00070    95.04173
   335  H   1.0    0.05    1.05    1.44   101.18890   107.28371    98.46855
   336  H   1.0    0.05    1.02    1.43    98.56501   110.46490    96.84777
   337  H   1.0    0.05    1.01    1.43    98.80532   108.21982    94.31844
   338  H   1.0    0.15    1.08    1.44    94.81988   106.78975    96.00640
   339  N   5.0   -0.13    3.48    2.06    95.88675   105.04498   100.68899
   340  C   4.0    0.04    4.32    4.24    94.42583   104.81964   102.98529
   341  C   4.0    0.10    3.25    3.04    96.09616   104.12724   105.25235
   342  O   6.0   -0.28    1.11    1.80    95.62053   104.92432   107.37143
   343  C   4.0   -0.04    4.36    4.31    92.38837   102.78092   102.72869
   344  C   4.0   -0.02    4.18    3.95    90.41722   103.27002   100.65843
   345  C   4.0   -0.08    4.10    3.81    88.62888   101.00517   100.51392
   346  C   4.0   -0.07    4.10    3.81    88.93020   105.68868   101.14192
   347  H   1.0    0.11    1.09    1.44    95.42538   103.90766    99.22680
   348  H   1.0    0.06    1.05    1.44    93.56694   106.65257   103.44517
   349  H   1.0    0.06    1.03    1.43    93.33697   100.99320   102.32746
   350  H   1.0    0.05    1.03    1.43    91.42815   102.62128   104.54801
   351  H   1.0    0.06    1.06    1.44    91.39188   103.44215    98.84569
   352  H   1.0    0.04    1.00    1.43    87.30422   101.20890    98.95368
   353  H   1.0    0.04    1.00    1.43    89.69088    99.26389   100.24369
   354  H   1.0    0.04    1.00    1.43    87.55323   100.83210   102.25487
   355  H   1.0    0.04    1.00    1.43    87.46333   105.91123    99.72240
   356  H   1.0    0.04    1.00    1.43    88.04284   105.62202   102.99367
   357  H   1.0    0.05    1.00    1.43    90.17032   107.32100   101.05408
   358  N   5.0   -0.22    3.20    1.95   108.82158   116.86283    85.15016
   359  C   4.0    0.02    4.21    4.02   106.19925   116.51600    84.37576
   360  C   4.0    0.07    3.23    3.04   105.30249   118.73469    82.74429
   361  O   6.0   -0.31    1.14    1.80   104.30766   118.36184    80.69401
   362  C   4.0   -0.05    4.32    4.24   104.57596   116.16053    86.75481
   363  C   4.0   -0.03    4.16    3.92   101.80542   115.33948    86.41619
   364  C   4.0   -0.07    4.15    3.90   100.48401   116.55762    84.17447
   365  C   4.0   -0.08    4.12    3.84   101.60795   112.47209    86.22459
   366  H   1.0    0.07    1.03    1.43   109.17051   116.96817    87.02215
   367  H   1.0    0.04    1.06    1.44   106.06840   114.87347    83.12736
   368  H   1.0    0.03    1.04    1.43   105.44851   114.70351    87.92422
   369  H   1.0    0.04    1.03    1.43   104.64657   117.94314    87.76490
   370  H   1.0    0.03    1.06    1.44   100.79486   115.90539    88.13377
   371  H   1.0    0.04    1.00    1.43    98.48468   116.09535    84.19821
   372  H   1.0    0.05    1.00    1.43   100.65853   118.60414    84.21286
   373  H   1.0    0.06    1.01    1.43   101.28680   115.84709    82.42340
   374  H   1.0    0.04    1.00    1.43    99.63518   111.92347    86.06243
   375  H   1.0    0.03    1.00    1.43   102.59707   111.76919    84.56769
   376  H   1.0    0.03    1.00    1.43   102.41224   111.58629    87.89463
   377  N   5.0   -0.20    3.21    1.96   108.71420   117.85795    76.67830
   378  C   4.0    0.03    4.29    4.18   107.88396   115.66009    75.28403
   379  C   4.0    0.08    3.26    3.04   105.18620   116.07272    74.39682
   380  O   6.0   -0.33    1.25    1.80   104.48057   115.16598    72.38223
   381  C   4.0   -0.02    4.29    4.18   108.14093   113.09188    76.68568
   382  C   4.0   -0.05    4.19    3.97   105.87825   112.60520    78.44742
   383  C   4.0   -0.08    4.11    3.82   110.72180   112.85544    77.95216
   384  C   4.0   -0.09    4.01    3.64   106.14567   110.25936    80.10436
   385  H   1.0    0.08    1.02    1.43   109.36553   117.62089    78.46340
   386  H   1.0    0.04    1.06    1.44   109.02292   115.52844    73.55395
   387  H   1.0    0.04    1.06    1.44   108.07741   111.64292    75.20577
   388  H   1.0    0.05    1.03    1.43   105.49616   114.25099    79.61859
   389  H   1.0    0.04    1.04    1.43   104.23005   112.33621    77.23520
   390  H   1.0    0.03    1.00    1.43   110.94409   110.98074    78.75668
   391  H   1.0    0.03    1.00    1.43   112.21203   113.12337    76.56176
   392  H   1.0    0.04    1.00    1.43   110.94509   114.24328    79.43842
   393  H   1.0    0.03    1.00    1.43   104.33093   109.76758    80.93666
   394  H   1.0    0.03    1.00    1.43   106.73768   108.67966    78.93531
   395  H   1.0    0.03    1.00    1.43   107.47052   110.53911    81.65051
   396  N   5.0   -0.21    3.25    1.97   104.10263   115.05406    67.38213
   397  C   4.0    0.03    4.31    4.22   102.03456   113.41791    66.66031
   398  C   4.0    0.07    3.27    3.05   100.18905   114.98249    65.10972
   399  O   6.0   -0.33    1.23    1.80    99.55141   114.28689    62.99424
   400  C   4.0   -0.02    4.26    4.13   100.77310   112.23243    68.99392
   401  C   4.0   -0.08    4.14    3.87    97.97971   111.66894    68.54356
   402  C   4.0   -0.08    4.11    3.82   102.19218   109.83692    69.72832
   403  H   1.0    0.12    1.11    1.45   104.37634   115.35672    69.25931
   404  H   1.0    0.04    1.05    1.44   102.72886   111.92498    65.39219
   405  H   1.0    0.06    1.07    1.44   100.91594   113.60562    70.52781
   406  H   1.0    0.04    1.00    1.43    97.22734   110.61164    70.13507
   407  H   1.0    0.04    1.00    1.43    96.91318   113.41376    68.36317
   408  H   1.0    0.04    1.00    1.43    97.70731   110.55985    66.83652
   409  H   1.0    0.04    1.00    1.43   101.35108   108.98865    71.39852
   410  H   1.0    0.03    1.00    1.43   102.09923   108.47923    68.19224
   411  H   1.0    0.04    1.00    1.43   104.15960   110.27231    70.11299
   412  N   5.0   -0.20    3.25    1.97   103.18240   116.52961    58.83347
   413  C   4.0    0.04    4.31    4.23   103.35161   114.33062    57.22885
   414  C   4.0    0.15    3.40    3.08   100.69671   113.66148    56.29858
   415  O   6.0   -0.28    1.21    1.80   100.39992   112.91145    54.12561
   416  C   4.0    0.03    4.14    3.87   104.65543   112.11878    58.53537
   417  O   6.0   -0.26    2.06    1.83   107.26732   112.38570    58.12340
   418  H   1.0    0.09    1.02    1.43   103.69435   116.38037    60.67371
   419  H   1.0    0.06    1.06    1.44   104.46233   114.77458    55.52960
   420  H   1.0    0.04    1.01    1.43   104.20830   112.17809    60.55689
   421  H   1.0    0.04    1.01    1.43   103.95964   110.34732    57.70027
   422  H   1.0    0.11    1.02    1.43   108.16609   111.06863    59.00348
   423  N   5.0   -0.14    3.50    2.08    98.84188   113.99136    57.96010
   424  C   4.0    0.04    4.40    4.37    96.18355   113.57250    57.43750
   425  C   4.0    0.08    3.27    3.05    95.28321   115.47602    55.48309
   426  O   6.0   -0.28    1.12    1.80    94.28999   114.66998    53.53312
   427  C   4.0   -0.02    4.27    4.13    94.61923   113.72070    59.88509
   428  C   4.0   -0.08    4.13    3.86    91.80879   114.13988    59.37746
   429  C   4.0   -0.07    4.12    3.84    94.97382   111.30691    61.41952
   430  H   1.0    0.11    1.15    1.45    99.26481   114.36911    59.79459
   431  H   1.0    0.06    1.06    1.44    95.92567   111.71323    56.54858
   432  H   1.0    0.05    1.06    1.44    95.33466   115.33435    60.95297
   433  H   1.0    0.04    1.00    1.43    90.85984   114.60311    61.13979
   434  H   1.0    0.05    1.01    1.43    91.49413   115.68256    58.06449
   435  H   1.0    0.04    1.00    1.43    90.95988   112.44741    58.58278
   436  H   1.0    0.04    1.00    1.43    94.04998   111.49723    63.24338
   437  H   1.0    0.04    1.00    1.43    94.13792   109.71327    60.42727
   438  H   1.0    0.05    1.01    1.43    96.96841   110.93289    61.71169
   439  N   5.0   -0.22    3.22    1.96   100.58705    81.46044    50.04443
   440  C   4.0    0.02    4.23    4.06    99.02049    82.64948    51.94325
   441  C   4.0    0.07    3.22    3.04    98.59393    80.80765    54.12046
   442  O   6.0   -0.33    1.18    1.80    98.96929    81.42727    56.32546
   443  C   4.0   -0.05    4.34    4.27    96.46022    83.49454    50.89231
   444  C   4.0   -0.03    4.20    4.00    96.62761    84.94944    48.39525
   445  C   4.0   -0.09    4.11    3.82    94.00873    85.89177    47.65057
   446  C   4.0   -0.08    4.11    3.83    98.50388    87.13129    48.48756
   447  H   1.0    0.07    1.03    1.43    99.90175    81.27027    48.27004
   448  H   1.0    0.04    1.05    1.44   100.04952    84.26598    52.74554
   449  H   1.0    0.03    1.03    1.43    95.27261    81.83524    50.58343
   450  H   1.0    0.04    1.03    1.43    95.55258    84.66538    52.32953
   451  H   1.0    0.03    1.06    1.44    97.25554    83.63620    46.93392
   452  H   1.0    0.03    1.00    1.43    94.13651    86.88945    45.86625
   453  H   1.0    0.03    1.00    1.43    92.69973    84.31706    47.46214
   454  H   1.0    0.03    1.00    1.43    93.25978    87.19899    49.04851
   455  H   1.0    0.03    1.00    1.43    98.40198    88.18949    46.73093
   456  H   1.0    0.03    1.01    1.43    98.06533    88.40245    50.03180
   457  H   1.0    0.03    1.00    1.43   100.41985    86.43749    48.73847
   458  N   5.0   -0.21    3.23    1.96   104.14864    78.43974    58.01544
   459  C   4.0    0.03    4.25    4.09   104.88865    80.54985    59.58083
   460  C   4.0    0.15    3.46    3.10   103.15248    80.74760    61.87659
   461  O   6.0   -0.33    1.35    1.80   104.06478    80.80278    64.01185
   462  C   4.0   -0.08    4.11    3.83   104.86902    82.98267    58.05414
   463  H   1.0    0.09    1.03    1.43   103.54067    78.88161    56.26030
   464  H   1.0    0.04    1.05    1.44   106.78803    80.16514    60.33704
   465  H   1.0    0.04    1.00    1.43   105.54204    84.53594    59.21277
   466  H   1.0    0.04    1.00    1.43   106.06012    82.78712    56.39342
   467  H   1.0    0.05    1.01    1.43   102.96202    83.39352    57.41771
   468  N   5.0   -0.15    3.47    2.06   100.67587    80.83855    61.45810
   469  C   4.0    0.04    4.43    4.43    98.98497    80.94820    63.60764
   470  C   4.0    0.09    3.33    3.06    99.73484    78.87797    65.48491
   471  O   6.0   -0.32    1.18    1.80    99.82578    79.27644    67.76700
   472  C   4.0   -0.03    4.26    4.12    96.18582    80.59437    62.90191
   473  C   4.0   -0.08    4.14    3.88    94.56891    80.90031    65.27397
   474  C   4.0   -0.08    4.13    3.87    95.33339    82.54148    60.96462
   475  H   1.0    0.10    1.10    1.44    99.95079    80.88305    59.68494
   476  H   1.0    0.05    1.05    1.44    99.23117    82.77383    64.57943
   477  H   1.0    0.04    1.05    1.44    95.95942    78.69270    62.12452
   478  H   1.0    0.03    1.00    1.43    92.57262    80.80637    64.80070
   479  H   1.0    0.04    1.00    1.43    94.98241    79.45773    66.67259
   480  H   1.0    0.04    1.00    1.43    94.95220    82.73620    66.11669
   481  H   1.0    0.03    1.00    1.43    93.32560    82.32420    60.58545
   482  H   1.0    0.04    1.02    1.43    95.66547    84.41320    61.72736
   483  H   1.0    0.06    1.02    1.43    96.35398    82.36551    59.19756
   484  N   5.0   -0.20    3.27    1.97   105.57585    80.26939    69.07614
   485  C   4.0    0.03    4.32    4.24   105.27291    82.37284    70.79743
   486  C   4.0    0.15    3.45    3.09   103.84548    81.46874    73.12912
   487  O   6.0   -0.32    1.26    1.80   104.52180    82.04615    75.28341
   488  C   4.0   -0.04    4.34    4.28   103.93273    84.58968    69.52462
   489  C   4.0   -0.02    4.19    3.98   105.37590    85.63989    67.23655
   490  C   4.0   -0.08    4.12    3.83   103.82670    87.72890    65.99287
   491  C   4.0   -0.08    4.11    3.82   107.96718    86.66662    67.96907
   492  H   1.0    0.12    1.07    1.44   104.76142    80.36599    67.34271
   493  H   1.0    0.04    1.05    1.44   107.14583    82.96283    71.47057
   494  H   1.0    0.05    1.03    1.43   102.05808    83.95847    68.93583
   495  H   1.0    0.04    1.03    1.43   103.71065    86.08466    70.92678
   496  H   1.0    0.06    1.07    1.44   105.61828    84.11913    65.86403
   497  H   1.0    0.04    1.00    1.43   104.82579    88.46152    64.35743
   498  H   1.0    0.04    1.00    1.43   102.00542    87.01406    65.36873
   499  H   1.0    0.03    1.00    1.43   103.51864    89.27212    67.31274
   500  H   1.0    0.03    1.00    1.43   108.87130    87.49869    66.32466
   501  H   1.0    0.03    1.00    1.43   107.78730    88.11460    69.41573
   502  H   1.0    0.04    1.00    1.43   109.19046    85.18596    68.69085
   503  N   5.0   -0.15    3.49    2.07   101.85474    79.98703    72.72930
   504  C   4.0    0.04    4.36    4.32   100.48299    79.01331    74.88571
   505  C   4.0    0.08    3.25    3.04   102.16648    77.23084    76.40759
   506  O   6.0   -0.31    1.17    1.80   102.14037    77.24090    78.73305
   507  C   4.0   -0.05    4.34    4.26    98.02868    77.72235    74.09284
   508  C   4.0   -0.02    4.19    3.97    96.20340    79.47238    72.66985
   509  C   4.0   -0.08    4.11    3.81    93.77593    78.04287    72.04865
   510  C   4.0   -0.07    4.12    3.83    95.57479    81.84442    74.17607
   511  H   1.0    0.11    1.10    1.44   101.21989    79.56491    70.96698
   512  H   1.0    0.06    1.06    1.44   100.05896    80.58748    76.17277
   513  H   1.0    0.04    1.03    1.43    98.49470    76.09828    72.90603
   514  H   1.0    0.05    1.03    1.43    97.10225    77.01841    75.79803
   515  H   1.0    0.06    1.06    1.44    97.09816    80.03610    70.89542
   516  H   1.0    0.03    1.00    1.43    92.47164    79.26852    71.04068
   517  H   1.0    0.04    1.00    1.43    94.18088    76.39021    70.89753
   518  H   1.0    0.04    1.00    1.43    92.85404    77.40128    73.77095
   519  H   1.0    0.04    1.00    1.43    94.10007    82.90520    73.22038
   520  H   1.0    0.05    1.00    1.43    94.90335    81.36560    76.05981
   521  H   1.0    0.05    1.00    1.43    97.22353    83.04876    74.37420
   522  N   5.0   -0.20    3.21    1.96   105.72149    80.65674    80.76754
   523  C   4.0    0.03    4.24    4.08   104.15669    81.59904    82.79791
   524  C   4.0    0.08    3.21    3.04   103.75186    79.69182    84.93781
   525  O   6.0   -0.28    1.12    1.80   103.08728    80.42015    87.03532
   526  C   4.0   -0.02    4.33    4.26   101.53104    82.34129    81.86702
   527  C   4.0   -0.04    4.23    4.07   101.64453    84.61276    80.10876
   528  C   4.0    0.15    3.23    3.04    99.02569    85.22627    79.12223
   529  O   6.0   -0.30    1.22    1.80    97.13271    84.08487    79.77857
   530  N   5.0   -0.19    3.18    1.95    98.93625    87.08862    77.39092
   531  H   1.0    0.12    1.07    1.44   104.79930    79.56231    79.49731
   532  H   1.0    0.05    1.06    1.44   105.05745    83.24708    83.65854
   533  H   1.0    0.07    1.03    1.43   100.68784    80.73180    80.89114
   534  H   1.0    0.06    1.03    1.43   100.36515    82.77645    83.51361
   535  H   1.0    0.04    1.03    1.43   102.39720    86.23196    81.13867
   536  H   1.0    0.06    1.04    1.43   102.90665    84.19388    78.53091
   537  H   1.0    0.08    1.03    1.43   100.45812    88.15471    77.00551
   538  H   1.0    0.09    1.03    1.43    97.21775    87.65841    76.79338
   539  H   1.0    0.09    1.07    1.44    76.45771    93.85103    65.36525
   540  H   1.0    0.05    1.05    1.44    72.80964    98.79538    67.18853
   541  H   1.0    0.09    1.07    1.44    73.89825    95.75159    84.29435
   542  H   1.0    0.05    1.04    1.44    71.49171   101.41403    86.79205
   543  H   1.0    0.08    1.10    1.44   116.95709    95.61679    68.81772
   544  H   1.0    0.05    1.05    1.44   114.25967   101.07969    66.80386
   545  H   1.0    0.09    1.07    1.44   113.38018    97.53834    58.70296
   546  H   1.0    0.05    1.05    1.44   113.33003   103.55981    56.72119
   547  H   1.0    0.08    1.07    1.44    90.75260    93.10082    53.66524
   548  H   1.0    0.07    1.05    1.44    97.60003   103.00861   105.01126
   549  H   1.0    0.08    1.07    1.44   109.75707   115.55893    84.58691
   550  H   1.0    0.05    1.04    1.44   105.52920   120.50866    83.35477
   551  H   1.0    0.09    1.07    1.44   109.99564   118.60657    75.84760
   552  H   1.0    0.06    1.05    1.44   103.98792   117.08189    75.45359
   553  H   1.0    0.09    1.07    1.44   105.56698   114.40311    66.81249
   554  H   1.0    0.05    1.05    1.44    99.48789   116.58952    65.81464
   555  H   1.0    0.09    1.07    1.44   104.17730   117.76219    58.21421
   556  H   1.0    0.05    1.04    1.43    95.50276   117.32676    55.79557
   557  H   1.0    0.08    1.07    1.44   102.02401    82.35036    49.85532
   558  H   1.0    0.05    1.05    1.44    97.99515    79.05032    53.76789
   559  H   1.0    0.09    1.07    1.44   105.47342    77.39316    57.81000
   560  H   1.0    0.05    1.05    1.44   100.16644    77.14742    64.86042
   561  H   1.0    0.09    1.07    1.44   107.22937    80.02906    68.75884
   562  H   1.0    0.05    1.05    1.44   103.31754    76.02658    75.51546
   563  H   1.0    0.10    1.07    1.44   106.38133    81.96561    79.90497
   564  H   1.0    0.06    1.04    1.43   104.02950    77.84880    84.62595

  Z AO/shell   Hii/eV     exponent
  1     Wed Apr 25 08:07:45 CEST 2018   EN: 2.200 GM2: 0.406  GM3: 0.0800  RAES: 1.40
     1s    -10.707211    1.230000
  6     Wed Apr 25 08:07:45 CEST 2018   EN: 2.550 GM2: 0.538  GM3: 0.1500  RAES: 3.00
     2s    -13.970922    2.096432
     2p    -10.063292    1.800000
  7     Wed Apr 25 08:07:45 CEST 2018   EN: 3.040 GM2: 0.461  GM3:-0.0640  RAES: 1.90
     2s    -16.686243    2.339881
     2p    -12.523956    2.014332
  8     Wed Apr 25 08:07:45 CEST 2018   EN: 3.440 GM2: 0.452  GM3:-0.0517  RAES: 1.80
     2s    -20.229985    2.439742
     2p    -15.503117    2.137023
 no old-style atom pair restraining (fixing) potential

molecular fragmentation (1/2 indicates fragments):
111111111111111111112222222222222222222222222222222222222222222222222222
222222222222222222222222222222222222222222222222222222222222222222222222
222222222222222222222222222222222222222222222222222222222222222222222222
222222222222222222222222222222222222222222222222222222222222222222222222
222222222222222222222222222222222222222222222222222222222222222222222222
222222222222222222222222222222222222222222222222222222222222222222222222
222222222222222222222222222222222222222222222222222222222222222222222222
222222222222222222222222222222222211222222222222222222222222
# atoms in fragment 1/2:    22   542
 fragment masses (1/2) :      149.19     3407.40
CMA distance (Bohr)    :  21.289
constraining FC (au)   :  0.0500
           ------------------------------------------------- 
          |        Self-Consistent Charge Iterations        |
           ------------------------------------------------- 

 Ncao       : 1314
 Nao        : 1314
 Nshell     : 814
 Nel        : 1434
 T(el)      :   500.0
 intcut     :    35.0
 scfconv/Eh :  0.100E-06
   qconv/e  :  0.100E-04
 intneglect :  0.100E-08
 broydamp   :      0.400
 iter      E             dE          RMSdq      gap      omega  full diag
   1   -812.4089141 -0.812409E+03  0.430E+00    2.87       0.0  T
   2   -814.2025341 -0.179362E+01  0.202E+00    1.61       1.0  T
   3   -814.3161919 -0.113658E+00  0.118E+00    1.91       1.0  T
   4   -814.4440317 -0.127840E+00  0.221E-01    1.28       1.0  T
   5   -814.4505396 -0.650792E-02  0.108E-01    1.46       1.0  T
   6   -814.4515170 -0.977434E-03  0.459E-02    1.44       1.0  T
   7   -814.4517542 -0.237112E-03  0.216E-02    1.43       1.0  T
   8   -814.4518015 -0.473160E-04  0.106E-02    1.42       1.0  T
   9   -814.4518167 -0.152641E-04  0.532E-03    1.42       1.0  T
  10   -814.4518206 -0.385333E-05  0.233E-03    1.42       1.8  T
  11   -814.4518213 -0.736604E-06  0.104E-03    1.42       4.1  T
  12   -814.4518215 -0.132262E-06  0.396E-04    1.42      10.6  T
  13   -814.4518215 -0.205592E-07  0.218E-04    1.42      19.4  T
  14   -814.4518215 -0.523937E-08  0.917E-05    1.42      45.9  T
  15   -814.4518215 -0.132604E-08  0.399E-05    1.42     105.6  T
speedup  1.00
cpu  time for SCC   12.73 s
wall time for SCC   12.73 s

   *** convergence criteria satisfied after 15 iterations ***

          eigenvalues
 #    :         705        706        707        708        709        710        711        712
 occ. :        2.000      2.000      2.000      2.000      2.000      2.000      2.000      2.000
 eps  :       -10.206    -10.162    -10.037     -9.968     -9.952     -9.873     -9.848     -9.782
 #    :         713        714        715        716        717        718        719        720
 occ. :        2.000      2.000      2.000      2.000      2.000      0.000      0.000      0.000
 eps  :        -9.753     -9.704     -9.646     -9.513     -9.497     -8.077     -7.882     -7.868
 #    :         721        722        723        724        725        726        727        728
 occ. :        0.000      0.000      0.000      0.000      0.000      0.000      0.000      0.000
 eps  :        -7.826     -7.746     -7.729     -7.677     -7.626     -7.619     -7.596     -7.509


   #   Z            q   n(s)   n(p)   n(d)      C6AA      α(0)
   1   7 N     -0.386  1.311  4.076  0.000    29.994     8.134
   2   6 C      0.046  1.051  2.903  0.000    19.823     6.342
   3   6 C      0.200  1.092  2.708  0.000    23.739     7.979
   4   8 O     -0.393  1.768  4.624  0.000    21.538     6.222
   5   6 C     -0.072  1.054  3.018  0.000    21.868     6.656
   6   6 C      0.015  1.083  2.903  0.000    27.681     8.630
   7   6 C     -0.041  1.082  2.960  0.000    29.025     8.835
   8   6 C     -0.042  1.076  2.966  0.000    29.049     8.839
   9   6 C     -0.035  1.082  2.953  0.000    28.863     8.810
  10   6 C     -0.041  1.080  2.960  0.000    29.011     8.833
  11   6 C     -0.042  1.079  2.963  0.000    29.038     8.837
  12   1 H      0.179  0.821  0.000  0.000     1.222     1.732
  13   1 H      0.035  0.965  0.000  0.000     2.517     2.481
  14   1 H      0.070  0.930  0.000  0.000     2.087     2.259
  15   1 H      0.050  0.950  0.000  0.000     2.325     2.385
  16   1 H      0.042  0.958  0.000  0.000     2.426     2.436
  17   1 H      0.026  0.974  0.000  0.000     2.650     2.546
  18   1 H      0.052  0.948  0.000  0.000     2.294     2.368
  19   1 H      0.040  0.960  0.000  0.000     2.453     2.449
  20   1 H      0.044  0.956  0.000  0.000     2.400     2.423
  21   7 N     -0.383  1.305  4.077  0.000    29.890     8.120
  22   6 C      0.039  1.057  2.905  0.000    19.945     6.362
  23   6 C      0.200  1.096  2.704  0.000    23.743     7.980
  24   8 O     -0.380  1.762  4.617  0.000    21.281     6.185
  25   6 C     -0.072  1.061  3.012  0.000    21.877     6.659
  26   6 C     -0.004  1.057  2.946  0.000    20.609     6.457
  27   6 C     -0.099  1.038  3.061  0.000    22.445     6.755
  28   6 C     -0.099  1.036  3.063  0.000    22.443     6.755
  29   1 H      0.170  0.830  0.000  0.000     1.273     1.767
  30   1 H      0.054  0.946  0.000  0.000     2.273     2.358
  31   1 H      0.055  0.945  0.000  0.000     2.259     2.350
  32   1 H      0.041  0.959  0.000  0.000     2.440     2.443
  33   1 H      0.037  0.963  0.000  0.000     2.494     2.470
  34   1 H      0.021  0.979  0.000  0.000     2.724     2.581
  35   1 H      0.042  0.958  0.000  0.000     2.417     2.431
  36   1 H      0.031  0.969  0.000  0.000     2.578     2.511
  37   1 H      0.014  0.986  0.000  0.000     2.824     2.628
  38   1 H      0.028  0.972  0.000  0.000     2.613     2.528
  39   1 H      0.039  0.961  0.000  0.000     2.460     2.453
  40   7 N     -0.282  1.260  4.022  0.000    27.284     7.758
  41   6 C      0.030  1.060  2.911  0.000    20.065     6.376
  42   6 C      0.196  1.090  2.715  0.000    23.821     7.993
  43   8 O     -0.372  1.742  4.630  0.000    21.127     6.163
  44   6 C     -0.065  1.055  3.010  0.000    21.738     6.636
  45   6 C     -0.076  1.056  3.020  0.000    21.932     6.665
  46   6 C      0.006  1.046  2.948  0.000    20.531     6.460
  47   1 H      0.047  0.953  0.000  0.000     2.362     2.403
  48   1 H      0.048  0.952  0.000  0.000     2.349     2.397
  49   1 H      0.057  0.943  0.000  0.000     2.233     2.337
  50   1 H      0.054  0.946  0.000  0.000     2.265     2.354
  51   1 H      0.059  0.941  0.000  0.000     2.209     2.324
  52   1 H      0.039  0.961  0.000  0.000     2.462     2.454
  53   1 H      0.036  0.964  0.000  0.000     2.502     2.474
  54   7 N     -0.424  1.329  4.095  0.000    31.049     8.276
  55   6 C      0.039  1.058  2.904  0.000    19.937     6.359
  56   6 C      0.203  1.091  2.706  0.000    23.681     7.970
  57   8 O     -0.397  1.760  4.637  0.000    21.625     6.235
  58   6 C     -0.020  1.067  2.953  0.000    20.897     6.502
  59   6 C     -0.059  1.050  3.010  0.000    21.637     6.622
  60   6 C     -0.111  1.038  3.073  0.000    22.684     6.791
  61   6 C     -0.112  1.037  3.075  0.000    22.703     6.795
  62   1 H      0.211  0.789  0.000  0.000     1.053     1.607
  63   1 H      0.045  0.955  0.000  0.000     2.383     2.414
  64   1 H      0.051  0.949  0.000  0.000     2.309     2.376
  65   1 H      0.034  0.966  0.000  0.000     2.534     2.489
  66   1 H      0.045  0.955  0.000  0.000     2.383     2.414
  67   1 H      0.050  0.950  0.000  0.000     2.320     2.382
  68   1 H      0.022  0.978  0.000  0.000     2.697     2.568
  69   1 H      0.043  0.957  0.000  0.000     2.404     2.425
  70   1 H      0.038  0.962  0.000  0.000     2.482     2.464
  71   1 H      0.033  0.967  0.000  0.000     2.538     2.491
  72   1 H      0.051  0.949  0.000  0.000     2.311     2.377
  73   7 N     -0.401  1.315  4.085  0.000    30.388     8.187
  74   6 C      0.027  1.057  2.916  0.000    20.133     6.391
  75   6 C      0.261  1.048  2.691  0.000    22.598     7.784
  76   8 O     -0.485  1.740  4.745  0.000    23.462     6.494
  77   6 C     -0.125  1.044  3.081  0.000    22.947     6.830
  78   1 H      0.172  0.828  0.000  0.000     1.259     1.757
  79   1 H      0.044  0.956  0.000  0.000     2.398     2.422
  80   1 H      0.054  0.946  0.000  0.000     2.273     2.358
  81   1 H      0.063  0.937  0.000  0.000     2.170     2.303
  82   1 H      0.055  0.945  0.000  0.000     2.257     2.349
  83   7 N     -0.171  1.244  3.927  0.000    24.693     7.380
  84   6 C      0.010  1.068  2.922  0.000    20.406     6.432
  85   6 C      0.283  1.040  2.677  0.000    22.209     7.717
  86   8 O     -0.468  1.734  4.734  0.000    23.093     6.443
  87   6 C     -0.022  1.064  2.958  0.000    20.937     6.508
  88   6 C     -0.118  1.038  3.080  0.000    22.810     6.810
  89   6 C     -0.126  1.041  3.085  0.000    22.966     6.833
  90   1 H      0.219  0.781  0.000  0.000     1.013     1.577
  91   1 H      0.082  0.918  0.000  0.000     1.956     2.187
  92   1 H      0.048  0.952  0.000  0.000     2.340     2.392
  93   1 H      0.054  0.946  0.000  0.000     2.269     2.356
  94   1 H      0.041  0.959  0.000  0.000     2.433     2.439
  95   1 H      0.054  0.946  0.000  0.000     2.275     2.359
  96   1 H      0.059  0.941  0.000  0.000     2.214     2.327
  97   1 H      0.056  0.944  0.000  0.000     2.249     2.345
  98   1 H      0.051  0.949  0.000  0.000     2.307     2.375
  99   7 N     -0.180  1.237  3.943  0.000    24.907     7.412
 100   6 C      0.006  1.068  2.926  0.000    20.488     6.446
 101   6 C      0.269  1.043  2.688  0.000    22.453     7.760
 102   8 O     -0.485  1.744  4.741  0.000    23.447     6.492
 103   6 C      0.113  1.048  2.839  0.000    18.824     6.195
 104   8 O     -0.465  1.729  4.737  0.000    22.160     6.355
 105   6 C     -0.129  1.040  3.088  0.000    23.026     6.842
 106   1 H      0.205  0.795  0.000  0.000     1.082     1.630
 107   1 H      0.086  0.914  0.000  0.000     1.920     2.167
 108   1 H      0.033  0.967  0.000  0.000     2.550     2.497
 109   1 H      0.340  0.660  0.000  0.000     0.613     1.230
 110   1 H      0.076  0.924  0.000  0.000     2.021     2.223
 111   1 H      0.050  0.950  0.000  0.000     2.324     2.384
 112   1 H      0.064  0.936  0.000  0.000     2.155     2.295
 113   7 N     -0.164  1.240  3.924  0.000    24.553     7.359
 114   6 C      0.021  1.066  2.913  0.000    20.216     6.400
 115   6 C      0.289  1.039  2.672  0.000    22.100     7.698
 116   8 O     -0.512  1.748  4.765  0.000    24.059     6.576
 117   6 C     -0.021  1.062  2.959  0.000    20.905     6.503
 118   6 C     -0.116  1.039  3.077  0.000    22.772     6.804
 119   6 C     -0.124  1.039  3.085  0.000    22.928     6.828
 120   1 H      0.214  0.786  0.000  0.000     1.040     1.597
 121   1 H      0.058  0.942  0.000  0.000     2.224     2.332
 122   1 H      0.054  0.946  0.000  0.000     2.272     2.357
 123   1 H      0.062  0.938  0.000  0.000     2.173     2.305
 124   1 H      0.035  0.965  0.000  0.000     2.511     2.478
 125   1 H      0.037  0.963  0.000  0.000     2.487     2.466
 126   1 H      0.066  0.934  0.000  0.000     2.135     2.285
 127   1 H      0.058  0.942  0.000  0.000     2.220     2.330
 128   1 H      0.047  0.953  0.000  0.000     2.356     2.400
 129   7 N     -0.198  1.251  3.948  0.000    25.305     7.471
 130   6 C      0.029  1.059  2.912  0.000    20.094     6.383
 131   6 C      0.273  1.042  2.685  0.000    22.385     7.748
 132   8 O     -0.499  1.743  4.755  0.000    23.754     6.535
 133   6 C     -0.082  1.055  3.027  0.000    22.059     6.686
 134   6 C      0.014  1.081  2.904  0.000    27.690     8.631
 135   6 C     -0.042  1.080  2.962  0.000    29.049     8.839
 136   6 C     -0.037  1.079  2.959  0.000    28.928     8.820
 137   6 C     -0.035  1.079  2.956  0.000    28.873     8.812
 138   6 C     -0.038  1.079  2.958  0.000    28.938     8.822
 139   6 C     -0.041  1.079  2.961  0.000    29.009     8.832
 140   1 H      0.248  0.752  0.000  0.000     0.891     1.479
 141   1 H      0.059  0.941  0.000  0.000     2.211     2.325
 142   1 H      0.082  0.918  0.000  0.000     1.962     2.191
 143   1 H      0.066  0.934  0.000  0.000     2.136     2.285
 144   1 H      0.039  0.961  0.000  0.000     2.459     2.452
 145   1 H      0.033  0.967  0.000  0.000     2.538     2.491
 146   1 H      0.039  0.961  0.000  0.000     2.458     2.452
 147   1 H      0.046  0.954  0.000  0.000     2.368     2.406
 148   1 H      0.046  0.954  0.000  0.000     2.376     2.411
 149   7 N     -0.180  1.248  3.932  0.000    24.899     7.411
 150   6 C      0.024  1.059  2.918  0.000    20.177     6.395
 151   6 C      0.275  1.043  2.682  0.000    22.358     7.744
 152   8 O     -0.507  1.739  4.768  0.000    23.948     6.561
 153   6 C     -0.075  1.059  3.015  0.000    21.916     6.663
 154   6 C     -0.019  1.057  2.962  0.000    20.881     6.500
 155   6 C     -0.113  1.041  3.072  0.000    22.710     6.795
 156   6 C     -0.125  1.042  3.082  0.000    22.948     6.830
 157   1 H      0.236  0.764  0.000  0.000     0.940     1.519
 158   1 H      0.084  0.916  0.000  0.000     1.943     2.180
 159   1 H      0.049  0.951  0.000  0.000     2.333     2.389
 160   1 H      0.057  0.943  0.000  0.000     2.230     2.335
 161   1 H      0.060  0.940  0.000  0.000     2.204     2.322
 162   1 H      0.045  0.955  0.000  0.000     2.388     2.416
 163   1 H      0.035  0.965  0.000  0.000     2.516     2.480
 164   1 H      0.042  0.958  0.000  0.000     2.420     2.433
 165   1 H      0.054  0.946  0.000  0.000     2.276     2.359
 166   1 H      0.047  0.953  0.000  0.000     2.361     2.403
 167   1 H      0.046  0.954  0.000  0.000     2.373     2.409
 168   7 N     -0.188  1.251  3.937  0.000    25.087     7.439
 169   6 C      0.034  1.057  2.909  0.000    19.998     6.367
 170   6 C      0.286  1.041  2.673  0.000    22.161     7.710
 171   8 O     -0.531  1.768  4.763  0.000    24.479     6.633
 172   6 C     -0.063  1.054  3.009  0.000    21.699     6.631
 173   6 C     -0.016  1.058  2.958  0.000    20.827     6.491
 174   6 C     -0.109  1.041  3.069  0.000    22.639     6.784
 175   6 C     -0.120  1.041  3.079  0.000    22.844     6.815
 176   1 H      0.240  0.760  0.000  0.000     0.923     1.505
 177   1 H      0.058  0.942  0.000  0.000     2.225     2.333
 178   1 H      0.045  0.955  0.000  0.000     2.382     2.413
 179   1 H      0.026  0.974  0.000  0.000     2.651     2.546
 180   1 H      0.062  0.938  0.000  0.000     2.176     2.307
 181   1 H      0.059  0.941  0.000  0.000     2.212     2.326
 182   1 H      0.032  0.968  0.000  0.000     2.563     2.503
 183   1 H      0.030  0.970  0.000  0.000     2.582     2.513
 184   1 H      0.063  0.937  0.000  0.000     2.162     2.300
 185   1 H      0.030  0.970  0.000  0.000     2.583     2.514
 186   1 H      0.038  0.962  0.000  0.000     2.478     2.462
 187   7 N     -0.201  1.256  3.945  0.000    25.356     7.479
 188   6 C      0.047  1.049  2.904  0.000    19.779     6.331
 189   6 C      0.273  1.047  2.680  0.000    22.389     7.749
 190   8 O     -0.538  1.755  4.783  0.000    24.642     6.656
 191   6 C     -0.068  1.057  3.010  0.000    21.787     6.644
 192   6 C     -0.012  1.056  2.956  0.000    20.749     6.479
 193   6 C     -0.117  1.043  3.075  0.000    22.801     6.808
 194   6 C     -0.106  1.036  3.069  0.000    22.575     6.775
 195   1 H      0.238  0.762  0.000  0.000     0.930     1.510
 196   1 H      0.037  0.963  0.000  0.000     2.496     2.471
 197   1 H      0.065  0.935  0.000  0.000     2.145     2.291
 198   1 H      0.039  0.961  0.000  0.000     2.468     2.457
 199   1 H      0.051  0.949  0.000  0.000     2.313     2.378
 200   1 H      0.057  0.943  0.000  0.000     2.237     2.339
 201   1 H      0.053  0.947  0.000  0.000     2.286     2.364
 202   1 H      0.040  0.960  0.000  0.000     2.445     2.445
 203   1 H      0.047  0.953  0.000  0.000     2.354     2.399
 204   1 H      0.024  0.976  0.000  0.000     2.679     2.559
 205   1 H      0.016  0.984  0.000  0.000     2.792     2.613
 206   7 N     -0.182  1.249  3.933  0.000    24.950     7.419
 207   6 C      0.020  1.063  2.917  0.000    20.234     6.404
 208   6 C      0.262  1.048  2.690  0.000    22.583     7.782
 209   8 O     -0.494  1.725  4.769  0.000    23.662     6.522
 210   6 C     -0.087  1.062  3.025  0.000    22.160     6.701
 211   6 C     -0.023  1.057  2.966  0.000    20.954     6.511
 212   6 C     -0.124  1.044  3.080  0.000    22.922     6.826
 213   6 C     -0.132  1.043  3.088  0.000    23.082     6.850
 214   1 H      0.231  0.769  0.000  0.000     0.959     1.534
 215   1 H      0.084  0.916  0.000  0.000     1.941     2.179
 216   1 H      0.060  0.940  0.000  0.000     2.199     2.319
 217   1 H      0.085  0.915  0.000  0.000     1.933     2.174
 218   1 H      0.045  0.955  0.000  0.000     2.377     2.411
 219   1 H      0.047  0.953  0.000  0.000     2.353     2.399
 220   1 H      0.037  0.963  0.000  0.000     2.487     2.466
 221   1 H      0.066  0.934  0.000  0.000     2.134     2.284
 222   1 H      0.054  0.946  0.000  0.000     2.267     2.355
 223   1 H      0.070  0.930  0.000  0.000     2.089     2.260
 224   1 H      0.026  0.974  0.000  0.000     2.640     2.541
 225   7 N     -0.185  1.251  3.934  0.000    25.005     7.427
 226   6 C      0.032  1.059  2.909  0.000    20.038     6.375
 227   6 C      0.286  1.046  2.668  0.000    22.156     7.708
 228   8 O     -0.485  1.747  4.738  0.000    23.460     6.494
 229   6 C     -0.121  1.039  3.082  0.000    22.876     6.819
 230   1 H      0.235  0.765  0.000  0.000     0.943     1.521
 231   1 H      0.083  0.917  0.000  0.000     1.952     2.185
 232   1 H      0.070  0.930  0.000  0.000     2.080     2.256
 233   1 H      0.084  0.916  0.000  0.000     1.943     2.180
 234   1 H      0.043  0.957  0.000  0.000     2.414     2.430
 235   7 N     -0.204  1.254  3.950  0.000    25.446     7.492
 236   6 C      0.054  1.046  2.900  0.000    19.682     6.318
 237   6 C      0.271  1.051  2.679  0.000    22.422     7.754
 238   8 O     -0.545  1.766  4.779  0.000    24.802     6.677
 239   6 C     -0.081  1.067  3.014  0.000    22.052     6.686
 240   6 C      0.379  1.021  2.600  0.000    20.586     7.425
 241   8 O     -0.620  1.767  4.853  0.000    26.626     6.918
 242   8 O     -0.644  1.764  4.879  0.000    27.215     6.994
 243   1 H      0.211  0.789  0.000  0.000     1.049     1.605
 244   1 H      0.055  0.945  0.000  0.000     2.263     2.353
 245   1 H      0.027  0.973  0.000  0.000     2.630     2.536
 246   1 H      0.000  1.000  0.000  0.000     3.054     2.733
 247   7 N     -0.191  1.248  3.943  0.000    25.138     7.446
 248   6 C      0.027  1.062  2.911  0.000    20.135     6.390
 249   6 C      0.270  1.050  2.680  0.000    22.439     7.757
 250   8 O     -0.508  1.744  4.763  0.000    23.952     6.562
 251   6 C     -0.079  1.056  3.023  0.000    22.005     6.679
 252   6 C     -0.096  1.054  3.043  0.000    22.334     6.728
 253   6 C     -0.097  1.054  3.043  0.000    22.360     6.732
 254   6 C     -0.062  1.064  2.998  0.000    21.785     6.662
 255   7 N     -0.142  1.227  3.915  0.000    24.070     7.287
 256   1 H      0.229  0.771  0.000  0.000     0.969     1.542
 257   1 H      0.051  0.949  0.000  0.000     2.309     2.376
 258   1 H      0.075  0.925  0.000  0.000     2.029     2.228
 259   1 H      0.059  0.941  0.000  0.000     2.213     2.326
 260   1 H      0.068  0.932  0.000  0.000     2.104     2.268
 261   1 H      0.058  0.942  0.000  0.000     2.219     2.330
 262   1 H      0.089  0.911  0.000  0.000     1.889     2.149
 263   1 H      0.090  0.910  0.000  0.000     1.883     2.146
 264   1 H      0.145  0.855  0.000  0.000     1.424     1.866
 265   1 H      0.124  0.876  0.000  0.000     1.579     1.965
 266   1 H      0.310  0.690  0.000  0.000     0.684     1.295
 267   1 H      0.269  0.731  0.000  0.000     0.815     1.414
 268   1 H      0.306  0.694  0.000  0.000     0.696     1.307
 269   7 N     -0.185  1.251  3.934  0.000    25.012     7.428
 270   6 C      0.011  1.067  2.921  0.000    20.391     6.430
 271   6 C      0.258  1.050  2.693  0.000    22.663     7.797
 272   8 O     -0.487  1.735  4.752  0.000    23.491     6.498
 273   6 C     -0.023  1.063  2.960  0.000    20.943     6.509
 274   6 C     -0.126  1.040  3.085  0.000    22.960     6.831
 275   6 C     -0.155  1.050  3.105  0.000    23.545     6.918
 276   1 H      0.233  0.767  0.000  0.000     0.954     1.530
 277   1 H      0.097  0.903  0.000  0.000     1.811     2.105
 278   1 H      0.035  0.965  0.000  0.000     2.517     2.481
 279   1 H      0.078  0.922  0.000  0.000     2.002     2.213
 280   1 H      0.026  0.974  0.000  0.000     2.649     2.545
 281   1 H      0.065  0.935  0.000  0.000     2.144     2.290
 282   1 H      0.084  0.916  0.000  0.000     1.937     2.177
 283   1 H      0.077  0.923  0.000  0.000     2.007     2.215
 284   1 H      0.074  0.926  0.000  0.000     2.046     2.237
 285   7 N     -0.099  1.238  3.861  0.000    23.172     7.149
 286   6 C      0.021  1.063  2.916  0.000    20.201     6.394
 287   6 C      0.277  1.041  2.682  0.000    22.318     7.737
 288   8 O     -0.475  1.734  4.740  0.000    23.231     6.462
 289   6 C     -0.073  1.055  3.018  0.000    21.881     6.657
 290   6 C     -0.060  1.047  3.013  0.000    21.643     6.621
 291   6 C      0.012  1.042  2.946  0.000    20.414     6.440
 292   1 H      0.100  0.900  0.000  0.000     1.788     2.091
 293   1 H      0.060  0.940  0.000  0.000     2.201     2.320
 294   1 H      0.088  0.912  0.000  0.000     1.897     2.154
 295   1 H      0.021  0.979  0.000  0.000     2.713     2.576
 296   1 H      0.070  0.930  0.000  0.000     2.083     2.257
 297   1 H      0.027  0.973  0.000  0.000     2.625     2.534
 298   1 H      0.059  0.941  0.000  0.000     2.209     2.325
 299   7 N     -0.170  1.240  3.930  0.000    24.677     7.378
 300   6 C      0.028  1.061  2.910  0.000    20.094     6.382
 301   6 C      0.281  1.040  2.680  0.000    22.249     7.724
 302   8 O     -0.478  1.743  4.735  0.000    23.300     6.472
 303   6 C     -0.049  1.047  3.001  0.000    21.440     6.592
 304   6 C     -0.087  1.065  3.023  0.000    22.170     6.704
 305   6 C      0.374  1.025  2.602  0.000    20.671     7.440
 306   8 O     -0.636  1.766  4.870  0.000    27.012     6.968
 307   8 O     -0.658  1.777  4.881  0.000    27.585     7.042
 308   1 H      0.192  0.808  0.000  0.000     1.146     1.677
 309   1 H      0.066  0.934  0.000  0.000     2.132     2.283
 310   1 H      0.047  0.953  0.000  0.000     2.356     2.400
 311   1 H      0.045  0.955  0.000  0.000     2.387     2.416
 312   1 H      0.018  0.982  0.000  0.000     2.757     2.597
 313   1 H      0.015  0.985  0.000  0.000     2.805     2.619
 314   7 N     -0.193  1.248  3.945  0.000    25.184     7.453
 315   6 C      0.010  1.070  2.920  0.000    20.408     6.432
 316   6 C      0.281  1.040  2.679  0.000    22.241     7.723
 317   8 O     -0.494  1.750  4.743  0.000    23.641     6.519
 318   6 C      0.113  1.046  2.841  0.000    18.833     6.196
 319   8 O     -0.450  1.698  4.753  0.000    21.851     6.310
 320   6 C     -0.133  1.043  3.090  0.000    23.116     6.856
 321   1 H      0.209  0.791  0.000  0.000     1.063     1.615
 322   1 H      0.069  0.931  0.000  0.000     2.092     2.262
 323   1 H      0.035  0.965  0.000  0.000     2.512     2.479
 324   1 H      0.316  0.684  0.000  0.000     0.675     1.290
 325   1 H      0.099  0.901  0.000  0.000     1.798     2.097
 326   1 H      0.050  0.950  0.000  0.000     2.320     2.382
 327   1 H      0.063  0.937  0.000  0.000     2.162     2.300
 328   7 N     -0.192  1.250  3.942  0.000    25.168     7.451
 329   6 C      0.010  1.066  2.924  0.000    20.412     6.433
 330   6 C      0.287  1.037  2.676  0.000    22.131     7.704
 331   8 O     -0.500  1.747  4.753  0.000    23.781     6.538
 332   6 C      0.069  1.040  2.890  0.000    19.630     6.347
 333   8 O     -0.486  1.717  4.770  0.000    22.602     6.418
 334   1 H      0.228  0.772  0.000  0.000     0.974     1.546
 335   1 H      0.078  0.922  0.000  0.000     1.998     2.211
 336   1 H      0.071  0.929  0.000  0.000     2.075     2.253
 337   1 H      0.058  0.942  0.000  0.000     2.223     2.332
 338   1 H      0.324  0.676  0.000  0.000     0.653     1.269
 339   7 N     -0.168  1.239  3.930  0.000    24.641     7.372
 340   6 C      0.034  1.058  2.909  0.000    20.016     6.371
 341   6 C      0.213  1.085  2.702  0.000    23.492     7.938
 342   8 O     -0.367  1.747  4.620  0.000    21.024     6.147
 343   6 C     -0.073  1.059  3.014  0.000    21.877     6.657
 344   6 C     -0.012  1.056  2.955  0.000    20.748     6.479
 345   6 C     -0.109  1.041  3.068  0.000    22.638     6.784
 346   6 C     -0.121  1.041  3.080  0.000    22.867     6.818
 347   1 H      0.215  0.785  0.000  0.000     1.034     1.593
 348   1 H      0.087  0.913  0.000  0.000     1.908     2.160
 349   1 H      0.059  0.941  0.000  0.000     2.205     2.322
 350   1 H      0.062  0.938  0.000  0.000     2.178     2.308
 351   1 H      0.039  0.961  0.000  0.000     2.459     2.452
 352   1 H      0.036  0.964  0.000  0.000     2.508     2.477
 353   1 H      0.023  0.977  0.000  0.000     2.695     2.567
 354   1 H      0.051  0.949  0.000  0.000     2.305     2.374
 355   1 H      0.047  0.953  0.000  0.000     2.354     2.399
 356   1 H      0.051  0.949  0.000  0.000     2.306     2.375
 357   1 H      0.045  0.955  0.000  0.000     2.377     2.411
 358   7 N     -0.392  1.315  4.077  0.000    30.156     8.156
 359   6 C      0.036  1.057  2.907  0.000    19.985     6.369
 360   6 C      0.202  1.089  2.708  0.000    23.694     7.972
 361   8 O     -0.364  1.754  4.610  0.000    20.972     6.140
 362   6 C     -0.076  1.063  3.014  0.000    21.951     6.670
 363   6 C     -0.014  1.057  2.957  0.000    20.792     6.486
 364   6 C     -0.110  1.038  3.072  0.000    22.660     6.787
 365   6 C     -0.120  1.044  3.075  0.000    22.844     6.814
 366   1 H      0.166  0.834  0.000  0.000     1.298     1.785
 367   1 H      0.061  0.939  0.000  0.000     2.189     2.314
 368   1 H      0.061  0.939  0.000  0.000     2.185     2.312
 369   1 H      0.042  0.958  0.000  0.000     2.423     2.434
 370   1 H      0.028  0.972  0.000  0.000     2.612     2.527
 371   1 H      0.033  0.967  0.000  0.000     2.545     2.495
 372   1 H      0.025  0.975  0.000  0.000     2.658     2.550
 373   1 H      0.050  0.950  0.000  0.000     2.319     2.381
 374   1 H      0.034  0.966  0.000  0.000     2.528     2.486
 375   1 H      0.049  0.951  0.000  0.000     2.334     2.389
 376   1 H      0.045  0.955  0.000  0.000     2.377     2.411
 377   7 N     -0.387  1.313  4.074  0.000    30.009     8.136
 378   6 C      0.039  1.058  2.903  0.000    19.943     6.361
 379   6 C      0.200  1.095  2.705  0.000    23.747     7.981
 380   8 O     -0.381  1.741  4.640  0.000    21.301     6.188
 381   6 C     -0.019  1.070  2.949  0.000    20.872     6.498
 382   6 C     -0.065  1.049  3.016  0.000    21.748     6.640
 383   6 C     -0.115  1.037  3.078  0.000    22.758     6.803
 384   6 C     -0.112  1.037  3.075  0.000    22.704     6.795
 385   1 H      0.159  0.841  0.000  0.000     1.340     1.814
 386   1 H      0.049  0.951  0.000  0.000     2.334     2.389
 387   1 H      0.043  0.957  0.000  0.000     2.415     2.430
 388   1 H      0.048  0.952  0.000  0.000     2.340     2.392
 389   1 H      0.022  0.978  0.000  0.000     2.701     2.570
 390   1 H      0.064  0.936  0.000  0.000     2.158     2.297
 391   1 H      0.043  0.957  0.000  0.000     2.411     2.428
 392   1 H      0.041  0.959  0.000  0.000     2.435     2.440
 393   1 H      0.035  0.965  0.000  0.000     2.522     2.484
 394   1 H      0.051  0.949  0.000  0.000     2.301     2.372
 395   1 H      0.046  0.954  0.000  0.000     2.364     2.404
 396   7 N     -0.413  1.322  4.091  0.000    30.739     8.234
 397   6 C      0.039  1.059  2.902  0.000    19.936     6.359
 398   6 C      0.199  1.095  2.706  0.000    23.755     7.982
 399   8 O     -0.368  1.737  4.631  0.000    21.043     6.150
 400   6 C     -0.023  1.065  2.958  0.000    20.952     6.510
 401   6 C     -0.117  1.040  3.077  0.000    22.792     6.807
 402   6 C     -0.116  1.041  3.075  0.000    22.766     6.803
 403   1 H      0.203  0.797  0.000  0.000     1.090     1.635
 404   1 H      0.043  0.957  0.000  0.000     2.409     2.427
 405   1 H      0.058  0.942  0.000  0.000     2.225     2.333
 406   1 H      0.042  0.958  0.000  0.000     2.417     2.431
 407   1 H      0.033  0.967  0.000  0.000     2.546     2.495
 408   1 H      0.043  0.957  0.000  0.000     2.413     2.429
 409   1 H      0.040  0.960  0.000  0.000     2.448     2.447
 410   1 H      0.051  0.949  0.000  0.000     2.309     2.376
 411   1 H      0.049  0.951  0.000  0.000     2.334     2.389
 412   7 N     -0.393  1.312  4.081  0.000    30.174     8.158
 413   6 C      0.028  1.058  2.914  0.000    20.124     6.389
 414   6 C      0.266  1.047  2.688  0.000    22.517     7.770
 415   8 O     -0.523  1.756  4.767  0.000    24.296     6.609
 416   6 C      0.083  1.038  2.879  0.000    19.408     6.312
 417   8 O     -0.484  1.724  4.760  0.000    22.549     6.410
 418   1 H      0.162  0.838  0.000  0.000     1.324     1.802
 419   1 H      0.053  0.947  0.000  0.000     2.283     2.363
 420   1 H      0.038  0.962  0.000  0.000     2.480     2.463
 421   1 H      0.023  0.977  0.000  0.000     2.692     2.566
 422   1 H      0.339  0.661  0.000  0.000     0.615     1.232
 423   7 N     -0.182  1.251  3.931  0.000    24.953     7.419
 424   6 C      0.023  1.063  2.914  0.000    20.195     6.399
 425   6 C      0.208  1.085  2.707  0.000    23.584     7.953
 426   8 O     -0.375  1.762  4.614  0.000    21.197     6.173
 427   6 C     -0.021  1.064  2.957  0.000    20.915     6.505
 428   6 C     -0.120  1.040  3.080  0.000    22.849     6.816
 429   6 C     -0.123  1.042  3.081  0.000    22.911     6.824
 430   1 H      0.254  0.746  0.000  0.000     0.868     1.460
 431   1 H      0.081  0.919  0.000  0.000     1.969     2.194
 432   1 H      0.063  0.937  0.000  0.000     2.169     2.303
 433   1 H      0.059  0.941  0.000  0.000     2.209     2.324
 434   1 H      0.034  0.966  0.000  0.000     2.531     2.488
 435   1 H      0.054  0.946  0.000  0.000     2.266     2.354
 436   1 H      0.055  0.945  0.000  0.000     2.260     2.351
 437   1 H      0.050  0.950  0.000  0.000     2.326     2.385
 438   1 H      0.060  0.940  0.000  0.000     2.199     2.319
 439   7 N     -0.388  1.307  4.081  0.000    30.030     8.139
 440   6 C      0.042  1.054  2.904  0.000    19.886     6.352
 441   6 C      0.195  1.098  2.707  0.000    23.838     7.996
 442   8 O     -0.370  1.741  4.628  0.000    21.086     6.157
 443   6 C     -0.072  1.059  3.014  0.000    21.872     6.657
 444   6 C     -0.008  1.055  2.953  0.000    20.683     6.469
 445   6 C     -0.115  1.041  3.074  0.000    22.754     6.801
 446   6 C     -0.121  1.038  3.083  0.000    22.881     6.820
 447   1 H      0.168  0.832  0.000  0.000     1.285     1.775
 448   1 H      0.053  0.947  0.000  0.000     2.283     2.363
 449   1 H      0.045  0.955  0.000  0.000     2.381     2.413
 450   1 H      0.049  0.951  0.000  0.000     2.328     2.386
 451   1 H      0.032  0.968  0.000  0.000     2.558     2.501
 452   1 H      0.044  0.956  0.000  0.000     2.390     2.418
 453   1 H      0.037  0.963  0.000  0.000     2.484     2.465
 454   1 H      0.040  0.960  0.000  0.000     2.448     2.447
 455   1 H      0.042  0.958  0.000  0.000     2.424     2.435
 456   1 H      0.052  0.948  0.000  0.000     2.301     2.372
 457   1 H      0.037  0.963  0.000  0.000     2.485     2.465
 458   7 N     -0.397  1.317  4.079  0.000    30.282     8.173
 459   6 C      0.039  1.053  2.908  0.000    19.936     6.360
 460   6 C      0.268  1.050  2.683  0.000    22.480     7.765
 461   8 O     -0.500  1.747  4.753  0.000    23.788     6.539
 462   6 C     -0.123  1.043  3.081  0.000    22.919     6.826
 463   1 H      0.162  0.838  0.000  0.000     1.320     1.800
 464   1 H      0.033  0.967  0.000  0.000     2.538     2.491
 465   1 H      0.047  0.953  0.000  0.000     2.360     2.402
 466   1 H      0.055  0.945  0.000  0.000     2.262     2.352
 467   1 H      0.062  0.938  0.000  0.000     2.172     2.305
 468   7 N     -0.170  1.246  3.924  0.000    24.676     7.378
 469   6 C      0.029  1.062  2.909  0.000    20.077     6.379
 470   6 C      0.210  1.085  2.704  0.000    23.541     7.946
 471   8 O     -0.370  1.742  4.628  0.000    21.085     6.156
 472   6 C     -0.017  1.062  2.956  0.000    20.845     6.494
 473   6 C     -0.121  1.040  3.080  0.000    22.859     6.816
 474   6 C     -0.133  1.043  3.090  0.000    23.097     6.852
 475   1 H      0.243  0.757  0.000  0.000     0.910     1.494
 476   1 H      0.071  0.929  0.000  0.000     2.074     2.252
 477   1 H      0.051  0.949  0.000  0.000     2.311     2.378
 478   1 H      0.057  0.943  0.000  0.000     2.236     2.339
 479   1 H      0.039  0.961  0.000  0.000     2.456     2.451
 480   1 H      0.048  0.952  0.000  0.000     2.342     2.393
 481   1 H      0.057  0.943  0.000  0.000     2.230     2.335
 482   1 H      0.059  0.941  0.000  0.000     2.216     2.328
 483   1 H      0.066  0.934  0.000  0.000     2.127     2.281
 484   7 N     -0.416  1.317  4.099  0.000    30.822     8.245
 485   6 C      0.039  1.056  2.906  0.000    19.941     6.360
 486   6 C      0.263  1.054  2.684  0.000    22.568     7.780
 487   8 O     -0.522  1.749  4.773  0.000    24.280     6.606
 488   6 C     -0.067  1.058  3.009  0.000    21.779     6.643
 489   6 C     -0.012  1.055  2.957  0.000    20.752     6.479
 490   6 C     -0.110  1.042  3.068  0.000    22.646     6.785
 491   6 C     -0.113  1.040  3.073  0.000    22.717     6.796
 492   1 H      0.188  0.812  0.000  0.000     1.171     1.695
 493   1 H      0.034  0.966  0.000  0.000     2.525     2.485
 494   1 H      0.038  0.962  0.000  0.000     2.482     2.464
 495   1 H      0.032  0.968  0.000  0.000     2.552     2.498
 496   1 H      0.048  0.952  0.000  0.000     2.351     2.398
 497   1 H      0.045  0.955  0.000  0.000     2.389     2.417
 498   1 H      0.027  0.973  0.000  0.000     2.629     2.536
 499   1 H      0.038  0.962  0.000  0.000     2.475     2.460
 500   1 H      0.043  0.957  0.000  0.000     2.405     2.425
 501   1 H      0.042  0.958  0.000  0.000     2.420     2.433
 502   1 H      0.029  0.971  0.000  0.000     2.607     2.525
 503   7 N     -0.176  1.248  3.927  0.000    24.801     7.396
 504   6 C      0.034  1.054  2.911  0.000    19.997     6.367
 505   6 C      0.202  1.086  2.712  0.000    23.708     7.974
 506   8 O     -0.376  1.760  4.616  0.000    21.201     6.173
 507   6 C     -0.071  1.059  3.012  0.000    21.847     6.654
 508   6 C     -0.015  1.058  2.957  0.000    20.811     6.489
 509   6 C     -0.117  1.042  3.075  0.000    22.786     6.806
 510   6 C     -0.112  1.037  3.074  0.000    22.688     6.791
 511   1 H      0.242  0.758  0.000  0.000     0.917     1.500
 512   1 H      0.077  0.923  0.000  0.000     2.015     2.220
 513   1 H      0.060  0.940  0.000  0.000     2.201     2.320
 514   1 H      0.050  0.950  0.000  0.000     2.315     2.379
 515   1 H      0.061  0.939  0.000  0.000     2.183     2.310
 516   1 H      0.051  0.949  0.000  0.000     2.309     2.376
 517   1 H      0.044  0.956  0.000  0.000     2.397     2.421
 518   1 H      0.036  0.964  0.000  0.000     2.501     2.473
 519   1 H      0.043  0.957  0.000  0.000     2.408     2.427
 520   1 H      0.034  0.966  0.000  0.000     2.532     2.488
 521   1 H      0.033  0.967  0.000  0.000     2.538     2.491
 522   7 N     -0.390  1.319  4.071  0.000    30.089     8.147
 523   6 C      0.037  1.056  2.907  0.000    19.971     6.366
 524   6 C      0.202  1.092  2.706  0.000    23.709     7.975
 525   8 O     -0.396  1.761  4.635  0.000    21.596     6.231
 526   6 C     -0.052  1.047  3.004  0.000    21.494     6.599
 527   6 C     -0.105  1.058  3.046  0.000    22.488     6.751
 528   6 C      0.291  1.038  2.671  0.000    22.071     7.692
 529   8 O     -0.506  1.761  4.745  0.000    23.915     6.557
 530   7 N     -0.286  1.262  4.024  0.000    27.376     7.771
 531   1 H      0.166  0.834  0.000  0.000     1.294     1.782
 532   1 H      0.072  0.928  0.000  0.000     2.060     2.244
 533   1 H      0.054  0.946  0.000  0.000     2.272     2.357
 534   1 H      0.032  0.968  0.000  0.000     2.560     2.502
 535   1 H      0.075  0.925  0.000  0.000     2.034     2.230
 536   1 H      0.097  0.903  0.000  0.000     1.812     2.105
 537   1 H      0.226  0.774  0.000  0.000     0.982     1.552
 538   1 H      0.203  0.797  0.000  0.000     1.092     1.637
 539   1 H      0.178  0.822  0.000  0.000     1.226     1.734
 540   1 H      0.081  0.919  0.000  0.000     1.970     2.195
 541   1 H      0.179  0.821  0.000  0.000     1.217     1.728
 542   1 H      0.086  0.914  0.000  0.000     1.915     2.164
 543   1 H      0.173  0.827  0.000  0.000     1.256     1.756
 544   1 H      0.071  0.929  0.000  0.000     2.077     2.253
 545   1 H      0.174  0.826  0.000  0.000     1.251     1.752
 546   1 H      0.064  0.936  0.000  0.000     2.151     2.293
 547   1 H      0.179  0.821  0.000  0.000     1.221     1.731
 548   1 H      0.065  0.935  0.000  0.000     2.145     2.290
 549   1 H      0.184  0.816  0.000  0.000     1.192     1.710
 550   1 H      0.063  0.937  0.000  0.000     2.159     2.297
 551   1 H      0.182  0.818  0.000  0.000     1.203     1.718
 552   1 H      0.073  0.927  0.000  0.000     2.048     2.238
 553   1 H      0.178  0.822  0.000  0.000     1.226     1.734
 554   1 H      0.071  0.929  0.000  0.000     2.075     2.253
 555   1 H      0.186  0.814  0.000  0.000     1.178     1.700
 556   1 H      0.072  0.928  0.000  0.000     2.060     2.244
 557   1 H      0.180  0.820  0.000  0.000     1.214     1.726
 558   1 H      0.076  0.924  0.000  0.000     2.024     2.224
 559   1 H      0.181  0.819  0.000  0.000     1.205     1.720
 560   1 H      0.067  0.933  0.000  0.000     2.114     2.273
 561   1 H      0.169  0.831  0.000  0.000     1.276     1.769
 562   1 H      0.075  0.925  0.000  0.000     2.036     2.231
 563   1 H      0.194  0.806  0.000  0.000     1.136     1.669
 564   1 H      0.072  0.928  0.000  0.000     2.058     2.243

 Mol. C6AA /au·bohr⁶  :    2705700.903316
 Mol. C8AA /au·bohr⁸  :   59156437.031777
 Mol. α(0) /au        :       2456.197235

 
molecular dipole:
                 x           y           z       tot (Debye)
 q only:      -68.811     -96.577    -121.505
   full:      -70.042     -98.683    -124.676     441.633
molecular quadrupole (traceless):
                xx          xy          yy          xz          yz          zz
 q only:     7336.842   -9875.377    -860.593  -13925.316  -17193.439   -6476.248
  q+dip:     7553.538  -10353.775    -911.364  -14544.205  -17860.870   -6642.174
   full:     7560.726  -10351.245    -911.770  -14545.576  -17863.675   -6648.956
speedup  1.00
cpu  time for grad   16.23 s
wall time for grad   16.24 s

SCC energy    :    -814.4818433
rep           :      10.3174498
ES            :       2.2538274
AES           :      -0.0603637
AXC           :       0.3107104
disp          :      -0.7035354
XB            :       0.0000000
fix           :       0.0000000
Gborn         :       0.0000000
Gsasa         :       0.0000000
Ghb           :       0.0000000
Gshift        :       0.0000000
Gsolv         :      -0.6121375     -384.12
Etot ala COSMO:    -814.4818433
grad norm     :       0.7964274
total E       :    -804.1040763
atomizationE  :     153.0553686    96043.69
(atE without considering molecular charge,
 total energy contains solvation terms)
H-L gap (eV)  :          1.4198

------------------------------------------------------------------------
 * finished run on 2019/03/14 at 15:08:37.959     
------------------------------------------------------------------------
 total:
 * wall-time:     0 d,  0 h,  0 min, 18.007 sec
 *  cpu-time:     0 d,  0 h,  0 min, 17.791 sec
 * ratio c/w:     0.988 speedup
 SCF:
 * wall-time:     0 d,  0 h,  0 min, 17.438 sec
 *  cpu-time:     0 d,  0 h,  0 min, 17.435 sec
 * ratio c/w:     1.000 speedup

