      -----------------------------------------------------------      
     |                   =====================                   |     
     |                           x T B                           |     
     |                   =====================                   |     
     |                         S. Grimme                         |     
     |          Mulliken Center for Theoretical Chemistry        |     
     |                    University of Bonn                     |     
     |                 Version 6.0.1 (SAW181210)                 |     
      -----------------------------------------------------------      

   This program is distributed in the hope that it will be useful,
   but WITHOUT ANY WARRANTY; without even the implied warranty of
   MERCHANTABILITY or FITNESS FOR A PARTICULAR PURPOSE.
   
   FOR NON-COMMERCIAL, ACADEMIA USE ONLY.
   
   Cite this work as:
   S. Grimme, C. Bannwarth, P. Shushkov, J. Comput. Theory Chem., 2017,
   13, 1989-2009.
   C. Bannwarth, S. Ehlert and S. Grimme., ChemRxiv, 2018, preprint.
   http://doi.org/10.26434/chemrxiv.7246238.v1
   
   for sTDA-xTB:
   S. Grimme and C. Bannwarth, J. Chem. Phys., 2016, 145, 054103.
   
   in the mass-spec context:
   V. Asgeirsson, C. Bauer and S. Grimme, Chem. Sci., 2017, 8, 4879.
   
   if GBSA is used:
   P. Shushkov, F. März and S. Grimme, unpublished.
   
   for ANC optimizer:
   S. Grimme, unpublished.
   Rational Function algorithm used in ANCopt:
   F. Eckert, P. Pulay, H.-J. Werner, J. Comput. Chem., 1997, 18, 1473.
   
   with help from (in alphabetical order)
   C. Bannwarth, F. Bohle, G. Brandenburg, E. Caldeweyher, M. Checinski,
   S. Dohm, S. Ehlert, S. Ehrlich, F. März, H. Neugebauer, J. Pisarek,
   P. Pracht, P. Shushkov, and S. Spicher.
   
 * started run on 2019/03/14 at 15:08:19.836     
========================================================================
 # omp threads = 1
========================================================================
number of atoms            : 412
number of electrons        : 1044
charge                     : 0
spin                       : .0
first test random number   : .3186
           ------------------------------------------------- 
          |                 G F N 2 - x T B                 |
          | Geometry, Frequencies, Noncovalent interactions |
          |            JCTC 2018 parametrisation            |
           ------------------------------------------------- 
 
      method parameters     
 k(s)        :  1.8500
 k(p)        :  2.2300
 k(d)        :  2.2300
 k(f)        :  2.0000
 kEN (H0ij)  : -2.0000
 D4 a1       :  0.5200
 D4 a2       :  5.0000
 D4 s6       :  1.0000
 D4 s8       :  2.7000
 D4 s9       :  5.0000
 alphaj      :  2.0000

 Solvent             : h2o
 Using internal parameter file: .param_gbsa2_h2o
 Gsolv ref. state (COSMO-RS): gsolv [1 M gas/solution]
 temperature (mdtemp)       :    298.150000000000     
 dielectric constant        :    80.2000000000000     
 rho                        :    1.00000000000000     
 mass                       :    18.0000000000000     
 surface tension            :    15.5689454083859     
 probe radius               :   0.975313790000000     
 vdW radii scaling          :    1.00000000000000     
 Gshift (Eh)                :   1.857443126794793E-003
 c1                         :    1.55243817000000     
 soset                      :   0.130326360000000     
 HB correction              :  T

            Z     q(EN)     CN     RAES       Cart. coordinates
     1  N   5.0   -0.22    3.27    1.97   119.20449   102.08510    75.10041
     2  C   4.0    0.02    4.41    4.40   120.63149   103.10616    73.00621
     3  C   4.0    0.14    3.47    3.10   120.45421   101.22540    70.81488
     4  O   6.0   -0.33    1.35    1.80   119.66618   101.90641    68.73659
     5  C   4.0   -0.03    4.32    4.24   123.35442   103.69197    73.83145
     6  C   4.0   -0.05    4.21    4.01   123.27762   105.72316    75.89904
     7  C   4.0   -0.08    4.13    3.85   124.89232   104.57606    71.56262
     8  C   4.0   -0.08    4.00    3.63   125.76927   106.08252    77.29602
     9  H   1.0    0.07    1.03    1.43   120.19779   101.23265    76.49100
    10  H   1.0    0.04    1.05    1.44   119.69480   104.84103    72.35486
    11  H   1.0    0.03    1.05    1.44   124.16344   101.94762    74.59702
    12  H   1.0    0.04    1.03    1.43   122.69699   107.50454    75.03850
    13  H   1.0    0.04    1.04    1.43   121.85641   105.18371    77.28748
    14  H   1.0    0.03    1.00    1.43   126.82930   104.98126    72.09941
    15  H   1.0    0.04    1.00    1.43   124.90949   103.15211    70.08277
    16  H   1.0    0.04    1.00    1.43   124.06211   106.29187    70.79816
    17  H   1.0    0.04    1.00    1.43   125.51062   107.46135    78.79693
    18  H   1.0    0.04    1.00    1.43   126.35676   104.30442    78.14005
    19  H   1.0    0.04    1.00    1.43   127.25849   106.75761    76.05634
    20  N   5.0   -0.15    3.49    2.07   121.03103    98.82348    71.29544
    21  C   4.0    0.03    4.51    4.55   120.82187    96.92021    69.33265
    22  C   4.0    0.15    3.59    3.16   118.28948    97.01607    67.92938
    23  O   6.0   -0.32    1.33    1.80   118.31894    96.94106    65.60592
    24  C   4.0   -0.03    4.33    4.25   121.39172    94.27163    70.38970
    25  C   4.0   -0.05    4.20    4.00   124.13400    94.15403    71.32355
    26  C   4.0   -0.08    4.15    3.89   120.95718    92.27989    68.35293
    27  C   4.0   -0.08    4.01    3.65   124.67359    91.81100    72.90685
    28  H   1.0    0.07    1.06    1.44   121.56317    98.24291    73.04399
    29  H   1.0    0.05    1.06    1.44   122.21926    97.32446    67.84358
    30  H   1.0    0.04    1.05    1.44   120.10106    93.94197    71.97444
    31  H   1.0    0.03    1.03    1.43   125.39354    94.18025    69.69179
    32  H   1.0    0.03    1.03    1.43   124.53914    95.80863    72.47959
    33  H   1.0    0.03    1.00    1.43   121.39882    90.40884    69.06553
    34  H   1.0    0.04    1.01    1.43   119.00943    92.29576    67.71174
    35  H   1.0    0.04    1.00    1.43   122.16183    92.64390    66.72795
    36  H   1.0    0.04    1.00    1.43   126.57637    91.92249    73.67080
    37  H   1.0    0.04    1.00    1.43   123.33728    91.70453    74.46489
    38  H   1.0    0.04    1.00    1.43   124.52527    90.09073    71.79806
    39  N   5.0   -0.10    3.66    2.22   116.08652    97.02889    69.19274
    40  C   4.0    0.03    4.62    4.68   113.75252    97.08116    67.74023
    41  C   4.0    0.16    3.53    3.13   113.72849    99.41220    66.09085
    42  O   6.0   -0.33    1.43    1.80   113.06335    99.26777    63.89203
    43  C   4.0   -0.05    4.30    4.19   111.55832    97.13108    69.62349
    44  C   4.0   -0.05    4.22    4.05   112.76264    97.85289    72.15161
    45  C   4.0   -0.01    4.37    4.33   115.63494    97.81323    71.77359
    46  H   1.0    0.05    1.05    1.44   113.61612    95.46921    66.45074
    47  H   1.0    0.04    1.03    1.43   110.14811    98.50519    69.01523
    48  H   1.0    0.04    1.02    1.43   110.62764    95.29921    69.72150
    49  H   1.0    0.04    1.02    1.43   112.17274    99.74223    72.71535
    50  H   1.0    0.04    1.02    1.43   112.26692    96.50880    73.62226
    51  H   1.0    0.05    1.04    1.44   116.39647    99.69869    72.08465
    52  H   1.0    0.04    1.02    1.43   116.55180    96.54055    73.10183
    53  N   5.0   -0.14    3.53    2.10   114.38353   101.61388    67.14730
    54  C   4.0    0.04    4.51    4.55   114.28187   103.88194    65.63746
    55  C   4.0    0.16    3.44    3.09   116.16873   103.87181    63.43880
    56  O   6.0   -0.33    1.35    1.80   115.65639   105.08779    61.52344
    57  C   4.0   -0.04    4.11    3.83   114.75695   106.26934    67.17275
    58  S   6.0   -0.07    2.28    3.10   112.32589   106.81736    69.56086
    59  H   1.0    0.08    1.07    1.44   115.01537   101.72257    68.93861
    60  H   1.0    0.05    1.06    1.44   112.39157   103.99543    64.77458
    61  H   1.0    0.05    1.06    1.44   116.58524   106.20868    68.10987
    62  H   1.0    0.05    1.07    1.44   114.69531   107.88033    65.88995
    63  H   1.0    0.04    0.98    1.43   113.35183   105.37534    71.34743
    64  N   5.0   -0.14    3.53    2.10   118.30816   102.60800    63.74982
    65  C   4.0    0.03    4.51    4.55   120.27705   102.49872    61.82994
    66  C   4.0    0.15    3.49    3.11   119.38759   100.76058    59.70299
    67  O   6.0   -0.33    1.29    1.80   119.57439   101.35989    57.46772
    68  C   4.0   -0.02    4.31    4.22   122.79333   101.61722    63.00971
    69  C   4.0   -0.05    4.18    3.95   124.32085   103.84676    64.08069
    70  C   4.0   -0.08    4.14    3.88   124.43029   100.19325    61.09786
    71  C   4.0   -0.07    4.04    3.69   122.75189   105.90454    65.34350
    72  H   1.0    0.12    1.12    1.45   118.73253   101.89525    65.48470
    73  H   1.0    0.05    1.06    1.44   120.52018   104.36850    60.96769
    74  H   1.0    0.05    1.06    1.44   122.30809   100.32492    64.55068
    75  H   1.0    0.03    1.03    1.43   125.65850   103.09508    65.46030
    76  H   1.0    0.04    1.03    1.43   125.41710   104.69401    62.55271
    77  H   1.0    0.03    1.00    1.43   126.23356    99.68136    61.93938
    78  H   1.0    0.04    1.00    1.43   123.50619    98.47728    60.44964
    79  H   1.0    0.04    1.00    1.43   124.80854   101.38024    59.46287
    80  H   1.0    0.04    1.00    1.43   124.00771   107.28299    66.20072
    81  H   1.0    0.04    1.00    1.43   121.56776   106.89049    63.98563
    82  H   1.0    0.06    1.01    1.43   121.55207   105.10257    66.79876
    83  N   5.0   -0.14    3.54    2.10   118.36186    98.59883    60.46947
    84  C   4.0    0.03    4.44    4.44   117.32932    96.81176    58.69109
    85  C   4.0    0.15    3.46    3.10   114.83901    97.74921    57.58465
    86  O   6.0   -0.34    1.37    1.80   114.25022    97.17710    55.42202
    87  C   4.0   -0.05    4.37    4.33   116.91082    94.22564    59.89290
    88  C   4.0   -0.02    4.19    3.98   119.30184    93.02307    60.99320
    89  C   4.0   -0.08    4.12    3.84   118.52214    90.63985    62.41306
    90  C   4.0   -0.08    4.10    3.80   121.23911    92.40976    58.95352
    91  H   1.0    0.11    1.11    1.45   118.25715    98.20754    62.34480
    92  H   1.0    0.05    1.06    1.44   118.60376    96.65118    57.05957
    93  H   1.0    0.05    1.03    1.43   115.53159    94.44822    61.40818
    94  H   1.0    0.04    1.03    1.43   116.11729    92.98287    58.44851
    95  H   1.0    0.05    1.06    1.44   120.14273    94.34537    62.33671
    96  H   1.0    0.03    1.00    1.43   120.16004    89.57506    63.04249
    97  H   1.0    0.04    1.00    1.43   117.37640    91.13908    64.03963
    98  H   1.0    0.04    1.00    1.43   117.40280    89.43741    61.18965
    99  H   1.0    0.03    1.00    1.43   122.82653    91.39887    59.77520
   100  H   1.0    0.04    1.00    1.43   120.39511    91.23176    57.49623
   101  H   1.0    0.04    1.00    1.43   121.96296    94.12283    58.07959
   102  N   5.0   -0.14    3.57    2.13   113.39636    99.20653    59.03379
   103  C   4.0    0.03    4.53    4.58   111.09043   100.34649    58.09650
   104  C   4.0    0.15    3.54    3.13   111.84907   102.46054    56.30957
   105  O   6.0   -0.33    1.36    1.80   110.67323   102.85532    54.34999
   106  C   4.0   -0.02    4.33    4.25   109.30648   101.20520    60.22413
   107  C   4.0   -0.04    4.20    4.00   108.05887    98.86962    61.39941
   108  C   4.0   -0.08    4.15    3.90   107.35477   103.03740    59.15870
   109  C   4.0   -0.08    4.01    3.64   106.72301    99.40886    63.88737
   110  H   1.0    0.12    1.17    1.46   113.70888    99.37186    60.91437
   111  H   1.0    0.05    1.07    1.44   110.08111    98.97078    56.92924
   112  H   1.0    0.06    1.06    1.44   110.42496   102.18150    61.65709
   113  H   1.0    0.03    1.03    1.43   106.65524    98.14297    60.08154
   114  H   1.0    0.05    1.03    1.43   109.50594    97.42984    61.66639
   115  H   1.0    0.03    1.00    1.43   105.96630   103.55075    60.57885
   116  H   1.0    0.05    1.01    1.43   108.27796   104.74567    58.49142
   117  H   1.0    0.04    1.00    1.43   106.38052   102.17541    57.57032
   118  H   1.0    0.04    1.00    1.43   106.02598    97.66267    64.71593
   119  H   1.0    0.04    1.00    1.43   107.96951   100.32262    65.24040
   120  H   1.0    0.03    1.01    1.43   105.11610   100.62932    63.54828
   121  N   5.0   -0.13    3.55    2.11   113.94524   103.72631    56.89863
   122  C   4.0    0.04    4.41    4.39   115.06120   105.33891    55.01445
   123  C   4.0    0.16    3.51    3.12   115.88542   103.72298    52.77300
   124  O   6.0   -0.34    1.43    1.80   115.66188   104.60962    50.64343
   125  C   4.0    0.04    4.14    3.88   117.25256   106.94566    56.03448
   126  O   6.0   -0.26    2.04    1.83   116.48057   108.72595    57.82777
   127  H   1.0    0.12    1.12    1.45   114.76551   103.63722    58.62704
   128  H   1.0    0.06    1.06    1.44   113.59812   106.62718    54.28539
   129  H   1.0    0.06    1.01    1.43   118.70749   105.67881    56.78948
   130  H   1.0    0.04    1.02    1.43   118.03892   108.02262    54.45684
   131  H   1.0    0.15    1.06    1.44   115.99882   107.82987    59.35520
   132  N   5.0   -0.13    3.49    2.07   116.68452   101.35161    53.12114
   133  C   4.0    0.04    4.54    4.59   117.13351    99.87720    50.84384
   134  C   4.0    0.16    3.56    3.14   114.64029    99.31395    49.51739
   135  O   6.0   -0.34    1.39    1.80   114.59621    99.05411    47.21441
   136  C   4.0   -0.02    4.31    4.21   118.60776    97.36290    51.10440
   137  C   4.0   -0.05    4.20    4.01   120.51914    97.26069    48.91704
   138  C   4.0   -0.07    4.20    3.99   116.92443    95.01376    51.03370
   139  C   4.0   -0.08    4.03    3.68   121.75059    94.68265    48.55221
   140  H   1.0    0.11    1.10    1.44   117.47099   100.83043    54.79510
   141  H   1.0    0.05    1.08    1.44   118.21500   101.08246    49.54171
   142  H   1.0    0.04    1.05    1.44   119.61526    97.40277    52.90900
   143  H   1.0    0.04    1.03    1.43   119.52078    97.74295    47.17796
   144  H   1.0    0.04    1.02    1.43   121.96592    98.69524    49.24066
   145  H   1.0    0.03    1.00    1.43   118.03773    93.36766    51.53714
   146  H   1.0    0.06    1.03    1.43   115.38712    95.17615    52.36873
   147  H   1.0    0.05    1.00    1.43   116.14226    94.74093    49.15112
   148  H   1.0    0.04    1.00    1.43   123.27848    94.82798    47.18904
   149  H   1.0    0.04    1.00    1.43   122.51198    93.97201    50.32117
   150  H   1.0    0.04    1.00    1.43   120.38009    93.34113    47.81868
   151  N   5.0   -0.13    3.55    2.12   112.58572    99.00604    50.92957
   152  C   4.0    0.04    4.45    4.46   110.20238    98.33442    49.77822
   153  C   4.0    0.16    3.46    3.10   109.14602   100.57098    48.30025
   154  O   6.0   -0.33    1.33    1.80   108.00719   100.22538    46.31598
   155  C   4.0   -0.05    4.37    4.32   108.14818    97.57219    51.66365
   156  C   4.0   -0.02    4.20    3.99   108.93778    95.54727    53.56841
   157  C   4.0   -0.08    4.11    3.82   106.88285    95.23711    55.56753
   158  C   4.0   -0.08    4.11    3.82   109.50323    93.02166    52.31648
   159  H   1.0    0.11    1.11    1.45   112.74181    99.07563    52.83100
   160  H   1.0    0.05    1.06    1.44   110.51937    96.81349    48.40381
   161  H   1.0    0.05    1.03    1.43   107.57404    99.27881    52.67298
   162  H   1.0    0.04    1.03    1.43   106.54185    96.89496    50.55775
   163  H   1.0    0.06    1.09    1.44   110.66934    96.17104    54.48436
   164  H   1.0    0.04    1.00    1.43   107.61221    94.24958    57.21370
   165  H   1.0    0.03    1.00    1.43   106.18569    97.07685    56.16296
   166  H   1.0    0.04    1.00    1.43   105.31761    94.15477    54.79762
   167  H   1.0    0.04    1.00    1.43   110.16437    91.69642    53.73810
   168  H   1.0    0.04    1.00    1.43   107.82229    92.24523    51.42750
   169  H   1.0    0.04    1.00    1.43   110.96569    93.24639    50.89522
   170  N   5.0   -0.14    3.53    2.10   109.45410   102.81842    49.38460
   171  C   4.0    0.03    4.32    4.24   108.61037   105.17041    48.27124
   172  C   4.0    0.15    3.46    3.10   110.49661   105.93235    46.20075
   173  O   6.0   -0.31    1.42    1.80   109.74709   106.30405    44.04629
   174  C   4.0   -0.07    4.09    3.79   108.19109   107.15472    50.31001
   175  H   1.0    0.12    1.14    1.45   110.20667   102.92126    51.14667
   176  H   1.0    0.05    1.06    1.44   106.82670   104.83610    47.26244
   177  H   1.0    0.04    1.02    1.43   107.43455   108.85690    49.45783
   178  H   1.0    0.05    1.00    1.43   106.83610   106.46517    51.69090
   179  H   1.0    0.05    1.00    1.43   109.94190   107.60368    51.27943
   180  N   5.0   -0.14    3.50    2.08   112.92678   106.05538    46.84024
   181  C   4.0    0.04    4.50    4.53   114.83784   106.52710    44.91828
   182  C   4.0    0.16    3.57    3.15   114.48428   104.59606    42.82154
   183  O   6.0   -0.30    1.28    1.80   114.36607   105.35383    40.63157
   184  C   4.0   -0.02    4.28    4.17   117.57065   106.69405    45.94058
   185  C   4.0   -0.05    4.16    3.92   119.12495   109.01943    45.06976
   186  C   4.0   -0.07    4.18    3.95   119.11997   104.34840    45.29485
   187  C   4.0   -0.08    4.02    3.66   117.68136   111.22840    43.93409
   188  H   1.0    0.12    1.15    1.45   113.53756   105.68108    48.61534
   189  H   1.0    0.05    1.09    1.44   114.34116   108.30917    44.00219
   190  H   1.0    0.06    1.09    1.44   117.42920   106.77708    47.99007
   191  H   1.0    0.04    1.03    1.43   120.17365   109.71435    46.70463
   192  H   1.0    0.04    1.04    1.43   120.51434   108.40226    43.67332
   193  H   1.0    0.04    1.00    1.43   120.99882   104.53552    46.10127
   194  H   1.0    0.05    1.00    1.43   118.24648   102.66067    46.06381
   195  H   1.0    0.04    1.00    1.43   119.30629   104.15874    43.25377
   196  H   1.0    0.04    1.00    1.43   118.99871   112.74455    43.49921
   197  H   1.0    0.05    1.00    1.43   116.77201   110.67242    42.17511
   198  H   1.0    0.04    1.00    1.43   116.28852   111.97639    45.24310
   199  N   5.0   -0.14    3.52    2.09   114.18660   102.16091    43.38813
   200  C   4.0    0.04    4.45    4.46   113.67355   100.45402    41.32033
   201  C   4.0    0.16    3.49    3.11   111.04081   101.02011    40.26559
   202  O   6.0   -0.29    1.29    1.80   110.71937   100.81251    37.97053
   203  C   4.0   -0.04    4.29    4.18   114.03701    97.63948    41.86581
   204  C   4.0   -0.02    4.15    3.91   116.78127    96.67118    42.22321
   205  C   4.0   -0.07    4.11    3.83   117.27431    94.34833    40.58241
   206  C   4.0   -0.08    4.13    3.85   118.87877    98.57463    41.70823
   207  H   1.0    0.12    1.14    1.45   114.49856   101.36122    45.10899
   208  H   1.0    0.06    1.07    1.44   114.96386   100.90867    39.75475
   209  H   1.0    0.06    1.03    1.43   112.96139    97.15212    43.54456
   210  H   1.0    0.05    1.04    1.43   113.21621    96.67379    40.23593
   211  H   1.0    0.05    1.06    1.44   116.97206    96.10990    44.20077
   212  H   1.0    0.05    1.00    1.43   119.26992    93.87315    40.67494
   213  H   1.0    0.05    1.00    1.43   116.20564    92.73746    41.24525
   214  H   1.0    0.05    1.00    1.43   116.76868    94.71048    38.62006
   215  H   1.0    0.04    1.00    1.43   120.67814    97.70558    42.19362
   216  H   1.0    0.04    1.00    1.43   118.94220    99.11062    39.72594
   217  H   1.0    0.04    1.01    1.43   118.65137   100.25127    42.85041
   218  N   5.0   -0.13    3.54    2.11   109.12715   101.83580    41.67649
   219  C   4.0    0.05    4.52    4.56   106.73935   102.44126    40.42904
   220  C   4.0    0.16    3.48    3.11   106.98960   104.72291    38.68730
   221  O   6.0   -0.30    1.24    1.80   105.41742   105.10747    37.01011
   222  C   4.0   -0.01    4.27    4.15   104.62759   102.85219    42.40590
   223  C   4.0   -0.07    4.15    3.90   102.73940   104.93812    41.78333
   224  C   4.0   -0.07    4.12    3.85   103.20579   100.38880    42.82468
   225  H   1.0    0.12    1.13    1.45   109.04566   101.59232    43.57591
   226  H   1.0    0.06    1.06    1.44   106.23449   100.83063    39.21066
   227  H   1.0    0.06    1.07    1.44   105.57493   103.41101    44.14252
   228  H   1.0    0.03    1.00    1.43   101.39424   105.03873    43.33231
   229  H   1.0    0.05    1.02    1.43   103.69366   106.74047    41.62792
   230  H   1.0    0.05    1.00    1.43   101.73434   104.55103    40.04004
   231  H   1.0    0.04    1.00    1.43   101.90674   100.60593    44.39572
   232  H   1.0    0.04    1.00    1.43   102.13962    99.92092    41.13472
   233  H   1.0    0.05    1.00    1.43   104.51279    98.87045    43.25424
   234  N   5.0   -0.12    3.55    2.12   108.97271   106.20656    39.05837
   235  C   4.0    0.05    4.33    4.26   109.51621   108.37114    37.51294
   236  C   4.0    0.10    3.20    3.04   111.64564   107.89009    35.57919
   237  O   6.0   -0.28    1.12    1.80   111.97256   109.35389    33.81747
   238  C   4.0   -0.03    4.33    4.25   110.30562   110.64507    39.13545
   239  C   4.0   -0.00    3.58    3.16   108.83723   110.91290    41.55686
   240  C   4.0   -0.03    3.53    3.13   110.14403   111.41115    43.77682
   241  C   4.0   -0.03    3.49    3.11   106.24609   110.56069    41.71772
   242  C   4.0   -0.04    3.38    3.07   108.90713   111.90395    46.02388
   243  C   4.0   -0.04    3.39    3.08   105.01816   110.82654    44.02027
   244  C   4.0   -0.04    3.39    3.08   106.30707   111.68332    46.12530
   245  H   1.0    0.13    1.14    1.45   109.99857   106.01778    40.67049
   246  H   1.0    0.07    1.06    1.44   107.80883   108.81376    36.42512
   247  H   1.0    0.05    1.04    1.43   112.30585   110.44769    39.61072
   248  H   1.0    0.05    1.03    1.43   110.10444   112.31645    37.93704
   249  H   1.0    0.05    1.03    1.43   112.18018   111.39439    43.73037
   250  H   1.0    0.05    1.03    1.43   105.18757   110.07627    40.04094
   251  H   1.0    0.05    1.03    1.43   109.98255   112.37895    47.69373
   252  H   1.0    0.05    1.03    1.43   103.05003   110.33188    44.20266
   253  H   1.0    0.05    1.03    1.43   105.29658   112.15233    47.83359
   254  N   5.0   -0.21    3.22    1.96    95.24179    93.72998    44.88196
   255  C   4.0    0.02    4.24    4.07    97.15444    94.62032    46.62687
   256  C   4.0    0.14    3.47    3.10    95.99301    96.61885    48.35810
   257  O   6.0   -0.33    1.40    1.80    96.12561    96.38942    50.66737
   258  C   4.0   -0.08    4.11    3.83    99.42278    95.70469    45.23999
   259  H   1.0    0.08    1.02    1.43    95.50795    93.94421    42.99884
   260  H   1.0    0.04    1.05    1.44    97.71138    93.05553    47.87435
   261  H   1.0    0.04    1.00    1.43   100.80510    96.36145    46.60910
   262  H   1.0    0.04    1.00    1.43   100.30115    94.28078    44.05249
   263  H   1.0    0.04    1.01    1.43    98.80218    97.28324    44.08942
   264  N   5.0   -0.15    3.48    2.06    94.90755    98.61170    47.29032
   265  C   4.0    0.03    4.37    4.32    93.73229   100.51515    48.86502
   266  C   4.0    0.10    3.30    3.05    92.20651    99.27166    50.97367
   267  O   6.0   -0.32    1.21    1.80    92.40049   100.01034    53.17105
   268  C   4.0   -0.05    4.36    4.31    92.05838   102.24584    47.27384
   269  C   4.0   -0.03    4.20    4.01    93.50241   103.60642    45.16146
   270  C   4.0   -0.08    4.12    3.85    91.71210   105.41677    43.81846
   271  C   4.0   -0.08    4.14    3.88    95.67250   105.14047    46.25368
   272  H   1.0    0.07    1.06    1.44    94.67698    98.73626    45.39481
   273  H   1.0    0.05    1.06    1.44    95.20150   101.60890    49.84204
   274  H   1.0    0.04    1.03    1.43    90.54888   101.10111    46.46526
   275  H   1.0    0.04    1.03    1.43    91.22450   103.66233    48.51932
   276  H   1.0    0.04    1.05    1.44    94.23651   102.22230    43.81896
   277  H   1.0    0.04    1.00    1.43    92.72733   106.48818    42.38955
   278  H   1.0    0.04    1.00    1.43    90.15020   104.43752    42.92512
   279  H   1.0    0.04    1.01    1.43    90.96064   106.70873    45.22800
   280  H   1.0    0.04    1.00    1.43    96.56698   106.26983    44.79162
   281  H   1.0    0.04    1.01    1.43    94.89077   106.41469    47.65621
   282  H   1.0    0.04    1.00    1.43    97.08123   103.93749    47.13844
   283  N   5.0   -0.19    3.23    1.96    92.37055    93.55808    53.40887
   284  C   4.0    0.03    4.25    4.10    93.99256    92.21514    55.17041
   285  C   4.0    0.16    3.46    3.10    95.35353    94.08898    56.90689
   286  O   6.0   -0.32    1.37    1.80    95.09231    94.03658    59.20534
   287  C   4.0   -0.08    4.13    3.86    95.87271    90.62619    53.69049
   288  H   1.0    0.09    1.03    1.43    92.69906    93.27396    51.53667
   289  H   1.0    0.04    1.05    1.44    92.83728    91.00250    56.39585
   290  H   1.0    0.04    1.00    1.43    97.18103    89.69409    54.97061
   291  H   1.0    0.04    1.00    1.43    94.84978    89.21015    52.60958
   292  H   1.0    0.05    1.00    1.43    96.93124    91.82295    52.40043
   293  N   5.0   -0.15    3.56    2.12    96.85613    95.69897    55.69661
   294  C   4.0    0.03    4.50    4.54    98.29416    97.63884    56.97397
   295  C   4.0    0.16    3.52    3.12    96.65111    98.80356    59.04253
   296  O   6.0   -0.32    1.27    1.80    97.44199    99.11562    61.19049
   297  C   4.0   -0.02    4.26    4.13    99.25295    99.63727    55.08675
   298  C   4.0   -0.08    4.12    3.85   100.59307   101.76744    56.49605
   299  C   4.0   -0.07    4.12    3.84   101.03875    98.42459    53.17190
   300  H   1.0    0.12    1.15    1.45    96.68805    95.81156    53.79571
   301  H   1.0    0.05    1.05    1.44    99.92152    96.77059    57.93535
   302  H   1.0    0.06    1.05    1.44    97.61666   100.40229    54.08208
   303  H   1.0    0.04    1.00    1.43   101.45378   103.07621    55.16641
   304  H   1.0    0.05    1.00    1.43    99.27513   102.80322    57.68018
   305  H   1.0    0.04    1.00    1.43   102.06627   100.99515    57.70085
   306  H   1.0    0.04    1.00    1.43   101.80529    99.84288    51.89684
   307  H   1.0    0.03    1.00    1.43   102.59286    97.50556    54.13717
   308  H   1.0    0.06    1.01    1.43   100.05148    97.02182    52.05291
   309  N   5.0   -0.14    3.50    2.07    94.34168    99.49882    58.27660
   310  C   4.0    0.04    4.36    4.32    92.52396   100.65773    59.95316
   311  C   4.0    0.08    3.25    3.04    91.67899    98.84249    62.03107
   312  O   6.0   -0.29    1.13    1.80    91.82465    99.51991    64.25190
   313  C   4.0    0.05    4.22    4.04    90.24088   101.70553    58.45157
   314  O   6.0   -0.25    2.13    1.84    91.02569   103.55704    56.71071
   315  C   4.0   -0.06    4.10    3.80    88.34982   102.95789    60.22650
   316  H   1.0    0.11    1.10    1.44    93.78129    99.23425    56.46455
   317  H   1.0    0.06    1.06    1.44    93.47248   102.22624    60.93852
   318  H   1.0    0.05    1.03    1.43    89.34517   100.10977    57.46598
   319  H   1.0    0.15    1.06    1.44    91.69390   102.72815    55.21617
   320  H   1.0    0.05    1.00    1.43    86.85974   103.84866    59.12932
   321  H   1.0    0.05    1.00    1.43    87.51652   101.59677    61.51261
   322  H   1.0    0.05    1.00    1.43    89.32471   104.41046    61.29824
   323  N   5.0   -0.18    3.31    1.99    94.47710    94.60286    64.42123
   324  C   4.0    0.03    4.33    4.25    96.71383    94.18319    65.94690
   325  C   4.0    0.15    3.44    3.09    96.96248    96.40917    67.77366
   326  O   6.0   -0.28    1.24    1.80    97.08250    96.11593    70.07045
   327  C   4.0   -0.03    4.31    4.23    99.07373    93.91463    64.28720
   328  C   4.0   -0.01    3.53    3.13    99.14750    91.63766    62.55999
   329  C   4.0   -0.04    3.47    3.10   101.42448    90.98038    61.41357
   330  C   4.0   -0.02    3.53    3.13    97.01296    90.25072    61.92642
   331  C   4.0   -0.04    3.37    3.07   101.55493    89.01443    59.69367
   332  C   4.0   -0.04    3.38    3.07    97.10749    88.39783    60.08433
   333  C   4.0   -0.05    3.37    3.07    99.38664    87.73209    58.99402
   334  H   1.0    0.12    1.08    1.44    94.73921    94.60161    62.51997
   335  H   1.0    0.05    1.05    1.44    96.44871    92.47754    67.10323
   336  H   1.0    0.06    1.04    1.43    99.23124    95.60600    63.10436
   337  H   1.0    0.04    1.03    1.43   100.72386    93.87996    65.52614
   338  H   1.0    0.04    1.03    1.43   103.13183    91.98617    61.90147
   339  H   1.0    0.05    1.05    1.44    95.24352    90.60470    62.86128
   340  H   1.0    0.04    1.03    1.43   103.35125    88.51538    58.86658
   341  H   1.0    0.05    1.03    1.43    95.38151    87.50484    59.46641
   342  H   1.0    0.04    1.03    1.43    99.46122    86.19736    57.65352
   343  N   5.0   -0.14    3.48    2.07    97.05101    98.67336    66.67482
   344  C   4.0    0.04    4.36    4.31    97.33260   100.92484    68.19562
   345  C   4.0    0.10    3.26    3.04    95.23960   101.15253    70.16443
   346  O   6.0   -0.28    1.12    1.80    95.73473   101.87673    72.31633
   347  C   4.0   -0.04    4.36    4.31    97.33918   103.31816    66.58088
   348  C   4.0   -0.02    4.18    3.97    99.62321   103.48525    64.80509
   349  C   4.0   -0.08    4.10    3.80    99.43787   105.88155    63.20903
   350  C   4.0   -0.08    4.12    3.84   102.07388   103.43262    66.32547
   351  H   1.0    0.11    1.09    1.44    96.89431    98.85272    64.77121
   352  H   1.0    0.06    1.06    1.44    99.10157   100.78448    69.27038
   353  H   1.0    0.05    1.03    1.43    95.58325   103.37123    65.50275
   354  H   1.0    0.05    1.03    1.43    97.35203   104.93774    67.86225
   355  H   1.0    0.06    1.07    1.44    99.58758   101.86510    63.52777
   356  H   1.0    0.04    1.00    1.43   100.94135   105.93749    61.80920
   357  H   1.0    0.04    1.00    1.43    97.63551   105.95003    62.22666
   358  H   1.0    0.04    1.00    1.43    99.58642   107.55450    64.39045
   359  H   1.0    0.04    1.00    1.43   103.62950   104.18816    65.22087
   360  H   1.0    0.04    1.00    1.43   101.88707   104.56763    68.02523
   361  H   1.0    0.04    1.00    1.43   102.53290   101.50985    66.87215
   362  N   5.0   -0.21    3.21    1.96   103.18240   116.52961    58.83347
   363  C   4.0    0.04    4.22    4.03   103.35161   114.33062    57.22885
   364  C   4.0    0.07    3.20    3.04   100.69671   113.66148    56.29858
   365  O   6.0   -0.29    1.12    1.80   100.39992   112.91145    54.12561
   366  C   4.0    0.03    4.13    3.87   104.65543   112.11878    58.53537
   367  O   6.0   -0.26    2.06    1.83   107.26732   112.38570    58.12340
   368  H   1.0    0.08    1.02    1.43   103.69435   116.38037    60.67371
   369  H   1.0    0.06    1.06    1.44   104.46233   114.77458    55.52960
   370  H   1.0    0.04    1.01    1.43   104.20830   112.17809    60.55689
   371  H   1.0    0.04    1.01    1.43   103.95964   110.34732    57.70027
   372  H   1.0    0.12    1.02    1.43   108.16609   111.06863    59.00348
   373  N   5.0   -0.21    3.19    1.95   116.77445   122.20128    52.18909
   374  C   4.0    0.03    4.28    4.16   117.24714   120.22003    54.04291
   375  C   4.0    0.08    3.24    3.04   119.86869   120.63748    55.15290
   376  O   6.0   -0.30    1.11    1.80   120.33555   120.53964    57.42611
   377  C   4.0   -0.03    4.28    4.17   116.85885   117.53027    52.95698
   378  C   4.0   -0.05    4.16    3.93   115.75369   115.71984    54.95302
   379  C   4.0   -0.08    4.11    3.83   119.24169   116.40574    51.76787
   380  C   4.0   -0.06    4.03    3.67   117.19998   115.62976    57.43944
   381  H   1.0    0.08    1.02    1.43   116.52993   121.67370    50.36218
   382  H   1.0    0.05    1.06    1.44   115.88828   120.49493    55.57181
   383  H   1.0    0.04    1.06    1.44   115.44405   117.72949    51.46001
   384  H   1.0    0.04    1.03    1.43   113.80159   116.25489    55.34967
   385  H   1.0    0.04    1.03    1.43   115.74254   113.81665    54.15742
   386  H   1.0    0.04    1.00    1.43   118.79143   114.62982    50.83458
   387  H   1.0    0.04    1.00    1.43   120.02699   117.69581    50.38122
   388  H   1.0    0.04    1.00    1.43   120.69260   116.02667    53.17293
   389  H   1.0    0.05    1.00    1.43   116.50148   114.08854    58.60203
   390  H   1.0    0.05    1.00    1.43   119.20177   115.31729    57.11033
   391  H   1.0    0.06    1.00    1.43   117.00363   117.38248    58.48892
   392  N   5.0   -0.21    3.10    1.94   117.72738    84.17910    47.34583
   393  C   4.0    0.00    4.04    3.70   117.75436    86.60584    46.08592
   394  C   4.0    0.08    3.10    3.02   119.39318    86.63339    43.69524
   395  O   6.0   -0.30    1.11    1.80   118.74237    87.80655    41.80187
   396  H   1.0    0.08    1.02    1.43   118.38996    84.07985    49.14301
   397  H   1.0    0.05    1.02    1.43   115.83651    87.14870    45.52535
   398  H   1.0    0.03    1.03    1.43   118.50320    88.00854    47.39607
   399  H   1.0    0.09    1.07    1.44   118.33636   103.33540    75.85913
   400  H   1.0    0.08    1.04    1.43   112.76458   106.37832    35.76245
   401  H   1.0    0.09    1.07    1.44    95.02390    92.05544    45.08445
   402  H   1.0    0.05    1.05    1.44    91.03555    97.84268    50.57625
   403  H   1.0    0.09    1.07    1.44    90.75260    93.10082    53.66524
   404  H   1.0    0.06    1.04    1.43    91.01866    97.13053    61.57914
   405  H   1.0    0.09    1.07    1.44    93.33587    93.38259    64.73915
   406  H   1.0    0.07    1.04    1.44    93.45978   100.71243    69.70659
   407  H   1.0    0.10    1.07    1.44   104.17730   117.76219    58.21421
   408  H   1.0    0.05    1.04    1.43    99.21643   113.83673    57.46009
   409  H   1.0    0.09    1.07    1.44   115.35443   123.04016    52.60426
   410  H   1.0    0.05    1.05    1.44   121.32800   121.01563    54.01339
   411  H   1.0    0.09    1.07    1.44   116.12916    83.60476    47.43751
   412  H   1.0    0.05    1.04    1.44   121.02654    85.68373    43.65836

  Z AO/shell   Hii/eV     exponent
  1     Wed Apr 25 08:07:45 CEST 2018   EN: 2.200 GM2: 0.406  GM3: 0.0800  RAES: 1.40
     1s    -10.707211    1.230000
  6     Wed Apr 25 08:07:45 CEST 2018   EN: 2.550 GM2: 0.538  GM3: 0.1500  RAES: 3.00
     2s    -13.970922    2.096432
     2p    -10.063292    1.800000
  7     Wed Apr 25 08:07:45 CEST 2018   EN: 3.040 GM2: 0.461  GM3:-0.0640  RAES: 1.90
     2s    -16.686243    2.339881
     2p    -12.523956    2.014332
  8     Wed Apr 25 08:07:45 CEST 2018   EN: 3.440 GM2: 0.452  GM3:-0.0517  RAES: 1.80
     2s    -20.229985    2.439742
     2p    -15.503117    2.137023
 16     Tue Apr 24 11:44:34 CEST 2018   EN: 2.580 GM2: 0.340  GM3:-0.0502  RAES: 3.10
     3s    -20.029654    1.981333
     3p    -11.377694    2.025643
     3d     -0.420282    1.702555
 no old-style atom pair restraining (fixing) potential

molecular fragmentation (1/2 indicates fragments):
111111111111111111111111111111111111111111111111111111111111111111111111
111111111111111111111111111111111111111111111111111111111111111111111111
111111111111111111111111111111111111111111111111111111111111111111111111
111111111111111111111111111111111111122222222222222222222222222222222222
222222222222222222222222222222222222222222222222222222222222222222222222
2222222222222222222222222222222222222211222222222222
# atoms in fragment 1/2:   255   157
 fragment masses (1/2) :     1625.17      985.27
CMA distance (Bohr)    :  14.141
constraining FC (au)   :  0.0500
           ------------------------------------------------- 
          |        Self-Consistent Charge Iterations        |
           ------------------------------------------------- 

 Ncao       : 967
 Nao        : 966
 Nshell     : 596
 Nel        : 1044
 T(el)      :   500.0
 intcut     :    35.0
 scfconv/Eh :  0.100E-06
   qconv/e  :  0.100E-04
 intneglect :  0.100E-08
 broydamp   :      0.400
 iter      E             dE          RMSdq      gap      omega  full diag
   1   -589.6207625 -0.589621E+03  0.421E+00    3.14       0.0  T
   2   -590.8181870 -0.119742E+01  0.199E+00    1.89       1.0  T
   3   -590.8866506 -0.684636E-01  0.114E+00    1.86       1.0  T
   4   -590.9743096 -0.876591E-01  0.209E-01    1.25       1.0  T
   5   -590.9784870 -0.417738E-02  0.959E-02    1.45       1.0  T
   6   -590.9791091 -0.622060E-03  0.369E-02    1.43       1.0  T
   7   -590.9792439 -0.134810E-03  0.161E-02    1.42       1.0  T
   8   -590.9792583 -0.144084E-04  0.705E-03    1.41       1.0  T
   9   -590.9792635 -0.521096E-05  0.327E-03    1.41       1.5  T
  10   -590.9792645 -0.948853E-06  0.146E-03    1.41       3.4  T
  11   -590.9792646 -0.172828E-06  0.675E-04    1.41       7.3  T
  12   -590.9792647 -0.310908E-07  0.292E-04    1.41      16.9  T
  13   -590.9792647 -0.113289E-07  0.158E-04    1.41      31.1  T
  14   -590.9792647 -0.223110E-08  0.839E-05    1.41      58.7  T
  15   -590.9792647 -0.801379E-09  0.331E-05    1.41     148.7  T
speedup  1.00
cpu  time for SCC    5.87 s
wall time for SCC    5.87 s

   *** convergence criteria satisfied after 15 iterations ***

          eigenvalues
 #    :         510        511        512        513        514        515        516        517
 occ. :        2.000      2.000      2.000      2.000      2.000      2.000      2.000      2.000
 eps  :       -10.564    -10.554    -10.551    -10.514    -10.476    -10.379    -10.294    -10.207
 #    :         518        519        520        521        522        523        524        525
 occ. :        2.000      2.000      2.000      2.000      2.000      0.000      0.000      0.000
 eps  :       -10.080     -9.999     -9.991     -9.983     -9.475     -8.064     -7.753     -7.689
 #    :         526        527        528        529        530        531        532        533
 occ. :        0.000      0.000      0.000      0.000      0.000      0.000      0.000      0.000
 eps  :        -7.676     -7.661     -7.576     -7.492     -7.026     -6.866     -6.774     -6.712


   #   Z            q   n(s)   n(p)   n(d)      C6AA      α(0)
   1   7 N     -0.391  1.312  4.079  0.000    30.130     8.152
   2   6 C      0.025  1.064  2.912  0.000    20.172     6.396
   3   6 C      0.267  1.051  2.681  0.000    22.490     7.766
   4   8 O     -0.500  1.736  4.764  0.000    23.790     6.539
   5   6 C     -0.027  1.069  2.958  0.000    21.013     6.520
   6   6 C     -0.061  1.050  3.011  0.000    21.663     6.626
   7   6 C     -0.114  1.038  3.076  0.000    22.739     6.799
   8   6 C     -0.110  1.036  3.073  0.000    22.658     6.788
   9   1 H      0.166  0.834  0.000  0.000     1.295     1.782
  10   1 H      0.047  0.953  0.000  0.000     2.361     2.403
  11   1 H      0.038  0.962  0.000  0.000     2.480     2.463
  12   1 H      0.037  0.963  0.000  0.000     2.493     2.469
  13   1 H      0.039  0.961  0.000  0.000     2.456     2.451
  14   1 H      0.048  0.952  0.000  0.000     2.339     2.392
  15   1 H      0.035  0.965  0.000  0.000     2.518     2.482
  16   1 H      0.044  0.956  0.000  0.000     2.400     2.423
  17   1 H      0.038  0.962  0.000  0.000     2.477     2.461
  18   1 H      0.039  0.961  0.000  0.000     2.458     2.452
  19   1 H      0.038  0.962  0.000  0.000     2.472     2.459
  20   7 N     -0.166  1.244  3.922  0.000    24.595     7.366
  21   6 C      0.019  1.066  2.914  0.000    20.249     6.407
  22   6 C      0.265  1.048  2.687  0.000    22.531     7.773
  23   8 O     -0.495  1.739  4.756  0.000    23.670     6.523
  24   6 C     -0.027  1.068  2.959  0.000    21.010     6.519
  25   6 C     -0.067  1.052  3.015  0.000    21.774     6.643
  26   6 C     -0.115  1.037  3.078  0.000    22.757     6.801
  27   6 C     -0.114  1.037  3.076  0.000    22.736     6.800
  28   1 H      0.216  0.784  0.000  0.000     1.028     1.589
  29   1 H      0.072  0.928  0.000  0.000     2.066     2.248
  30   1 H      0.053  0.947  0.000  0.000     2.287     2.365
  31   1 H      0.048  0.952  0.000  0.000     2.343     2.393
  32   1 H      0.041  0.959  0.000  0.000     2.433     2.439
  33   1 H      0.059  0.941  0.000  0.000     2.208     2.324
  34   1 H      0.041  0.959  0.000  0.000     2.440     2.443
  35   1 H      0.049  0.951  0.000  0.000     2.333     2.388
  36   1 H      0.043  0.957  0.000  0.000     2.404     2.425
  37   1 H      0.044  0.956  0.000  0.000     2.400     2.423
  38   1 H      0.043  0.957  0.000  0.000     2.404     2.425
  39   7 N     -0.094  1.241  3.853  0.000    23.070     7.134
  40   6 C      0.021  1.063  2.917  0.000    20.200     6.394
  41   6 C      0.277  1.041  2.682  0.000    22.315     7.736
  42   8 O     -0.468  1.728  4.740  0.000    23.094     6.443
  43   6 C     -0.075  1.054  3.021  0.000    21.913     6.663
  44   6 C     -0.081  1.054  3.027  0.000    22.024     6.679
  45   6 C     -0.016  1.052  2.964  0.000    20.906     6.518
  46   1 H      0.081  0.919  0.000  0.000     1.973     2.197
  47   1 H      0.065  0.935  0.000  0.000     2.145     2.290
  48   1 H      0.077  0.923  0.000  0.000     2.012     2.218
  49   1 H      0.070  0.930  0.000  0.000     2.090     2.261
  50   1 H      0.081  0.919  0.000  0.000     1.972     2.196
  51   1 H      0.061  0.939  0.000  0.000     2.188     2.313
  52   1 H      0.083  0.917  0.000  0.000     1.950     2.184
  53   7 N     -0.170  1.233  3.937  0.000    24.677     7.378
  54   6 C      0.027  1.058  2.915  0.000    20.094     6.378
  55   6 C      0.267  1.043  2.690  0.000    22.495     7.767
  56   8 O     -0.507  1.737  4.770  0.000    23.932     6.559
  57   6 C     -0.018  1.064  2.953  0.000    20.891     6.507
  58  16 S     -0.276  1.945  4.291  0.040   152.968    20.817
  59   1 H      0.212  0.788  0.000  0.000     1.047     1.603
  60   1 H      0.084  0.916  0.000  0.000     1.943     2.180
  61   1 H      0.075  0.925  0.000  0.000     2.027     2.226
  62   1 H      0.075  0.925  0.000  0.000     2.033     2.230
  63   1 H      0.189  0.811  0.000  0.000     1.156     1.681
  64   7 N     -0.179  1.256  3.923  0.000    24.874     7.407
  65   6 C      0.020  1.066  2.915  0.000    20.248     6.407
  66   6 C      0.273  1.041  2.686  0.000    22.394     7.749
  67   8 O     -0.500  1.745  4.754  0.000    23.779     6.538
  68   6 C     -0.023  1.068  2.955  0.000    20.948     6.510
  69   6 C     -0.065  1.053  3.013  0.000    21.748     6.639
  70   6 C     -0.118  1.040  3.078  0.000    22.806     6.809
  71   6 C     -0.117  1.037  3.080  0.000    22.796     6.809
  72   1 H      0.245  0.755  0.000  0.000     0.903     1.489
  73   1 H      0.073  0.927  0.000  0.000     2.048     2.238
  74   1 H      0.053  0.947  0.000  0.000     2.282     2.362
  75   1 H      0.048  0.952  0.000  0.000     2.345     2.395
  76   1 H      0.043  0.957  0.000  0.000     2.405     2.425
  77   1 H      0.062  0.938  0.000  0.000     2.180     2.309
  78   1 H      0.040  0.960  0.000  0.000     2.450     2.448
  79   1 H      0.043  0.957  0.000  0.000     2.405     2.425
  80   1 H      0.046  0.954  0.000  0.000     2.376     2.411
  81   1 H      0.028  0.972  0.000  0.000     2.621     2.531
  82   1 H      0.055  0.945  0.000  0.000     2.256     2.349
  83   7 N     -0.183  1.249  3.934  0.000    24.976     7.422
  84   6 C      0.024  1.057  2.919  0.000    20.171     6.395
  85   6 C      0.265  1.045  2.691  0.000    22.533     7.774
  86   8 O     -0.488  1.738  4.750  0.000    23.511     6.501
  87   6 C     -0.073  1.058  3.015  0.000    21.879     6.658
  88   6 C     -0.015  1.056  2.959  0.000    20.801     6.487
  89   6 C     -0.117  1.042  3.075  0.000    22.794     6.806
  90   6 C     -0.116  1.040  3.077  0.000    22.782     6.806
  91   1 H      0.238  0.762  0.000  0.000     0.930     1.510
  92   1 H      0.073  0.927  0.000  0.000     2.056     2.243
  93   1 H      0.053  0.947  0.000  0.000     2.278     2.360
  94   1 H      0.062  0.938  0.000  0.000     2.179     2.308
  95   1 H      0.050  0.950  0.000  0.000     2.322     2.383
  96   1 H      0.050  0.950  0.000  0.000     2.320     2.382
  97   1 H      0.039  0.961  0.000  0.000     2.458     2.452
  98   1 H      0.043  0.957  0.000  0.000     2.410     2.428
  99   1 H      0.048  0.952  0.000  0.000     2.340     2.392
 100   1 H      0.043  0.957  0.000  0.000     2.407     2.426
 101   1 H      0.029  0.971  0.000  0.000     2.605     2.524
 102   7 N     -0.207  1.258  3.949  0.000    25.505     7.501
 103   6 C      0.013  1.064  2.923  0.000    20.349     6.422
 104   6 C      0.273  1.044  2.683  0.000    22.392     7.750
 105   8 O     -0.489  1.733  4.756  0.000    23.548     6.506
 106   6 C     -0.021  1.065  2.956  0.000    20.913     6.504
 107   6 C     -0.066  1.051  3.016  0.000    21.770     6.642
 108   6 C     -0.116  1.038  3.078  0.000    22.772     6.804
 109   6 C     -0.111  1.036  3.075  0.000    22.692     6.793
 110   1 H      0.245  0.755  0.000  0.000     0.902     1.487
 111   1 H      0.085  0.915  0.000  0.000     1.933     2.174
 112   1 H      0.049  0.951  0.000  0.000     2.337     2.391
 113   1 H      0.044  0.956  0.000  0.000     2.396     2.421
 114   1 H      0.049  0.951  0.000  0.000     2.339     2.392
 115   1 H      0.061  0.939  0.000  0.000     2.191     2.315
 116   1 H      0.035  0.965  0.000  0.000     2.521     2.483
 117   1 H      0.048  0.952  0.000  0.000     2.350     2.397
 118   1 H      0.038  0.962  0.000  0.000     2.470     2.458
 119   1 H      0.034  0.966  0.000  0.000     2.536     2.490
 120   1 H      0.054  0.946  0.000  0.000     2.274     2.358
 121   7 N     -0.191  1.247  3.944  0.000    25.148     7.448
 122   6 C      0.018  1.062  2.920  0.000    20.270     6.410
 123   6 C      0.266  1.048  2.686  0.000    22.511     7.771
 124   8 O     -0.490  1.734  4.756  0.000    23.568     6.509
 125   6 C      0.075  1.034  2.891  0.000    19.540     6.333
 126   8 O     -0.462  1.712  4.750  0.000    22.100     6.346
 127   1 H      0.224  0.776  0.000  0.000     0.991     1.560
 128   1 H      0.079  0.921  0.000  0.000     1.991     2.207
 129   1 H      0.042  0.958  0.000  0.000     2.419     2.432
 130   1 H      0.059  0.941  0.000  0.000     2.215     2.327
 131   1 H      0.339  0.661  0.000  0.000     0.616     1.233
 132   7 N     -0.192  1.263  3.929  0.000    25.167     7.451
 133   6 C      0.024  1.064  2.912  0.000    20.157     6.391
 134   6 C      0.282  1.041  2.677  0.000    22.231     7.722
 135   8 O     -0.499  1.739  4.760  0.000    23.756     6.535
 136   6 C     -0.015  1.067  2.948  0.000    20.804     6.487
 137   6 C     -0.064  1.053  3.010  0.000    21.715     6.634
 138   6 C     -0.126  1.038  3.088  0.000    22.983     6.836
 139   6 C     -0.111  1.037  3.074  0.000    22.690     6.793
 140   1 H      0.226  0.774  0.000  0.000     0.981     1.552
 141   1 H      0.068  0.932  0.000  0.000     2.111     2.272
 142   1 H      0.043  0.957  0.000  0.000     2.404     2.425
 143   1 H      0.041  0.959  0.000  0.000     2.437     2.441
 144   1 H      0.034  0.966  0.000  0.000     2.528     2.486
 145   1 H      0.056  0.944  0.000  0.000     2.243     2.342
 146   1 H      0.073  0.927  0.000  0.000     2.048     2.238
 147   1 H      0.030  0.970  0.000  0.000     2.582     2.513
 148   1 H      0.043  0.957  0.000  0.000     2.413     2.429
 149   1 H      0.048  0.952  0.000  0.000     2.349     2.397
 150   1 H      0.042  0.958  0.000  0.000     2.421     2.433
 151   7 N     -0.180  1.246  3.934  0.000    24.891     7.410
 152   6 C      0.029  1.057  2.914  0.000    20.087     6.381
 153   6 C      0.270  1.042  2.688  0.000    22.432     7.756
 154   8 O     -0.492  1.741  4.751  0.000    23.617     6.516
 155   6 C     -0.076  1.059  3.017  0.000    21.938     6.666
 156   6 C     -0.024  1.056  2.967  0.000    20.963     6.512
 157   6 C     -0.116  1.043  3.073  0.000    22.766     6.803
 158   6 C     -0.118  1.040  3.078  0.000    22.805     6.809
 159   1 H      0.227  0.773  0.000  0.000     0.977     1.549
 160   1 H      0.066  0.934  0.000  0.000     2.132     2.284
 161   1 H      0.053  0.947  0.000  0.000     2.286     2.364
 162   1 H      0.060  0.940  0.000  0.000     2.203     2.321
 163   1 H      0.058  0.942  0.000  0.000     2.220     2.330
 164   1 H      0.047  0.953  0.000  0.000     2.358     2.401
 165   1 H      0.037  0.963  0.000  0.000     2.485     2.465
 166   1 H      0.047  0.953  0.000  0.000     2.361     2.403
 167   1 H      0.049  0.951  0.000  0.000     2.335     2.390
 168   1 H      0.042  0.958  0.000  0.000     2.424     2.435
 169   1 H      0.034  0.966  0.000  0.000     2.525     2.485
 170   7 N     -0.199  1.255  3.944  0.000    25.326     7.474
 171   6 C      0.025  1.061  2.914  0.000    20.165     6.395
 172   6 C      0.268  1.042  2.689  0.000    22.468     7.762
 173   8 O     -0.492  1.746  4.746  0.000    23.601     6.513
 174   6 C     -0.135  1.041  3.094  0.000    23.144     6.860
 175   1 H      0.242  0.758  0.000  0.000     0.913     1.497
 176   1 H      0.069  0.931  0.000  0.000     2.096     2.264
 177   1 H      0.076  0.924  0.000  0.000     2.020     2.222
 178   1 H      0.077  0.923  0.000  0.000     2.005     2.215
 179   1 H      0.057  0.943  0.000  0.000     2.240     2.340
 180   7 N     -0.205  1.260  3.944  0.000    25.450     7.492
 181   6 C      0.020  1.064  2.916  0.000    20.239     6.406
 182   6 C      0.288  1.040  2.672  0.000    22.113     7.702
 183   8 O     -0.529  1.754  4.775  0.000    24.435     6.628
 184   6 C     -0.034  1.067  2.967  0.000    21.145     6.541
 185   6 C     -0.069  1.056  3.013  0.000    21.811     6.649
 186   6 C     -0.111  1.043  3.068  0.000    22.682     6.790
 187   6 C     -0.108  1.036  3.072  0.000    22.625     6.784
 188   1 H      0.239  0.761  0.000  0.000     0.928     1.509
 189   1 H      0.078  0.922  0.000  0.000     2.002     2.213
 190   1 H      0.075  0.925  0.000  0.000     2.027     2.227
 191   1 H      0.049  0.951  0.000  0.000     2.333     2.389
 192   1 H      0.044  0.956  0.000  0.000     2.396     2.421
 193   1 H      0.055  0.945  0.000  0.000     2.257     2.349
 194   1 H      0.039  0.961  0.000  0.000     2.458     2.452
 195   1 H      0.031  0.969  0.000  0.000     2.569     2.506
 196   1 H      0.052  0.948  0.000  0.000     2.289     2.366
 197   1 H      0.028  0.972  0.000  0.000     2.618     2.530
 198   1 H      0.042  0.958  0.000  0.000     2.425     2.435
 199   7 N     -0.208  1.261  3.947  0.000    25.526     7.504
 200   6 C      0.040  1.056  2.904  0.000    19.897     6.350
 201   6 C      0.277  1.047  2.676  0.000    22.313     7.736
 202   8 O     -0.541  1.756  4.785  0.000    24.708     6.665
 203   6 C     -0.070  1.057  3.014  0.000    21.847     6.655
 204   6 C     -0.007  1.058  2.949  0.000    20.679     6.468
 205   6 C     -0.115  1.044  3.071  0.000    22.745     6.799
 206   6 C     -0.114  1.038  3.076  0.000    22.735     6.798
 207   1 H      0.232  0.768  0.000  0.000     0.958     1.533
 208   1 H      0.061  0.939  0.000  0.000     2.183     2.311
 209   1 H      0.052  0.948  0.000  0.000     2.296     2.370
 210   1 H      0.044  0.956  0.000  0.000     2.393     2.419
 211   1 H      0.043  0.957  0.000  0.000     2.412     2.429
 212   1 H      0.049  0.951  0.000  0.000     2.338     2.391
 213   1 H      0.042  0.958  0.000  0.000     2.422     2.434
 214   1 H      0.032  0.968  0.000  0.000     2.553     2.499
 215   1 H      0.047  0.953  0.000  0.000     2.354     2.399
 216   1 H      0.028  0.972  0.000  0.000     2.613     2.528
 217   1 H      0.039  0.961  0.000  0.000     2.464     2.455
 218   7 N     -0.199  1.266  3.933  0.000    25.323     7.474
 219   6 C      0.034  1.065  2.901  0.000    20.006     6.368
 220   6 C      0.287  1.041  2.672  0.000    22.135     7.704
 221   8 O     -0.524  1.747  4.777  0.000    24.334     6.614
 222   6 C     -0.015  1.060  2.954  0.000    20.800     6.487
 223   6 C     -0.118  1.039  3.079  0.000    22.820     6.811
 224   6 C     -0.121  1.044  3.077  0.000    22.864     6.817
 225   1 H      0.225  0.775  0.000  0.000     0.986     1.556
 226   1 H      0.056  0.944  0.000  0.000     2.251     2.346
 227   1 H      0.052  0.948  0.000  0.000     2.297     2.370
 228   1 H      0.057  0.943  0.000  0.000     2.235     2.338
 229   1 H      0.039  0.961  0.000  0.000     2.459     2.452
 230   1 H      0.048  0.952  0.000  0.000     2.350     2.397
 231   1 H      0.059  0.941  0.000  0.000     2.210     2.325
 232   1 H      0.044  0.956  0.000  0.000     2.391     2.418
 233   1 H      0.048  0.952  0.000  0.000     2.344     2.394
 234   7 N     -0.182  1.244  3.938  0.000    24.944     7.418
 235   6 C      0.039  1.055  2.906  0.000    19.926     6.357
 236   6 C      0.207  1.090  2.703  0.000    23.606     7.957
 237   8 O     -0.369  1.747  4.622  0.000    21.080     6.156
 238   6 C     -0.065  1.054  3.011  0.000    21.727     6.635
 239   6 C      0.023  1.079  2.899  0.000    27.498     8.601
 240   6 C     -0.032  1.081  2.951  0.000    28.807     8.802
 241   6 C     -0.032  1.077  2.955  0.000    28.799     8.801
 242   6 C     -0.038  1.079  2.959  0.000    28.937     8.821
 243   6 C     -0.033  1.080  2.953  0.000    28.812     8.802
 244   6 C     -0.038  1.079  2.959  0.000    28.951     8.824
 245   1 H      0.233  0.767  0.000  0.000     0.952     1.528
 246   1 H      0.087  0.913  0.000  0.000     1.908     2.160
 247   1 H      0.048  0.952  0.000  0.000     2.343     2.394
 248   1 H      0.074  0.926  0.000  0.000     2.047     2.238
 249   1 H      0.029  0.971  0.000  0.000     2.605     2.524
 250   1 H      0.029  0.971  0.000  0.000     2.603     2.523
 251   1 H      0.044  0.956  0.000  0.000     2.398     2.422
 252   1 H      0.048  0.952  0.000  0.000     2.344     2.394
 253   1 H      0.050  0.950  0.000  0.000     2.318     2.381
 254   7 N     -0.397  1.309  4.088  0.000    30.293     8.174
 255   6 C      0.037  1.054  2.909  0.000    19.964     6.364
 256   6 C      0.264  1.050  2.686  0.000    22.554     7.777
 257   8 O     -0.477  1.736  4.741  0.000    23.272     6.468
 258   6 C     -0.127  1.044  3.084  0.000    22.999     6.838
 259   1 H      0.170  0.830  0.000  0.000     1.272     1.767
 260   1 H      0.039  0.961  0.000  0.000     2.460     2.453
 261   1 H      0.050  0.950  0.000  0.000     2.325     2.385
 262   1 H      0.059  0.941  0.000  0.000     2.208     2.324
 263   1 H      0.059  0.941  0.000  0.000     2.209     2.324
 264   7 N     -0.150  1.238  3.912  0.000    24.251     7.314
 265   6 C      0.024  1.058  2.918  0.000    20.172     6.395
 266   6 C      0.211  1.088  2.701  0.000    23.533     7.945
 267   8 O     -0.383  1.740  4.644  0.000    21.351     6.195
 268   6 C     -0.080  1.061  3.019  0.000    22.015     6.678
 269   6 C     -0.013  1.056  2.957  0.000    20.771     6.482
 270   6 C     -0.121  1.042  3.079  0.000    22.857     6.815
 271   6 C     -0.123  1.040  3.083  0.000    22.902     6.822
 272   1 H      0.221  0.779  0.000  0.000     1.007     1.572
 273   1 H      0.091  0.909  0.000  0.000     1.872     2.140
 274   1 H      0.065  0.935  0.000  0.000     2.143     2.289
 275   1 H      0.070  0.930  0.000  0.000     2.081     2.256
 276   1 H      0.039  0.961  0.000  0.000     2.460     2.453
 277   1 H      0.047  0.953  0.000  0.000     2.356     2.400
 278   1 H      0.044  0.956  0.000  0.000     2.400     2.423
 279   1 H      0.048  0.952  0.000  0.000     2.342     2.393
 280   1 H      0.045  0.955  0.000  0.000     2.385     2.415
 281   1 H      0.051  0.949  0.000  0.000     2.306     2.375
 282   1 H      0.041  0.959  0.000  0.000     2.441     2.443
 283   7 N     -0.390  1.315  4.075  0.000    30.100     8.148
 284   6 C      0.037  1.055  2.907  0.000    19.958     6.363
 285   6 C      0.268  1.048  2.685  0.000    22.482     7.764
 286   8 O     -0.505  1.745  4.760  0.000    23.898     6.554
 287   6 C     -0.122  1.043  3.079  0.000    22.882     6.820
 288   1 H      0.159  0.841  0.000  0.000     1.344     1.816
 289   1 H      0.025  0.975  0.000  0.000     2.656     2.549
 290   1 H      0.043  0.957  0.000  0.000     2.407     2.426
 291   1 H      0.053  0.947  0.000  0.000     2.285     2.364
 292   1 H      0.056  0.944  0.000  0.000     2.248     2.344
 293   7 N     -0.195  1.256  3.939  0.000    25.241     7.462
 294   6 C      0.021  1.065  2.915  0.000    20.228     6.403
 295   6 C      0.285  1.041  2.674  0.000    22.172     7.711
 296   8 O     -0.477  1.732  4.745  0.000    23.278     6.469
 297   6 C     -0.019  1.063  2.956  0.000    20.881     6.499
 298   6 C     -0.119  1.040  3.079  0.000    22.824     6.812
 299   6 C     -0.126  1.040  3.086  0.000    22.968     6.833
 300   1 H      0.251  0.749  0.000  0.000     0.878     1.467
 301   1 H      0.063  0.937  0.000  0.000     2.169     2.303
 302   1 H      0.047  0.953  0.000  0.000     2.360     2.402
 303   1 H      0.055  0.945  0.000  0.000     2.253     2.347
 304   1 H      0.043  0.957  0.000  0.000     2.414     2.430
 305   1 H      0.049  0.951  0.000  0.000     2.327     2.386
 306   1 H      0.048  0.952  0.000  0.000     2.349     2.397
 307   1 H      0.053  0.947  0.000  0.000     2.286     2.365
 308   1 H      0.051  0.949  0.000  0.000     2.309     2.376
 309   7 N     -0.180  1.241  3.939  0.000    24.898     7.411
 310   6 C      0.017  1.065  2.918  0.000    20.300     6.416
 311   6 C      0.201  1.085  2.715  0.000    23.724     7.977
 312   8 O     -0.352  1.755  4.596  0.000    20.738     6.106
 313   6 C      0.118  1.046  2.836  0.000    18.751     6.183
 314   8 O     -0.465  1.717  4.749  0.000    22.162     6.355
 315   6 C     -0.129  1.042  3.087  0.000    23.037     6.844
 316   1 H      0.221  0.779  0.000  0.000     1.007     1.572
 317   1 H      0.083  0.917  0.000  0.000     1.950     2.184
 318   1 H      0.032  0.968  0.000  0.000     2.552     2.498
 319   1 H      0.338  0.662  0.000  0.000     0.617     1.234
 320   1 H      0.076  0.924  0.000  0.000     2.024     2.225
 321   1 H      0.045  0.955  0.000  0.000     2.382     2.413
 322   1 H      0.066  0.934  0.000  0.000     2.129     2.282
 323   7 N     -0.412  1.323  4.088  0.000    30.698     8.229
 324   6 C      0.044  1.055  2.901  0.000    19.854     6.347
 325   6 C      0.270  1.048  2.681  0.000    22.431     7.756
 326   8 O     -0.527  1.756  4.770  0.000    24.385     6.621
 327   6 C     -0.074  1.056  3.018  0.000    21.906     6.662
 328   6 C      0.019  1.085  2.896  0.000    27.587     8.615
 329   6 C     -0.046  1.081  2.966  0.000    29.150     8.854
 330   6 C     -0.030  1.080  2.950  0.000    28.752     8.793
 331   6 C     -0.038  1.079  2.959  0.000    28.951     8.823
 332   6 C     -0.035  1.079  2.956  0.000    28.865     8.810
 333   6 C     -0.042  1.077  2.965  0.000    29.046     8.838
 334   1 H      0.194  0.806  0.000  0.000     1.137     1.670
 335   1 H      0.017  0.983  0.000  0.000     2.785     2.610
 336   1 H      0.070  0.930  0.000  0.000     2.080     2.256
 337   1 H      0.040  0.960  0.000  0.000     2.450     2.448
 338   1 H      0.036  0.964  0.000  0.000     2.500     2.473
 339   1 H      0.033  0.967  0.000  0.000     2.538     2.491
 340   1 H      0.039  0.961  0.000  0.000     2.457     2.451
 341   1 H      0.023  0.977  0.000  0.000     2.683     2.562
 342   1 H      0.030  0.970  0.000  0.000     2.580     2.512
 343   7 N     -0.170  1.246  3.923  0.000    24.672     7.377
 344   6 C      0.033  1.056  2.911  0.000    20.030     6.372
 345   6 C      0.212  1.085  2.703  0.000    23.520     7.942
 346   8 O     -0.384  1.755  4.629  0.000    21.363     6.197
 347   6 C     -0.070  1.060  3.010  0.000    21.830     6.650
 348   6 C     -0.017  1.057  2.961  0.000    20.846     6.494
 349   6 C     -0.116  1.042  3.074  0.000    22.767     6.803
 350   6 C     -0.122  1.042  3.080  0.000    22.889     6.821
 351   1 H      0.235  0.765  0.000  0.000     0.942     1.520
 352   1 H      0.083  0.917  0.000  0.000     1.949     2.183
 353   1 H      0.055  0.945  0.000  0.000     2.260     2.351
 354   1 H      0.057  0.943  0.000  0.000     2.229     2.335
 355   1 H      0.058  0.942  0.000  0.000     2.226     2.333
 356   1 H      0.045  0.955  0.000  0.000     2.380     2.412
 357   1 H      0.036  0.964  0.000  0.000     2.509     2.477
 358   1 H      0.047  0.953  0.000  0.000     2.360     2.403
 359   1 H      0.052  0.948  0.000  0.000     2.290     2.367
 360   1 H      0.045  0.955  0.000  0.000     2.389     2.417
 361   1 H      0.040  0.960  0.000  0.000     2.445     2.445
 362   7 N     -0.391  1.311  4.080  0.000    30.128     8.152
 363   6 C      0.033  1.056  2.911  0.000    20.038     6.377
 364   6 C      0.193  1.096  2.711  0.000    23.873     8.002
 365   8 O     -0.371  1.758  4.613  0.000    21.106     6.160
 366   6 C      0.080  1.039  2.881  0.000    19.459     6.320
 367   8 O     -0.478  1.720  4.757  0.000    22.415     6.391
 368   1 H      0.172  0.828  0.000  0.000     1.259     1.758
 369   1 H      0.075  0.925  0.000  0.000     2.037     2.232
 370   1 H      0.045  0.955  0.000  0.000     2.380     2.413
 371   1 H      0.030  0.970  0.000  0.000     2.585     2.514
 372   1 H      0.338  0.662  0.000  0.000     0.617     1.234
 373   7 N     -0.395  1.319  4.076  0.000    30.237     8.167
 374   6 C      0.036  1.059  2.906  0.000    19.995     6.370
 375   6 C      0.208  1.089  2.702  0.000    23.583     7.953
 376   8 O     -0.388  1.761  4.627  0.000    21.448     6.209
 377   6 C     -0.022  1.073  2.949  0.000    20.934     6.508
 378   6 C     -0.064  1.053  3.011  0.000    21.737     6.638
 379   6 C     -0.115  1.038  3.077  0.000    22.753     6.802
 380   6 C     -0.108  1.035  3.073  0.000    22.627     6.784
 381   1 H      0.165  0.835  0.000  0.000     1.301     1.787
 382   1 H      0.055  0.945  0.000  0.000     2.256     2.349
 383   1 H      0.047  0.953  0.000  0.000     2.360     2.403
 384   1 H      0.039  0.961  0.000  0.000     2.463     2.454
 385   1 H      0.045  0.955  0.000  0.000     2.390     2.418
 386   1 H      0.047  0.953  0.000  0.000     2.354     2.399
 387   1 H      0.046  0.954  0.000  0.000     2.368     2.406
 388   1 H      0.035  0.965  0.000  0.000     2.515     2.480
 389   1 H      0.046  0.954  0.000  0.000     2.368     2.406
 390   1 H      0.029  0.971  0.000  0.000     2.604     2.523
 391   1 H      0.038  0.962  0.000  0.000     2.475     2.460
 392   7 N     -0.390  1.310  4.079  0.000    30.093     8.147
 393   6 C     -0.005  1.045  2.960  0.000    20.762     6.504
 394   6 C      0.199  1.091  2.710  0.000    23.763     7.983
 395   8 O     -0.382  1.764  4.618  0.000    21.333     6.192
 396   1 H      0.174  0.826  0.000  0.000     1.250     1.752
 397   1 H      0.061  0.939  0.000  0.000     2.183     2.310
 398   1 H      0.076  0.924  0.000  0.000     2.017     2.221
 399   1 H      0.184  0.816  0.000  0.000     1.192     1.710
 400   1 H      0.067  0.933  0.000  0.000     2.123     2.278
 401   1 H      0.181  0.819  0.000  0.000     1.211     1.723
 402   1 H      0.080  0.920  0.000  0.000     1.974     2.197
 403   1 H      0.179  0.821  0.000  0.000     1.221     1.731
 404   1 H      0.071  0.929  0.000  0.000     2.074     2.252
 405   1 H      0.163  0.837  0.000  0.000     1.315     1.796
 406   1 H      0.066  0.934  0.000  0.000     2.133     2.284
 407   1 H      0.188  0.812  0.000  0.000     1.170     1.694
 408   1 H      0.085  0.915  0.000  0.000     1.925     2.170
 409   1 H      0.185  0.815  0.000  0.000     1.184     1.704
 410   1 H      0.071  0.929  0.000  0.000     2.077     2.253
 411   1 H      0.187  0.813  0.000  0.000     1.177     1.699
 412   1 H      0.080  0.920  0.000  0.000     1.974     2.197

 Mol. C6AA /au·bohr⁶  :    1468880.811451
 Mol. C8AA /au·bohr⁸  :   32562299.679961
 Mol. α(0) /au        :       1815.747917

 
molecular dipole:
                 x           y           z       tot (Debye)
 q only:        5.369      -4.506      16.473
   full:        6.520      -6.611      17.818      51.070
molecular quadrupole (traceless):
                xx          xy          yy          xz          yz          zz
 q only:      889.881     -20.811   -2356.642    3569.654    2172.222    1466.761
  q+dip:     1306.013    -140.783   -2997.594    3941.648    2219.693    1691.581
   full:     1304.538    -143.378   -2990.700    3939.311    2216.704    1686.163
speedup  1.00
cpu  time for grad    7.84 s
wall time for grad    7.84 s

SCC energy    :    -591.0022617
rep           :       7.5312592
ES            :       1.2179843
AES           :       0.0082875
AXC           :       0.2226262
disp          :      -0.5426409
XB            :       0.0000000
fix           :       0.0000000
Gborn         :       0.0000000
Gsasa         :       0.0000000
Ghb           :       0.0000000
Gshift        :       0.0000000
Gsolv         :      -0.1893706     -118.83
Etot ala COSMO:    -591.0022617
grad norm     :       0.5890196
total E       :    -583.4198379
atomizationE  :     112.1070823    70348.26
(atE without considering molecular charge,
 total energy contains solvation terms)
H-L gap (eV)  :          1.4116

------------------------------------------------------------------------
 * finished run on 2019/03/14 at 15:08:28.385     
------------------------------------------------------------------------
 total:
 * wall-time:     0 d,  0 h,  0 min,  8.548 sec
 *  cpu-time:     0 d,  0 h,  0 min,  8.345 sec
 * ratio c/w:     0.976 speedup
 SCF:
 * wall-time:     0 d,  0 h,  0 min,  8.248 sec
 *  cpu-time:     0 d,  0 h,  0 min,  8.247 sec
 * ratio c/w:     1.000 speedup

