      -----------------------------------------------------------      
     |                   =====================                   |     
     |                           x T B                           |     
     |                   =====================                   |     
     |                         S. Grimme                         |     
     |          Mulliken Center for Theoretical Chemistry        |     
     |                    University of Bonn                     |     
     |                Version 6.1 RC1 (SAW190329)                |     
      -----------------------------------------------------------      

   This program is distributed in the hope that it will be useful,
   but WITHOUT ANY WARRANTY; without even the implied warranty of
   MERCHANTABILITY or FITNESS FOR A PARTICULAR PURPOSE.
   
   FOR NON-COMMERCIAL, ACADEMIA USE ONLY.
   
   Cite this work as:
   S. Grimme, C. Bannwarth, P. Shushkov, J. Comput. Theory Chem., 2017,
   13, 1989-2009. DOI: 10.1021/acs.jctc.7b00118
   C. Bannwarth, S. Ehlert and S. Grimme., J. Comput. Theory Chem., 2019,
   just accepted. DOI: 10.1021/acs.jctc.8b01176
   
   for sTDA-xTB:
   S. Grimme and C. Bannwarth, J. Chem. Phys., 2016, 145, 054103.
   DOI: 10.1063/1.4959605
   
   in the mass-spec context:
   V. Asgeirsson, C. Bauer and S. Grimme, Chem. Sci., 2017, 8, 4879.
   DOI: 10.1039/c7sc00601b
   
   for metadynamics refer to:
   S. Grimme, ChemRxiv, Preprint. DOI: 10.26434/chemrxiv.7660532.v1
   
   with help from (in alphabetical order)
   C. Bannwarth, F. Bohle, G. Brandenburg, E. Caldeweyher, M. Checinski,
   S. Dohm, S. Ehlert, S. Ehrlich, F. März, H. Neugebauer, J. Pisarek,
   P. Pracht, P. Shushkov, and S. Spicher.
   
 * started run on 2019/05/31 at 05:35:28.782     

           -------------------------------------------------
          |                Calculation Setup                |
           -------------------------------------------------

          program call               : /home/lum/install/xtb/xtb-190329/bin/xtb xtb_tmp.xyz --chrg -1 --grad --gfn 2 --etemp 500 --acc 0.1 --gbsa h2o --parallel 2
          hostname                   : cpu02
          coordinate file            : xtb_tmp.xyz
          omp threads                :                     2
          number of atoms            :                   115
          number of electrons        :                   312
          charge                     :                    -1
          spin                       :                   0.0
          first test random number   :      0.93190584853850


molecular fragmentation (1/2 indicates fragments):
111111111111111111111111111111111111111111111111111111111111111111111111
1111111111122222222222222222222222222112222
# atoms in fragment 1/2:    85    30
 fragment masses (1/2) :      558.67      219.22
CMA distance (Bohr)    :   8.303
constraining FC (au)   :  0.0500

########################################################################
# WARNING! Please study the warnings concerning your input carefully
#  - XTBPATH is not set, using XTBHOME instead
#  - Process number higher than OMP_NUM_THREADS, I hope you know what you are doing.
########################################################################

           ------------------------------------------------- 
          |                 G F N 2 - x T B                 |
          | Geometry, Frequencies, Noncovalent interactions |
          |            JCTC 2018 parametrisation            |
           ------------------------------------------------- 
 
             k(s)              :                1.8500
             k(p)              :                2.2300
             k(d)              :                2.2300
             k(f)              :                2.0000
             kEN (H0ij)        :               -2.0000
             D4 a1             :                0.5200
             D4 a2             :                5.0000
             D4 s6             :                1.0000
             D4 s8             :                2.7000
             D4 s9             :                5.0000
             alphaj            :                2.0000

  Z AO/shell   Hii/eV     exponent
  1     Wed Apr 25 08:07:45 CEST 2018   EN: 2.200 GM2: 0.406  GM3: 0.0800  RAES: 1.40
     1s    -10.707211    1.230000
  6     Wed Apr 25 08:07:45 CEST 2018   EN: 2.550 GM2: 0.538  GM3: 0.1500  RAES: 3.00
     2s    -13.970922    2.096432
     2p    -10.063292    1.800000
  7     Wed Apr 25 08:07:45 CEST 2018   EN: 3.040 GM2: 0.461  GM3:-0.0640  RAES: 1.90
     2s    -16.686243    2.339881
     2p    -12.523956    2.014332
  8     Wed Apr 25 08:07:45 CEST 2018   EN: 3.440 GM2: 0.452  GM3:-0.0517  RAES: 1.80
     2s    -20.229985    2.439742
     2p    -15.503117    2.137023

 Solvent             : h2o
 Using internal parameter file: .param_gbsa2_h2o
 Gsolv ref. state (COSMO-RS): gsolv [1 M gas/solution]
 temperature (mdtemp)       :    298.150000000000     
 dielectric constant        :    80.2000000000000     
 rho                        :    1.00000000000000     
 mass                       :    18.0000000000000     
 surface tension            :    15.5689454083859     
 probe radius               :   0.975313790000000     
 vdW radii scaling          :    1.00000000000000     
 Gshift (Eh)                :   1.857443126794793E-003
 c1                         :    1.55243817000000     
 soset                      :   0.130326360000000     
 HB correction              :  T
 Number of grid points      :          230

            Z     q(EN)     CN     RAES       Cart. coordinates
     1  N   5.0   -0.72    3.00    1.93   269.27898   102.95301   232.77176
     2  C   4.0    0.08    3.99    3.60   266.54955   102.80330   232.91121
     3  C   4.0    0.27    3.01    3.02   265.84942   103.31858   235.67208
     4  O   6.0   -0.44    1.00    1.80   265.76682   101.66217   237.28636
     5  C   4.0    0.04    3.98    3.58   265.61585   100.19017   232.01052
     6  O   6.0   -0.51    1.99    1.82   266.50575    99.67246   229.56210
     7  C   4.0   -0.22    3.98    3.59   262.74057   100.05921   232.14655
     8  H   1.0    0.26    1.00    1.43   270.27731   102.00254   234.11907
     9  H   1.0    0.10    0.99    1.43   265.75768   104.26160   231.67430
    10  H   1.0    0.13    0.99    1.43   266.45315    98.74336   233.23830
    11  H   1.0    0.24    0.99    1.43   265.53362   100.68950   228.37202
    12  H   1.0    0.11    0.99    1.43   262.09396    98.20428   231.55337
    13  H   1.0    0.13    0.99    1.43   262.06278   100.41068   234.05415
    14  H   1.0    0.10    0.99    1.43   261.93226   101.45880   230.86857
    15  N   5.0   -0.48    3.01    1.93   265.58774   105.77424   236.18822
    16  C   4.0    0.07    3.99    3.61   265.02468   106.67775   238.71509
    17  C   4.0    0.28    3.01    3.02   262.29428   105.94882   239.34784
    18  O   6.0   -0.45    1.00    1.80   260.54023   106.73840   238.05275
    19  C   4.0   -0.14    3.99    3.60   265.25978   109.55705   238.83023
    20  C   4.0   -0.11    3.98    3.58   267.96911   110.56585   238.97587
    21  C   4.0   -0.22    3.98    3.59   269.59125   109.65213   236.77290
    22  C   4.0   -0.25    3.99    3.60   267.88063   113.45186   239.00841
    23  H   1.0    0.22    1.00    1.43   265.29854   106.99552   234.73968
    24  H   1.0    0.12    0.99    1.43   266.32325   105.73913   240.02334
    25  H   1.0    0.11    0.99    1.43   264.32043   110.31991   237.15770
    26  H   1.0    0.10    0.99    1.43   264.21228   110.20225   240.48549
    27  H   1.0    0.10    0.99    1.43   268.81766   109.89502   240.73815
    28  H   1.0    0.09    0.99    1.43   271.42892   110.56697   236.83710
    29  H   1.0    0.12    0.99    1.43   269.86141   107.61684   236.84799
    30  H   1.0    0.10    0.99    1.43   268.69801   110.10816   234.97627
    31  H   1.0    0.09    0.99    1.43   269.77279   114.21906   239.21501
    32  H   1.0    0.09    0.99    1.43   267.08309   114.13860   237.24222
    33  H   1.0    0.09    0.99    1.43   266.71973   114.12115   240.56370
    34  N   5.0   -0.48    3.01    1.93   261.96645   104.53757   241.41644
    35  C   4.0    0.08    3.99    3.61   259.51260   103.59660   242.19739
    36  C   4.0    0.27    3.01    3.02   258.50669   105.37662   244.24042
    37  O   6.0   -0.45    1.00    1.80   259.19884   105.21650   246.44886
    38  C   4.0    0.04    3.98    3.58   259.83385   100.89878   243.24768
    39  O   6.0   -0.48    1.99    1.82   261.71580   100.86351   245.12378
    40  C   4.0   -0.19    3.98    3.59   260.56415    99.06578   241.14941
    41  H   1.0    0.26    1.00    1.43   263.45073   103.73872   242.32221
    42  H   1.0    0.15    0.99    1.43   258.23374   103.58109   240.57355
    43  H   1.0    0.11    0.99    1.43   257.99571   100.31550   244.04381
    44  H   1.0    0.29    0.99    1.43   261.24523   102.10188   246.40921
    45  H   1.0    0.11    0.99    1.43   260.84131    97.19186   241.93653
    46  H   1.0    0.13    0.99    1.43   259.07070    98.98974   239.73897
    47  H   1.0    0.15    0.99    1.43   262.30686    99.66519   240.23750
    48  N   5.0   -0.49    3.01    1.93   256.95397   107.19625   243.44244
    49  C   4.0    0.08    4.00    3.62   256.12089   109.21103   245.11111
    50  C   4.0    0.27    3.01    3.02   253.58012   108.49399   246.29503
    51  O   6.0   -0.45    1.00    1.80   251.59247   108.52890   245.10916
    52  C   4.0   -0.08    3.98    3.59   255.84076   111.73593   243.70222
    53  C   4.0   -0.16    3.98    3.58   258.23475   112.42879   242.22458
    54  C   4.0   -0.22    3.98    3.59   255.06049   113.79472   245.57302
    55  C   4.0   -0.24    3.98    3.58   260.56000   112.95374   243.84037
    56  H   1.0    0.25    1.00    1.43   256.26014   107.20671   241.65852
    57  H   1.0    0.13    0.99    1.43   257.54473   109.36028   246.60560
    58  H   1.0    0.12    0.99    1.43   254.32701   111.47683   242.31784
    59  H   1.0    0.13    0.99    1.43   258.64585   110.90406   240.89345
    60  H   1.0    0.09    0.99    1.43   257.81843   114.11148   241.10805
    61  H   1.0    0.09    0.99    1.43   254.94560   115.60746   244.61426
    62  H   1.0    0.14    0.99    1.43   253.22484   113.36205   246.38924
    63  H   1.0    0.10    0.99    1.43   256.42389   113.94849   247.10068
    64  H   1.0    0.09    0.99    1.43   262.13263   113.46441   242.62067
    65  H   1.0    0.09    0.99    1.43   260.22061   114.51821   245.12414
    66  H   1.0    0.11    0.99    1.43   261.10321   111.29334   244.92376
    67  N   5.0   -0.48    3.01    1.93   253.66388   107.87071   248.74210
    68  C   4.0    0.07    3.99    3.60   251.38471   107.22461   250.13300
    69  C   4.0    0.08    3.00    3.02   249.64287   109.55849   250.17308
    70  O   6.0   -0.42    1.00    1.80   250.38728   111.57504   251.01809
    71  C   4.0   -0.14    3.98    3.59   252.08271   106.46892   252.82893
    72  C   4.0   -0.13    3.99    3.60   249.78561   105.55365   254.30716
    73  C   4.0    0.26    3.00    3.02   248.71675   103.08175   253.29647
    74  O   6.0   -0.44    1.00    1.80   249.91838   101.60995   251.97348
    75  N   5.0   -0.66    3.01    1.93   246.35626   102.63729   254.07369
    76  H   1.0    0.23    1.00    1.43   255.33838   107.69916   249.63695
    77  H   1.0    0.13    0.99    1.43   250.42250   105.65548   249.18233
    78  H   1.0    0.12    0.99    1.43   253.46823   104.94281   252.74678
    79  H   1.0    0.11    0.99    1.43   252.89802   108.10729   253.77672
    80  H   1.0    0.09    0.99    1.43   250.32843   105.19966   256.26663
    81  H   1.0    0.10    0.99    1.43   248.28692   106.96845   254.31474
    82  H   1.0    0.24    1.00    1.43   245.40865   103.96623   255.06749
    83  H   1.0    0.26    1.00    1.43   245.44822   101.02829   253.58111
    84  N   5.0   -0.69    3.00    1.93   246.40515   102.23721   244.30480
    85  C   4.0    0.09    3.98    3.58   248.44100   103.86882   243.53563
    86  C   4.0    0.10    3.00    3.02   247.86988   104.92661   240.90077
    87  O   6.0   -0.38    1.00    1.80   246.47426   103.82976   239.42679
    88  C   4.0    0.04    3.98    3.58   251.00498   102.42594   243.38340
    89  O   6.0   -0.45    1.99    1.82   251.10989   100.98018   241.14631
    90  C   4.0   -0.19    3.98    3.58   251.34743   100.67685   245.66366
    91  H   1.0    0.29    1.00    1.43   246.04153   100.76392   243.13227
    92  H   1.0    0.13    0.99    1.43   248.62610   105.40228   244.90483
    93  H   1.0    0.13    0.99    1.43   252.50414   103.86397   243.37809
    94  H   1.0    0.32    0.99    1.43   252.53397   101.53891   240.08498
    95  H   1.0    0.11    0.99    1.43   253.29565   100.03231   245.74411
    96  H   1.0    0.12    0.99    1.43   250.87561   101.60472   247.43339
    97  H   1.0    0.12    0.99    1.43   250.13280    99.03557   245.43036
    98  N   5.0   -0.68    3.00    1.93   253.03659   106.91708   235.24575
    99  C   4.0    0.08    3.98    3.59   255.69077   106.49934   234.79613
   100  C   4.0    0.06    3.00    3.02   256.62537   108.29524   232.74549
   101  O   6.0   -0.40    1.00    1.80   255.29267   108.94558   230.97211
   102  C   4.0   -0.09    3.98    3.58   256.24883   103.76307   234.10354
   103  C   4.0    0.31    2.99    3.02   255.67286   101.88910   236.31132
   104  O   6.0   -0.49    1.00    1.80   254.92164   102.82364   238.35177
   105  O   6.0   -0.42    1.00    1.80   256.02963    99.61746   235.87169
   106  H   1.0    0.28    1.00    1.43   251.80866   106.22267   233.96874
   107  H   1.0    0.15    0.99    1.43   256.65223   106.93373   236.57264
   108  H   1.0    0.12    0.99    1.43   255.16601   103.15969   232.45151
   109  H   1.0    0.11    0.99    1.43   258.24976   103.54693   233.63867
   110  H   1.0    0.30    1.00    1.43   269.80679   102.32279   231.28287
   111  H   1.0    0.12    1.00    1.43   247.88052   109.43384   249.50252
   112  H   1.0    0.29    1.00    1.43   246.76098   101.56364   245.82541
   113  H   1.0    0.13    1.00    1.43   248.64818   106.55759   240.34828
   114  H   1.0    0.32    1.00    1.43   252.59307   106.20766   236.72649
   115  H   1.0    0.12    1.00    1.43   258.38340   108.98407   232.82223

           ------------------------------------------------- 
          |        Self-Consistent Charge Iterations        |
           ------------------------------------------------- 

          ...................................................
          :                      SETUP                      :
          :.................................................:
          :  # basis functions                 277          :
          :  # atomic orbitals                 277          :
          :  # shells                          169          :
          :  # electrons                       312          :
          :  max. iterations                   250          :
          :  Hamiltonian                  GFN2-xTB          :
          :  restarted?                      false          :
          :  GBSA solvation                   true          :
          :  PC potential                    false          :
          :  electronic temp.          500.0000000     K    :
          :  accuracy                    0.1000000          :
          :  -> integral cutoff          0.3500000E+02      :
          :  -> integral neglect         0.1000000E-08      :
          :  -> SCF convergence          0.1000000E-06 Eh   :
          :  -> wf. convergence          0.1000000E-04 e    :
          :  Broyden damping             0.4000000          :
          ...................................................

 iter      E             dE          RMSdq      gap      omega  full diag
   1   -179.9422236 -0.179942E+03  0.434E+00    2.22       0.0  T
   2   -180.4039188 -0.461695E+00  0.218E+00    1.97       1.0  T
   3   -180.4201697 -0.162509E-01  0.120E+00    2.27       1.0  T
   4   -180.4296668 -0.949709E-02  0.263E-01    1.72       1.0  T
   5   -180.4339662 -0.429943E-02  0.104E-01    1.87       1.0  T
   6   -180.4340727 -0.106447E-03  0.423E-02    1.88       1.0  T
   7   -180.4340934 -0.207652E-04  0.164E-02    1.90       1.0  T
   8   -180.4340988 -0.540099E-05  0.627E-03    1.90       1.5  T
   9   -180.4340995 -0.633892E-06  0.270E-03    1.90       3.5  T
  10   -180.4340995 -0.777913E-07  0.109E-03    1.90       8.5  T
  11   -180.4340996 -0.328880E-07  0.404E-04    1.90      23.1  T
  12   -180.4340996 -0.301208E-08  0.170E-04    1.90      54.9  T
  13   -180.4340996 -0.519407E-09  0.700E-05    1.90     133.1  T
  14   -180.4340996 -0.854641E-10  0.260E-05    1.90     358.4  T

   *** convergence criteria satisfied after 14 iterations ***

         #    Occupation            Energy/Eh            Energy/eV
      -------------------------------------------------------------
         1        2.0000           -0.7379264             -20.0800
       ...           ...                  ...                  ...
       150        2.0000           -0.4048644             -11.0169
       151        2.0000           -0.4015977             -10.9280
       152        2.0000           -0.3996192             -10.8742
       153        2.0000           -0.3833735             -10.4321
       154        2.0000           -0.3780928             -10.2884
       155        2.0000           -0.3687825             -10.0351
       156        2.0000           -0.3665737              -9.9750 (HOMO)
       157                         -0.2966631              -8.0726 (LUMO)
       158                         -0.2840806              -7.7302
       159                         -0.2771898              -7.5427
       160                         -0.2468712              -6.7177
       161                         -0.2372467              -6.4558
       ...                                ...                  ...
       277                          0.6285617              17.1040
      -------------------------------------------------------------
                  HL-Gap            0.0699106 Eh            1.9024 eV
             Fermi-level           -0.3314436 Eh           -9.0190 eV

 SCC (total)                   0 d,  0 h,  0 min,  0.314 sec
 SCC setup                      ...        0 min,  0.009 sec (  2.762%)
 Dispersion                     ...        0 min,  0.004 sec (  1.183%)
 integral evaluation            ...        0 min,  0.025 sec (  7.945%)
 zeroth order Hamiltonian       ...        0 min,  0.001 sec (  0.179%)
 iterations                     ...        0 min,  0.207 sec ( 65.884%)
 molecular gradient             ...        0 min,  0.067 sec ( 21.462%)
 printout                       ...        0 min,  0.002 sec (  0.570%)

         :::::::::::::::::::::::::::::::::::::::::::::::::::::
         ::                     SUMMARY                     ::
         :::::::::::::::::::::::::::::::::::::::::::::::::::::
         :: total energy             -178.367227606011 Eh   ::
         :: total w/o Gsasa/hb       -178.342709935361 Eh   ::
         :: gradient norm               0.391150115685 Eh/α ::
         :: HOMO-LUMO gap               1.902362963323 eV   ::
         ::.................................................::
         :: SCC energy               -180.437928848983 Eh   ::
         :: -> isotropic ES             0.646047269724 Eh   ::
         :: -> anisotropic ES          -0.017542917781 Eh   ::
         :: -> anisotropic XC           0.049064034897 Eh   ::
         :: -> dispersion              -0.127337031654 Eh   ::
         :: -> Gsolv                   -0.163559014894 Eh   ::
         ::    -> Gborn                -0.139041344244 Eh   ::
         ::    -> Gsasa                -0.005686718904 Eh   ::
         ::    -> Ghb                  -0.020688394873 Eh   ::
         ::    -> Gshift                0.001857443127 Eh   ::
         :: repulsion energy            2.063821721732 Eh   ::
         :: add. restraining            0.000000000000 Eh   ::
         :::::::::::::::::::::::::::::::::::::::::::::::::::::

           -------------------------------------------------
          |                Property Printout                |
           -------------------------------------------------

    * Orbital Energies and Occupations

         #    Occupation            Energy/Eh            Energy/eV
      -------------------------------------------------------------
         1        2.0000           -0.7379264             -20.0800
       ...           ...                  ...                  ...
       144        2.0000           -0.4143777             -11.2758
       145        2.0000           -0.4124392             -11.2230
       146        2.0000           -0.4118042             -11.2058
       147        2.0000           -0.4098641             -11.1530
       148        2.0000           -0.4080114             -11.1026
       149        2.0000           -0.4059454             -11.0463
       150        2.0000           -0.4048644             -11.0169
       151        2.0000           -0.4015977             -10.9280
       152        2.0000           -0.3996192             -10.8742
       153        2.0000           -0.3833735             -10.4321
       154        2.0000           -0.3780928             -10.2884
       155        2.0000           -0.3687825             -10.0351
       156        2.0000           -0.3665737              -9.9750 (HOMO)
       157                         -0.2966631              -8.0726 (LUMO)
       158                         -0.2840806              -7.7302
       159                         -0.2771898              -7.5427
       160                         -0.2468712              -6.7177
       161                         -0.2372467              -6.4558
       162                         -0.2331433              -6.3442
       163                         -0.2265953              -6.1660
       164                         -0.2146687              -5.8414
       165                         -0.1886568              -5.1336
       166                         -0.0352454              -0.9591
       167                         -0.0224672              -0.6114
       ...                                ...                  ...
       277                          0.6285617              17.1040
      -------------------------------------------------------------
                  HL-Gap            0.0699106 Eh            1.9024 eV
             Fermi-level           -0.3314436 Eh           -9.0190 eV

   #   Z        covCN         q      C6AA      α(0)
   1   7 N      2.639    -0.378    29.757     8.102
   2   6 C      3.789     0.016    20.324     6.421
   3   6 C      2.759     0.270    22.439     7.757
   4   8 O      0.858    -0.505    23.898     6.554
   5   6 C      3.726     0.113    18.821     6.194
   6   8 O      1.655    -0.477    22.406     6.390
   7   6 C      3.753    -0.116    22.778     6.806
   8   1 H      0.860     0.156     1.361     1.828
   9   1 H      0.924     0.040     2.446     2.446
  10   1 H      0.924     0.041     2.441     2.443
  11   1 H      0.804     0.334     0.627     1.244
  12   1 H      0.925     0.055     2.264     2.353
  13   1 H      0.925     0.021     2.718     2.578
  14   1 H      0.924     0.037     2.495     2.470
  15   7 N      2.694    -0.164    24.555     7.360
  16   6 C      3.795     0.025    20.166     6.395
  17   6 C      2.758     0.275    22.357     7.743
  18   8 O      0.858    -0.498    23.740     6.533
  19   6 C      3.812    -0.071    21.846     6.653
  20   6 C      3.849    -0.013    20.774     6.483
  21   6 C      3.755    -0.123    22.917     6.826
  22   6 C      3.758    -0.119    22.831     6.812
  23   1 H      0.860     0.212     1.045     1.601
  24   1 H      0.924     0.066     2.127     2.281
  25   1 H      0.924     0.060     2.198     2.318
  26   1 H      0.924     0.054     2.269     2.356
  27   1 H      0.924     0.041     2.437     2.441
  28   1 H      0.925     0.056     2.248     2.344
  29   1 H      0.925     0.040     2.453     2.449
  30   1 H      0.925     0.042     2.420     2.433
  31   1 H      0.925     0.054     2.265     2.353
  32   1 H      0.925     0.046     2.368     2.406
  33   1 H      0.925     0.041     2.441     2.443
  34   7 N      2.693    -0.179    24.873     7.407
  35   6 C      3.796     0.016    20.306     6.417
  36   6 C      2.759     0.267    22.492     7.766
  37   8 O      0.859    -0.475    23.235     6.463
  38   6 C      3.728     0.130    18.556     6.150
  39   8 O      1.655    -0.476    22.383     6.387
  40   6 C      3.753    -0.114    22.742     6.800
  41   1 H      0.860     0.223     0.996     1.563
  42   1 H      0.924     0.059     2.205     2.322
  43   1 H      0.923     0.005     2.974     2.697
  44   1 H      0.803     0.346     0.598     1.215
  45   1 H      0.925     0.066     2.126     2.280
  46   1 H      0.925     0.032     2.551     2.498
  47   1 H      0.925     0.055     2.256     2.349
  48   7 N      2.690    -0.157    24.391     7.335
  49   6 C      3.800     0.018    20.279     6.412
  50   6 C      2.758     0.272    22.406     7.751
  51   8 O      0.859    -0.490    23.564     6.508
  52   6 C      3.854    -0.018    20.860     6.496
  53   6 C      3.802    -0.063    21.714     6.634
  54   6 C      3.755    -0.118    22.820     6.811
  55   6 C      3.751    -0.112    22.696     6.794
  56   1 H      0.860     0.188     1.169     1.694
  57   1 H      0.924     0.080     1.974     2.197
  58   1 H      0.924     0.042     2.424     2.435
  59   1 H      0.924     0.024     2.674     2.557
  60   1 H      0.924     0.053     2.280     2.361
  61   1 H      0.925     0.066     2.135     2.285
  62   1 H      0.925     0.037     2.494     2.470
  63   1 H      0.925     0.059     2.207     2.323
  64   1 H      0.925     0.045     2.388     2.417
  65   1 H      0.925     0.060     2.198     2.318
  66   1 H      0.925     0.030     2.580     2.512
  67   7 N      2.692    -0.167    24.622     7.370
  68   6 C      3.793     0.034    20.010     6.370
  69   6 C      2.766     0.207    23.604     7.957
  70   8 O      0.856    -0.342    20.564     6.080
  71   6 C      3.808    -0.069    21.817     6.649
  72   6 C      3.810    -0.108    22.548     6.759
  73   6 C      2.743     0.286    22.145     7.705
  74   8 O      0.858    -0.507    23.948     6.561
  75   7 N      2.641    -0.290    27.478     7.785
  76   1 H      0.860     0.221     1.005     1.570
  77   1 H      0.924     0.061     2.189     2.314
  78   1 H      0.924     0.079     1.988     2.205
  79   1 H      0.924     0.083     1.951     2.184
  80   1 H      0.924     0.099     1.796     2.096
  81   1 H      0.924     0.068     2.111     2.272
  82   1 H      0.860     0.234     0.949     1.526
  83   1 H      0.860     0.232     0.954     1.530
  84   7 N      2.636    -0.374    29.660     8.088
  85   6 C      3.781     0.028    20.121     6.390
  86   6 C      2.768     0.213    23.497     7.939
  87   8 O      0.856    -0.370    21.082     6.156
  88   6 C      3.725     0.137    18.458     6.135
  89   8 O      1.653    -0.507    23.035     6.479
  90   6 C      3.752    -0.116    22.779     6.806
  91   1 H      0.860     0.164     1.307     1.791
  92   1 H      0.924     0.068     2.110     2.272
  93   1 H      0.923    -0.013     3.293     2.838
  94   1 H      0.802     0.307     0.700     1.314
  95   1 H      0.925     0.037     2.486     2.466
  96   1 H      0.925     0.063     2.164     2.301
  97   1 H      0.925     0.062     2.178     2.308
  98   7 N      2.637    -0.374    29.670     8.090
  99   6 C      3.784     0.052    19.716     6.325
 100   6 C      2.767     0.198    23.781     7.986
 101   8 O      0.856    -0.371    21.116     6.161
 102   6 C      3.801    -0.083    22.086     6.691
 103   6 C      2.683     0.377    20.610     7.429
 104   8 O      0.856    -0.620    26.628     6.918
 105   8 O      0.856    -0.618    26.562     6.910
 106   1 H      0.860     0.156     1.363     1.829
 107   1 H      0.924     0.064     2.147     2.292
 108   1 H      0.924     0.025     2.660     2.550
 109   1 H      0.924     0.019     2.741     2.589
 110   1 H      0.862     0.200     1.107     1.648
 111   1 H      0.930     0.078     1.998     2.210
 112   1 H      0.862     0.191     1.154     1.683
 113   1 H      0.930     0.053     2.285     2.363
 114   1 H      0.862     0.164     1.311     1.793
 115   1 H      0.930     0.066     2.131     2.283

 Mol. C6AA /au·bohr⁶  :     116729.459724
 Mol. C8AA /au·bohr⁸  :    2535906.819103
 Mol. α(0) /au        :        506.407481


Wiberg/Mayer (AO) data.
largest (>0.10) Wiberg bond orders for each atom
          total WBO             WBO to atom ...
     1  N   2.993        C    2 1.013    H    8 0.958    H  110 0.942
     2  C   3.987        N    1 1.013    H    9 0.957    C    5 0.954    C    3 0.940
     3  C   3.944        O    4 1.633    N   15 1.302    C    2 0.940
     4  O   1.943        C    3 1.633    N   15 0.194
     5  C   3.958        C    7 1.001    O    6 0.998    H   10 0.961    C    2 0.954
     6  O   1.948        C    5 0.998    H   11 0.870
     7  C   3.994        C    5 1.001    H   12 0.984    H   13 0.984    H   14 0.983
     8  H   0.976        N    1 0.958
     9  H   0.998        C    2 0.957
    10  H   0.998        C    5 0.961
    11  H   0.888        O    6 0.870
    12  H   0.997        C    7 0.984
    13  H   1.000        C    7 0.984
    14  H   0.999        C    7 0.983
    15  N   3.471        C    3 1.302    C   16 0.974    H   23 0.917    O    4 0.194
    16  C   3.962        C   19 0.979    N   15 0.974    H   24 0.956    C   17 0.930
    17  C   3.941        O   18 1.628    N   34 1.298    C   16 0.930
    18  O   1.950        C   17 1.628    N   34 0.193
    19  C   3.982        C   20 0.992    C   16 0.979    H   25 0.968    H   26 0.967
    20  C   3.992        C   21 1.010    C   22 1.007    C   19 0.992    H   27 0.968
    21  C   3.994        C   20 1.010    H   30 0.985    H   29 0.985    H   28 0.984
    22  C   3.993        C   20 1.007    H   32 0.986    H   33 0.985    H   31 0.985
    23  H   0.955        N   15 0.917
    24  H   0.995        C   16 0.956
    25  H   0.996        C   19 0.968
    26  H   0.996        C   19 0.967
    27  H   0.998        C   20 0.968
    28  H   0.997        C   21 0.984
    29  H   0.998        C   21 0.985
    30  H   0.998        C   21 0.985
    31  H   0.996        C   22 0.985
    32  H   0.998        C   22 0.986
    33  H   0.998        C   22 0.985
    34  N   3.468        C   17 1.298    C   35 0.976    H   41 0.911    O   18 0.193
    35  C   3.966        N   34 0.976    C   38 0.959    H   42 0.946    C   36 0.934
    36  C   3.952        O   37 1.612    N   48 1.320    C   35 0.934
    37  O   1.961        C   36 1.612    N   48 0.198
    38  C   3.965        O   39 1.006    C   40 1.005    C   35 0.959    H   43 0.958
    39  O   1.944        C   38 1.006    H   44 0.840
    40  C   3.991        C   38 1.005    H   46 0.984    H   45 0.982    H   47 0.982
    41  H   0.950        N   34 0.911
    42  H   0.996        C   35 0.946
    43  H   0.999        C   38 0.958
    44  H   0.880        O   39 0.840
    45  H   0.995        C   40 0.982
    46  H   0.999        C   40 0.984
    47  H   0.997        C   40 0.982
    48  N   3.497        C   36 1.320    C   49 0.965    H   56 0.930    O   37 0.198
    49  C   3.950        C   52 0.966    N   48 0.965    H   57 0.951    C   50 0.928
    50  C   3.948        O   51 1.632    N   67 1.306    C   49 0.928
    51  O   1.963        C   50 1.632    N   67 0.201
    52  C   3.986        C   54 1.006    C   53 0.993    C   49 0.966    H   58 0.964
    53  C   3.994        C   55 1.020    C   52 0.993    H   59 0.975    H   60 0.974
    54  C   3.991        C   52 1.006    H   62 0.984    H   61 0.983    H   63 0.983
    55  C   3.995        C   53 1.020    H   66 0.986    H   65 0.983    H   64 0.982
    56  H   0.965        N   48 0.930
    57  H   0.993        C   49 0.951
    58  H   0.998        C   52 0.964
    59  H   0.999        C   53 0.975
    60  H   0.997        C   53 0.974
    61  H   0.995        C   54 0.983
    62  H   0.999        C   54 0.984
    63  H   0.996        C   54 0.983
    64  H   0.998        C   55 0.982
    65  H   0.996        C   55 0.983
    66  H   0.999        C   55 0.986
    67  N   3.475        C   50 1.306    C   68 0.969    H   76 0.917    O   51 0.201
    68  C   3.962        C   71 0.974    N   67 0.969    C   69 0.960    H   77 0.952
    69  C   3.901        O   70 1.919    C   68 0.960    H  111 0.954
    70  O   2.057        C   69 1.919
    71  C   3.983        C   72 1.009    C   68 0.974    H   79 0.969    H   78 0.967
    72  C   3.993        C   71 1.009    C   73 0.967    H   81 0.964    H   80 0.947
    73  C   3.945        O   74 1.638    N   75 1.311    C   72 0.967
    74  O   1.946        C   73 1.638    N   75 0.199
    75  N   3.394        C   73 1.311    H   82 0.926    H   83 0.924    O   74 0.199
    76  H   0.951        N   67 0.917
    77  H   0.996        C   68 0.952
    78  H   0.994        C   71 0.967
    79  H   0.993        C   71 0.969
    80  H   0.990        C   72 0.947
    81  H   0.995        C   72 0.964
    82  H   0.945        N   75 0.926
    83  H   0.945        N   75 0.924
    84  N   3.004        C   85 1.035    H   91 0.955    H  112 0.946
    85  C   3.988        N   84 1.035    C   86 0.987    H   92 0.943    C   88 0.914
    86  C   3.903        O   87 1.893    C   85 0.987    H  113 0.957
    87  O   2.037        C   86 1.893
    88  C   3.953        C   90 0.995    O   89 0.992    H   93 0.967    C   85 0.914
    89  O   1.925        C   88 0.992    H   94 0.827
    90  C   3.992        C   88 0.995    H   95 0.983    H   97 0.982    H   96 0.976
    91  H   0.973        N   84 0.955
    92  H   0.995        C   85 0.943
    93  H   1.000        C   88 0.967
    94  H   0.905        O   89 0.827
    95  H   0.997        C   90 0.983
    96  H   0.996        C   90 0.976
    97  H   0.996        C   90 0.982
    98  N   2.998        C   99 1.019    H  106 0.958    H  114 0.955
    99  C   3.985        N   98 1.019    C  100 0.987    C  102 0.957    H  107 0.943
   100  C   3.907        O  101 1.883    C   99 0.987    H  115 0.955
   101  O   2.026        C  100 1.883
   102  C   3.987        H  108 0.969    H  109 0.965    C   99 0.957    C  103 0.906
   103  C   3.932        O  105 1.536    O  104 1.450    C  102 0.906
   104  O   1.843        C  103 1.450    O  105 0.207
   105  O   1.832        C  103 1.536    O  104 0.207
   106  H   0.976        N   98 0.958
   107  H   0.996        C   99 0.943
   108  H   0.999        C  102 0.969
   109  H   1.000        C  102 0.965
   110  H   0.960        N    1 0.942
   111  H   0.994        C   69 0.954
   112  H   0.964        N   84 0.946
   113  H   0.997        C   86 0.957
   114  H   0.973        N   98 0.955
   115  H   0.996        C  100 0.955
 
molecular dipole:
                 x           y           z       tot (Debye)
 q only:     -254.386     -99.105    -233.524
   full:     -254.216     -99.898    -234.187     914.514
molecular quadrupole (traceless):
                xx          xy          yy          xz          yz          zz
 q only:   -32566.603  -37759.175   49763.951  -89159.697  -34667.290  -17197.348
  q+dip:   -32246.077  -38038.864   49714.429  -89351.594  -35057.440  -17468.352
   full:   -32245.393  -38039.171   49713.406  -89353.614  -35055.796  -17468.013


           -------------------------------------------------
          | TOTAL ENERGY             -178.367227606011 Eh   |
          | GRADIENT NORM               0.391150115685 Eh/α |
          | HOMO-LUMO GAP               1.902362963323 eV   |
           -------------------------------------------------

------------------------------------------------------------------------
 * finished run on 2019/05/31 at 05:35:29.357     
------------------------------------------------------------------------
 total:
 * wall-time:     0 d,  0 h,  0 min,  0.574 sec
 *  cpu-time:     0 d,  0 h,  0 min,  0.890 sec
 * ratio c/w:     1.549 speedup
 SCF:
 * wall-time:     0 d,  0 h,  0 min,  0.314 sec
 *  cpu-time:     0 d,  0 h,  0 min,  0.628 sec
 * ratio c/w:     2.001 speedup

