      -----------------------------------------------------------      
     |                   =====================                   |     
     |                           x T B                           |     
     |                   =====================                   |     
     |                         S. Grimme                         |     
     |          Mulliken Center for Theoretical Chemistry        |     
     |                    University of Bonn                     |     
     |                Version 6.1 RC1 (SAW190329)                |     
      -----------------------------------------------------------      

   This program is distributed in the hope that it will be useful,
   but WITHOUT ANY WARRANTY; without even the implied warranty of
   MERCHANTABILITY or FITNESS FOR A PARTICULAR PURPOSE.
   
   FOR NON-COMMERCIAL, ACADEMIA USE ONLY.
   
   Cite this work as:
   S. Grimme, C. Bannwarth, P. Shushkov, J. Comput. Theory Chem., 2017,
   13, 1989-2009. DOI: 10.1021/acs.jctc.7b00118
   C. Bannwarth, S. Ehlert and S. Grimme., J. Comput. Theory Chem., 2019,
   just accepted. DOI: 10.1021/acs.jctc.8b01176
   
   for sTDA-xTB:
   S. Grimme and C. Bannwarth, J. Chem. Phys., 2016, 145, 054103.
   DOI: 10.1063/1.4959605
   
   in the mass-spec context:
   V. Asgeirsson, C. Bauer and S. Grimme, Chem. Sci., 2017, 8, 4879.
   DOI: 10.1039/c7sc00601b
   
   for metadynamics refer to:
   S. Grimme, ChemRxiv, Preprint. DOI: 10.26434/chemrxiv.7660532.v1
   
   with help from (in alphabetical order)
   C. Bannwarth, F. Bohle, G. Brandenburg, E. Caldeweyher, M. Checinski,
   S. Dohm, S. Ehlert, S. Ehrlich, F. März, H. Neugebauer, J. Pisarek,
   P. Pracht, P. Shushkov, and S. Spicher.
   
 * started run on 2019/05/31 at 06:32:57.134     

           -------------------------------------------------
          |                Calculation Setup                |
           -------------------------------------------------

          program call               : /home/lum/qr/xtb-190329/bin/xtb xtb_tmp.xyz --chrg 0 --grad --gfn 2 --etemp 500 --acc 0.1 --gbsa h2o --parallel 2
          hostname                   : cu39
          coordinate file            : xtb_tmp.xyz
          omp threads                :                     2
          number of atoms            :                   575
          number of electrons        :                  1572
          charge                     :                     0
          spin                       :                   0.0
          first test random number   :      0.70242659361393


molecular fragmentation (1/2 indicates fragments):
111111111111111112222222222222222222222222222222222222222222222222222222
222222222222222222222222222222222222222222222222222222222222222222222222
222222222222222222222222222222222222222222222222222222222222222222222222
222222222222222222222222222222222222222222222222222222222222222222222222
222222222222222222222222222222222222222222222222222222222222222222222222
222222222222222222222222222222222222222222222222222222222222222222222222
222222222222222222222222222222222222222222222222222222222222222222222222
22222222222222222222222222222222222222222222222222222112222222222222222
# atoms in fragment 1/2:    19   556
 fragment masses (1/2) :      139.16     3865.53
CMA distance (Bohr)    :  18.290
constraining FC (au)   :  0.0500

########################################################################
# WARNING! Please study the warnings concerning your input carefully
#  - XTBPATH is not set, using XTBHOME instead
#  - Process number higher than OMP_NUM_THREADS, I hope you know what you are doing.
########################################################################

           ------------------------------------------------- 
          |                 G F N 2 - x T B                 |
          | Geometry, Frequencies, Noncovalent interactions |
          |            JCTC 2018 parametrisation            |
           ------------------------------------------------- 
 
             k(s)              :                1.8500
             k(p)              :                2.2300
             k(d)              :                2.2300
             k(f)              :                2.0000
             kEN (H0ij)        :               -2.0000
             D4 a1             :                0.5200
             D4 a2             :                5.0000
             D4 s6             :                1.0000
             D4 s8             :                2.7000
             D4 s9             :                5.0000
             alphaj            :                2.0000

  Z AO/shell   Hii/eV     exponent
  1     Wed Apr 25 08:07:45 CEST 2018   EN: 2.200 GM2: 0.406  GM3: 0.0800  RAES: 1.40
     1s    -10.707211    1.230000
  6     Wed Apr 25 08:07:45 CEST 2018   EN: 2.550 GM2: 0.538  GM3: 0.1500  RAES: 3.00
     2s    -13.970922    2.096432
     2p    -10.063292    1.800000
  7     Wed Apr 25 08:07:45 CEST 2018   EN: 3.040 GM2: 0.461  GM3:-0.0640  RAES: 1.90
     2s    -16.686243    2.339881
     2p    -12.523956    2.014332
  8     Wed Apr 25 08:07:45 CEST 2018   EN: 3.440 GM2: 0.452  GM3:-0.0517  RAES: 1.80
     2s    -20.229985    2.439742
     2p    -15.503117    2.137023
 16     Tue Apr 24 11:44:34 CEST 2018   EN: 2.580 GM2: 0.340  GM3:-0.0502  RAES: 3.10
     3s    -20.029654    1.981333
     3p    -11.377694    2.025643
     3d     -0.420282    1.702555

 Solvent             : h2o
 Using internal parameter file: .param_gbsa2_h2o
 Gsolv ref. state (COSMO-RS): gsolv [1 M gas/solution]
 temperature (mdtemp)       :    298.150000000000     
 dielectric constant        :    80.2000000000000     
 rho                        :    1.00000000000000     
 mass                       :    18.0000000000000     
 surface tension            :    15.5689454083859     
 probe radius               :   0.975313790000000     
 vdW radii scaling          :    1.00000000000000     
 Gshift (Eh)                :   1.857443126794793E-003
 c1                         :    1.55243817000000     
 soset                      :   0.130326360000000     
 HB correction              :  T
 Number of grid points      :          230

            Z     q(EN)     CN     RAES       Cart. coordinates
     1  N   5.0   -0.69    3.00    1.93    75.28642    81.08405   143.00924
     2  C   4.0    0.06    3.98    3.58    75.94024    79.20386   144.90394
     3  C   4.0    0.09    3.00    3.02    73.81203    78.80855   146.82623
     4  O   6.0   -0.37    1.00    1.80    73.10153    80.49265   148.25367
     5  C   4.0   -0.11    3.99    3.60    78.32263    80.10012   146.29046
     6  C   4.0    0.11    3.32    3.06    79.23204    78.43031   148.37595
     7  N   5.0   -0.37    2.11    1.90    80.98795    79.34981   150.03462
     8  C   4.0    0.02    3.22    3.04    78.67426    75.97793   148.99649
     9  C   4.0    0.19    3.39    3.08    81.48180    77.51315   151.60342
    10  N   5.0   -0.46    3.14    1.94    80.12612    75.42210   151.06565
    11  H   1.0    0.28    1.00    1.43    75.22534    82.90474   143.60694
    12  H   1.0    0.11    0.99    1.43    76.28436    77.44330   143.88300
    13  H   1.0    0.11    0.99    1.43    79.82760    80.35422   144.89428
    14  H   1.0    0.15    0.99    1.43    77.93630    81.96790   147.08205
    15  H   1.0    0.10    1.00    1.43    77.43118    74.62758   148.15117
    16  H   1.0    0.14    1.00    1.43    82.79586    77.61847   153.13872
    17  H   1.0    0.26    1.00    1.43    80.17501    73.77578   152.02178
    18  N   5.0   -0.69    3.00    1.93    73.35829    72.69451   151.34848
    19  C   4.0    0.03    3.98    3.59    74.11520    70.34375   152.53820
    20  C   4.0    0.27    3.01    3.02    75.07920    70.93940   155.19828
    21  O   6.0   -0.41    1.00    1.80    75.85862    73.05990   155.70367
    22  H   1.0    0.31    1.00    1.43    74.18802    74.25433   152.09467
    23  H   1.0    0.15    0.99    1.43    72.52347    69.03285   152.55316
    24  H   1.0    0.11    0.99    1.43    75.66160    69.45991   151.47315
    25  N   5.0   -0.49    3.00    1.93    75.03352    69.03496   156.86511
    26  C   4.0    0.07    3.99    3.60    75.70513    69.38037   159.50303
    27  C   4.0    0.27    3.01    3.02    78.51233    68.82120   160.00804
    28  O   6.0   -0.45    1.00    1.80    79.21767    67.51201   161.76534
    29  C   4.0   -0.20    3.98    3.59    74.04400    67.77637   161.21509
    30  H   1.0    0.25    1.00    1.43    74.50270    67.30099   156.27503
    31  H   1.0    0.14    0.99    1.43    75.41678    71.39655   159.89962
    32  H   1.0    0.12    0.99    1.43    74.66001    68.02342   163.15736
    33  H   1.0    0.11    0.99    1.43    72.07755    68.32749   161.04040
    34  H   1.0    0.11    0.99    1.43    74.24672    65.79383   160.72226
    35  N   5.0   -0.47    3.01    1.93    80.10653    69.88425   158.34056
    36  C   4.0    0.07    4.00    3.62    82.80813    69.67776   158.62074
    37  C   4.0    0.26    3.01    3.02    84.05116    72.22399   158.09496
    38  O   6.0   -0.42    1.00    1.80    82.91639    73.95733   157.07998
    39  C   4.0   -0.11    3.99    3.60    83.93787    67.70429   156.79575
    40  C   4.0   -0.00    3.03    3.02    83.13942    68.07054   154.09846
    41  C   4.0   -0.09    3.04    3.02    84.40823    69.71554   152.49560
    42  C   4.0   -0.06    3.04    3.02    81.19412    66.63546   153.09796
    43  C   4.0   -0.07    3.03    3.02    83.85224    69.82792   149.95113
    44  C   4.0   -0.07    3.03    3.02    80.61082    66.71071   150.56134
    45  C   4.0    0.11    3.03    3.02    82.00258    68.24787   148.96158
    46  O   6.0   -0.50    1.99    1.83    81.63336    68.25233   146.42417
    47  H   1.0    0.29    1.00    1.43    79.48548    71.25276   157.15770
    48  H   1.0    0.13    0.99    1.43    83.18963    69.06178   160.56251
    49  H   1.0    0.12    0.99    1.43    85.99459    67.79268   156.92269
    50  H   1.0    0.11    0.99    1.43    83.38190    65.82070   157.42774
    51  H   1.0    0.14    1.00    1.43    85.89793    70.88233   153.25820
    52  H   1.0    0.14    1.00    1.43    80.14364    65.37263   154.29841
    53  H   1.0    0.12    1.00    1.43    84.91065    71.03758   148.69565
    54  H   1.0    0.13    0.99    1.43    79.17014    65.46742   149.81853
    55  H   1.0    0.24    0.99    1.43    80.48865    66.90803   145.96176
    56  N   5.0   -0.50    3.01    1.93    86.46393    72.33609   158.85552
    57  C   4.0    0.08    4.00    3.62    88.11639    74.39072   158.16086
    58  C   4.0    0.26    3.01    3.02    89.90875    73.49859   156.08721
    59  O   6.0   -0.47    1.00    1.80    90.71741    71.31781   155.97924
    60  C   4.0   -0.08    3.98    3.58    89.61889    75.42736   160.42983
    61  C   4.0   -0.20    3.98    3.59    87.85727    76.77865   162.26221
    62  C   4.0   -0.21    3.98    3.59    91.09231    73.33865   161.76941
    63  H   1.0    0.25    1.00    1.43    87.32766    70.75434   159.48390
    64  H   1.0    0.16    0.99    1.43    86.91891    75.89658   157.41006
    65  H   1.0    0.12    0.99    1.43    90.94120    76.82335   159.65776
    66  H   1.0    0.12    0.99    1.43    88.94210    77.55706   163.82264
    67  H   1.0    0.15    0.99    1.43    86.89055    78.33307   161.33101
    68  H   1.0    0.12    0.99    1.43    86.45988    75.47082   163.00988
    69  H   1.0    0.10    0.99    1.43    92.57475    74.15729   162.93127
    70  H   1.0    0.12    0.99    1.43    89.85630    72.23976   162.98988
    71  H   1.0    0.13    0.99    1.43    91.94418    72.06341   160.40098
    72  N   5.0   -0.49    3.01    1.93    90.49371    75.27771   154.40860
    73  C   4.0    0.08    3.99    3.61    92.07827    74.81340   152.23011
    74  C   4.0    0.27    3.01    3.02    94.04656    76.91153   151.98659
    75  O   6.0   -0.47    1.00    1.80    93.75059    78.95687   153.04084
    76  C   4.0   -0.20    3.98    3.59    90.48968    74.75396   149.79507
    77  H   1.0    0.28    1.00    1.43    89.74633    77.03272   154.61755
    78  H   1.0    0.14    0.99    1.43    93.00294    72.98875   152.53032
    79  H   1.0    0.12    0.99    1.43    91.45809    73.65976   148.34879
    80  H   1.0    0.11    0.99    1.43    88.67231    73.87597   150.20160
    81  H   1.0    0.12    0.99    1.43    90.14425    76.66621   149.11306
    82  N   5.0   -0.50    3.01    1.93    96.01169    76.36988   150.49901
    83  C   4.0    0.07    4.00    3.62    97.64928    78.32519   149.52098
    84  C   4.0    0.26    3.01    3.02    97.40248    78.37512   146.64417
    85  O   6.0   -0.46    1.00    1.80    97.34300    76.43108   145.38864
    86  C   4.0   -0.13    3.98    3.59   100.43499    77.84690   150.17835
    87  C   4.0   -0.12    3.99    3.60   101.04805    78.80926   152.82618
    88  C   4.0    0.28    3.00    3.02   103.65422    78.06073   153.71335
    89  O   6.0   -0.49    1.00    1.80   104.99553    76.56659   152.54304
    90  N   5.0   -0.66    3.01    1.93   104.39767    79.11614   155.86818
    91  H   1.0    0.29    1.00    1.43    96.06766    74.67469   149.59368
    92  H   1.0    0.13    0.99    1.43    97.03061    80.12094   150.34303
    93  H   1.0    0.13    0.99    1.43   100.78129    75.81960   150.07997
    94  H   1.0    0.13    0.99    1.43   101.61315    78.81077   148.78181
    95  H   1.0    0.10    0.99    1.43   100.87675    80.86479   152.88384
    96  H   1.0    0.11    0.99    1.43    99.67630    78.05528   154.17370
    97  H   1.0    0.25    1.00    1.43   103.32209    80.41594   156.74463
    98  H   1.0    0.28    1.00    1.43   106.15444    78.81665   156.54716
    99  N   5.0   -0.49    3.01    1.93    97.31379    80.69015   145.65130
   100  C   4.0    0.07    3.99    3.61    97.52794    81.16835   142.97184
   101  C   4.0    0.27    3.01    3.02   100.01147    82.61133   142.52054
   102  O   6.0   -0.40    1.00    1.80   100.74701    84.22154   144.00925
   103  C   4.0   -0.12    3.99    3.61    95.41783    82.87431   141.94754
   104  C   4.0   -0.03    3.02    3.02    92.72932    82.09554   142.49043
   105  C   4.0   -0.10    3.03    3.02    92.01975    79.70871   143.30665
   106  C   4.0   -0.11    3.04    3.02    90.83933    83.88786   142.10227
   107  C   4.0   -0.11    3.03    3.02    89.49627    79.12347   143.69619
   108  C   4.0   -0.08    3.03    3.02    88.32513    83.33222   142.50226
   109  C   4.0    0.10    3.03    3.02    87.63279    80.92178   143.29255
   110  O   6.0   -0.48    1.99    1.83    85.13275    80.39945   143.63580
   111  H   1.0    0.25    1.00    1.43    97.45694    82.22284   146.78175
   112  H   1.0    0.15    0.99    1.43    97.58216    79.34316   142.01050
   113  H   1.0    0.12    0.99    1.43    95.71152    84.77050   142.71703
   114  H   1.0    0.11    0.99    1.43    95.67023    83.00332   139.89797
   115  H   1.0    0.14    1.00    1.43    93.40833    78.25826   143.64766
   116  H   1.0    0.11    1.00    1.43    91.36259    85.75242   141.46312
   117  H   1.0    0.10    0.99    1.43    88.95734    77.25246   144.32112
   118  H   1.0    0.13    1.00    1.43    86.86748    84.72748   142.22525
   119  H   1.0    0.24    0.99    1.43    84.94865    78.67133   144.19433
   120  N   5.0   -0.47    3.01    1.93   101.17204    81.96744   140.38736
   121  C   4.0    0.07    3.99    3.60   103.37844    83.18807   139.33445
   122  C   4.0    0.06    3.00    3.02   102.71352    83.80449   136.58249
   123  O   6.0   -0.43    1.00    1.80   101.80370    82.18147   135.19582
   124  C   4.0   -0.12    3.99    3.60   105.65635    81.38954   139.43873
   125  C   4.0   -0.02    3.03    3.02   106.34018    80.79891   142.12669
   126  C   4.0   -0.09    3.03    3.02   105.26493    78.77528   143.40417
   127  C   4.0   -0.10    3.03    3.02   108.03303    82.34761   143.40530
   128  C   4.0   -0.09    3.03    3.02   105.91664    78.27833   145.89190
   129  C   4.0   -0.07    3.03    3.02   108.71244    81.85922   145.87136
   130  C   4.0    0.11    3.03    3.02   107.63937    79.82016   147.14611
   131  O   6.0   -0.45    1.99    1.83   108.35441    79.39220   149.56649
   132  H   1.0    0.29    1.00    1.43   100.55369    80.43817   139.40048
   133  H   1.0    0.13    0.99    1.43   103.78484    84.91024   140.39850
   134  H   1.0    0.12    0.99    1.43   105.13208    79.67985   138.41700
   135  H   1.0    0.10    0.99    1.43   107.22787    82.30139   138.47046
   136  H   1.0    0.13    1.00    1.43   103.88842    77.60820   142.45171
   137  H   1.0    0.11    1.00    1.43   108.79737    83.97899   142.45567
   138  H   1.0    0.12    1.00    1.43   105.06017    76.72021   146.89147
   139  H   1.0    0.13    1.00    1.43   110.01651    83.07850   146.85497
   140  H   1.0    0.30    0.99    1.43   107.22940    78.17357   150.37122
   141  N   5.0   -0.68    3.00    1.93    97.70297    84.41764   156.99175
   142  C   4.0    0.08    3.99    3.60    95.54053    82.78650   157.34804
   143  C   4.0    0.29    3.01    3.02    93.10000    84.30475   157.03635
   144  O   6.0   -0.37    1.00    1.80    92.89756    86.49818   157.75316
   145  C   4.0   -0.10    3.98    3.59    95.49887    81.57921   159.96192
   146  C   4.0    0.34    2.99    3.02    95.10163    83.64292   162.04617
   147  O   6.0   -0.36    1.00    1.80    93.15741    83.43536   163.36107
   148  O   6.0   -0.38    1.00    1.80    96.77406    85.28727   162.23515
   149  H   1.0    0.31    1.00    1.43    98.29756    85.36073   158.55682
   150  H   1.0    0.13    0.99    1.43    95.61434    81.33879   155.87243
   151  H   1.0    0.11    0.99    1.43    93.94504    80.22459   160.07435
   152  H   1.0    0.10    0.99    1.43    97.28405    80.61449   160.32404
   153  N   5.0   -0.49    3.01    1.93    91.23470    82.99700   155.94526
   154  C   4.0    0.07    3.99    3.61    88.73411    83.98487   155.48630
   155  C   4.0    0.28    3.01    3.02    86.78318    82.02980   156.32806
   156  O   6.0   -0.45    1.00    1.80    87.15487    79.76241   156.04703
   157  C   4.0   -0.13    3.99    3.60    88.31039    84.50964   152.65818
   158  C   4.0   -0.09    3.98    3.58    90.22711    86.35642   151.51606
   159  C   4.0   -0.22    3.99    3.59    89.71634    86.61069   148.68612
   160  C   4.0   -0.21    3.98    3.59    90.08759    88.94369   152.78373
   161  H   1.0    0.28    1.00    1.43    91.62169    81.27872   155.20118
   162  H   1.0    0.14    0.99    1.43    88.55393    85.71400   156.59642
   163  H   1.0    0.13    0.99    1.43    88.43871    82.70316   151.66877
   164  H   1.0    0.12    0.99    1.43    86.39670    85.23763   152.39215
   165  H   1.0    0.14    0.99    1.43    92.12847    85.57509   151.78815
   166  H   1.0    0.11    0.99    1.43    91.09828    87.85529   147.81819
   167  H   1.0    0.12    0.99    1.43    89.81099    84.78146   147.75521
   168  H   1.0    0.11    0.99    1.43    87.84057    87.38666   148.37405
   169  H   1.0    0.11    0.99    1.43    91.33083    90.24402   151.79838
   170  H   1.0    0.11    0.99    1.43    88.16165    89.66061   152.71623
   171  H   1.0    0.15    0.99    1.43    90.71287    88.82436   154.73743
   172  N   5.0   -0.45    3.01    1.93    84.66055    83.02369   157.26080
   173  C   4.0    0.09    3.98    3.59    82.47937    81.62959   158.13259
   174  C   4.0    0.06    3.00    3.02    80.20033    82.45147   156.55187
   175  O   6.0   -0.38    1.00    1.80    80.03422    84.60181   155.73005
   176  C   4.0    0.04    3.98    3.58    81.96720    82.28642   160.93489
   177  O   6.0   -0.46    1.99    1.82    84.26252    81.87358   162.23164
   178  C   4.0   -0.22    3.98    3.58    79.81017    80.73082   162.04610
   179  H   1.0    0.25    1.00    1.43    84.45064    84.92076   157.30441
   180  H   1.0    0.14    0.99    1.43    82.87858    79.61268   157.93653
   181  H   1.0    0.13    0.99    1.43    81.46568    84.30921   161.01295
   182  H   1.0    0.25    0.99    1.43    84.00009    82.20151   164.00622
   183  H   1.0    0.11    0.99    1.43    79.60726    81.18488   164.03982
   184  H   1.0    0.11    0.99    1.43    78.04490    81.19221   161.10606
   185  H   1.0    0.12    0.99    1.43    80.21663    78.72552   161.86003
   186  N   5.0   -0.70    3.00    1.93   101.24714    76.62432   133.78809
   187  C   4.0    0.07    3.98    3.59   101.54009    74.53413   135.54915
   188  C   4.0    0.28    3.01    3.02    99.65542    75.02466   137.70068
   189  O   6.0   -0.46    1.00    1.80    99.77092    76.94339   138.99081
   190  C   4.0   -0.15    3.98    3.59   104.29759    74.43704   136.47213
   191  C   4.0   -0.17    3.98    3.58   104.75571    72.84391   138.84017
   192  C   4.0   -0.16    3.98    3.59   107.45853    73.28698   139.78785
   193  C   4.0   -0.06    3.98    3.58   107.88449    72.09452   142.37911
   194  N   5.0   -0.73    3.98    2.82   110.52287    72.55768   143.25671
   195  H   1.0    0.32    1.00    1.43   101.34155    78.39296   134.53659
   196  H   1.0    0.12    0.99    1.43   101.03790    72.78905   134.56202
   197  H   1.0    0.10    0.99    1.43   105.45697    73.72884   134.91877
   198  H   1.0    0.11    0.99    1.43   104.87515    76.38126   136.85019
   199  H   1.0    0.13    0.99    1.43   103.40234    73.39510   140.29377
   200  H   1.0    0.11    0.99    1.43   104.45969    70.85117   138.39783
   201  H   1.0    0.10    0.99    1.43   108.75733    72.50189   138.39455
   202  H   1.0    0.11    0.99    1.43   107.77380    75.32209   139.91289
   203  H   1.0    0.11    0.99    1.43   106.58822    72.95703   143.73154
   204  H   1.0    0.11    0.99    1.43   107.55522    70.06282   142.26081
   205  H   1.0    0.26    1.00    1.43   110.79582    71.82139   145.04406
   206  H   1.0    0.23    1.00    1.43   111.79457    71.73444   142.02835
   207  H   1.0    0.24    1.00    1.43   110.87551    74.47648   143.29498
   208  N   5.0   -0.49    3.01    1.93    97.92951    73.21905   138.00688
   209  C   4.0    0.08    3.99    3.61    95.94731    73.22725   139.90500
   210  C   4.0    0.27    3.02    3.02    96.29994    70.75804   141.36465
   211  O   6.0   -0.48    1.00    1.80    95.86600    68.67993   140.41910
   212  C   4.0   -0.08    3.98    3.58    93.32029    73.39538   138.66185
   213  C   4.0   -0.15    3.98    3.59    92.92960    76.05428   137.56973
   214  C   4.0   -0.23    3.98    3.59    91.26613    72.73971   140.58136
   215  C   4.0   -0.23    3.98    3.58    90.86490    76.15406   135.56285
   216  H   1.0    0.29    1.00    1.43    97.83164    71.76304   136.76320
   217  H   1.0    0.14    0.99    1.43    96.25495    74.84330   141.15772
   218  H   1.0    0.14    0.99    1.43    93.28423    72.00373   137.13033
   219  H   1.0    0.11    0.99    1.43    92.44828    77.33892   139.11163
   220  H   1.0    0.14    0.99    1.43    94.69865    76.70470   136.72516
   221  H   1.0    0.09    0.99    1.43    89.41181    72.97846   139.73729
   222  H   1.0    0.12    0.99    1.43    91.43231    70.78877   141.21099
   223  H   1.0    0.10    0.99    1.43    91.39199    73.98101   142.21456
   224  H   1.0    0.11    0.99    1.43    90.68641    78.06833   134.84038
   225  H   1.0    0.10    0.99    1.43    91.33378    74.90387   133.99808
   226  H   1.0    0.10    0.99    1.43    89.04510    75.58953   136.33198
   227  N   5.0   -0.49    3.01    1.93    97.30925    71.04965   143.65757
   228  C   4.0    0.08    3.99    3.61    97.72915    68.93010   145.33593
   229  C   4.0    0.27    3.01    3.02    96.11805    69.26900   147.70665
   230  O   6.0   -0.47    1.00    1.80    95.62530    71.35587   148.57879
   231  C   4.0   -0.14    3.98    3.59   100.55573    68.59435   145.91751
   232  C   4.0   -0.15    3.98    3.58   101.78354    70.74114   147.42279
   233  C   4.0   -0.05    3.99    3.61   104.43589    69.87510   148.17622
   234  N   5.0   -0.48    3.02    1.93   105.78968    71.78583   149.61925
   235  C   4.0    0.37    3.01    3.02   108.16370    71.48263   150.40591
   236  N   5.0   -0.65    3.01    1.93   109.65073    69.70651   149.36253
   237  N   5.0   -0.64    3.02    1.93   109.14852    73.14338   151.99565
   238  H   1.0    0.29    1.00    1.43    97.36995    72.79919   144.45146
   239  H   1.0    0.14    0.99    1.43    97.05552    67.22838   144.36737
   240  H   1.0    0.12    0.99    1.43   100.74562    66.82248   146.95090
   241  H   1.0    0.11    0.99    1.43   101.52060    68.38493   144.10636
   242  H   1.0    0.12    0.99    1.43   101.85938    72.44453   146.26818
   243  H   1.0    0.13    0.99    1.43   100.66292    71.14230   149.10712
   244  H   1.0    0.11    0.99    1.43   104.24112    68.16934   149.32559
   245  H   1.0    0.11    0.99    1.43   105.48713    69.41891   146.45791
   246  H   1.0    0.27    1.00    1.43   104.73652    73.09023   150.55480
   247  H   1.0    0.25    1.00    1.43   108.84651    68.15416   148.59464
   248  H   1.0    0.25    1.00    1.43   111.36778    69.41882   150.15233
   249  H   1.0    0.31    1.00    1.43   108.03771    74.53252   152.70651
   250  H   1.0    0.26    1.00    1.43   110.96621    73.04415   152.55326
   251  N   5.0   -0.50    3.01    1.93    95.24655    67.11237   148.69970
   252  C   4.0    0.07    4.00    3.61    93.59346    67.10203   150.87654
   253  C   4.0    0.26    3.02    3.02    95.03440    66.20744   153.19979
   254  O   6.0   -0.45    1.00    1.80    96.44020    64.37135   153.09164
   255  C   4.0   -0.14    3.99    3.60    91.35883    65.28388   150.50523
   256  C   4.0   -0.11    3.97    3.58    89.37283    65.56415   152.57708
   257  C   4.0    0.31    2.99    3.02    87.33276    63.43563   152.32049
   258  O   6.0   -0.40    1.00    1.80    85.60714    63.77106   150.77172
   259  O   6.0   -0.44    1.00    1.80    87.67902    61.53691   153.69611
   260  H   1.0    0.27    1.00    1.43    95.78773    65.42224   147.96055
   261  H   1.0    0.13    0.99    1.43    92.90141    69.02950   151.16391
   262  H   1.0    0.12    0.99    1.43    90.46137    65.66108   148.68543
   263  H   1.0    0.13    0.99    1.43    92.07402    63.34427   150.49724
   264  H   1.0    0.14    0.99    1.43    90.20618    65.40093   154.46510
   265  H   1.0    0.12    0.99    1.43    88.43146    67.38999   152.41030
   266  N   5.0   -0.51    3.01    1.93    94.72190    67.59281   155.29688
   267  C   4.0    0.08    4.03    3.68    95.58844    66.63268   157.71272
   268  C   4.0    0.28    3.01    3.02    93.39459    65.17998   158.92536
   269  O   6.0   -0.40    1.00    1.80    92.04104    66.05111   160.57651
   270  C   4.0   -0.11    3.98    3.59    96.52053    68.73002   159.42078
   271  S   6.0   -0.16    2.02    3.10    98.27782    67.49069   162.11519
   272  H   1.0    0.28    1.00    1.43    93.34307    68.92532   155.36554
   273  H   1.0    0.16    0.99    1.43    97.12390    65.29375   157.32542
   274  H   1.0    0.12    0.99    1.43    97.75326    70.01238   158.38687
   275  H   1.0    0.13    0.99    1.43    94.93766    69.77941   160.21471
   276  H   1.0    0.17    1.00    1.43    99.15078    65.41321   160.98208
   277  N   5.0   -0.49    3.01    1.93    93.11761    62.85448   157.95333
   278  C   4.0    0.09    4.00    3.61    91.36077    61.06607   159.01161
   279  C   4.0    0.28    3.01    3.02    91.97496    60.65208   161.80094
   280  O   6.0   -0.43    1.00    1.80    90.36046    60.05416   163.33776
   281  C   4.0    0.04    3.98    3.59    91.61844    58.50789   157.61643
   282  O   6.0   -0.49    1.98    1.82    91.95862    58.88463   155.00984
   283  C   4.0   -0.20    3.98    3.59    89.36189    56.83050   158.23730
   284  H   1.0    0.29    1.00    1.43    94.09424    62.28780   156.40947
   285  H   1.0    0.14    0.99    1.43    89.40623    61.74445   158.83865
   286  H   1.0    0.13    0.99    1.43    93.36641    57.61257   158.30957
   287  H   1.0    0.31    0.99    1.43    90.42064    59.73454   154.37639
   288  H   1.0    0.11    0.99    1.43    89.77912    54.86740   157.81249
   289  H   1.0    0.12    0.99    1.43    88.94146    57.00830   160.23789
   290  H   1.0    0.15    0.99    1.43    87.71622    57.41414   157.14681
   291  N   5.0   -0.46    3.01    1.93    94.42709    60.91247   162.39282
   292  C   4.0    0.02    3.99    3.61    95.34262    60.30218   164.89259
   293  C   4.0    0.29    3.00    3.02    96.09377    57.49204   164.90324
   294  O   6.0   -0.38    1.00    1.80    97.59511    56.68953   163.33943
   295  H   1.0    0.28    1.00    1.43    95.73292    61.21224   161.03112
   296  H   1.0    0.12    0.99    1.43    96.98436    61.47429   165.31928
   297  H   1.0    0.13    0.99    1.43    93.81670    60.68703   166.22604
   298  N   5.0   -0.47    3.01    1.93    94.76118    56.08322   166.53342
   299  C   4.0    0.06    3.98    3.59    95.16439    53.40138   166.97244
   300  C   4.0    0.08    3.00    3.02    97.74246    53.05356   168.26739
   301  O   6.0   -0.34    1.00    1.80    99.07020    54.85760   168.82811
   302  C   4.0   -0.11    3.98    3.59    94.79337    51.90021   164.52158
   303  C   4.0   -0.10    3.98    3.58    92.07527    50.99788   164.04799
   304  C   4.0   -0.22    3.98    3.59    91.54978    48.58963   165.54508
   305  C   4.0   -0.21    3.98    3.59    90.10277    53.02743   164.60608
   306  H   1.0    0.23    1.00    1.43    93.72196    57.01393   167.82936
   307  H   1.0    0.10    0.99    1.43    93.75742    52.79659   168.36425
   308  H   1.0    0.17    0.99    1.43    95.40832    53.09934   162.96696
   309  H   1.0    0.15    0.99    1.43    96.03178    50.25693   164.48373
   310  H   1.0    0.13    0.99    1.43    91.97269    50.51729   162.03662
   311  H   1.0    0.10    0.99    1.43    89.60852    47.97991   165.27462
   312  H   1.0    0.12    0.99    1.43    92.79735    47.09323   164.89006
   313  H   1.0    0.10    0.99    1.43    91.86495    48.88051   167.55613
   314  H   1.0    0.10    0.99    1.43    88.26343    52.43525   163.90959
   315  H   1.0    0.11    0.99    1.43    89.93250    53.36719   166.62493
   316  H   1.0    0.13    0.99    1.43    90.61165    54.79926   163.70100
   317  N   5.0   -0.66    3.00    1.93   103.64110    51.06680   162.09893
   318  C   4.0    0.07    3.98    3.59   103.95449    52.95876   160.15892
   319  C   4.0    0.29    3.00    3.02   104.11544    55.59386   161.39869
   320  O   6.0   -0.36    1.00    1.80   104.60032    55.86805   163.62737
   321  C   4.0   -0.14    3.98    3.59   101.74014    52.78882   158.28118
   322  C   4.0   -0.12    3.97    3.58   100.86385    50.05766   157.82962
   323  C   4.0    0.31    2.99    3.02    98.57692    49.38664   159.53728
   324  O   6.0   -0.46    1.00    1.80    98.98494    49.05986   161.84228
   325  O   6.0   -0.46    1.00    1.80    96.47793    49.22071   158.48290
   326  H   1.0    0.33    1.00    1.43   101.80823    50.47428   162.39923
   327  H   1.0    0.11    0.99    1.43   105.78079    52.60952   159.22674
   328  H   1.0    0.15    0.99    1.43   100.15801    53.87650   159.05473
   329  H   1.0    0.11    0.99    1.43   102.30476    53.60273   156.47173
   330  H   1.0    0.12    0.99    1.43   100.29545    49.81507   155.86738
   331  H   1.0    0.11    0.99    1.43   102.38549    48.72974   158.23964
   332  N   5.0   -0.50    3.01    1.93   103.76867    57.54695   159.77287
   333  C   4.0    0.08    3.99    3.61   103.27770    60.10717   160.68414
   334  C   4.0    0.27    3.01    3.02   101.80735    61.49102   158.63627
   335  O   6.0   -0.46    1.00    1.80    99.70165    62.41786   158.97941
   336  C   4.0   -0.12    3.98    3.59   105.78990    61.46939   161.29683
   337  C   4.0   -0.03    3.12    3.03   105.50670    63.52542   163.20545
   338  C   4.0    0.02    3.21    3.04   104.81858    65.99008   162.86293
   339  C   4.0    0.02    3.19    3.03   106.04661    63.23978   165.83402
   340  N   5.0   -0.47    3.10    1.94   104.95151    67.27037   165.10542
   341  C   4.0    0.12    3.21    3.04   105.69067    65.64014   166.96346
   342  C   4.0   -0.09    3.02    3.02   106.76411    61.18115   167.31531
   343  C   4.0   -0.10    3.02    3.02   106.12309    66.02651   169.52695
   344  C   4.0   -0.09    3.03    3.02   107.17049    61.58228   169.85337
   345  C   4.0   -0.10    3.03    3.02   106.86905    63.97234   170.94557
   346  H   1.0    0.25    1.00    1.43   103.06378    57.10802   158.05557
   347  H   1.0    0.16    0.99    1.43   102.13830    59.98848   162.41149
   348  H   1.0    0.13    0.99    1.43   107.05911    60.04222   162.06837
   349  H   1.0    0.11    0.99    1.43   106.61426    62.22235   159.56946
   350  H   1.0    0.13    1.00    1.43   104.17934    66.92674   161.18400
   351  H   1.0    0.24    1.00    1.43   104.37274    69.06039   165.37577
   352  H   1.0    0.15    0.99    1.43   106.94889    59.31528   166.49969
   353  H   1.0    0.12    0.99    1.43   105.87760    67.86497   170.38037
   354  H   1.0    0.13    0.99    1.43   107.69826    60.01240   171.04770
   355  H   1.0    0.12    0.99    1.43   107.22159    64.20059   172.94602
   356  N   5.0   -0.48    3.01    1.93   103.07613    61.63882   156.45944
   357  C   4.0    0.08    3.99    3.61   102.13140    62.64585   154.11156
   358  C   4.0    0.27    3.01    3.02   101.68426    60.49060   152.22331
   359  O   6.0   -0.42    1.00    1.80   102.59035    58.39323   152.50646
   360  C   4.0   -0.13    3.99    3.60   104.10558    64.43354   152.91709
   361  C   4.0   -0.02    3.12    3.03   104.54759    66.73188   154.49083
   362  C   4.0    0.02    3.21    3.04   106.56117    67.21543   156.03796
   363  C   4.0    0.02    3.18    3.03   102.85689    68.82212   154.75992
   364  N   5.0   -0.47    3.10    1.94   106.25571    69.49326   157.20998
   365  C   4.0    0.12    3.22    3.04   103.98466    70.49768   156.52343
   366  C   4.0   -0.10    3.02    3.02   100.51044    69.41923   153.71561
   367  C   4.0   -0.09    3.02    3.02   102.76833    72.68950   157.31410
   368  C   4.0   -0.10    3.03    3.02    99.32811    71.60759   154.48661
   369  C   4.0   -0.11    3.03    3.02   100.42676    73.20231   156.29339
   370  H   1.0    0.24    1.00    1.43   104.68505    60.61381   156.30873
   371  H   1.0    0.16    0.99    1.43   100.35886    63.62865   154.50357
   372  H   1.0    0.11    0.99    1.43   105.86173    63.37888   152.69092
   373  H   1.0    0.11    0.99    1.43   103.36360    64.93515   151.06116
   374  H   1.0    0.11    1.00    1.43   108.20562    66.08163   156.38258
   375  H   1.0    0.24    1.00    1.43   107.39941    70.18649   158.56248
   376  H   1.0    0.14    1.00    1.43    99.59949    68.16516   152.38916
   377  H   1.0    0.12    1.00    1.43   103.58449    73.91933   158.72065
   378  H   1.0    0.14    0.99    1.43    97.47977    72.08001   153.75174
   379  H   1.0    0.11    0.99    1.43    99.37068    74.82886   156.94384
   380  N   5.0   -0.49    3.01    1.93   100.45036    61.28180   150.13867
   381  C   4.0    0.07    3.99    3.60    99.81736    59.60216   148.05104
   382  C   4.0    0.27    3.02    3.02    99.38863    61.34683   145.78164
   383  O   6.0   -0.48    1.00    1.80    97.79392    63.02891   145.94678
   384  C   4.0   -0.12    3.98    3.59    97.38081    58.13467   148.67984
   385  C   4.0   -0.15    3.98    3.58    97.13416    55.56702   147.38672
   386  C   4.0   -0.04    3.99    3.59    94.59364    54.36092   148.10209
   387  N   5.0   -0.48    3.02    1.93    94.31721    54.10800   150.82292
   388  C   4.0    0.38    3.00    3.02    95.32854    52.32174   152.28783
   389  N   5.0   -0.64    3.02    1.93    95.23586    52.59299   154.77610
   390  N   5.0   -0.64    3.01    1.93    96.49151    50.30884   151.31121
   391  H   1.0    0.27    1.00    1.43    99.22968    62.74356   150.36399
   392  H   1.0    0.13    0.99    1.43   101.39805    58.30229   147.79098
   393  H   1.0    0.15    0.99    1.43    97.36979    57.83822   150.72180
   394  H   1.0    0.12    0.99    1.43    95.75159    59.31848   148.22165
   395  H   1.0    0.11    0.99    1.43    97.20927    55.77821   145.33926
   396  H   1.0    0.12    0.99    1.43    98.67605    54.34465   148.00213
   397  H   1.0    0.11    0.99    1.43    93.04975    55.56827   147.45947
   398  H   1.0    0.11    0.99    1.43    94.36992    52.52019   147.19941
   399  H   1.0    0.25    1.00    1.43    93.51991    55.59262   151.72720
   400  H   1.0    0.27    1.00    1.43    94.35125    54.10780   155.51025
   401  H   1.0    0.32    1.00    1.43    95.78187    51.20128   156.04537
   402  H   1.0    0.26    1.00    1.43    96.42643    49.95346   149.44244
   403  H   1.0    0.27    1.00    1.43    96.94967    48.88161   152.48646
   404  N   5.0   -0.47    3.01    1.93   100.83600    61.08970   143.72611
   405  C   4.0    0.10    4.00    3.63   100.26772    62.63161   141.52707
   406  C   4.0    0.27    3.01    3.02    97.82817    61.57906   140.35079
   407  O   6.0   -0.41    1.00    1.80    97.67312    59.33428   139.80504
   408  C   4.0    0.03    3.98    3.58   102.45411    62.63200   139.63008
   409  O   6.0   -0.49    1.99    1.83   104.62207    63.43177   140.95098
   410  C   4.0   -0.21    3.98    3.59   101.81592    64.40096   137.43439
   411  H   1.0    0.24    1.00    1.43   102.04618    59.63677   143.51505
   412  H   1.0    0.13    0.99    1.43    99.95870    64.56323   142.19024
   413  H   1.0    0.12    0.99    1.43   102.70926    60.69762   138.89652
   414  H   1.0    0.25    0.99    1.43   106.02909    63.45903   139.79077
   415  H   1.0    0.10    0.99    1.43   103.35420    64.46223   136.06387
   416  H   1.0    0.13    0.99    1.43   100.11998    63.75243   136.46539
   417  H   1.0    0.12    0.99    1.43   101.48390    66.30740   138.13131
   418  N   5.0   -0.49    3.00    1.93    95.91293    63.21715   140.14881
   419  C   4.0    0.09    4.00    3.62    93.39961    62.40424   139.43085
   420  C   4.0    0.26    3.01    3.02    92.72770    63.30592   136.77044
   421  O   6.0   -0.44    1.00    1.80    91.71635    61.89266   135.24705
   422  C   4.0   -0.09    3.98    3.58    91.43443    63.19819   141.42907
   423  C   4.0   -0.23    3.98    3.59    88.76088    62.55089   140.55854
   424  C   4.0   -0.21    3.98    3.59    92.01867    61.86068   143.92186
   425  H   1.0    0.27    1.00    1.43    96.13339    65.07017   140.60890
   426  H   1.0    0.15    0.99    1.43    93.43725    60.33406   139.32579
   427  H   1.0    0.12    0.99    1.43    91.57157    65.24411   141.70826
   428  H   1.0    0.10    0.99    1.43    87.43338    62.88413   142.09166
   429  H   1.0    0.11    0.99    1.43    88.19400    63.68038   138.93761
   430  H   1.0    0.11    0.99    1.43    88.63932    60.56716   140.03413
   431  H   1.0    0.10    0.99    1.43    90.67860    62.43419   145.37305
   432  H   1.0    0.11    0.99    1.43    91.84996    59.82508   143.67449
   433  H   1.0    0.15    0.99    1.43    93.91937    62.30722   144.56488
   434  N   5.0   -0.48    3.01    1.93    93.36872    65.69217   136.19660
   435  C   4.0    0.07    3.99    3.61    93.24370    66.52373   133.59002
   436  C   4.0    0.06    3.00    3.02    95.69087    67.91795   132.97845
   437  O   6.0   -0.45    1.00    1.80    96.66479    69.38713   134.47333
   438  C   4.0   -0.13    3.98    3.59    90.87786    68.15969   133.08471
   439  C   4.0   -0.05    3.03    3.02    89.80025    67.79504   130.47951
   440  C   4.0   -0.11    3.03    3.02    89.35636    69.84281   128.90617
   441  C   4.0   -0.11    3.03    3.02    89.12663    65.39686   129.62893
   442  C   4.0   -0.10    3.03    3.02    88.25115    69.52878   126.56171
   443  C   4.0   -0.08    3.03    3.02    88.05488    65.05397   127.27596
   444  C   4.0    0.10    3.03    3.02    87.58549    67.13009   125.72353
   445  O   6.0   -0.45    1.99    1.83    86.50901    66.74370   123.43603
   446  H   1.0    0.29    1.00    1.43    94.25849    66.85017   137.44591
   447  H   1.0    0.14    0.99    1.43    93.12254    64.81037   132.43553
   448  H   1.0    0.11    0.99    1.43    89.45077    67.58246   134.46169
   449  H   1.0    0.10    0.99    1.43    91.30944    70.14974   133.40395
   450  H   1.0    0.11    1.00    1.43    89.87416    71.71646   129.52094
   451  H   1.0    0.13    0.99    1.43    89.43256    63.77002   130.82785
   452  H   1.0    0.11    1.00    1.43    87.84622    71.13287   125.37073
   453  H   1.0    0.13    1.00    1.43    87.54149    63.19138   126.62056
   454  H   1.0    0.25    0.99    1.43    86.16647    68.38059   122.59616
   455  N   5.0   -0.69    3.00    1.93    75.83256    72.99142   137.96220
   456  C   4.0    0.06    3.98    3.59    76.36508    70.85530   139.58652
   457  C   4.0    0.07    3.00    3.02    74.33105    70.65552   141.62237
   458  O   6.0   -0.42    1.00    1.80    73.88773    72.37985   143.11958
   459  C   4.0   -0.08    3.98    3.58    79.05288    71.05984   140.74450
   460  C   4.0   -0.14    3.98    3.58    79.40568    73.51778   142.23668
   461  C   4.0   -0.24    3.98    3.59    81.01248    70.79018   138.64833
   462  C   4.0   -0.23    3.98    3.58    82.02264    73.79983   143.41380
   463  H   1.0    0.28    1.00    1.43    75.46732    74.66779   138.80775
   464  H   1.0    0.10    0.99    1.43    76.26672    69.16457   138.39814
   465  H   1.0    0.11    0.99    1.43    79.26085    69.46048   142.03828
   466  H   1.0    0.11    0.99    1.43    79.03336    75.12999   141.00354
   467  H   1.0    0.13    0.99    1.43    78.00118    73.55216   143.74507
   468  H   1.0    0.09    0.99    1.43    82.89610    70.64471   139.44622
   469  H   1.0    0.09    0.99    1.43    80.61349    69.10495   137.54516
   470  H   1.0    0.09    0.99    1.43    80.94034    72.41202   137.38500
   471  H   1.0    0.10    0.99    1.43    82.00401    75.40132   144.70453
   472  H   1.0    0.13    0.99    1.43    82.49210    72.10470   144.46932
   473  H   1.0    0.10    0.99    1.43    83.44751    74.12627   141.97115
   474  N   5.0   -0.71    3.00    1.92    71.00219    64.62078   146.94024
   475  C   4.0    0.02    3.99    3.60    71.53195    62.28333   148.23777
   476  C   4.0    0.26    3.01    3.02    72.19464    62.66813   151.00993
   477  O   6.0   -0.44    1.00    1.80    72.23238    64.72354   152.05074
   478  H   1.0    0.29    1.00    1.43    69.89999    65.90578   147.82318
   479  H   1.0    0.12    0.99    1.43    69.87179    61.04991   148.12258
   480  H   1.0    0.11    0.99    1.43    73.11538    61.35188   147.27711
   481  N   5.0   -0.48    3.01    1.93    72.52278    60.46628   152.24870
   482  C   4.0    0.09    3.99    3.61    73.52991    60.43273   154.78562
   483  C   4.0    0.28    3.01    3.02    76.44245    60.38098   154.62528
   484  O   6.0   -0.40    1.00    1.80    77.52809    61.04688   152.70361
   485  C   4.0    0.03    3.98    3.58    72.42242    58.22244   156.31440
   486  O   6.0   -0.50    1.99    1.82    73.71418    55.98821   155.57124
   487  C   4.0   -0.21    3.98    3.59    69.57063    58.01088   155.93707
   488  H   1.0    0.24    1.00    1.43    72.85795    58.91928   151.18154
   489  H   1.0    0.12    0.99    1.43    72.97599    62.23990   155.63804
   490  H   1.0    0.09    0.99    1.43    72.78280    58.59793   158.32801
   491  H   1.0    0.24    0.99    1.43    72.80020    54.56948   156.27677
   492  H   1.0    0.10    0.99    1.43    68.77950    56.65866   157.26565
   493  H   1.0    0.11    0.99    1.43    68.68962    59.83657   156.25445
   494  H   1.0    0.12    0.99    1.43    69.14017    57.40853   154.02406
   495  N   5.0   -0.50    3.01    1.93    77.61255    59.60664   156.73252
   496  C   4.0    0.10    3.99    3.61    80.30304    59.26572   156.92178
   497  C   4.0    0.29    3.01    3.02    81.22970    56.75421   155.80331
   498  O   6.0   -0.42    1.00    1.80    83.49293    56.37421   155.55215
   499  C   4.0    0.03    3.98    3.59    81.06795    59.32752   159.72977
   500  O   6.0   -0.50    1.99    1.83    79.66867    57.39242   160.91549
   501  C   4.0   -0.19    3.98    3.59    80.52348    61.88261   160.94658
   502  H   1.0    0.25    1.00    1.43    76.63739    58.89543   158.21230
   503  H   1.0    0.13    0.99    1.43    81.28312    60.76116   155.87536
   504  H   1.0    0.12    0.99    1.43    83.10820    58.93090   159.81601
   505  H   1.0    0.25    0.99    1.43    80.14628    57.32042   162.67579
   506  H   1.0    0.11    0.99    1.43    81.16053    61.90561   162.89900
   507  H   1.0    0.12    0.99    1.43    81.50961    63.37880   159.95105
   508  H   1.0    0.13    0.99    1.43    78.51448    62.30373   160.90431
   509  N   5.0   -0.48    3.00    1.93    79.45628    55.03991   155.23585
   510  C   4.0    0.07    3.99    3.61    80.17855    52.60144   154.23079
   511  C   4.0    0.07    3.00    3.02    80.16251    52.55588   151.34830
   512  O   6.0   -0.42    1.00    1.80    81.84182    51.52816   150.14241
   513  C   4.0   -0.14    3.99    3.59    78.49304    50.46557   155.22492
   514  C   4.0   -0.10    3.98    3.58    79.38996    49.36071   157.75680
   515  C   4.0   -0.22    3.98    3.59    81.79537    47.80173   157.41108
   516  C   4.0   -0.21    3.98    3.59    79.81150    51.41858   159.73292
   517  H   1.0    0.28    1.00    1.43    77.59891    55.41940   155.52349
   518  H   1.0    0.15    0.99    1.43    82.14802    52.29018   154.78331
   519  H   1.0    0.11    0.99    1.43    76.56573    51.17864   155.39253
   520  H   1.0    0.11    0.99    1.43    78.46486    48.95951   153.81507
   521  H   1.0    0.10    0.99    1.43    77.89319    48.09533   158.42359
   522  H   1.0    0.10    0.99    1.43    82.32727    46.91346   159.18469
   523  H   1.0    0.11    0.99    1.43    81.51840    46.33769   155.99719
   524  H   1.0    0.11    0.99    1.43    83.35235    48.99626   156.79991
   525  H   1.0    0.10    0.99    1.43    80.25653    50.57310   161.55006
   526  H   1.0    0.13    0.99    1.43    81.38253    52.62799   159.19532
   527  H   1.0    0.12    0.99    1.43    78.15232    52.60757   159.94638
   528  N   5.0   -0.50    3.03    1.93    79.83910    56.87892   145.37336
   529  C   4.0    0.05    4.01    3.64    79.87646    59.26847   144.00926
   530  C   4.0    0.06    3.00    3.02    78.52390    58.83720   141.49211
   531  O   6.0   -0.39    1.00    1.80    79.01834    57.01399   140.15583
   532  C   4.0   -0.13    4.01    3.63    82.68359    59.86064   143.56882
   533  C   4.0   -0.13    4.01    3.64    84.07286    57.97929   145.26399
   534  C   4.0   -0.00    4.02    3.66    82.30956    55.69799   145.25053
   535  H   1.0    0.10    0.99    1.43    78.89858    60.71273   145.11833
   536  H   1.0    0.11    0.99    1.43    83.15686    59.52897   141.58931
   537  H   1.0    0.10    0.99    1.43    83.12629    61.80861   144.04526
   538  H   1.0    0.10    0.99    1.43    85.94703    57.53766   144.55674
   539  H   1.0    0.13    0.99    1.43    84.24458    58.74245   147.17307
   540  H   1.0    0.14    0.99    1.43    82.47743    54.67581   143.45451
   541  H   1.0    0.14    0.99    1.43    82.64556    54.43798   146.83976
   542  N   5.0   -0.68    3.00    1.93    77.55045    62.51395   135.09363
   543  C   4.0    0.06    3.98    3.59    78.62822    64.55812   133.63256
   544  C   4.0    0.07    3.00    3.02    77.31773    64.68039   131.06373
   545  O   6.0   -0.38    1.00    1.80    76.89845    62.77052   129.82330
   546  C   4.0   -0.09    3.98    3.59    81.48017    64.11953   133.18836
   547  C   4.0   -0.23    3.98    3.59    82.66234    66.42808   131.92538
   548  C   4.0   -0.23    3.98    3.59    82.83292    63.54454   135.66924
   549  H   1.0    0.29    1.00    1.43    77.81288    60.76725   134.37023
   550  H   1.0    0.10    0.99    1.43    78.30364    66.31278   134.67464
   551  H   1.0    0.13    0.99    1.43    81.66813    62.49839   131.91345
   552  H   1.0    0.11    0.99    1.43    84.67962    66.13638   131.65981
   553  H   1.0    0.11    0.99    1.43    81.82337    66.78450   130.08314
   554  H   1.0    0.09    0.99    1.43    82.38092    68.10566   133.07959
   555  H   1.0    0.11    0.99    1.43    84.81759    63.16794   135.30105
   556  H   1.0    0.09    0.99    1.43    82.68162    65.15077   136.94076
   557  H   1.0    0.11    0.99    1.43    82.02059    61.90580   136.60244
   558  H   1.0    0.29    1.00    1.43    76.42952    81.04299   141.75058
   559  H   1.0    0.14    1.00    1.43    72.94938    77.13173   146.94930
   560  H   1.0    0.30    1.00    1.43    73.76698    72.65287   149.69809
   561  H   1.0    0.12    1.00    1.43   103.02008    85.54078   135.90251
   562  H   1.0    0.28    1.00    1.43    99.02808    83.49507   156.45743
   563  H   1.0    0.14    1.00    1.43    78.81680    81.22001   156.17718
   564  H   1.0    0.30    1.00    1.43   102.47265    76.55104   132.61110
   565  H   1.0    0.13    1.00    1.43    98.37041    51.31757   168.67124
   566  H   1.0    0.29    1.00    1.43   104.53420    49.67897   161.68803
   567  H   1.0    0.12    1.00    1.43    96.54514    67.64227   131.31553
   568  H   1.0    0.28    1.00    1.43    77.16631    73.27892   136.94681
   569  H   1.0    0.13    1.00    1.43    73.29958    69.07961   141.77603
   570  H   1.0    0.30    1.00    1.43    72.46037    65.43552   146.62012
   571  H   1.0    0.14    1.00    1.43    78.75280    53.38106   150.39811
   572  H   1.0    0.28    1.00    1.43    79.02062    57.08114   146.85044
   573  H   1.0    0.12    1.00    1.43    77.20507    60.05757   140.90690
   574  H   1.0    0.28    1.00    1.43    78.24160    62.50090   136.64757
   575  H   1.0    0.12    1.00    1.43    76.77951    66.34787   130.35600

           ------------------------------------------------- 
          |        Self-Consistent Charge Iterations        |
           ------------------------------------------------- 

          ...................................................
          :                      SETUP                      :
          :.................................................:
          :  # basis functions                1430          :
          :  # atomic orbitals                1429          :
          :  # shells                          859          :
          :  # electrons                      1572          :
          :  max. iterations                   250          :
          :  Hamiltonian                  GFN2-xTB          :
          :  restarted?                      false          :
          :  GBSA solvation                   true          :
          :  PC potential                    false          :
          :  electronic temp.          500.0000000     K    :
          :  accuracy                    0.1000000          :
          :  -> integral cutoff          0.3500000E+02      :
          :  -> integral neglect         0.1000000E-08      :
          :  -> SCF convergence          0.1000000E-06 Eh   :
          :  -> wf. convergence          0.1000000E-04 e    :
          :  Broyden damping             0.4000000          :
          ...................................................

 iter      E             dE          RMSdq      gap      omega  full diag
   1   -897.7358157 -0.897736E+03  0.419E+00    1.92       0.0  T
   2   -899.8985245 -0.216271E+01  0.221E+00    1.42       1.0  T
   3   -899.9835419 -0.850174E-01  0.119E+00    1.66       1.0  T
   4   -900.0216833 -0.381414E-01  0.326E-01    1.02       1.0  T
   5   -900.0571121 -0.354288E-01  0.130E-01    1.14       1.0  T
   6   -900.0588122 -0.170014E-02  0.744E-02    1.14       1.0  T
   7   -900.0597078 -0.895600E-03  0.356E-02    1.11       1.0  T
   8   -900.0598504 -0.142590E-03  0.152E-02    1.10       1.0  T
   9   -900.0598797 -0.292969E-04  0.874E-03    1.09       1.0  T
  10   -900.0598906 -0.109593E-04  0.428E-03    1.08       1.0  T
  11   -900.0598931 -0.246258E-05  0.203E-03    1.08       2.1  T
  12   -900.0598938 -0.668156E-06  0.927E-04    1.08       4.5  T
  13   -900.0598939 -0.863990E-07  0.515E-04    1.08       8.1  T
  14   -900.0598939 -0.446612E-07  0.234E-04    1.08      17.8  T
  15   -900.0598939 -0.833859E-08  0.109E-04    1.08      38.1  T
  16   -900.0598939 -0.174452E-08  0.565E-05    1.08      73.8  T
  17   -900.0598939 -0.522846E-09  0.297E-05    1.08     140.4  T

   *** convergence criteria satisfied after 17 iterations ***

         #    Occupation            Energy/Eh            Energy/eV
      -------------------------------------------------------------
         1        2.0000           -0.7474221             -20.3384
       ...           ...                  ...                  ...
       780        2.0000           -0.3680165             -10.0142
       781        2.0000           -0.3663965              -9.9702
       782        2.0000           -0.3573193              -9.7232
       783        2.0000           -0.3568690              -9.7109
       784        2.0000           -0.3555537              -9.6751
       785        2.0000           -0.3514595              -9.5637
       786        2.0000           -0.3446581              -9.3786 (HOMO)
       787        0.0000           -0.3050743              -8.3015 (LUMO)
       788        0.0000           -0.3005075              -8.1772
       789                         -0.2976474              -8.0994
       790                         -0.2953409              -8.0366
       791                         -0.2917006              -7.9376
       ...                                ...                  ...
      1429                          0.7242124              19.7068
      -------------------------------------------------------------
                  HL-Gap            0.0395837 Eh            1.0771 eV
             Fermi-level           -0.3249057 Eh           -8.8411 eV

 SCC (total)                   0 d,  0 h,  0 min, 37.548 sec
 SCC setup                      ...        0 min,  0.476 sec (  1.267%)
 Dispersion                     ...        0 min,  0.342 sec (  0.910%)
 integral evaluation            ...        0 min,  1.241 sec (  3.306%)
 zeroth order Hamiltonian       ...        0 min,  0.021 sec (  0.055%)
 iterations                     ...        0 min, 27.772 sec ( 73.963%)
 molecular gradient             ...        0 min,  7.507 sec ( 19.994%)
 printout                       ...        0 min,  0.189 sec (  0.505%)

         :::::::::::::::::::::::::::::::::::::::::::::::::::::
         ::                     SUMMARY                     ::
         :::::::::::::::::::::::::::::::::::::::::::::::::::::
         :: total energy             -888.841826221532 Eh   ::
         :: total w/o Gsasa/hb       -888.744272214673 Eh   ::
         :: gradient norm               0.671116509924 Eh/α ::
         :: HOMO-LUMO gap               1.077128486364 eV   ::
         ::.................................................::
         :: SCC energy               -900.087126836913 Eh   ::
         :: -> isotropic ES             2.637815698368 Eh   ::
         :: -> anisotropic ES          -0.136871265741 Eh   ::
         :: -> anisotropic XC           0.300172022454 Eh   ::
         :: -> dispersion              -0.780222598087 Eh   ::
         :: -> Gsolv                   -0.721700329935 Eh   ::
         ::    -> Gborn                -0.624146323075 Eh   ::
         ::    -> Gsasa                -0.029090359267 Eh   ::
         ::    -> Ghb                  -0.070321090720 Eh   ::
         ::    -> Gshift                0.001857443127 Eh   ::
         :: repulsion energy           11.160641209029 Eh   ::
         :: add. restraining            0.000000000000 Eh   ::
         :::::::::::::::::::::::::::::::::::::::::::::::::::::

           -------------------------------------------------
          |                Property Printout                |
           -------------------------------------------------

    * Orbital Energies and Occupations

         #    Occupation            Energy/Eh            Energy/eV
      -------------------------------------------------------------
         1        2.0000           -0.7474221             -20.3384
       ...           ...                  ...                  ...
       774        2.0000           -0.3735355             -10.1644
       775        2.0000           -0.3734476             -10.1620
       776        2.0000           -0.3719722             -10.1219
       777        2.0000           -0.3703369             -10.0774
       778        2.0000           -0.3699376             -10.0665
       779        2.0000           -0.3683852             -10.0243
       780        2.0000           -0.3680165             -10.0142
       781        2.0000           -0.3663965              -9.9702
       782        2.0000           -0.3573193              -9.7232
       783        2.0000           -0.3568690              -9.7109
       784        2.0000           -0.3555537              -9.6751
       785        2.0000           -0.3514595              -9.5637
       786        2.0000           -0.3446581              -9.3786 (HOMO)
       787        0.0000           -0.3050743              -8.3015 (LUMO)
       788        0.0000           -0.3005075              -8.1772
       789                         -0.2976474              -8.0994
       790                         -0.2953409              -8.0366
       791                         -0.2917006              -7.9376
       792                         -0.2874833              -7.8228
       793                         -0.2866571              -7.8003
       794                         -0.2861768              -7.7873
       795                         -0.2814294              -7.6581
       796                         -0.2597789              -7.0689
       797                         -0.2517964              -6.8517
       ...                                ...                  ...
      1429                          0.7242124              19.7068
      -------------------------------------------------------------
                  HL-Gap            0.0395837 Eh            1.0771 eV
             Fermi-level           -0.3249057 Eh           -8.8411 eV

   #   Z        covCN         q      C6AA      α(0)
   1   7 N      2.635    -0.384    29.928     8.125
   2   6 C      3.782     0.037    19.973     6.366
   3   6 C      2.765     0.205    23.643     7.963
   4   8 O      0.856    -0.370    21.096     6.158
   5   6 C      3.811    -0.074    21.909     6.663
   6   6 C      3.184     0.058    26.279     8.366
   7   7 N      1.920    -0.303    28.704     7.944
   8   6 C      3.033    -0.028    28.665     8.782
   9   6 C      3.136     0.093    25.716     8.300
  10   7 N      2.810    -0.086    22.922     7.111
  11   1 H      0.860     0.164     1.310     1.793
  12   1 H      0.924     0.061     2.183     2.311
  13   1 H      0.924     0.074     2.041     2.234
  14   1 H      0.924     0.067     2.114     2.274
  15   1 H      0.927     0.034     2.525     2.485
  16   1 H      0.926     0.027     2.628     2.535
  17   1 H      0.860     0.162     1.322     1.801
  18   7 N      2.634    -0.377    29.754     8.101
  19   6 C      3.734    -0.008    20.814     6.511
  20   6 C      2.754     0.271    22.430     7.755
  21   8 O      0.858    -0.495    23.682     6.525
  22   1 H      0.860     0.159     1.343     1.815
  23   1 H      0.924     0.083     1.952     2.185
  24   1 H      0.923     0.028     2.618     2.530
  25   7 N      2.687    -0.181    24.919     7.414
  26   6 C      3.794     0.019    20.266     6.411
  27   6 C      2.755     0.270    22.440     7.757
  28   8 O      0.858    -0.460    22.920     6.419
  29   6 C      3.756    -0.130    23.045     6.845
  30   1 H      0.860     0.199     1.111     1.651
  31   1 H      0.923     0.084     1.937     2.176
  32   1 H      0.925     0.082     1.955     2.186
  33   1 H      0.925     0.078     1.999     2.211
  34   1 H      0.925     0.060     2.201     2.320
  35   7 N      2.690    -0.182    24.936     7.417
  36   6 C      3.800     0.027    20.130     6.388
  37   6 C      2.759     0.273    22.384     7.748
  38   8 O      0.858    -0.475    23.248     6.464
  39   6 C      3.812    -0.049    21.449     6.592
  40   6 C      2.968     0.004    27.930     8.669
  41   6 C      2.930    -0.032    28.800     8.801
  42   6 C      2.932    -0.025    28.637     8.776
  43   6 C      2.918    -0.058    29.435     8.897
  44   6 C      2.917    -0.061    29.523     8.910
  45   6 C      2.852     0.150    24.737     8.152
  46   8 O      1.660    -0.396    20.779     6.154
  47   1 H      0.860     0.202     1.098     1.641
  48   1 H      0.924     0.069     2.097     2.265
  49   1 H      0.924     0.031     2.575     2.509
  50   1 H      0.924     0.033     2.542     2.493
  51   1 H      0.926     0.011     2.882     2.655
  52   1 H      0.926     0.016     2.792     2.613
  53   1 H      0.926     0.058     2.221     2.331
  54   1 H      0.926     0.039     2.459     2.452
  55   1 H      0.805     0.329     0.639     1.256
  56   7 N      2.693    -0.170    24.683     7.379
  57   6 C      3.802     0.018    20.276     6.411
  58   6 C      2.757     0.272    22.408     7.752
  59   8 O      0.858    -0.510    23.998     6.568
  60   6 C      3.852    -0.004    20.611     6.457
  61   6 C      3.756    -0.116    22.776     6.805
  62   6 C      3.755    -0.109    22.649     6.786
  63   1 H      0.860     0.194     1.136     1.670
  64   1 H      0.924     0.090     1.882     2.146
  65   1 H      0.924     0.025     2.653     2.547
  66   1 H      0.925     0.049     2.338     2.391
  67   1 H      0.925     0.054     2.274     2.358
  68   1 H      0.925     0.044     2.397     2.421
  69   1 H      0.925     0.049     2.329     2.387
  70   1 H      0.925     0.046     2.368     2.407
  71   1 H      0.925     0.038     2.470     2.458
  72   7 N      2.693    -0.172    24.726     7.385
  73   6 C      3.795     0.029    20.097     6.384
  74   6 C      2.760     0.269    22.461     7.761
  75   8 O      0.858    -0.503    23.856     6.548
  76   6 C      3.755    -0.118    22.825     6.812
  77   1 H      0.860     0.213     1.041     1.598
  78   1 H      0.924     0.071     2.072     2.251
  79   1 H      0.925     0.085     1.928     2.171
  80   1 H      0.925     0.046     2.376     2.410
  81   1 H      0.925     0.058     2.227     2.334
  82   7 N      2.691    -0.171    24.711     7.383
  83   6 C      3.801     0.011    20.385     6.428
  84   6 C      2.760     0.263    22.557     7.778
  85   8 O      0.858    -0.456    22.830     6.406
  86   6 C      3.807    -0.074    21.914     6.664
  87   6 C      3.809    -0.095    22.313     6.724
  88   6 C      2.744     0.284    22.182     7.712
  89   8 O      0.859    -0.465    23.017     6.432
  90   7 N      2.640    -0.263    26.819     7.691
  91   1 H      0.860     0.248     0.890     1.478
  92   1 H      0.924     0.061     2.183     2.311
  93   1 H      0.925     0.096     1.818     2.109
  94   1 H      0.924     0.084     1.936     2.176
  95   1 H      0.924     0.059     2.212     2.326
  96   1 H      0.924     0.058     2.224     2.332
  97   1 H      0.860     0.196     1.124     1.661
  98   1 H      0.860     0.253     0.870     1.461
  99   7 N      2.693    -0.155    24.361     7.331
 100   6 C      3.796     0.007    20.471     6.443
 101   6 C      2.759     0.271    22.426     7.755
 102   8 O      0.858    -0.497    23.718     6.530
 103   6 C      3.814    -0.076    21.936     6.666
 104   6 C      2.965     0.004    27.940     8.670
 105   6 C      2.923    -0.045    29.124     8.850
 106   6 C      2.929    -0.043    29.073     8.843
 107   6 C      2.918    -0.077    29.914     8.969
 108   6 C      2.917    -0.057    29.428     8.896
 109   6 C      2.846     0.142    24.910     8.180
 110   8 O      1.659    -0.423    21.290     6.229
 111   1 H      0.860     0.202     1.095     1.639
 112   1 H      0.924     0.106     1.735     2.060
 113   1 H      0.924     0.059     2.213     2.326
 114   1 H      0.924     0.072     2.064     2.247
 115   1 H      0.926     0.052     2.297     2.370
 116   1 H      0.926     0.048     2.351     2.398
 117   1 H      0.925     0.030     2.584     2.514
 118   1 H      0.926     0.049     2.335     2.390
 119   1 H      0.805     0.315     0.678     1.293
 120   7 N      2.697    -0.169    24.649     7.374
 121   6 C      3.791     0.029    20.104     6.386
 122   6 C      2.771     0.195    23.847     7.998
 123   8 O      0.856    -0.351    20.718     6.103
 124   6 C      3.813    -0.073    21.883     6.658
 125   6 C      2.971    -0.001    28.053     8.688
 126   6 C      2.922    -0.049    29.223     8.865
 127   6 C      2.926    -0.039    28.971     8.827
 128   6 C      2.917    -0.092    30.298     9.026
 129   6 C      2.918    -0.060    29.480     8.904
 130   6 C      2.846     0.145    24.850     8.170
 131   8 O      1.659    -0.431    21.451     6.252
 132   1 H      0.860     0.243     0.912     1.496
 133   1 H      0.924     0.074     2.041     2.234
 134   1 H      0.925     0.078     2.002     2.213
 135   1 H      0.925     0.064     2.148     2.292
 136   1 H      0.926     0.067     2.121     2.278
 137   1 H      0.926     0.031     2.573     2.508
 138   1 H      0.926     0.073     2.050     2.239
 139   1 H      0.926     0.039     2.467     2.456
 140   1 H      0.804     0.343     0.604     1.221
 141   7 N      2.635    -0.392    30.147     8.155
 142   6 C      3.790     0.046    19.809     6.339
 143   6 C      2.758     0.281    22.236     7.722
 144   8 O      0.858    -0.509    23.990     6.567
 145   6 C      3.804    -0.089    22.197     6.707
 146   6 C      2.683     0.377    20.607     7.429
 147   8 O      0.856    -0.662    27.699     7.056
 148   8 O      0.856    -0.633    26.945     6.960
 149   1 H      0.860     0.163     1.316     1.797
 150   1 H      0.924     0.043     2.403     2.424
 151   1 H      0.924    -0.006     3.167     2.783
 152   1 H      0.924     0.022     2.699     2.569
 153   7 N      2.693    -0.186    25.030     7.430
 154   6 C      3.796     0.028    20.109     6.385
 155   6 C      2.756     0.275    22.358     7.743
 156   8 O      0.858    -0.492    23.599     6.513
 157   6 C      3.811    -0.069    21.808     6.647
 158   6 C      3.849    -0.004    20.618     6.459
 159   6 C      3.758    -0.118    22.802     6.808
 160   6 C      3.756    -0.118    22.820     6.811
 161   1 H      0.860     0.212     1.045     1.601
 162   1 H      0.924     0.060     2.203     2.321
 163   1 H      0.924     0.047     2.361     2.403
 164   1 H      0.924     0.052     2.293     2.368
 165   1 H      0.924     0.027     2.627     2.535
 166   1 H      0.925     0.055     2.257     2.350
 167   1 H      0.925     0.040     2.450     2.448
 168   1 H      0.925     0.048     2.343     2.394
 169   1 H      0.925     0.049     2.329     2.387
 170   1 H      0.925     0.041     2.436     2.441
 171   1 H      0.925     0.036     2.502     2.473
 172   7 N      2.694    -0.157    24.390     7.335
 173   6 C      3.788     0.025    20.164     6.396
 174   6 C      2.769     0.198    23.780     7.986
 175   8 O      0.856    -0.336    20.449     6.063
 176   6 C      3.727     0.121    18.697     6.173
 177   8 O      1.656    -0.485    22.570     6.413
 178   6 C      3.752    -0.142    23.295     6.883
 179   1 H      0.860     0.214     1.039     1.597
 180   1 H      0.924     0.089     1.887     2.148
 181   1 H      0.923     0.035     2.512     2.479
 182   1 H      0.805     0.345     0.601     1.217
 183   1 H      0.925     0.076     2.020     2.223
 184   1 H      0.925     0.061     2.189     2.314
 185   1 H      0.925     0.062     2.181     2.310
 186   7 N      2.640    -0.406    30.535     8.207
 187   6 C      3.785     0.023    20.202     6.402
 188   6 C      2.754     0.272    22.394     7.749
 189   8 O      0.858    -0.484    23.432     6.490
 190   6 C      3.806    -0.078    21.981     6.674
 191   6 C      3.801    -0.079    22.007     6.679
 192   6 C      3.804    -0.099    22.388     6.736
 193   6 C      3.731    -0.068    21.901     6.680
 194   7 N      3.482    -0.141    24.042     7.282
 195   1 H      0.860     0.167     1.293     1.781
 196   1 H      0.924     0.041     2.437     2.441
 197   1 H      0.924     0.048     2.343     2.394
 198   1 H      0.924     0.048     2.350     2.397
 199   1 H      0.924     0.048     2.342     2.393
 200   1 H      0.924     0.058     2.222     2.331
 201   1 H      0.924     0.084     1.940     2.178
 202   1 H      0.924     0.074     2.044     2.236
 203   1 H      0.924     0.123     1.586     1.970
 204   1 H      0.924     0.133     1.512     1.923
 205   1 H      0.859     0.297     0.721     1.331
 206   1 H      0.859     0.302     0.706     1.317
 207   1 H      0.859     0.290     0.744     1.351
 208   7 N      2.697    -0.178    24.859     7.405
 209   6 C      3.798     0.006    20.486     6.445
 210   6 C      2.763     0.267    22.493     7.767
 211   8 O      0.858    -0.485    23.460     6.494
 212   6 C      3.852    -0.024    20.963     6.512
 213   6 C      3.803    -0.066    21.766     6.642
 214   6 C      3.755    -0.112    22.694     6.793
 215   6 C      3.751    -0.109    22.647     6.787
 216   1 H      0.860     0.229     0.968     1.541
 217   1 H      0.924     0.081     1.967     2.193
 218   1 H      0.924     0.058     2.227     2.334
 219   1 H      0.924     0.040     2.448     2.447
 220   1 H      0.924     0.045     2.386     2.416
 221   1 H      0.925     0.047     2.352     2.398
 222   1 H      0.925     0.032     2.562     2.503
 223   1 H      0.925     0.034     2.536     2.490
 224   1 H      0.925     0.038     2.471     2.458
 225   1 H      0.925     0.038     2.475     2.460
 226   1 H      0.925     0.036     2.503     2.474
 227   7 N      2.692    -0.160    24.454     7.344
 228   6 C      3.797     0.003    20.536     6.453
 229   6 C      2.757     0.271    22.428     7.755
 230   8 O      0.858    -0.482    23.387     6.484
 231   6 C      3.807    -0.091    22.235     6.713
 232   6 C      3.800    -0.093    22.265     6.718
 233   6 C      3.744    -0.051    21.553     6.623
 234   7 N      2.699    -0.137    23.967     7.271
 235   6 C      2.739     0.210    23.545     7.945
 236   7 N      2.648    -0.257    26.677     7.671
 237   7 N      2.653    -0.242    26.314     7.619
 238   1 H      0.860     0.237     0.935     1.515
 239   1 H      0.924     0.087     1.906     2.159
 240   1 H      0.925     0.068     2.106     2.269
 241   1 H      0.924     0.099     1.798     2.097
 242   1 H      0.925     0.088     1.898     2.155
 243   1 H      0.924     0.051     2.305     2.374
 244   1 H      0.924     0.079     1.988     2.205
 245   1 H      0.924     0.121     1.605     1.981
 246   1 H      0.860     0.220     1.009     1.573
 247   1 H      0.860     0.251     0.881     1.471
 248   1 H      0.860     0.253     0.871     1.462
 249   1 H      0.860     0.244     0.906     1.491
 250   1 H      0.860     0.260     0.847     1.441
 251   7 N      2.691    -0.178    24.855     7.404
 252   6 C      3.798     0.029    20.096     6.383
 253   6 C      2.765     0.276    22.337     7.740
 254   8 O      0.858    -0.470    23.131     6.448
 255   6 C      3.809    -0.049    21.448     6.592
 256   6 C      3.797    -0.084    22.100     6.694
 257   6 C      2.683     0.368    20.755     7.455
 258   8 O      0.856    -0.612    26.421     6.892
 259   8 O      0.856    -0.639    27.103     6.980
 260   1 H      0.860     0.235     0.943     1.521
 261   1 H      0.924     0.059     2.206     2.323
 262   1 H      0.924     0.054     2.267     2.355
 263   1 H      0.924     0.043     2.404     2.425
 264   1 H      0.924    -0.011     3.249     2.819
 265   1 H      0.924     0.012     2.854     2.642
 266   7 N      2.692    -0.191    25.151     7.448
 267   6 C      3.835     0.031    20.034     6.368
 268   6 C      2.759     0.279    22.275     7.729
 269   8 O      0.858    -0.489    23.540     6.505
 270   6 C      3.799    -0.008    20.729     6.483
 271  16 S      1.924    -0.311   154.567    20.925
 272   1 H      0.860     0.208     1.068     1.619
 273   1 H      0.924     0.096     1.821     2.110
 274   1 H      0.925     0.077     2.012     2.218
 275   1 H      0.925     0.044     2.393     2.419
 276   1 H      0.923     0.198     1.107     1.646
 277   7 N      2.695    -0.196    25.263     7.465
 278   6 C      3.799     0.028    20.110     6.385
 279   6 C      2.761     0.274    22.360     7.744
 280   8 O      0.858    -0.483    23.402     6.486
 281   6 C      3.729     0.124    18.648     6.165
 282   8 O      1.652    -0.472    22.303     6.375
 283   6 C      3.753    -0.133    23.114     6.856
 284   1 H      0.860     0.217     1.025     1.586
 285   1 H      0.923     0.048     2.341     2.393
 286   1 H      0.923     0.021     2.717     2.578
 287   1 H      0.802     0.329     0.640     1.257
 288   1 H      0.925     0.065     2.145     2.290
 289   1 H      0.925     0.049     2.333     2.388
 290   1 H      0.925     0.068     2.112     2.272
 291   7 N      2.690    -0.165    24.566     7.361
 292   6 C      3.747    -0.027    21.129     6.556
 293   6 C      2.750     0.284    22.185     7.713
 294   8 O      0.858    -0.485    23.460     6.494
 295   1 H      0.860     0.203     1.091     1.636
 296   1 H      0.924     0.088     1.903     2.157
 297   1 H      0.924     0.083     1.952     2.185
 298   7 N      2.690    -0.162    24.510     7.353
 299   6 C      3.786     0.028    20.125     6.390
 300   6 C      2.764     0.203    23.682     7.970
 301   8 O      0.856    -0.370    21.082     6.156
 302   6 C      3.806    -0.060    21.656     6.625
 303   6 C      3.849    -0.009    20.710     6.473
 304   6 C      3.756    -0.119    22.841     6.814
 305   6 C      3.754    -0.116    22.781     6.806
 306   1 H      0.860     0.211     1.052     1.607
 307   1 H      0.924     0.102     1.771     2.081
 308   1 H      0.925     0.046     2.366     2.405
 309   1 H      0.925     0.070     2.089     2.260
 310   1 H      0.924     0.039     2.459     2.452
 311   1 H      0.925     0.054     2.270     2.356
 312   1 H      0.925     0.039     2.456     2.451
 313   1 H      0.925     0.042     2.420     2.432
 314   1 H      0.925     0.050     2.320     2.382
 315   1 H      0.925     0.045     2.383     2.414
 316   1 H      0.925     0.026     2.645     2.543
 317   7 N      2.636    -0.424    31.039     8.274
 318   6 C      3.783     0.039    19.934     6.360
 319   6 C      2.751     0.276    22.326     7.737
 320   8 O      0.858    -0.464    22.993     6.429
 321   6 C      3.803    -0.056    21.581     6.614
 322   6 C      3.798    -0.096    22.328     6.728
 323   6 C      2.685     0.369    20.752     7.455
 324   8 O      0.856    -0.607    26.293     6.875
 325   8 O      0.856    -0.605    26.245     6.869
 326   1 H      0.859     0.181     1.208     1.722
 327   1 H      0.923     0.038     2.470     2.458
 328   1 H      0.924     0.011     2.880     2.654
 329   1 H      0.924     0.044     2.401     2.423
 330   1 H      0.925     0.038     2.482     2.464
 331   1 H      0.924     0.033     2.538     2.491
 332   7 N      2.690    -0.208    25.534     7.505
 333   6 C      3.797     0.030    20.075     6.380
 334   6 C      2.754     0.272    22.410     7.752
 335   8 O      0.858    -0.515    24.117     6.584
 336   6 C      3.806    -0.078    21.982     6.674
 337   6 C      3.055    -0.035    28.806     8.802
 338   6 C      3.031    -0.014    28.331     8.731
 339   6 C      3.121    -0.020    28.326     8.716
 340   7 N      2.778    -0.107    23.334     7.174
 341   6 C      3.083     0.042    26.963     8.512
 342   6 C      2.909    -0.038    28.945     8.822
 343   6 C      2.908    -0.059    29.457     8.900
 344   6 C      2.921    -0.045    29.115     8.848
 345   6 C      2.923    -0.042    29.037     8.837
 346   1 H      0.860     0.189     1.166     1.691
 347   1 H      0.924     0.048     2.350     2.397
 348   1 H      0.925     0.071     2.077     2.254
 349   1 H      0.925     0.072     2.063     2.246
 350   1 H      0.926     0.059     2.216     2.328
 351   1 H      0.860     0.196     1.128     1.664
 352   1 H      0.925     0.025     2.654     2.548
 353   1 H      0.926     0.029     2.597     2.520
 354   1 H      0.926     0.012     2.851     2.640
 355   1 H      0.925     0.022     2.709     2.574
 356   7 N      2.695    -0.151    24.274     7.317
 357   6 C      3.795     0.003    20.535     6.453
 358   6 C      2.756     0.270    22.443     7.758
 359   8 O      0.857    -0.468    23.093     6.443
 360   6 C      3.810    -0.087    22.149     6.699
 361   6 C      3.055    -0.039    28.906     8.817
 362   6 C      3.033    -0.014    28.330     8.730
 363   6 C      3.115    -0.024    28.434     8.735
 364   7 N      2.778    -0.090    22.999     7.123
 365   6 C      3.087     0.041    26.979     8.514
 366   6 C      2.910    -0.041    29.012     8.832
 367   6 C      2.907    -0.054    29.330     8.880
 368   6 C      2.918    -0.047    29.172     8.857
 369   6 C      2.923    -0.040    28.986     8.829
 370   1 H      0.860     0.224     0.992     1.560
 371   1 H      0.924     0.085     1.926     2.170
 372   1 H      0.924     0.090     1.883     2.146
 373   1 H      0.924     0.084     1.937     2.177
 374   1 H      0.926     0.080     1.982     2.201
 375   1 H      0.860     0.210     1.055     1.609
 376   1 H      0.926     0.026     2.638     2.540
 377   1 H      0.926     0.043     2.412     2.429
 378   1 H      0.925    -0.003     3.111     2.758
 379   1 H      0.925    -0.004     3.124     2.764
 380   7 N      2.697    -0.179    24.885     7.409
 381   6 C      3.789     0.010    20.422     6.436
 382   6 C      2.769     0.265    22.526     7.773
 383   8 O      0.859    -0.486    23.480     6.497
 384   6 C      3.806    -0.073    21.893     6.661
 385   6 C      3.801    -0.087    22.157     6.702
 386   6 C      3.738    -0.024    21.082     6.552
 387   7 N      2.699    -0.143    24.106     7.292
 388   6 C      2.735     0.238    23.018     7.855
 389   7 N      2.653    -0.264    26.833     7.693
 390   7 N      2.650    -0.246    26.424     7.634
 391   1 H      0.860     0.212     1.049     1.604
 392   1 H      0.924     0.091     1.868     2.137
 393   1 H      0.924     0.048     2.340     2.392
 394   1 H      0.924     0.050     2.319     2.381
 395   1 H      0.925     0.077     2.011     2.218
 396   1 H      0.924     0.078     1.997     2.210
 397   1 H      0.924     0.079     1.991     2.207
 398   1 H      0.924     0.092     1.864     2.135
 399   1 H      0.860     0.207     1.072     1.622
 400   1 H      0.860     0.195     1.131     1.666
 401   1 H      0.858     0.254     0.869     1.460
 402   1 H      0.860     0.259     0.850     1.444
 403   1 H      0.860     0.236     0.938     1.517
 404   7 N      2.690    -0.140    24.038     7.282
 405   6 C      3.806     0.003    20.521     6.449
 406   6 C      2.758     0.271    22.420     7.754
 407   8 O      0.858    -0.494    23.650     6.520
 408   6 C      3.726     0.110    18.873     6.203
 409   8 O      1.656    -0.462    22.091     6.345
 410   6 C      3.753    -0.141    23.268     6.879
 411   1 H      0.860     0.229     0.970     1.543
 412   1 H      0.924     0.095     1.834     2.118
 413   1 H      0.923     0.030     2.589     2.516
[...]
   238  H   0.943        N  227 0.889
   239  H   0.992        C  228 0.941
   240  H   0.995        C  231 0.968
   241  H   0.990        C  231 0.964
   242  H   0.992        C  232 0.969
   243  H   0.997        C  232 0.967
   244  H   0.994        C  233 0.949
   245  H   0.985        C  233 0.952
   246  H   0.952        N  234 0.904
   247  H   0.937        N  236 0.911
   248  H   0.936        N  236 0.915
   249  H   0.940        N  237 0.894
   250  H   0.932        N  237 0.912
   251  N   3.470        C  229 1.299    C  252 0.995    H  260 0.889    O  230 0.193
   252  C   3.977        N  251 0.995    C  255 0.963    H  261 0.951    C  253 0.941
   253  C   3.944        O  254 1.619    N  266 1.290    C  252 0.941
   254  O   1.960        C  253 1.619    N  266 0.187
   255  C   3.992        C  256 1.002    H  263 0.975    H  262 0.970    C  252 0.963
   256  C   3.988        C  255 1.002    H  264 0.976    H  265 0.970    C  257 0.906
   257  C   3.934        O  258 1.540    O  259 1.460    C  256 0.906
   258  O   1.834        C  257 1.540    O  259 0.214
   259  O   1.813        C  257 1.460    O  258 0.214
   260  H   0.944        N  251 0.889
   261  H   0.996        C  252 0.951
   262  H   0.996        C  255 0.970
   263  H   0.998        C  255 0.975
   264  H   1.000        C  256 0.976
   265  H   1.000        C  256 0.970
   266  N   3.458        C  253 1.290    C  267 0.970    H  272 0.897    O  254 0.187
   267  C   3.962        C  270 1.002    N  266 0.970    H  273 0.935    C  268 0.923
   268  C   3.938        O  269 1.654    N  277 1.278    C  267 0.923
   269  O   1.972        C  268 1.654    N  277 0.196
   270  C   3.976        C  267 1.002    S  271 0.994    H  275 0.964    H  274 0.956
   271  S   1.988        C  270 0.994    H  276 0.913
   272  H   0.957        N  266 0.897
   273  H   0.990        C  267 0.935
   274  H   0.993        C  270 0.956
   275  H   0.998        C  270 0.964
   276  H   0.960        S  271 0.913
   277  N   3.455        C  268 1.278    C  278 0.988    H  284 0.908    O  269 0.196
   278  C   3.968        N  277 0.988    H  285 0.952    C  281 0.943    C  279 0.941
   279  C   3.952        O  280 1.636    N  291 1.294    C  278 0.941
   280  O   1.956        C  279 1.636    N  291 0.195
   281  C   3.963        O  282 1.008    C  283 1.001    H  286 0.961    C  278 0.943
   282  O   1.961        C  281 1.008    H  287 0.823
   283  C   3.989        C  281 1.001    H  288 0.983    H  290 0.978    H  289 0.978
   284  H   0.953        N  277 0.908
   285  H   0.998        C  278 0.952
   286  H   0.999        C  281 0.961
   287  H   0.892        O  282 0.823
   288  H   0.995        C  283 0.983
   289  H   0.998        C  283 0.978
   290  H   0.995        C  283 0.978
   291  N   3.472        C  279 1.294    C  292 0.990    H  295 0.921    O  280 0.195
   292  C   3.960        N  291 0.990    H  297 0.964    H  296 0.959    C  293 0.933
   293  C   3.951        O  294 1.646    N  298 1.302    C  292 0.933
   294  O   1.966        C  293 1.646    N  298 0.198
   295  H   0.959        N  291 0.921
   296  H   0.992        C  292 0.959
   297  H   0.993        C  292 0.964
   298  N   3.474        C  293 1.302    C  299 0.980    H  306 0.926    O  294 0.198
   299  C   3.963        N  298 0.980    C  300 0.979    C  302 0.964    H  307 0.923
   300  C   3.901        O  301 1.895    C  299 0.979    H  565 0.951
   301  O   2.045        C  300 1.895
   302  C   3.980        C  303 0.990    H  308 0.968    C  299 0.964    H  309 0.960
   303  C   3.994        C  304 1.010    C  305 1.010    C  302 0.990    H  310 0.966
   304  C   3.995        C  303 1.010    H  312 0.987    H  311 0.985    H  313 0.984
   305  C   3.995        C  303 1.010    H  314 0.985    H  316 0.983    H  315 0.982
   306  H   0.955        N  298 0.926
   307  H   0.989        C  299 0.923
   308  H   0.998        C  302 0.968
   309  H   0.995        C  302 0.960
   310  H   0.997        C  303 0.966
   311  H   0.997        C  304 0.985
   312  H   0.998        C  304 0.987
   313  H   0.998        C  304 0.984
   314  H   0.997        C  305 0.985
   315  H   0.998        C  305 0.982
   316  H   0.999        C  305 0.983
   317  N   2.990        C  318 1.031    H  566 0.959    H  326 0.889
   318  C   3.988        N  317 1.031    C  321 0.976    H  327 0.953    C  319 0.930
   319  C   3.936        O  320 1.696    N  332 1.236    C  318 0.930
   320  O   1.994        C  319 1.696    N  332 0.181
   321  C   3.997        C  322 0.993    H  328 0.978    C  318 0.976    H  329 0.972
   322  C   3.993        C  321 0.993    H  330 0.979    H  331 0.969    C  323 0.929
   323  C   3.928        O  324 1.496    O  325 1.473    C  322 0.929
   324  O   1.884        C  323 1.496    O  325 0.201
   325  O   1.862        C  323 1.473    O  324 0.201
   326  H   0.967        N  317 0.889
   327  H   0.998        C  318 0.953
   328  H   1.000        C  321 0.978
   329  H   0.998        C  321 0.972
   330  H   0.998        C  322 0.979
   331  H   0.999        C  322 0.969
   332  N   3.391        C  319 1.236    C  333 0.963    H  346 0.922    O  320 0.181
   333  C   3.958        N  332 0.963    H  347 0.961    C  334 0.952    C  336 0.951
   334  C   3.947        O  335 1.583    N  356 1.328    C  333 0.952
   335  O   1.946        C  334 1.583    N  356 0.191
   336  C   3.984        C  337 1.017    H  348 0.965    H  349 0.965    C  333 0.951
   337  C   3.974        C  338 1.577    C  339 1.206    C  336 1.017
   338  C   3.948        C  337 1.577    N  340 1.202    H  350 0.964
   339  C   3.985        C  342 1.331    C  341 1.248    C  337 1.206
   340  N   3.548        C  338 1.202    C  341 1.187    H  351 0.934
   341  C   3.965        C  343 1.335    C  339 1.248    N  340 1.187
   342  C   3.992        C  344 1.505    C  339 1.331    H  352 0.967    C  343 0.114
   343  C   3.989        C  345 1.495    C  341 1.335    H  353 0.968    C  342 0.114
   344  C   3.990        C  342 1.505    C  345 1.370    H  354 0.972
   345  C   3.991        C  343 1.495    C  344 1.370    H  355 0.972
   346  H   0.964        N  332 0.922
   347  H   0.997        C  333 0.961
   348  H   0.995        C  336 0.965
   349  H   0.994        C  336 0.965
   350  H   0.996        C  338 0.964
   351  H   0.961        N  340 0.934
   352  H   0.999        C  342 0.967
   353  H   0.999        C  343 0.968
   354  H   0.999        C  344 0.972
   355  H   0.999        C  345 0.972
   356  N   3.493        C  334 1.328    C  357 0.983    H  370 0.911    O  335 0.191
   357  C   3.951        N  356 0.983    C  360 0.944    H  371 0.941    C  358 0.932
   358  C   3.947        O  359 1.669    N  380 1.264    C  357 0.932
   359  O   1.978        C  358 1.669    N  380 0.188
   360  C   3.977        C  361 1.017    H  372 0.967    H  373 0.950    C  357 0.944
   361  C   3.970        C  362 1.568    C  363 1.207    C  360 1.017
   362  C   3.948        C  361 1.568    N  364 1.215    H  374 0.964
   363  C   3.983        C  366 1.329    C  365 1.241    C  361 1.207
   364  N   3.564        C  362 1.215    C  365 1.196    H  375 0.928
   365  C   3.968        C  367 1.335    C  363 1.241    N  364 1.196
   366  C   3.990        C  368 1.497    C  363 1.329    H  376 0.964    C  367 0.111
   367  C   3.988        C  369 1.492    C  365 1.335    H  377 0.967    C  366 0.111
   368  C   3.990        C  366 1.497    C  369 1.359    H  378 0.969
   369  C   3.990        C  367 1.492    C  368 1.359    H  379 0.969
   370  H   0.950        N  356 0.911
   371  H   0.993        C  357 0.941
   372  H   0.991        C  360 0.967
   373  H   0.992        C  360 0.950
   374  H   0.993        C  362 0.964
   375  H   0.955        N  364 0.928
   376  H   0.999        C  366 0.964
   377  H   0.998        C  367 0.967
   378  H   1.000        C  368 0.969
   379  H   1.000        C  369 0.969
   380  N   3.423        C  358 1.264    C  381 0.976    H  391 0.908    O  359 0.188
   381  C   3.964        N  380 0.976    C  384 0.970    H  392 0.957    C  382 0.944
   382  C   3.952        O  383 1.597    N  404 1.330    C  381 0.944
   383  O   1.966        C  382 1.597    N  404 0.197
   384  C   3.990        C  385 1.008    H  394 0.973    H  393 0.971    C  381 0.970
   385  C   3.988        C  384 1.008    C  386 0.993    H  396 0.972    H  395 0.971
   386  C   3.946        C  385 0.993    N  387 0.978    H  397 0.970    H  398 0.959
   387  N   3.460        C  388 1.301    C  386 0.978    H  399 0.925    N  389 0.106
   388  C   3.975        N  389 1.337    N  390 1.305    N  387 1.301
   389  N   3.404        C  388 1.337    H  400 0.937    H  401 0.837    N  387 0.106    N  390 0.103
   390  N   3.376        C  388 1.305    H  403 0.923    H  402 0.908    N  389 0.103
   391  H   0.955        N  380 0.908
   392  H   0.992        C  381 0.957
   393  H   0.997        C  384 0.971
   394  H   0.997        C  384 0.973
   395  H   0.994        C  385 0.971
   396  H   0.994        C  385 0.972
   397  H   0.993        C  386 0.970
   398  H   0.991        C  386 0.959
   399  H   0.957        N  387 0.925
   400  H   0.962        N  389 0.937
   401  H   0.935        N  389 0.837
   402  H   0.933        N  390 0.908
   403  H   0.944        N  390 0.923
   404  N   3.500        C  382 1.330    C  405 0.976    H  411 0.917    O  383 0.197
   405  C   3.958        N  404 0.976    C  408 0.969    H  412 0.946    C  406 0.924
   406  C   3.946        O  407 1.637    N  418 1.306    C  405 0.924
   407  O   1.957        C  406 1.637    N  418 0.202
   408  C   3.965        O  409 1.004    C  410 0.997    C  405 0.969    H  413 0.958
   409  O   1.936        C  408 1.004    H  414 0.857
   410  C   3.988        C  408 0.997    H  416 0.984    H  417 0.982    H  415 0.980
   411  H   0.947        N  404 0.917
   412  H   0.991        C  405 0.946
   413  H   0.999        C  408 0.958
   414  H   0.871        O  409 0.857
   415  H   0.994        C  410 0.980
   416  H   0.999        C  410 0.984
   417  H   0.995        C  410 0.982
   418  N   3.473        C  406 1.306    C  419 0.986    H  425 0.883    O  407 0.202
   419  C   3.965        N  418 0.986    C  422 0.959    H  426 0.950    C  420 0.936
   420  C   3.949        O  421 1.642    N  434 1.295    C  419 0.936
   421  O   1.960        C  420 1.642    N  434 0.199
   422  C   3.993        C  423 1.008    C  424 1.008    H  427 0.966    C  419 0.959
   423  C   3.993        C  422 1.008    H  430 0.986    H  429 0.984    H  428 0.983
   424  C   3.993        C  422 1.008    H  432 0.986    H  431 0.983    H  433 0.973
   425  H   0.947        N  418 0.883
   426  H   0.992        C  419 0.950
   427  H   0.998        C  422 0.966
   428  H   0.997        C  423 0.983
   429  H   0.998        C  423 0.984
   430  H   0.998        C  423 0.986
   431  H   0.998        C  424 0.983
   432  H   0.998        C  424 0.986
   433  H   0.996        C  424 0.973
   434  N   3.461        C  420 1.295    C  435 0.982    H  446 0.892    O  421 0.199
   435  C   3.965        C  436 0.987    N  434 0.982    H  447 0.945    C  438 0.936
   436  C   3.900        O  437 1.887    C  435 0.987    H  567 0.952
   437  O   2.076        C  436 1.887
   438  C   3.986        C  439 1.012    H  449 0.969    H  448 0.954    C  435 0.936
   439  C   3.987        C  440 1.414    C  441 1.392    C  438 1.012
   440  C   3.990        C  442 1.446    C  439 1.414    H  450 0.967    C  443 0.105
   441  C   3.991        C  443 1.467    C  439 1.392    H  451 0.965    C  442 0.105
   442  C   3.986        C  440 1.446    C  444 1.373    H  452 0.965    C  441 0.105
   443  C   3.989        C  441 1.467    C  444 1.355    H  453 0.969    C  440 0.105
   444  C   3.935        C  442 1.373    C  443 1.355    O  445 1.079
   445  O   2.094        C  444 1.079    H  454 0.854
   446  H   0.946        N  434 0.892
   447  H   0.992        C  435 0.945
   448  H   0.994        C  438 0.954
   449  H   0.995        C  438 0.969
   450  H   0.997        C  440 0.967
   451  H   0.998        C  441 0.965
   452  H   0.998        C  442 0.965
   453  H   0.998        C  443 0.969
   454  H   0.878        O  445 0.854
   455  N   2.996        C  456 1.013    H  463 0.955    H  568 0.941
   456  C   3.984        N  455 1.013    C  457 0.988    H  464 0.960    C  459 0.934
   457  C   3.894        O  458 1.884    C  456 0.988    H  569 0.957
   458  O   2.031        C  457 1.884
   459  C   3.992        C  461 1.006    C  460 0.999    H  465 0.967    C  456 0.934
   460  C   3.996        C  462 1.015    C  459 0.999    H  466 0.971    H  467 0.968
   461  C   3.993        C  459 1.006    H  470 0.981    H  468 0.980    H  469 0.978
   462  C   3.995        C  460 1.015    H  473 0.985    H  471 0.983    H  472 0.982
   463  H   0.976        N  455 0.955
   464  H   0.997        C  456 0.960
   465  H   0.999        C  459 0.967
   466  H   0.998        C  460 0.971
   467  H   0.999        C  460 0.968
   468  H   0.997        C  461 0.980
   469  H   0.998        C  461 0.978
   470  H   0.998        C  461 0.981
   471  H   0.999        C  462 0.983
   472  H   0.998        C  462 0.982
   473  H   0.998        C  462 0.985
   474  N   3.002        C  475 1.040    H  570 0.960    H  478 0.954
   475  C   3.988        N  474 1.040    H  480 0.957    C  476 0.954    H  479 0.951
   476  C   3.936        O  477 1.655    N  481 1.252    C  475 0.954
   477  O   1.966        C  476 1.655    N  481 0.180
   478  H   0.972        N  474 0.954
   479  H   0.994        C  475 0.951
   480  H   0.996        C  475 0.957
   481  N   3.425        C  476 1.252    C  482 0.996    H  488 0.926    O  477 0.180
   482  C   3.973        N  481 0.996    C  485 0.967    H  489 0.939    C  483 0.925
   483  C   3.944        O  484 1.650    N  495 1.284    C  482 0.925
   484  O   1.968        C  483 1.650    N  495 0.194
   485  C   3.954        C  487 1.001    O  486 0.982    C  482 0.967    H  490 0.954
   486  O   1.942        C  485 0.982    H  491 0.860
   487  C   3.985        C  485 1.001    H  493 0.981    H  494 0.981    H  492 0.980
   488  H   0.957        N  481 0.926
   489  H   0.994        C  482 0.939
   490  H   0.998        C  485 0.954
   491  H   0.876        O  486 0.860
   492  H   0.994        C  487 0.980
   493  H   0.996        C  487 0.981
   494  H   0.994        C  487 0.981
   495  N   3.461        C  483 1.284    C  496 0.995    H  502 0.905    O  484 0.194
   496  C   3.970        N  495 0.995    C  499 0.959    H  503 0.950    C  497 0.927
   497  C   3.953        O  498 1.636    N  509 1.307    C  496 0.927
   498  O   1.959        C  497 1.636    N  509 0.198
   499  C   3.963        C  501 1.000    O  500 0.998    H  504 0.960    C  496 0.959
   500  O   1.940        C  499 0.998    H  505 0.861
   501  C   3.990        C  499 1.000    H  508 0.982    H  506 0.981    H  507 0.977
   502  H   0.948        N  495 0.905
   503  H   0.997        C  496 0.950
   504  H   0.999        C  499 0.960
   505  H   0.877        O  500 0.861
   506  H   0.995        C  501 0.981
   507  H   0.999        C  501 0.977
   508  H   0.996        C  501 0.982
   509  N   3.473        C  497 1.307    C  510 0.978    H  517 0.896    O  498 0.198
   510  C   3.956        N  509 0.978    C  511 0.975    C  513 0.957    H  518 0.938
   511  C   3.902        O  512 1.896    C  510 0.975    H  571 0.953
   512  O   2.046        C  511 1.896
   513  C   3.981        C  514 0.990    H  520 0.967    H  519 0.967    C  510 0.957
   514  C   3.993        C  516 1.011    C  515 1.010    C  513 0.990    H  521 0.963
   515  C   3.995        C  514 1.010    H  523 0.986    H  522 0.985    H  524 0.982
   516  C   3.994        C  514 1.011    H  525 0.985    H  526 0.984    H  527 0.984
   517  H   0.951        N  509 0.896
   518  H   0.990        C  510 0.938
   519  H   0.995        C  513 0.967
   520  H   0.995        C  513 0.967
   521  H   0.997        C  514 0.963
   522  H   0.997        C  515 0.985
   523  H   0.998        C  515 0.986
   524  H   0.999        C  515 0.982
   525  H   0.997        C  516 0.985
   526  H   0.999        C  516 0.984
   527  H   0.997        C  516 0.984
   528  N   3.091        C  534 1.008    C  529 0.996    H  572 0.960
   529  C   3.988        N  528 0.996    C  530 0.975    H  535 0.970    C  532 0.958
   530  C   3.906        O  531 1.901    C  529 0.975    H  573 0.954
   531  O   2.047        C  530 1.901
   532  C   3.994        C  533 1.004    H  537 0.979    H  536 0.977    C  529 0.958
   533  C   3.997        C  532 1.004    C  534 0.999    H  539 0.981    H  538 0.977
   534  C   3.981        N  528 1.008    C  533 0.999    H  541 0.971    H  540 0.971
   535  H   1.000        C  529 0.970
   536  H   0.997        C  532 0.977
   537  H   0.999        C  532 0.979
   538  H   0.998        C  533 0.977
   539  H   1.000        C  533 0.981
   540  H   0.997        C  534 0.971
   541  H   0.998        C  534 0.971
   542  N   3.000        C  543 1.016    H  549 0.957    H  574 0.949
   543  C   3.984        N  542 1.016    C  544 0.984    H  550 0.958    C  546 0.934
   544  C   3.896        O  545 1.894    C  543 0.984    H  575 0.955
   545  O   2.035        C  544 1.894
   546  C   3.992        C  547 1.008    C  548 1.008    H  551 0.968    C  543 0.934
   547  C   3.994        C  546 1.008    H  553 0.985    H  554 0.984    H  552 0.979
   548  C   3.995        C  546 1.008    H  556 0.983    H  555 0.981    H  557 0.980
   549  H   0.975        N  542 0.957
   550  H   0.997        C  543 0.958
   551  H   0.998        C  546 0.968
   552  H   0.997        C  547 0.979
   553  H   0.999        C  547 0.985
   554  H   0.997        C  547 0.984
   555  H   0.998        C  548 0.981
   556  H   0.998        C  548 0.983
   557  H   0.999        C  548 0.980
   558  H   0.962        N    1 0.949
   559  H   0.996        C    3 0.956
   560  H   0.969        N   18 0.957
   561  H   0.994        C  122 0.954
   562  H   0.966        N  141 0.955
   563  H   0.992        C  174 0.952
   564  H   0.967        N  186 0.953
   565  H   0.993        C  300 0.951
   566  H   0.971        N  317 0.959
   567  H   0.992        C  436 0.952
   568  H   0.962        N  455 0.941
   569  H   0.995        C  457 0.957
   570  H   0.971        N  474 0.960
   571  H   0.995        C  511 0.953
   572  H   0.977        N  528 0.960
   573  H   0.996        C  530 0.954
   574  H   0.969        N  542 0.949
   575  H   0.995        C  544 0.955
 
molecular dipole:
                 x           y           z       tot (Debye)
 q only:       35.503      -3.118     -33.207
   full:       33.646      -3.130     -30.414     115.556
molecular quadrupole (traceless):
                xx          xy          yy          xz          yz          zz
 q only:    12666.410    3584.445     678.479    2892.256   -4352.115  -13344.888
  q+dip:    11839.957    3396.118     465.718    2819.796   -4060.245  -12305.675
   full:    11847.853    3395.579     453.976    2816.968   -4065.239  -12301.829


           -------------------------------------------------
          | TOTAL ENERGY             -888.841826221532 Eh   |
          | GRADIENT NORM               0.671116509924 Eh/α |
          | HOMO-LUMO GAP               1.077128486364 eV   |
           -------------------------------------------------

------------------------------------------------------------------------
 * finished run on 2019/05/31 at 06:33:36.433     
------------------------------------------------------------------------
 total:
 * wall-time:     0 d,  0 h,  0 min, 39.297 sec
 *  cpu-time:     0 d,  0 h,  1 min, 16.866 sec
 * ratio c/w:     1.956 speedup
 SCF:
 * wall-time:     0 d,  0 h,  0 min, 37.558 sec
 *  cpu-time:     0 d,  0 h,  1 min, 13.817 sec
 * ratio c/w:     1.965 speedup

