      -----------------------------------------------------------      
     |                   =====================                   |     
     |                           x T B                           |     
     |                   =====================                   |     
     |                         S. Grimme                         |     
     |          Mulliken Center for Theoretical Chemistry        |     
     |                    University of Bonn                     |     
     |                Version 6.1 RC1 (SAW190329)                |     
      -----------------------------------------------------------      

   This program is distributed in the hope that it will be useful,
   but WITHOUT ANY WARRANTY; without even the implied warranty of
   MERCHANTABILITY or FITNESS FOR A PARTICULAR PURPOSE.
   
   FOR NON-COMMERCIAL, ACADEMIA USE ONLY.
   
   Cite this work as:
   S. Grimme, C. Bannwarth, P. Shushkov, J. Comput. Theory Chem., 2017,
   13, 1989-2009. DOI: 10.1021/acs.jctc.7b00118
   C. Bannwarth, S. Ehlert and S. Grimme., J. Comput. Theory Chem., 2019,
   just accepted. DOI: 10.1021/acs.jctc.8b01176
   
   for sTDA-xTB:
   S. Grimme and C. Bannwarth, J. Chem. Phys., 2016, 145, 054103.
   DOI: 10.1063/1.4959605
   
   in the mass-spec context:
   V. Asgeirsson, C. Bauer and S. Grimme, Chem. Sci., 2017, 8, 4879.
   DOI: 10.1039/c7sc00601b
   
   for metadynamics refer to:
   S. Grimme, ChemRxiv, Preprint. DOI: 10.26434/chemrxiv.7660532.v1
   
   with help from (in alphabetical order)
   C. Bannwarth, F. Bohle, G. Brandenburg, E. Caldeweyher, M. Checinski,
   S. Dohm, S. Ehlert, S. Ehrlich, F. März, H. Neugebauer, J. Pisarek,
   P. Pracht, P. Shushkov, and S. Spicher.
   
 * started run on 2019/05/31 at 06:33:36.042     

           -------------------------------------------------
          |                Calculation Setup                |
           -------------------------------------------------

          program call               : /home/lum/qr/xtb-190329/bin/xtb xtb_tmp.xyz --chrg -3 --grad --gfn 2 --etemp 500 --acc 0.1 --gbsa h2o --parallel 2
          hostname                   : cu39
          coordinate file            : xtb_tmp.xyz
          omp threads                :                     2
          number of atoms            :                   405
          number of electrons        :                  1086
          charge                     :                    -3
          spin                       :                   0.0
          first test random number   :      0.61247608254685


molecular fragmentation (1/2 indicates fragments):
111111111111111111111111111111111111222222222222222222222222222222222222
222222222222222222222222222222222222222222222222222222222222222222222222
222222222222222222222222222222222222222222222222222222222222222222222222
222222222222222222222222222222222222222222222222222222222222222222222222
222222222222222222222222222222222222222222222222222222222222222222222222
222222222222222222222222211222222222222222222
# atoms in fragment 1/2:    38   367
 fragment masses (1/2) :      243.31     2480.94
CMA distance (Bohr)    :  12.046
constraining FC (au)   :  0.0500

########################################################################
# WARNING! Please study the warnings concerning your input carefully
#  - XTBPATH is not set, using XTBHOME instead
#  - Process number higher than OMP_NUM_THREADS, I hope you know what you are doing.
########################################################################

           ------------------------------------------------- 
          |                 G F N 2 - x T B                 |
          | Geometry, Frequencies, Noncovalent interactions |
          |            JCTC 2018 parametrisation            |
           ------------------------------------------------- 
 
             k(s)              :                1.8500
             k(p)              :                2.2300
             k(d)              :                2.2300
             k(f)              :                2.0000
             kEN (H0ij)        :               -2.0000
             D4 a1             :                0.5200
             D4 a2             :                5.0000
             D4 s6             :                1.0000
             D4 s8             :                2.7000
             D4 s9             :                5.0000
             alphaj            :                2.0000

  Z AO/shell   Hii/eV     exponent
  1     Wed Apr 25 08:07:45 CEST 2018   EN: 2.200 GM2: 0.406  GM3: 0.0800  RAES: 1.40
     1s    -10.707211    1.230000
  6     Wed Apr 25 08:07:45 CEST 2018   EN: 2.550 GM2: 0.538  GM3: 0.1500  RAES: 3.00
     2s    -13.970922    2.096432
     2p    -10.063292    1.800000
  7     Wed Apr 25 08:07:45 CEST 2018   EN: 3.040 GM2: 0.461  GM3:-0.0640  RAES: 1.90
     2s    -16.686243    2.339881
     2p    -12.523956    2.014332
  8     Wed Apr 25 08:07:45 CEST 2018   EN: 3.440 GM2: 0.452  GM3:-0.0517  RAES: 1.80
     2s    -20.229985    2.439742
     2p    -15.503117    2.137023

 Solvent             : h2o
 Using internal parameter file: .param_gbsa2_h2o
 Gsolv ref. state (COSMO-RS): gsolv [1 M gas/solution]
 temperature (mdtemp)       :    298.150000000000     
 dielectric constant        :    80.2000000000000     
 rho                        :    1.00000000000000     
 mass                       :    18.0000000000000     
 surface tension            :    15.5689454083859     
 probe radius               :   0.975313790000000     
 vdW radii scaling          :    1.00000000000000     
 Gshift (Eh)                :   1.857443126794793E-003
 c1                         :    1.55243817000000     
 soset                      :   0.130326360000000     
 HB correction              :  T
 Number of grid points      :          230

            Z     q(EN)     CN     RAES       Cart. coordinates
     1  N   5.0   -0.72    3.00    1.92    71.08506    44.31892    43.88542
     2  C   4.0    0.02    3.98    3.59    72.74769    45.64834    42.15923
     3  C   4.0    0.28    3.00    3.02    72.88500    48.49074    42.67563
     4  O   6.0   -0.39    1.00    1.80    72.80783    50.05540    40.99312
     5  H   1.0    0.25    1.00    1.43    71.37966    42.46006    44.19034
     6  H   1.0    0.10    0.99    1.43    74.66362    44.89541    42.35089
     7  H   1.0    0.13    0.99    1.43    72.12424    45.38843    40.20010
     8  N   5.0   -0.47    3.01    1.93    73.31660    49.08958    45.11158
     9  C   4.0    0.07    3.99    3.60    74.17339    51.57836    45.84512
    10  C   4.0    0.26    3.01    3.02    77.02935    51.72150    45.34929
    11  O   6.0   -0.47    1.00    1.80    78.18680    49.85543    44.59189
    12  C   4.0   -0.23    3.98    3.59    73.61427    52.00110    48.63884
    13  H   1.0    0.22    1.00    1.43    73.74109    47.68064    46.32629
    14  H   1.0    0.13    0.99    1.43    73.19169    52.95079    44.65264
    15  H   1.0    0.09    0.99    1.43    73.55168    54.00389    49.07680
    16  H   1.0    0.10    0.99    1.43    71.78843    51.18996    49.11402
    17  H   1.0    0.10    0.99    1.43    75.06385    51.10690    49.78997
    18  N   5.0   -0.49    3.01    1.93    78.17343    53.91686    45.79026
    19  C   4.0    0.06    3.99    3.60    80.90651    54.08398    46.10502
    20  C   4.0    0.04    3.01    3.02    81.26301    55.75510    48.44112
    21  O   6.0   -0.42    1.00    1.80    80.45589    57.92602    48.46854
    22  C   4.0   -0.12    3.99    3.59    82.29053    55.23486    43.83557
    23  C   4.0   -0.11    3.98    3.58    85.07089    54.40819    43.73994
    24  C   4.0   -0.23    3.98    3.59    85.31503    51.61979    43.02574
    25  C   4.0   -0.23    3.98    3.59    86.48112    56.06032    41.83726
    26  H   1.0    0.25    1.00    1.43    77.18918    55.45233    46.35119
    27  H   1.0    0.12    0.99    1.43    81.59354    52.17085    46.46333
    28  H   1.0    0.12    0.99    1.43    81.36457    54.66617    42.08597
    29  H   1.0    0.17    0.99    1.43    82.19191    57.28845    44.00203
    30  H   1.0    0.10    0.99    1.43    85.90925    54.70584    45.61385
    31  H   1.0    0.09    0.99    1.43    87.30006    51.12925    42.85077
    32  H   1.0    0.10    0.99    1.43    84.49359    50.40505    44.46487
    33  H   1.0    0.12    0.99    1.43    84.38546    51.26783    41.22769
    34  H   1.0    0.09    0.99    1.43    88.49273    55.64057    41.85400
    35  H   1.0    0.11    0.99    1.43    85.76224    55.74717    39.93844
    36  H   1.0    0.12    0.99    1.43    86.21789    58.03565    42.32924
    37  N   5.0   -0.73    3.00    1.93    77.44557    63.94869    51.70473
    38  C   4.0    0.08    3.98    3.59    76.82391    62.11747    49.76912
    39  C   4.0    0.29    3.01    3.02    77.80150    62.92168    47.15322
    40  O   6.0   -0.42    1.00    1.80    76.68168    62.42334    45.20060
    41  C   4.0   -0.14    3.98    3.58    74.01085    61.39020    49.70366
    42  C   4.0   -0.10    3.97    3.58    72.02348    63.51271    49.84976
    43  C   4.0   -0.25    3.98    3.59    71.62492    64.56189    52.51821
    44  C   4.0   -0.22    3.98    3.59    72.49443    65.62797    47.94455
    45  H   1.0    0.25    1.00    1.43    76.57249    65.63811    51.56766
    46  H   1.0    0.14    0.99    1.43    77.91439    60.41346    50.22543
    47  H   1.0    0.12    0.99    1.43    73.74314    60.39832    47.91256
    48  H   1.0    0.08    0.99    1.43    73.63381    60.07533    51.25008
    49  H   1.0    0.09    0.99    1.43    70.23110    62.61265    49.34204
    50  H   1.0    0.08    0.99    1.43    69.79341    65.49218    52.66055
    51  H   1.0    0.08    0.99    1.43    71.62221    63.06678    53.93241
    52  H   1.0    0.08    0.99    1.43    73.04086    65.94181    53.08022
    53  H   1.0    0.08    0.99    1.43    70.91547    66.94403    47.96141
    54  H   1.0    0.10    0.99    1.43    74.20503    66.68030    48.38395
    55  H   1.0    0.12    0.99    1.43    72.69593    64.84044    46.05922
    56  N   5.0   -0.47    3.01    1.93    79.98761    64.20547    47.18684
    57  C   4.0    0.07    3.99    3.60    81.16645    65.11268    44.87187
    58  C   4.0    0.29    3.01    3.02    81.70595    62.92023    43.03762
    59  O   6.0   -0.44    1.00    1.80    83.13181    61.20157    43.61301
    60  C   4.0   -0.15    3.99    3.60    83.68530    66.37478    45.52582
    61  C   4.0   -0.10    3.98    3.58    84.90164    67.73333    43.26829
    62  C   4.0   -0.24    3.98    3.59    83.58012    70.24937    42.75567
    63  C   4.0   -0.25    3.98    3.59    87.71238    68.16503    43.78656
    64  H   1.0    0.25    1.00    1.43    81.01805    64.21530    48.79168
    65  H   1.0    0.11    0.99    1.43    79.84267    66.43867    43.98501
    66  H   1.0    0.09    0.99    1.43    83.37879    67.72176    47.05780
    67  H   1.0    0.12    0.99    1.43    84.94433    64.88295    46.20418
    68  H   1.0    0.12    0.99    1.43    84.72490    66.52366    41.59658
    69  H   1.0    0.09    0.99    1.43    84.34753    71.13467    41.07054
    70  H   1.0    0.09    0.99    1.43    81.56551    69.98087    42.46005
    71  H   1.0    0.08    0.99    1.43    83.82333    71.50784    44.36102
    72  H   1.0    0.09    0.99    1.43    88.59061    69.07462    42.16765
    73  H   1.0    0.08    0.99    1.43    87.96471    69.31795    45.47024
    74  H   1.0    0.09    0.99    1.43    88.66705    66.37162    44.09338
    75  N   5.0   -0.48    3.01    1.93    80.65795    63.13386    40.74213
    76  C   4.0    0.07    3.99    3.60    81.15284    61.42374    38.66965
    77  C   4.0    0.26    3.01    3.02    81.05064    62.94182    36.20812
    78  O   6.0   -0.43    1.00    1.80    79.90386    64.94312    36.08085
    79  C   4.0   -0.19    3.98    3.59    79.16110    59.32169    38.49372
    80  H   1.0    0.26    1.00    1.43    79.45525    64.55483    40.31859
    81  H   1.0    0.12    0.99    1.43    83.02188    60.58267    38.95811
    82  H   1.0    0.11    0.99    1.43    79.61047    58.05192    36.94045
    83  H   1.0    0.12    0.99    1.43    79.11781    58.27817    40.26036
    84  H   1.0    0.14    0.99    1.43    77.29804    60.12696    38.15106
    85  N   5.0   -0.50    3.01    1.93    82.33574    61.91461    34.27521
    86  C   4.0    0.08    3.99    3.61    81.92457    62.69292    31.67380
    87  C   4.0    0.28    3.01    3.02    80.80280    60.40120    30.29217
    88  O   6.0   -0.41    1.00    1.80    80.74636    58.32604    31.32322
    89  C   4.0   -0.09    3.98    3.58    84.40404    63.69023    30.49462
    90  C   4.0   -0.22    3.98    3.59    86.16620    61.51687    29.79346
    91  C   4.0   -0.23    3.98    3.59    83.88521    65.38197    28.21771
    92  H   1.0    0.25    1.00    1.43    82.88991    60.08521    34.41851
    93  H   1.0    0.14    0.99    1.43    80.50597    64.20308    31.68719
    94  H   1.0    0.11    0.99    1.43    85.30384    64.84323    31.96311
    95  H   1.0    0.09    0.99    1.43    87.90074    62.24956    28.97297
    96  H   1.0    0.11    0.99    1.43    86.63178    60.40784    31.45726
    97  H   1.0    0.14    0.99    1.43    85.25160    60.27366    28.43037
    98  H   1.0    0.09    0.99    1.43    85.63017    66.25234    27.57402
    99  H   1.0    0.12    0.99    1.43    83.08237    64.30766    26.66219
   100  H   1.0    0.10    0.99    1.43    82.55202    66.86646    28.70728
   101  N   5.0   -0.48    3.01    1.93    79.96600    60.80822    27.94397
   102  C   4.0    0.09    4.00    3.63    78.57963    58.85568    26.61949
   103  C   4.0    0.29    3.01    3.02    80.04554    56.37170    26.58144
   104  O   6.0   -0.43    1.00    1.80    82.32510    56.25896    26.18256
   105  C   4.0   -0.10    3.98    3.59    78.11307    59.69241    23.89792
   106  C   4.0    0.31    2.99    3.02    76.49988    62.16366    23.86258
   107  O   6.0   -0.38    1.00    1.80    74.50869    62.12675    22.62608
   108  O   6.0   -0.44    1.00    1.80    77.36792    63.99704    25.07985
   109  H   1.0    0.27    1.00    1.43    79.49179    62.56600    27.27275
   110  H   1.0    0.15    0.99    1.43    76.74806    58.51437    27.54570
   111  H   1.0    0.12    0.99    1.43    79.92443    60.04218    22.97255
   112  H   1.0    0.13    0.99    1.43    77.08544    58.21883    22.88864
   113  N   5.0   -0.48    3.02    1.93    78.53784    54.36677    26.81686
   114  C   4.0    0.08    3.99    3.60    79.29713    51.76517    27.05713
   115  C   4.0    0.27    3.02    3.02    78.02082    50.26180    24.93594
   116  O   6.0   -0.39    1.00    1.80    76.47211    51.23524    23.52252
   117  C   4.0   -0.13    3.98    3.59    78.36461    50.72371    29.61070
   118  C   4.0   -0.12    3.98    3.59    78.92955    52.54545    31.77824
   119  C   4.0   -0.03    3.99    3.60    77.57978    51.81916    34.21958
   120  N   5.0   -0.47    3.02    1.93    78.79393    49.71750    35.46141
   121  C   4.0    0.38    3.00    3.02    79.39714    49.51031    37.87261
   122  N   5.0   -0.66    3.02    1.93    80.54443    47.39682    38.65579
   123  N   5.0   -0.64    3.01    1.93    79.12168    51.38256    39.54012
   124  H   1.0    0.30    1.00    1.43    76.67525    54.68214    27.17951
   125  H   1.0    0.15    0.99    1.43    81.35946    51.66950    26.91220
   126  H   1.0    0.13    0.99    1.43    76.31704    50.47781    29.45282
   127  H   1.0    0.13    0.99    1.43    79.18800    48.86060    29.93505
   128  H   1.0    0.17    0.99    1.43    80.96139    52.67810    32.09443
   129  H   1.0    0.16    0.99    1.43    78.26284    54.41989    31.24376
   130  H   1.0    0.12    0.99    1.43    77.55506    53.46381    35.45589
   131  H   1.0    0.12    0.99    1.43    75.61886    51.31795    33.78048
   132  H   1.0    0.30    1.00    1.43    79.16090    48.17722    34.35031
   133  H   1.0    0.29    1.00    1.43    80.60797    45.91865    37.44901
   134  H   1.0    0.26    1.00    1.43    80.71293    47.09282    40.52900
   135  H   1.0    0.27    1.00    1.43    78.02655    52.86630    39.06935
   136  H   1.0    0.31    1.00    1.43    79.18694    50.89232    41.40176
   137  N   5.0   -0.48    3.01    1.93    78.70187    47.82206    24.69398
   138  C   4.0    0.07    3.99    3.61    77.25177    46.15413    23.07657
   139  C   4.0    0.27    3.01    3.02    74.89959    45.22159    24.50525
   140  O   6.0   -0.38    1.00    1.80    74.75625    45.30490    26.82816
   141  C   4.0   -0.22    3.98    3.59    78.85949    43.93871    22.12459
   142  H   1.0    0.24    1.00    1.43    79.93883    47.01170    25.89999
   143  H   1.0    0.13    0.99    1.43    76.58273    47.33859    21.51555
   144  H   1.0    0.09    0.99    1.43    78.89668    43.87821    20.07602
   145  H   1.0    0.12    0.99    1.43    80.77814    44.19152    22.80505
   146  H   1.0    0.13    0.99    1.43    78.13747    42.15398    22.85482
   147  N   5.0   -0.32    3.03    1.93    73.00907    44.36596    23.06837
   148  C   4.0    0.06    4.02    3.66    70.70093    43.43054    24.22718
   149  C   4.0    0.07    3.00    3.02    71.30063    41.04771    25.76659
   150  O   6.0   -0.38    1.00    1.80    73.17857    39.75869    25.36263
   151  C   4.0   -0.15    4.01    3.64    68.95073    42.89760    21.98357
   152  C   4.0   -0.15    4.01    3.64    70.80438    42.23273    19.87732
   153  C   4.0   -0.06    4.02    3.65    72.95858    44.10037    20.33208
   154  H   1.0    0.12    0.99    1.43    69.91914    44.84493    25.52440
   155  H   1.0    0.09    0.99    1.43    67.59958    41.40475    22.40148
   156  H   1.0    0.09    0.99    1.43    67.91432    44.61784    21.52062
   157  H   1.0    0.12    0.99    1.43    71.48010    40.30436    20.14210
   158  H   1.0    0.08    0.99    1.43    69.98011    42.42658    18.00757
   159  H   1.0    0.09    0.99    1.43    74.75360    43.39558    19.62045
   160  H   1.0    0.10    0.99    1.43    72.54238    45.94546    19.48694
   161  N   5.0   -0.69    3.00    1.93    62.63355    47.48413    27.56921
   162  C   4.0    0.06    3.98    3.59    64.44048    49.51833    27.30640
   163  C   4.0    0.26    3.01    3.02    65.17941    50.51933    29.93301
   164  O   6.0   -0.39    1.00    1.80    64.38264    49.55726    31.87643
   165  C   4.0   -0.14    3.98    3.59    63.39273    51.62403    25.63394
   166  C   4.0   -0.12    3.97    3.58    62.78713    50.80824    22.94307
   167  C   4.0    0.30    2.99    3.02    60.67446    52.55104    21.81326
   168  O   6.0   -0.42    1.00    1.80    58.84672    53.02515    23.22191
   169  O   6.0   -0.41    1.00    1.80    60.98001    53.29579    19.60447
   170  H   1.0    0.26    1.00    1.43    60.80897    48.01662    27.87522
   171  H   1.0    0.11    0.99    1.43    66.16368    48.72478    26.45643
   172  H   1.0    0.14    0.99    1.43    61.64773    52.32756    26.47856
   173  H   1.0    0.12    0.99    1.43    64.75570    53.16805    25.56778
   174  H   1.0    0.11    0.99    1.43    64.44698    50.88850    21.72089
   175  H   1.0    0.10    0.99    1.43    62.04511    48.88121    22.91943
   176  N   5.0   -0.51    3.01    1.93    66.68928    52.55638    29.89718
   177  C   4.0    0.08    3.99    3.60    68.28812    53.18269    32.01496
   178  C   4.0    0.26    3.01    3.02    68.05754    55.85222    33.14018
   179  O   6.0   -0.40    1.00    1.80    69.88795    56.75873    34.25455
   180  C   4.0   -0.09    3.98    3.59    71.03015    52.70473    31.18732
   181  C   4.0    0.33    2.99    3.02    71.73668    54.14676    28.71546
   182  O   6.0   -0.42    1.00    1.80    70.32245    53.90014    26.83076
   183  O   6.0   -0.43    1.00    1.80    73.71614    55.41626    28.76213
   184  H   1.0    0.28    1.00    1.43    67.56216    53.02583    28.22880
   185  H   1.0    0.15    0.99    1.43    67.79172    51.89063    33.57601
   186  H   1.0    0.13    0.99    1.43    72.33130    53.31526    32.65929
   187  H   1.0    0.12    0.99    1.43    71.28237    50.68415    30.81024
   188  N   5.0   -0.30    3.03    1.93    65.85817    57.09209    33.06672
   189  C   4.0    0.06    4.03    3.67    65.61119    59.56388    34.24520
   190  C   4.0    0.06    3.00    3.02    64.57282    59.32738    36.94858
   191  O   6.0   -0.40    1.00    1.80    63.48034    57.45365    37.72637
   192  C   4.0   -0.15    4.01    3.63    63.64583    60.87820    32.58248
   193  C   4.0   -0.14    4.01    3.63    61.83763    58.71079    31.95681
   194  C   4.0   -0.02    4.01    3.64    63.50083    56.33754    31.88927
   195  H   1.0    0.13    0.99    1.43    67.46135    60.47963    34.26929
   196  H   1.0    0.09    0.99    1.43    62.70708    62.42175    33.56005
   197  H   1.0    0.11    0.99    1.43    64.54538    61.59397    30.87667
   198  H   1.0    0.11    0.99    1.43    60.43154    58.52487    33.44630
   199  H   1.0    0.09    0.99    1.43    60.92151    58.99143    30.13892
   200  H   1.0    0.14    0.99    1.43    62.68104    54.77202    32.96619
   201  H   1.0    0.13    0.99    1.43    63.84345    55.70510    29.95696
   202  N   5.0   -0.69    3.00    1.93    82.76240    30.93723    38.28881
   203  C   4.0    0.07    3.99    3.60    84.18009    32.51018    36.54986
   204  C   4.0    0.07    3.00    3.02    86.82461    31.37080    36.28421
   205  O   6.0   -0.41    1.00    1.80    88.11632    30.83973    38.12232
   206  C   4.0   -0.09    3.98    3.59    84.30404    35.23785    37.52087
   207  C   4.0   -0.22    3.98    3.59    85.95278    36.80851    35.75242
   208  C   4.0   -0.22    3.98    3.59    81.63206    36.30340    37.71748
   209  H   1.0    0.28    1.00    1.43    82.81985    31.44006    40.12985
   210  H   1.0    0.11    0.99    1.43    83.19190    32.47121    34.72746
   211  H   1.0    0.12    0.99    1.43    85.16235    35.21335    39.40361
   212  H   1.0    0.10    0.99    1.43    85.91730    38.78804    36.29747
   213  H   1.0    0.12    0.99    1.43    87.90237    36.16028    35.79541
   214  H   1.0    0.13    0.99    1.43    85.26206    36.68388    33.81711
   215  H   1.0    0.10    0.99    1.43    81.67271    38.24904    38.37127
   216  H   1.0    0.12    0.99    1.43    80.70954    36.25246    35.87457
   217  H   1.0    0.11    0.99    1.43    80.47119    35.20193    39.00853
   218  N   5.0   -0.71    3.01    1.93    91.25124    33.70455    31.52879
   219  C   4.0    0.08    3.98    3.59    92.87446    35.42371    30.16154
   220  C   4.0    0.24    3.03    3.02    91.61841    38.01097    30.25771
   221  O   6.0   -0.44    1.00    1.80    89.49085    38.26348    31.15632
   222  C   4.0   -0.12    3.98    3.59    93.33473    34.47619    27.44062
   223  C   4.0    0.26    3.00    3.02    95.92017    33.19322    27.31245
   224  O   6.0   -0.45    1.00    1.80    97.80286    34.25156    28.11354
   225  N   5.0   -0.67    3.00    1.93    95.99114    30.94160    26.16153
   226  H   1.0    0.29    1.00    1.43    89.52589    34.42096    31.95877
   227  H   1.0    0.13    0.99    1.43    94.71570    35.52745    31.11618
   228  H   1.0    0.10    0.99    1.43    91.81761    33.20124    26.87989
   229  H   1.0    0.11    0.99    1.43    93.38927    36.05851    26.12012
   230  H   1.0    0.26    1.00    1.43    97.65386    30.01270    26.16968
   231  H   1.0    0.24    1.00    1.43    94.41662    29.96209    25.75039
   232  N   5.0   -0.36    3.03    1.93    92.89667    39.97401    29.30694
   233  C   4.0    0.07    4.03    3.68    91.85208    42.48003    29.68077
   234  C   4.0    0.08    3.00    3.02    89.49228    43.03547    28.15170
   235  O   6.0   -0.48    1.00    1.80    88.38675    45.04458    28.49594
   236  C   4.0   -0.14    4.01    3.64    94.03720    44.30404    29.10462
   237  C   4.0   -0.16    4.01    3.64    96.37481    42.65923    29.51029
   238  C   4.0   -0.05    4.02    3.65    95.52058    40.10106    28.49442
   239  H   1.0    0.12    0.99    1.43    91.25143    42.67000    31.66107
   240  H   1.0    0.11    0.99    1.43    93.94179    44.94185    27.15038
   241  H   1.0    0.09    0.99    1.43    93.97543    45.94559    30.33690
   242  H   1.0    0.08    0.99    1.43    98.01939    43.35503    28.49915
   243  H   1.0    0.10    0.99    1.43    96.79502    42.51900    31.52196
   244  H   1.0    0.10    0.99    1.43    95.61708    40.09477    26.42420
   245  H   1.0    0.12    0.99    1.43    96.61488    38.52188    29.22957
   246  N   5.0   -0.71    3.00    1.93    83.69018    41.51794    28.76165
   247  C   4.0    0.08    3.98    3.59    81.52306    42.25150    30.26844
   248  C   4.0    0.26    3.01    3.02    81.99647    44.63937    31.82468
   249  O   6.0   -0.50    1.00    1.80    80.42519    45.28796    33.41680
   250  C   4.0   -0.09    3.99    3.60    80.87208    40.17335    32.15391
   251  C   4.0    0.30    2.99    3.02    80.35891    37.61034    30.80964
   252  O   6.0   -0.39    1.00    1.80    78.22319    36.66823    31.07238
   253  O   6.0   -0.44    1.00    1.80    82.18585    36.69580    29.61054
   254  H   1.0    0.32    1.00    1.43    84.03744    39.61460    28.87106
   255  H   1.0    0.13    0.99    1.43    79.87021    42.63108    29.05180
   256  H   1.0    0.11    0.99    1.43    82.45898    39.93168    33.44545
   257  H   1.0    0.13    0.99    1.43    79.20402    40.74843    33.21278
   258  N   5.0   -0.49    3.00    1.93    84.17198    45.81043    31.43582
   259  C   4.0    0.08    4.00    3.61    85.13650    47.84236    32.99516
   260  C   4.0    0.27    3.01    3.02    85.48745    50.28692    31.48204
   261  O   6.0   -0.44    1.00    1.80    84.84369    52.33332    32.34315
   262  C   4.0   -0.08    3.98    3.58    87.65898    47.10464    34.26669
   263  C   4.0   -0.23    3.98    3.59    88.38081    49.08128    36.24047
   264  C   4.0   -0.22    3.98    3.59    87.45085    44.51265    35.51519
   265  H   1.0    0.31    1.00    1.43    85.34373    44.97184    30.16347
   266  H   1.0    0.15    0.99    1.43    83.72146    48.22474    34.45600
   267  H   1.0    0.13    0.99    1.43    89.10595    47.03336    32.79173
   268  H   1.0    0.09    0.99    1.43    90.23159    48.65617    37.02016
   269  H   1.0    0.13    0.99    1.43    88.42704    50.95544    35.40728
   270  H   1.0    0.10    0.99    1.43    87.00199    49.08389    37.76179
   271  H   1.0    0.09    0.99    1.43    89.21220    44.08202    36.47356
   272  H   1.0    0.10    0.99    1.43    85.93519    44.50442    36.90324
   273  H   1.0    0.13    0.99    1.43    87.06783    43.02715    34.14471
   274  N   5.0   -0.48    3.01    1.93    86.63435    49.99055    29.25824
   275  C   4.0    0.08    4.00    3.61    87.05036    52.02143    27.49249
   276  C   4.0    0.27    3.02    3.02    86.25988    51.14691    24.85629
   277  O   6.0   -0.38    1.00    1.80    86.27559    48.92923    24.23754
   278  C   4.0   -0.12    3.99    3.61    89.88020    52.69755    27.36389
   279  C   4.0   -0.02    3.03    3.02    90.90328    53.32584    29.93145
   280  C   4.0   -0.09    3.03    3.02    90.09822    55.48998    31.17575
   281  C   4.0   -0.10    3.03    3.02    92.62823    51.74842    31.11317
   282  C   4.0   -0.11    3.03    3.02    90.97408    56.04727    33.57170
   283  C   4.0   -0.12    3.03    3.02    93.52258    52.31132    33.50345
   284  C   4.0   -0.12    3.03    3.02    92.68562    54.45353    34.74416
   285  H   1.0    0.31    1.00    1.43    87.10027    48.24913    28.61319
   286  H   1.0    0.15    0.99    1.43    85.93839    53.65780    28.09968
   287  H   1.0    0.12    0.99    1.43    90.87620    51.08073    26.56198
   288  H   1.0    0.10    0.99    1.43    90.09038    54.29969    26.08960
   289  H   1.0    0.11    1.00    1.43    88.75006    56.71806    30.26365
   290  H   1.0    0.10    1.00    1.43    93.25687    50.06409    30.15262
   291  H   1.0    0.10    1.00    1.43    90.30679    57.72340    34.52327
   292  H   1.0    0.09    1.00    1.43    94.86288    51.06649    34.39974
   293  H   1.0    0.09    1.00    1.43    93.34850    54.87818    36.62104
   294  N   5.0   -0.48    3.01    1.93    85.68294    53.04435    23.26967
   295  C   4.0    0.06    3.99    3.60    84.98105    52.54405    20.67124
   296  C   4.0    0.06    3.00    3.02    87.42991    52.37462    19.09838
   297  O   6.0   -0.40    1.00    1.80    89.31980    51.41995    20.01372
   298  C   4.0   -0.14    3.98    3.59    82.98064    54.40645    19.74995
   299  C   4.0   -0.12    3.98    3.59    81.19036    53.25692    17.76404
   300  C   4.0    0.26    3.00    3.02    80.82479    55.06033    15.55672
   301  O   6.0   -0.43    1.00    1.80    82.67005    55.90964    14.41974
   302  N   5.0   -0.66    3.00    1.93    78.43129    55.55858    14.92202
   303  H   1.0    0.25    1.00    1.43    85.40262    54.79668    23.96509
   304  H   1.0    0.14    0.99    1.43    84.20467    50.61467    20.67260
   305  H   1.0    0.14    0.99    1.43    81.87637    55.01690    21.38203
   306  H   1.0    0.13    0.99    1.43    83.90171    56.09023    18.98959
   307  H   1.0    0.10    0.99    1.43    82.03200    51.53430    16.98833
   308  H   1.0    0.12    0.99    1.43    79.39080    52.76383    18.63539
   309  H   1.0    0.26    1.00    1.43    76.96837    54.96151    15.99424
   310  H   1.0    0.27    1.00    1.43    78.07597    56.77521    13.49475
   311  N   5.0   -0.71    3.00    1.93    94.65071    59.18138    19.24168
   312  C   4.0    0.06    3.98    3.59    95.11984    59.29113    21.94768
   313  C   4.0    0.06    3.00    3.02    97.44038    60.95723    22.47957
   314  O   6.0   -0.44    1.00    1.80    99.57618    60.31195    21.89632
   315  C   4.0   -0.09    3.98    3.59    95.55380    56.64020    23.06745
   316  C   4.0   -0.24    3.98    3.59    95.55619    56.81381    25.94788
   317  C   4.0   -0.21    3.98    3.59    93.52029    54.81906    22.14642
   318  H   1.0    0.26    1.00    1.43    95.66175    57.91857    18.22203
   319  H   1.0    0.09    0.99    1.43    93.42459    60.13577    22.78564
   320  H   1.0    0.12    0.99    1.43    97.40791    55.97225    22.44348
   321  H   1.0    0.10    0.99    1.43    95.89770    54.96508    26.77074
   322  H   1.0    0.10    0.99    1.43    97.01020    58.11002    26.60005
   323  H   1.0    0.09    0.99    1.43    93.73764    57.48365    26.63053
   324  H   1.0    0.11    0.99    1.43    93.61858    53.04279    23.16536
   325  H   1.0    0.11    0.99    1.43    91.64966    55.62046    22.45135
   326  H   1.0    0.11    0.99    1.43    93.68135    54.40721    20.14223
   327  N   5.0   -0.70    3.00    1.93    94.48378    51.25722    50.69414
   328  C   4.0    0.06    3.98    3.58    91.91344    51.32636    49.78083
   329  C   4.0    0.06    3.00    3.02    90.49435    48.89995    50.49083
   330  O   6.0   -0.43    1.00    1.80    91.52496    46.84446    50.66962
   331  C   4.0   -0.15    3.98    3.59    91.78310    51.88613    46.91601
   332  C   4.0   -0.09    3.97    3.58    93.58637    50.33258    45.24565
   333  C   4.0   -0.24    3.98    3.59    92.47579    49.95399    42.60475
   334  C   4.0   -0.24    3.98    3.59    96.14839    51.64640    44.95135
   335  H   1.0    0.27    1.00    1.43    95.63757    49.96995    49.89275
   336  H   1.0    0.09    0.99    1.43    91.01093    52.89410    50.78619
   337  H   1.0    0.09    0.99    1.43    89.83619    51.58734    46.30842
   338  H   1.0    0.09    0.99    1.43    92.21660    53.88246    46.64081
   339  H   1.0    0.15    0.99    1.43    93.83847    48.46287    46.08516
   340  H   1.0    0.10    0.99    1.43    93.83419    48.97244    41.41572
   341  H   1.0    0.09    0.99    1.43    90.75307    48.83601    42.65494
   342  H   1.0    0.09    0.99    1.43    92.04816    51.76560    41.73623
   343  H   1.0    0.09    0.99    1.43    97.42381    50.43870    43.88149
   344  H   1.0    0.08    0.99    1.43    95.89944    53.41382    43.92405
   345  H   1.0    0.09    0.99    1.43    97.00456    52.07130    46.76794
   346  N   5.0   -0.70    3.00    1.93    82.37321    45.47710    50.44220
   347  C   4.0    0.06    3.98    3.58    79.88254    45.46144    49.28932
   348  C   4.0    0.06    3.00    3.02    78.00958    44.02917    50.94446
   349  O   6.0   -0.42    1.00    1.80    78.64161    42.25280    52.27907
   350  C   4.0   -0.13    3.98    3.59    79.85541    44.39045    46.56828
   351  C   4.0   -0.03    3.02    3.02    80.26531    41.58976    46.28690
   352  C   4.0   -0.10    3.04    3.02    82.37045    40.38202    47.28389
   353  C   4.0   -0.11    3.04    3.02    78.62322    40.15733    44.81404
   354  C   4.0   -0.11    3.03    3.02    82.83861    37.85252    46.81717
   355  C   4.0   -0.09    3.03    3.02    79.10450    37.64887    44.27703
   356  C   4.0    0.09    3.03    3.02    81.24165    36.47410    45.25653
   357  O   6.0   -0.50    1.99    1.83    81.74524    34.03524    44.60428
   358  H   1.0    0.27    1.00    1.43    82.90875    43.87562    51.35730
   359  H   1.0    0.12    0.99    1.43    79.29902    47.44019    49.15694
   360  H   1.0    0.11    0.99    1.43    78.05164    44.88877    45.69968
   361  H   1.0    0.10    0.99    1.43    81.30232    45.42811    45.51782
   362  H   1.0    0.10    1.00    1.43    83.70660    41.41956    48.41199
   363  H   1.0    0.10    1.00    1.43    76.95589    41.02077    44.01617
   364  H   1.0    0.10    0.99    1.43    84.51383    36.97717    47.59476
   365  H   1.0    0.11    1.00    1.43    77.85521    36.59194    43.06623
   366  H   1.0    0.24    0.99    1.43    83.25634    33.48251    45.47204
   367  N   5.0   -0.72    3.00    1.93    90.19053    41.78341    49.30897
   368  C   4.0    0.07    3.98    3.58    90.68513    41.51749    46.62751
   369  C   4.0    0.07    3.00    3.02    93.49664    41.95282    46.06351
   370  O   6.0   -0.45    1.00    1.80    94.31396    43.87961    45.11869
   371  C   4.0   -0.13    3.98    3.59    89.06973    43.35696    45.08676
   372  C   4.0   -0.11    3.98    3.58    88.44403    42.39516    42.42103
   373  C   4.0   -0.22    3.98    3.59    90.82228    41.70605    40.93950
   374  C   4.0   -0.23    3.98    3.59    86.58388    40.18999    42.47270
   375  H   1.0    0.32    1.00    1.43    90.27861    43.55877    50.03026
   376  H   1.0    0.10    0.99    1.43    90.21800    39.55402    46.16590
   377  H   1.0    0.09    0.99    1.43    87.30839    43.70265    46.09991
   378  H   1.0    0.13    0.99    1.43    90.12090    45.12762    44.93425
   379  H   1.0    0.09    0.99    1.43    87.52834    43.96576    41.43319
   380  H   1.0    0.09    0.99    1.43    90.31165    41.10135    39.04502
   381  H   1.0    0.11    0.99    1.43    92.07467    43.32942    40.81982
   382  H   1.0    0.11    0.99    1.43    91.86304    40.16454    41.81621
   383  H   1.0    0.10    0.99    1.43    86.32956    39.43601    40.58241
   384  H   1.0    0.10    0.99    1.43    87.24774    38.66536    43.67936
   385  H   1.0    0.11    0.99    1.43    84.75525    40.80709    43.17153
   386  H   1.0    0.29    1.00    1.43    71.18249    45.02921    45.42768
   387  H   1.0    0.11    1.00    1.43    82.16017    55.07712    49.95984
   388  H   1.0    0.28    1.00    1.43    77.02917    63.32486    53.23117
   389  H   1.0    0.12    1.00    1.43    70.13904    40.50162    27.15352
   390  H   1.0    0.28    1.00    1.43    62.62223    46.54785    26.14942
   391  H   1.0    0.11    1.00    1.43    64.77916    60.75590    38.16834
   392  H   1.0    0.28    1.00    1.43    81.11812    30.94993    37.85436
   393  H   1.0    0.12    1.00    1.43    87.54290    31.04005    34.56789
   394  H   1.0    0.29    1.00    1.43    90.99005    32.30695    30.59548
   395  H   1.0    0.14    1.00    1.43    88.86475    41.77515    26.89121
   396  H   1.0    0.31    1.00    1.43    83.40862    41.91388    27.13177
   397  H   1.0    0.12    1.00    1.43    87.46698    53.04621    17.33240
   398  H   1.0    0.28    1.00    1.43    93.02110    58.78177    18.96375
   399  H   1.0    0.10    1.00    1.43    97.22678    62.63106    23.33029
   400  H   1.0    0.27    1.00    1.43    95.22054    52.76738    50.43118
   401  H   1.0    0.11    1.00    1.43    88.63657    48.95735    50.83207
   402  H   1.0    0.28    1.00    1.43    83.55156    45.74075    49.24448
   403  H   1.0    0.11    1.00    1.43    76.18849    44.53343    50.96460
   404  H   1.0    0.28    1.00    1.43    88.62276    41.22252    49.65546
   405  H   1.0    0.12    1.00    1.43    94.76193    40.61136    46.47653

           ------------------------------------------------- 
          |        Self-Consistent Charge Iterations        |
           ------------------------------------------------- 

          ...................................................
          :                      SETUP                      :
          :.................................................:
          :  # basis functions                 981          :
          :  # atomic orbitals                 981          :
          :  # shells                          597          :
          :  # electrons                      1086          :
          :  max. iterations                   250          :
          :  Hamiltonian                  GFN2-xTB          :
          :  restarted?                      false          :
          :  GBSA solvation                   true          :
          :  PC potential                    false          :
          :  electronic temp.          500.0000000     K    :
          :  accuracy                    0.1000000          :
          :  -> integral cutoff          0.3500000E+02      :
          :  -> integral neglect         0.1000000E-08      :
          :  -> SCF convergence          0.1000000E-06 Eh   :
          :  -> wf. convergence          0.1000000E-04 e    :
          :  Broyden damping             0.4000000          :
          ...................................................

 iter      E             dE          RMSdq      gap      omega  full diag
   1   -619.6222676 -0.619622E+03  0.423E+00    2.12       0.0  T
   2   -621.2005937 -0.157833E+01  0.216E+00    1.61       1.0  T
   3   -621.2687129 -0.681191E-01  0.120E+00    1.97       1.0  T
   4   -621.3084784 -0.397655E-01  0.274E-01    1.19       1.0  T
   5   -621.3229894 -0.145109E-01  0.114E-01    1.42       1.0  T
   6   -621.3235437 -0.554299E-03  0.517E-02    1.51       1.0  T
   7   -621.3236715 -0.127845E-03  0.238E-02    1.52       1.0  T
   8   -621.3237211 -0.496214E-04  0.106E-02    1.51       1.0  T
   9   -621.3237315 -0.103481E-04  0.507E-03    1.50       1.0  T
  10   -621.3237334 -0.187932E-05  0.218E-03    1.49       2.3  T
  11   -621.3237337 -0.361961E-06  0.871E-04    1.49       5.7  T
  12   -621.3237338 -0.575873E-07  0.420E-04    1.49      11.8  T
  13   -621.3237338 -0.187073E-07  0.180E-04    1.49      27.7  T
  14   -621.3237338 -0.262344E-08  0.835E-05    1.49      59.5  T
  15   -621.3237338 -0.635168E-09  0.329E-05    1.49     151.1  T

   *** convergence criteria satisfied after 15 iterations ***

         #    Occupation            Energy/Eh            Energy/eV
      -------------------------------------------------------------
         1        2.0000           -0.7463110             -20.3082
       ...           ...                  ...                  ...
       537        2.0000           -0.3669113              -9.9842
       538        2.0000           -0.3640203              -9.9055
       539        2.0000           -0.3639769              -9.9043
       540        2.0000           -0.3609356              -9.8216
       541        2.0000           -0.3590857              -9.7712
       542        2.0000           -0.3588193              -9.7640
       543        2.0000           -0.3566311              -9.7044 (HOMO)
       544                         -0.3018995              -8.2151 (LUMO)
       545                         -0.2993365              -8.1454
       546                         -0.2992641              -8.1434
       547                         -0.2955586              -8.0426
       548                         -0.2943422              -8.0095
       ...                                ...                  ...
       981                          0.6801710              18.5084
      -------------------------------------------------------------
                  HL-Gap            0.0547316 Eh            1.4893 eV
             Fermi-level           -0.3291927 Eh           -8.9578 eV

 SCC (total)                   0 d,  0 h,  0 min, 14.385 sec
 SCC setup                      ...        0 min,  0.148 sec (  1.027%)
 Dispersion                     ...        0 min,  0.136 sec (  0.945%)
 integral evaluation            ...        0 min,  0.627 sec (  4.362%)
 zeroth order Hamiltonian       ...        0 min,  0.016 sec (  0.111%)
 iterations                     ...        0 min, 10.042 sec ( 69.809%)
 molecular gradient             ...        0 min,  3.333 sec ( 23.171%)
 printout                       ...        0 min,  0.082 sec (  0.573%)

         :::::::::::::::::::::::::::::::::::::::::::::::::::::
         ::                     SUMMARY                     ::
         :::::::::::::::::::::::::::::::::::::::::::::::::::::
         :: total energy             -613.629703512739 Eh   ::
         :: total w/o Gsasa/hb       -613.562970503337 Eh   ::
         :: gradient norm               0.706342532497 Eh/α ::
         :: HOMO-LUMO gap               1.489322670412 eV   ::
         ::.................................................::
         :: SCC energy               -621.340527697114 Eh   ::
         :: -> isotropic ES             2.254435937082 Eh   ::
         :: -> anisotropic ES          -0.063448723235 Eh   ::
         :: -> anisotropic XC           0.216011712216 Eh   ::
         :: -> dispersion              -0.495081632164 Eh   ::
         :: -> Gsolv                   -0.756953985179 Eh   ::
         ::    -> Gborn                -0.690220975777 Eh   ::
         ::    -> Gsasa                -0.018651346366 Eh   ::
         ::    -> Ghb                  -0.049939106163 Eh   ::
         ::    -> Gshift                0.001857443127 Eh   ::
         :: repulsion energy            7.672645154926 Eh   ::
         :: add. restraining            0.000000000000 Eh   ::
         :::::::::::::::::::::::::::::::::::::::::::::::::::::

           -------------------------------------------------
          |                Property Printout                |
           -------------------------------------------------

    * Orbital Energies and Occupations

         #    Occupation            Energy/Eh            Energy/eV
      -------------------------------------------------------------
         1        2.0000           -0.7463110             -20.3082
       ...           ...                  ...                  ...
       531        2.0000           -0.3802390             -10.3468
       532        2.0000           -0.3780763             -10.2880
       533        2.0000           -0.3772628             -10.2658
       534        2.0000           -0.3746186             -10.1939
       535        2.0000           -0.3715827             -10.1113
       536        2.0000           -0.3707891             -10.0897
       537        2.0000           -0.3669113              -9.9842
       538        2.0000           -0.3640203              -9.9055
       539        2.0000           -0.3639769              -9.9043
       540        2.0000           -0.3609356              -9.8216
       541        2.0000           -0.3590857              -9.7712
       542        2.0000           -0.3588193              -9.7640
       543        2.0000           -0.3566311              -9.7044 (HOMO)
       544                         -0.3018995              -8.2151 (LUMO)
       545                         -0.2993365              -8.1454
       546                         -0.2992641              -8.1434
       547                         -0.2955586              -8.0426
       548                         -0.2943422              -8.0095
       549                         -0.2869854              -7.8093
       550                         -0.2805364              -7.6338
       551                         -0.2797281              -7.6118
       552                         -0.2758493              -7.5062
       553                         -0.2706917              -7.3659
       554                         -0.2452232              -6.6729
       ...                                ...                  ...
       981                          0.6801710              18.5084
      -------------------------------------------------------------
                  HL-Gap            0.0547316 Eh            1.4893 eV
             Fermi-level           -0.3291927 Eh           -8.9578 eV

   #   Z        covCN         q      C6AA      α(0)
   1   7 N      2.631    -0.398    30.328     8.179
   2   6 C      3.735    -0.009    20.819     6.512
   3   6 C      2.751     0.280    22.268     7.727
   4   8 O      0.858    -0.501    23.801     6.541
   5   1 H      0.860     0.174     1.247     1.749
   6   1 H      0.924     0.041     2.432     2.439
   7   1 H      0.924     0.043     2.407     2.426
   8   7 N      2.694    -0.170    24.680     7.378
   9   6 C      3.794     0.017    20.296     6.415
  10   6 C      2.758     0.257    22.672     7.797
  11   8 O      0.859    -0.476    23.266     6.467
  12   6 C      3.757    -0.138    23.217     6.870
  13   1 H      0.860     0.206     1.076     1.625
  14   1 H      0.924     0.076     2.021     2.223
  15   1 H      0.925     0.072     2.060     2.244
  16   1 H      0.925     0.085     1.924     2.169
  17   1 H      0.925     0.072     2.068     2.249
  18   7 N      2.695    -0.156    24.374     7.332
  19   6 C      3.793     0.017    20.301     6.416
  20   6 C      2.773     0.196    23.816     7.993
  21   8 O      0.856    -0.349    20.693     6.099
  22   6 C      3.808    -0.086    22.138     6.698
  23   6 C      3.849    -0.014    20.799     6.487
  24   6 C      3.755    -0.129    23.027     6.842
  25   6 C      3.757    -0.121    22.869     6.818
  26   1 H      0.860     0.200     1.105     1.647
  27   1 H      0.924     0.095     1.828     2.114
  28   1 H      0.925     0.056     2.245     2.343
  29   1 H      0.924     0.078     1.998     2.211
  30   1 H      0.924     0.043     2.413     2.429
  31   1 H      0.925     0.059     2.208     2.324
  32   1 H      0.925     0.041     2.435     2.440
  33   1 H      0.925     0.042     2.423     2.434
  34   1 H      0.925     0.049     2.327     2.385
  35   1 H      0.925     0.033     2.537     2.491
  36   1 H      0.925     0.052     2.298     2.371
  37   7 N      2.633    -0.387    30.009     8.136
  38   6 C      3.784     0.020    20.250     6.410
  39   6 C      2.752     0.277    22.308     7.734
  40   8 O      0.859    -0.512    24.050     6.575
  41   6 C      3.801    -0.072    21.877     6.659
  42   6 C      3.847    -0.007    20.661     6.466
  43   6 C      3.752    -0.111    22.685     6.792
  44   6 C      3.753    -0.102    22.511     6.766
  45   1 H      0.860     0.154     1.376     1.837
  46   1 H      0.924     0.073     2.051     2.240
  47   1 H      0.924     0.032     2.561     2.503
  48   1 H      0.924     0.037     2.492     2.469
  49   1 H      0.924     0.026     2.651     2.546
  50   1 H      0.925     0.034     2.525     2.485
  51   1 H      0.925     0.041     2.435     2.440
  52   1 H      0.925     0.043     2.414     2.430
  53   1 H      0.925     0.035     2.520     2.483
  54   1 H      0.925     0.030     2.584     2.514
  55   1 H      0.925     0.029     2.599     2.521
  56   7 N      2.690    -0.179    24.881     7.408
  57   6 C      3.793     0.027    20.129     6.389
  58   6 C      2.753     0.280    22.262     7.726
  59   8 O      0.859    -0.464    22.997     6.430
  60   6 C      3.812    -0.080    22.023     6.680
  61   6 C      3.849    -0.008    20.694     6.471
  62   6 C      3.756    -0.116    22.785     6.806
  63   6 C      3.756    -0.119    22.842     6.814
  64   1 H      0.860     0.223     0.995     1.563
  65   1 H      0.924     0.044     2.403     2.424
  66   1 H      0.924     0.069     2.097     2.264
  67   1 H      0.924     0.067     2.117     2.275
  68   1 H      0.924     0.015     2.814     2.623
  69   1 H      0.925     0.042     2.427     2.436
  70   1 H      0.925     0.026     2.638     2.540
  71   1 H      0.925     0.055     2.261     2.351
  72   1 H      0.925     0.046     2.370     2.408
  73   1 H      0.925     0.055     2.264     2.353
  74   1 H      0.925     0.044     2.402     2.424
  75   7 N      2.691    -0.167    24.610     7.368
  76   6 C      3.792     0.023    20.188     6.399
  77   6 C      2.760     0.274    22.363     7.744
  78   8 O      0.858    -0.484    23.442     6.491
  79   6 C      3.756    -0.117    22.803     6.809
  80   1 H      0.860     0.196     1.125     1.661
  81   1 H      0.924     0.087     1.905     2.159
  82   1 H      0.925     0.047     2.352     2.398
  83   1 H      0.925     0.079     1.992     2.207
  84   1 H      0.925     0.040     2.450     2.448
  85   7 N      2.692    -0.178    24.858     7.405
  86   6 C      3.795     0.019    20.257     6.409
  87   6 C      2.761     0.280    22.261     7.727
  88   8 O      0.858    -0.496    23.706     6.528
  89   6 C      3.850    -0.020    20.901     6.503
  90   6 C      3.755    -0.115    22.761     6.803
  91   6 C      3.755    -0.122    22.899     6.823
  92   1 H      0.860     0.214     1.038     1.596
  93   1 H      0.924     0.060     2.200     2.319
  94   1 H      0.924     0.071     2.075     2.253
  95   1 H      0.925     0.070     2.086     2.259
  96   1 H      0.925     0.052     2.301     2.372
  97   1 H      0.925     0.027     2.627     2.534
  98   1 H      0.925     0.074     2.042     2.234
  99   1 H      0.925     0.033     2.542     2.493
 100   1 H      0.925     0.040     2.452     2.449
 101   7 N      2.689    -0.206    25.473     7.496
 102   6 C      3.805     0.058    19.607     6.304
 103   6 C      2.754     0.287    22.142     7.705
 104   8 O      0.858    -0.486    23.473     6.496
 105   6 C      3.805    -0.092    22.247     6.715
 106   6 C      2.684     0.373    20.679     7.442
 107   8 O      0.856    -0.626    26.768     6.937
 108   8 O      0.856    -0.609    26.331     6.880
 109   1 H      0.859     0.230     0.967     1.540
 110   1 H      0.923     0.010     2.886     2.657
 111   1 H      0.924     0.044     2.392     2.419
 112   1 H      0.924     0.012     2.860     2.645
 113   7 N      2.698    -0.184    24.990     7.424
 114   6 C      3.790     0.039    19.925     6.357
 115   6 C      2.763     0.275    22.357     7.743
 116   8 O      0.859    -0.493    23.639     6.519
 117   6 C      3.807    -0.049    21.441     6.592
 118   6 C      3.803    -0.074    21.917     6.665
 119   6 C      3.739     0.002    20.619     6.479
 120   7 N      2.700    -0.156    24.375     7.333
 121   6 C      2.736     0.234    23.096     7.868
 122   7 N      2.658    -0.252    26.545     7.652
 123   7 N      2.650    -0.250    26.516     7.648
 124   1 H      0.860     0.206     1.075     1.624
 125   1 H      0.924     0.061     2.189     2.313
 126   1 H      0.924     0.016     2.799     2.617
 127   1 H      0.924     0.039     2.462     2.454
 128   1 H      0.924     0.093     1.851     2.128
 129   1 H      0.925     0.057     2.240     2.341
 130   1 H      0.925     0.071     2.071     2.251
 131   1 H      0.924     0.043     2.411     2.428
 132   1 H      0.859     0.241     0.921     1.503
 133   1 H      0.860     0.234     0.948     1.526
 134   1 H      0.860     0.252     0.875     1.466
 135   1 H      0.860     0.207     1.073     1.623
 136   1 H      0.860     0.260     0.845     1.440
 137   7 N      2.689    -0.171    24.695     7.381
 138   6 C      3.796     0.026    20.137     6.390
 139   6 C      2.761     0.263    22.558     7.778
 140   8 O      0.859    -0.539    24.675     6.660
 141   6 C      3.753    -0.129    23.028     6.843
 142   1 H      0.860     0.186     1.178     1.700
 143   1 H      0.924     0.079     1.985     2.203
 144   1 H      0.925     0.092     1.858     2.131
 145   1 H      0.925     0.071     2.077     2.254
 146   1 H      0.925     0.060     2.199     2.319
 147   7 N      2.760    -0.079    22.767     7.087
 148   6 C      3.827     0.035    19.964     6.358
 149   6 C      2.764     0.209    23.565     7.950
 150   8 O      0.856    -0.362    20.939     6.135
 151   6 C      3.834    -0.067    21.766     6.638
 152   6 C      3.833    -0.074    21.890     6.657
 153   6 C      3.770    -0.019    20.943     6.522
 154   1 H      0.924     0.051     2.309     2.376
 155   1 H      0.925     0.081     1.968     2.194
 156   1 H      0.924     0.066     2.136     2.285
 157   1 H      0.924     0.080     1.984     2.203
 158   1 H      0.925     0.095     1.830     2.116
 159   1 H      0.925     0.087     1.905     2.158
 160   1 H      0.924     0.066     2.127     2.281
 161   7 N      2.635    -0.378    29.770     8.103
 162   6 C      3.786     0.041    19.893     6.353
 163   6 C      2.756     0.272    22.401     7.750
 164   8 O      0.858    -0.474    23.221     6.461
 165   6 C      3.807    -0.048    21.429     6.590
 166   6 C      3.796    -0.087    22.168     6.704
 167   6 C      2.683     0.371    20.705     7.447
 168   8 O      0.856    -0.639    27.102     6.980
 169   8 O      0.856    -0.645    27.246     6.998
 170   1 H      0.860     0.165     1.305     1.789
 171   1 H      0.923     0.017     2.776     2.606
 172   1 H      0.924     0.037     2.484     2.465
 173   1 H      0.924     0.001     3.047     2.730
 174   1 H      0.924     0.003     3.010     2.713
 175   1 H      0.924     0.026     2.646     2.544
 176   7 N      2.690    -0.231    26.048     7.580
 177   6 C      3.792     0.047    19.800     6.337
 178   6 C      2.758     0.255    22.717     7.805
 179   8 O      0.860    -0.520    24.232     6.600
 180   6 C      3.804    -0.084    22.107     6.694
 181   6 C      2.683     0.374    20.670     7.440
 182   8 O      0.856    -0.625    26.742     6.933
 183   8 O      0.856    -0.610    26.359     6.883
 184   1 H      0.859     0.211     1.052     1.606
 185   1 H      0.923     0.061     2.192     2.315
 186   1 H      0.925     0.050     2.316     2.380
 187   1 H      0.924     0.012     2.865     2.647
 188   7 N      2.758    -0.072    22.642     7.067
 189   6 C      3.833     0.023    20.165     6.389
 190   6 C      2.765     0.202    23.701     7.973
 191   8 O      0.856    -0.350    20.702     6.100
 192   6 C      3.829    -0.070    21.814     6.646
 193   6 C      3.830    -0.071    21.825     6.647
 194   6 C      3.763    -0.001    20.638     6.476
 195   1 H      0.924     0.084     1.933     2.174
 196   1 H      0.925     0.092     1.856     2.130
 197   1 H      0.925     0.065     2.137     2.286
 198   1 H      0.925     0.079     1.986     2.204
 199   1 H      0.925     0.068     2.109     2.271
 200   1 H      0.924     0.065     2.146     2.291
 201   1 H      0.924     0.038     2.471     2.458
 202   7 N      2.638    -0.380    29.819     8.110
 203   6 C      3.789     0.044    19.855     6.346
 204   6 C      2.768     0.205    23.639     7.963
 205   8 O      0.856    -0.349    20.696     6.099
 206   6 C      3.853    -0.009    20.705     6.472
 207   6 C      3.756    -0.099    22.450     6.756
 208   6 C      3.756    -0.098    22.426     6.752
 209   1 H      0.860     0.173     1.253     1.754
 210   1 H      0.924     0.021     2.715     2.577
 211   1 H      0.924     0.053     2.288     2.365
 212   1 H      0.925     0.039     2.458     2.452
 213   1 H      0.925     0.043     2.414     2.430
 214   1 H      0.925     0.025     2.653     2.547
 215   1 H      0.925     0.040     2.444     2.445
 216   1 H      0.924     0.011     2.870     2.649
 217   1 H      0.925     0.047     2.355     2.400
 218   7 N      2.640    -0.390    30.092     8.147
 219   6 C      3.787     0.038    19.948     6.361
 220   6 C      2.772     0.255    22.703     7.804
 221   8 O      0.859    -0.509    23.985     6.566
 222   6 C      3.805    -0.106    22.525     6.757
 223   6 C      2.744     0.290    22.086     7.695
 224   8 O      0.859    -0.488    23.517     6.502
 225   7 N      2.637    -0.288    27.440     7.780
 226   1 H      0.860     0.152     1.386     1.844
 227   1 H      0.923     0.067     2.123     2.279
 228   1 H      0.925     0.055     2.263     2.352
 229   1 H      0.924     0.070     2.089     2.260
 230   1 H      0.860     0.242     0.915     1.499
 231   1 H      0.860     0.227     0.976     1.548
 232   7 N      2.758    -0.097    23.130     7.143
 233   6 C      3.835     0.027    20.092     6.377
 234   6 C      2.764     0.212    23.510     7.941
 235   8 O      0.856    -0.371    21.109     6.160
 236   6 C      3.831    -0.064    21.705     6.629
 237   6 C      3.834    -0.077    21.947     6.665
 238   6 C      3.772    -0.018    20.932     6.519
 239   1 H      0.923     0.098     1.808     2.103
 240   1 H      0.925     0.062     2.171     2.304
 241   1 H      0.925     0.079     1.994     2.208
 242   1 H      0.925     0.087     1.907     2.160
 243   1 H      0.925     0.075     2.031     2.229
 244   1 H      0.924     0.068     2.103     2.268
 245   1 H      0.925     0.090     1.879     2.143
 246   7 N      2.634    -0.402    30.429     8.193
 247   6 C      3.786     0.062    19.547     6.297
 248   6 C      2.759     0.259    22.646     7.793
 249   8 O      0.858    -0.520    24.235     6.600
 250   6 C      3.810    -0.084    22.089     6.690
 251   6 C      2.684     0.375    20.642     7.435
 252   8 O      0.856    -0.642    27.185     6.990
 253   8 O      0.856    -0.629    26.853     6.948
 254   1 H      0.859     0.186     1.179     1.701
 255   1 H      0.923    -0.019     3.414     2.890
 256   1 H      0.924     0.041     2.439     2.442
 257   1 H      0.925     0.017     2.781     2.608
 258   7 N      2.688    -0.178    24.844     7.403
 259   6 C      3.798     0.007    20.458     6.440
 260   6 C      2.754     0.270    22.439     7.757
 261   8 O      0.858    -0.482    23.393     6.485
 262   6 C      3.852    -0.021    20.915     6.505
 263   6 C      3.757    -0.125    22.947     6.830
 264   6 C      3.756    -0.115    22.757     6.802
 265   1 H      0.860     0.227     0.978     1.549
 266   1 H      0.924     0.080     1.984     2.203
 267   1 H      0.924     0.051     2.313     2.378
 268   1 H      0.925     0.073     2.053     2.240
 269   1 H      0.925     0.046     2.375     2.410
 270   1 H      0.925     0.061     2.190     2.314
 271   1 H      0.925     0.072     2.060     2.244
 272   1 H      0.925     0.044     2.390     2.418
 273   1 H      0.925     0.023     2.688     2.564
 274   7 N      2.693    -0.184    24.987     7.424
 275   6 C      3.798     0.023    20.186     6.397
 276   6 C      2.762     0.270    22.437     7.757
 277   8 O      0.858    -0.476    23.262     6.466
 278   6 C      3.815    -0.071    21.852     6.653
 279   6 C      2.972     0.014    27.701     8.633
 280   6 C      2.926    -0.034    28.849     8.808
 281   6 C      2.926    -0.043    29.058     8.840
 282   6 C      2.920    -0.031    28.778     8.797
 283   6 C      2.920    -0.035    28.863     8.810
 284   6 C      2.922    -0.035    28.868     8.811
 285   1 H      0.860     0.234     0.949     1.526
 286   1 H      0.924     0.065     2.146     2.291
 287   1 H      0.924     0.058     2.223     2.332
 288   1 H      0.925     0.061     2.188     2.313
 289   1 H      0.926     0.021     2.725     2.581
 290   1 H      0.926     0.038     2.469     2.457
 291   1 H      0.926     0.036     2.498     2.471
 292   1 H      0.926     0.056     2.243     2.342
 293   1 H      0.926     0.053     2.286     2.364
 294   7 N      2.692    -0.178    24.850     7.404
 295   6 C      3.792     0.026    20.152     6.393
 296   6 C      2.764     0.198    23.782     7.986
 297   8 O      0.856    -0.331    20.352     6.048
 298   6 C      3.803    -0.066    21.760     6.641
 299   6 C      3.804    -0.099    22.395     6.737
 300   6 C      2.744     0.289    22.108     7.699
 301   8 O      0.858    -0.491    23.587     6.511
 302   7 N      2.637    -0.284    27.326     7.764
 303   1 H      0.860     0.208     1.064     1.616
 304   1 H      0.923     0.096     1.823     2.112
 305   1 H      0.924     0.040     2.446     2.446
 306   1 H      0.924     0.070     2.084     2.257
 307   1 H      0.924     0.086     1.920     2.167
 308   1 H      0.925     0.044     2.394     2.419
 309   1 H      0.860     0.215     1.034     1.593
 310   1 H      0.860     0.241     0.919     1.502
 311   7 N      2.634    -0.382    29.875     8.118
 312   6 C      3.786     0.033    20.026     6.374
 313   6 C      2.765     0.205    23.637     7.962
 314   8 O      0.856    -0.361    20.910     6.131
 315   6 C      3.853    -0.019    20.870     6.498
 316   6 C      3.757    -0.117    22.797     6.808
 317   6 C      3.756    -0.105    22.553     6.771
 318   1 H      0.860     0.163     1.314     1.796
 319   1 H      0.924     0.042     2.417     2.431
 320   1 H      0.924     0.050     2.321     2.382
 321   1 H      0.925     0.053     2.285     2.364
 322   1 H      0.925     0.039     2.464     2.455
 323   1 H      0.925     0.038     2.476     2.461
 324   1 H      0.925     0.050     2.324     2.384
 325   1 H      0.925     0.020     2.737     2.587
 326   1 H      0.925     0.042     2.421     2.433
 327   7 N      2.634    -0.383    29.906     8.122
 328   6 C      3.780     0.035    19.999     6.371
 329   6 C      2.763     0.199    23.770     7.984
 330   8 O      0.856    -0.366    21.011     6.146
 331   6 C      3.804    -0.078    21.996     6.677
 332   6 C      3.848    -0.008    20.679     6.468
 333   6 C      3.758    -0.109    22.645     6.785
 334   6 C      3.757    -0.112    22.702     6.793
 335   1 H      0.860     0.160     1.332     1.808
 336   1 H      0.924     0.064     2.153     2.294
 337   1 H      0.924     0.048     2.350     2.397
 338   1 H      0.924     0.055     2.257     2.349
 339   1 H      0.924     0.039     2.459     2.452
 340   1 H      0.925     0.038     2.469     2.457
 341   1 H      0.925     0.033     2.549     2.497
 342   1 H      0.925     0.038     2.474     2.460
 343   1 H      0.925     0.035     2.512     2.478
 344   1 H      0.925     0.039     2.461     2.453
 345   1 H      0.925     0.039     2.458     2.452
 346   7 N      2.633    -0.373    29.625     8.084
 347   6 C      3.780     0.038    19.960     6.364
 348   6 C      2.766     0.200    23.732     7.978
 349   8 O      0.856    -0.371    21.108     6.160
 350   6 C      3.807    -0.071    21.854     6.655
 351   6 C      2.964    -0.004    28.127     8.699
 352   6 C      2.927    -0.037    28.917     8.819
 353   6 C      2.928    -0.045    29.110     8.848
 354   6 C      2.918    -0.073    29.809     8.953
 355   6 C      2.918    -0.058    29.433     8.897
 356   6 C      2.845     0.145    24.848     8.170
 357   8 O      1.659    -0.439    21.616     6.276
 358   1 H      0.860     0.166     1.300     1.786
 359   1 H      0.924     0.065     2.140     2.288
 360   1 H      0.924     0.045     2.379     2.412
 361   1 H      0.924     0.069     2.098     2.265
 362   1 H      0.926     0.054     2.267     2.354
 363   1 H      0.926     0.024     2.669     2.555
 364   1 H      0.925     0.049     2.336     2.390
 365   1 H      0.926     0.032     2.556     2.500
 366   1 H      0.805     0.347     0.595     1.211
 367   7 N      2.635    -0.396    30.250     8.169
 368   6 C      3.782     0.040    19.914     6.357
 369   6 C      2.765     0.206    23.623     7.960
 370   8 O      0.856    -0.358    20.855     6.123
 371   6 C      3.807    -0.074    21.915     6.664
 372   6 C      3.849    -0.016    20.829     6.492
 373   6 C      3.755    -0.108    22.629     6.783
 374   6 C      3.755    -0.113    22.725     6.797
 375   1 H      0.860     0.178     1.227     1.735
 376   1 H      0.924     0.051     2.305     2.374
 377   1 H      0.924     0.035     2.511     2.478
 378   1 H      0.924     0.055     2.255     2.348
 379   1 H      0.924     0.037     2.491     2.468
 380   1 H      0.925     0.033     2.550     2.497
 381   1 H      0.925     0.045     2.377     2.411
 382   1 H      0.925     0.027     2.624     2.533
 383   1 H      0.925     0.030     2.592     2.517
 384   1 H      0.925     0.035     2.511     2.478
 385   1 H      0.925     0.034     2.526     2.485
 386   1 H      0.862     0.187     1.177     1.699
 387   1 H      0.930     0.099     1.790     2.092
 388   1 H      0.862     0.190     1.157     1.685
 389   1 H      0.930     0.075     2.028     2.227
 390   1 H      0.862     0.184     1.193     1.711
 391   1 H      0.930     0.096     1.821     2.110
 392   1 H      0.862     0.176     1.237     1.742
 393   1 H      0.930     0.059     2.212     2.326
 394   1 H      0.862     0.179     1.222     1.732
 395   1 H      0.930     0.068     2.111     2.272
 396   1 H      0.862     0.160     1.334     1.809
 397   1 H      0.930     0.092     1.859     2.132
 398   1 H      0.862     0.180     1.211     1.724
 399   1 H      0.930     0.069     2.091     2.261
 400   1 H      0.862     0.184     1.193     1.711
 401   1 H      0.930     0.068     2.105     2.268
 402   1 H      0.862     0.179     1.221     1.731
 403   1 H      0.930     0.062     2.176     2.306
 404   1 H      0.862     0.177     1.232     1.739
 405   1 H      0.930     0.061     2.192     2.315

 Mol. C6AA /au·bohr⁶  :    1501747.502076
 Mol. C8AA /au·bohr⁸  :   33130776.529357
 Mol. α(0) /au        :       1833.261882


Wiberg/Mayer (AO) data.
largest (>0.10) Wiberg bond orders for each atom
          total WBO             WBO to atom ...
     1  N   2.977        C    2 1.024    H    5 0.954    H  386 0.947
     2  C   3.988        N    1 1.024    H    7 0.973    C    3 0.956    H    6 0.947
     3  C   3.943        O    4 1.659    N    8 1.270    C    2 0.956
     4  O   1.962        C    3 1.659    N    8 0.190
     5  H   0.970        N    1 0.954
     6  H   0.998        C    2 0.947
     7  H   0.998        C    2 0.973
     8  N   3.440        C    3 1.270    C    9 0.985    H   13 0.921    O    4 0.190
     9  C   3.965        C   12 0.990    N    8 0.985    H   14 0.947    C   10 0.934
    10  C   3.950        O   11 1.594    N   18 1.325    C    9 0.934
    11  O   1.961        C   10 1.594    N   18 0.191
    12  C   3.980        C    9 0.990    H   17 0.983    H   15 0.981    H   16 0.977
    13  H   0.958        N    8 0.921
    14  H   0.994        C    9 0.947
    15  H   0.994        C   12 0.981
    16  H   0.992        C   12 0.977
    17  H   0.995        C   12 0.983
    18  N   3.490        C   10 1.325    C   19 0.959    H   26 0.927    O   11 0.191
    19  C   3.951        C   20 0.970    C   22 0.961    N   18 0.959    H   27 0.950
    20  C   3.895        O   21 1.908    C   19 0.970    H  387 0.949
    21  O   2.065        C   20 1.908
    22  C   3.978        C   23 0.991    H   28 0.962    C   19 0.961    H   29 0.959
    23  C   3.993        C   24 1.010    C   25 1.008    C   22 0.991    H   30 0.968
    24  C   3.994        C   23 1.010    H   33 0.983    H   32 0.981    H   31 0.974
    25  C   3.993        C   23 1.008    H   35 0.987    H   34 0.984    H   36 0.982
    26  H   0.960        N   18 0.927
    27  H   0.991        C   19 0.950
    28  H   0.997        C   22 0.962
    29  H   0.994        C   22 0.959
    30  H   0.998        C   23 0.968
    31  H   0.996        C   24 0.974
    32  H   0.998        C   24 0.981
    33  H   0.998        C   24 0.983
    34  H   0.997        C   25 0.984
    35  H   0.999        C   25 0.987
    36  H   0.997        C   25 0.982
    37  N   3.002        C   38 1.021    H  388 0.951    H   45 0.949
    38  C   3.984        N   37 1.021    C   41 0.981    C   39 0.941    H   46 0.930
    39  C   3.936        O   40 1.636    N   56 1.287    C   38 0.941
    40  O   1.947        C   39 1.636    N   56 0.188
    41  C   3.995        C   42 0.994    C   38 0.981    H   48 0.976    H   47 0.973
    42  C   3.994        C   44 1.010    C   43 1.008    C   41 0.994    H   49 0.969
    43  C   3.995        C   42 1.008    H   50 0.987    H   51 0.985    H   52 0.979
    44  C   3.997        C   42 1.010    H   53 0.987    H   55 0.985    H   54 0.981
    45  H   0.976        N   37 0.949
    46  H   0.995        C   38 0.930
    47  H   0.999        C   41 0.973
    48  H   0.998        C   41 0.976
    49  H   0.999        C   42 0.969
    50  H   0.999        C   43 0.987
    51  H   0.998        C   43 0.985
    52  H   0.998        C   43 0.979
    53  H   0.999        C   44 0.987
    54  H   0.999        C   44 0.981
    55  H   0.999        C   44 0.985
    56  N   3.449        C   39 1.287    C   57 0.979    H   64 0.916    O   40 0.188
    57  C   3.969        C   60 0.982    N   56 0.979    H   65 0.955    C   58 0.930
    58  C   3.942        O   59 1.644    N   75 1.287    C   57 0.930
    59  O   1.971        C   58 1.644    N   75 0.194
    60  C   3.984        C   61 0.994    C   57 0.982    H   67 0.970    H   66 0.969
    61  C   3.994        C   62 1.010    C   63 1.008    C   60 0.994    H   68 0.968
    62  C   3.995        C   61 1.010    H   69 0.986    H   71 0.985    H   70 0.984
    63  C   3.994        C   61 1.008    H   72 0.986    H   74 0.986    H   73 0.986
    64  H   0.950        N   56 0.916
    65  H   0.998        C   57 0.955
    66  H   0.995        C   60 0.969
    67  H   0.995        C   60 0.970
    68  H   1.000        C   61 0.968
    69  H   0.998        C   62 0.986
    70  H   0.999        C   62 0.984
    71  H   0.997        C   62 0.985
    72  H   0.998        C   63 0.986
    73  H   0.997        C   63 0.986
    74  H   0.998        C   63 0.986
    75  N   3.472        C   58 1.287    C   76 0.994    H   80 0.922    O   59 0.194
    76  C   3.973        N   75 0.994    C   79 0.977    H   81 0.949    C   77 0.941
    77  C   3.943        O   78 1.647    N   85 1.285    C   76 0.941
    78  O   1.967        C   77 1.647    N   85 0.188
    79  C   3.989        H   84 0.987    H   82 0.982    C   76 0.977    H   83 0.976
    80  H   0.961        N   75 0.922
    81  H   0.992        C   76 0.949
    82  H   0.997        C   79 0.982
    83  H   0.993        C   79 0.976
    84  H   0.998        C   79 0.987
    85  N   3.443        C   77 1.285    C   86 0.986    H   92 0.912    O   78 0.188
    86  C   3.963        N   85 0.986    C   89 0.953    H   93 0.948    C   87 0.938
    87  C   3.938        O   88 1.625    N  101 1.296    C   86 0.938
    88  O   1.960        C   87 1.625    N  101 0.187
    89  C   3.984        C   91 1.010    C   90 1.009    H   94 0.963    C   86 0.953
    90  C   3.993        C   89 1.009    H   97 0.984    H   95 0.983    H   96 0.982
    91  C   3.992        C   89 1.010    H  100 0.985    H   99 0.982    H   98 0.981
    92  H   0.954        N   85 0.912
    93  H   0.996        C   86 0.948
    94  H   0.995        C   89 0.963
    95  H   0.995        C   90 0.983
    96  H   0.997        C   90 0.982
    97  H   0.999        C   90 0.984
    98  H   0.994        C   91 0.981
    99  H   0.999        C   91 0.982
   100  H   0.998        C   91 0.985
   101  N   3.435        C   87 1.296    C  102 0.987    H  109 0.855    O   88 0.187
   102  C   3.977        N  101 0.987    C  105 0.973    H  110 0.951    C  103 0.940
   103  C   3.948        O  104 1.604    N  113 1.309    C  102 0.940
   104  O   1.928        C  103 1.604    N  113 0.190
   105  C   3.984        H  112 0.981    C  102 0.973    H  111 0.969    C  106 0.908
   106  C   3.936        O  107 1.532    O  108 1.472    C  105 0.908
   107  O   1.824        C  106 1.532    O  108 0.215
   108  O   1.847        C  106 1.472    O  107 0.215
   109  H   0.947        N  101 0.855
   110  H   1.000        C  102 0.951
   111  H   0.998        C  105 0.969
   112  H   0.999        C  105 0.981
   113  N   3.480        C  103 1.309    C  114 0.993    H  124 0.884    O  104 0.190
   114  C   3.971        N  113 0.993    C  117 0.964    H  125 0.950    C  115 0.939
   115  C   3.945        O  116 1.647    N  137 1.280    C  114 0.939
   116  O   1.957        C  115 1.647    N  137 0.192
   117  C   3.991        C  118 1.004    H  126 0.975    H  127 0.971    C  114 0.964
   118  C   3.983        C  117 1.004    C  119 0.998    H  129 0.965    H  128 0.954
   119  C   3.970        C  118 0.998    N  120 0.997    H  130 0.961    H  131 0.956
   120  N   3.490        C  121 1.344    C  119 0.997    H  132 0.855    N  122 0.102    N  123 0.102
   121  C   3.974        N  120 1.344    N  123 1.298    N  122 1.294
   122  N   3.365        C  121 1.294    H  134 0.915    H  133 0.914    N  120 0.102
   123  N   3.360        C  121 1.298    H  135 0.927    H  136 0.868    N  120 0.102
   124  H   0.957        N  113 0.884
   125  H   0.996        C  114 0.950
   126  H   1.000        C  117 0.975
   127  H   0.998        C  117 0.971
   128  H   0.991        C  118 0.954
   129  H   0.996        C  118 0.965
   130  H   0.994        C  119 0.961
   131  H   0.998        C  119 0.956
   132  H   0.942        N  120 0.855
   133  H   0.945        N  122 0.914
   134  H   0.936        N  122 0.915
   135  H   0.957        N  123 0.927
   136  H   0.932        N  123 0.868
   137  N   3.451        C  115 1.280    C  138 0.978    H  142 0.932    O  116 0.192
   138  C   3.957        C  141 0.986    N  137 0.978    H  143 0.948    C  139 0.932
   139  C   3.947        O  140 1.598    N  147 1.314    C  138 0.932
   140  O   1.918        C  139 1.598    N  147 0.194
   141  C   3.982        C  138 0.986    H  146 0.985    H  144 0.979    H  145 0.977
   142  H   0.965        N  137 0.932
   143  H   0.994        C  138 0.948
   144  H   0.991        C  141 0.979
   145  H   0.995        C  141 0.977
   146  H   0.996        C  141 0.985
   147  N   3.530        C  139 1.314    C  148 0.974    C  153 0.965    O  140 0.194
   148  C   3.972        C  149 0.976    N  147 0.974    C  151 0.960    H  154 0.948
   149  C   3.902        O  150 1.902    C  148 0.976    H  389 0.953
   150  O   2.046        C  149 1.902
   151  C   3.981        C  152 1.005    H  156 0.974    H  155 0.972    C  148 0.960
   152  C   3.984        C  151 1.005    C  153 1.004    H  157 0.975    H  158 0.969
   153  C   3.951        C  152 1.004    N  147 0.965    H  160 0.963    H  159 0.963
   154  H   0.997        C  148 0.948
   155  H   0.993        C  151 0.972
   156  H   0.996        C  151 0.974
   157  H   0.994        C  152 0.975
   158  H   0.990        C  152 0.969
   159  H   0.992        C  153 0.963
   160  H   0.996        C  153 0.963
   161  N   3.001        C  162 1.028    H  170 0.956    H  390 0.951
   162  C   3.989        N  161 1.028    C  165 0.972    H  171 0.951    C  163 0.938
   163  C   3.942        O  164 1.653    N  176 1.271    C  162 0.938
   164  O   1.960        C  163 1.653    N  176 0.185
   165  C   3.994        C  166 1.006    C  162 0.972    H  173 0.972    H  172 0.969
   166  C   3.988        C  165 1.006    H  174 0.983    H  175 0.963    C  167 0.905
   167  C   3.935        O  169 1.506    O  168 1.503    C  166 0.905
   168  O   1.799        C  167 1.503    O  169 0.216
   169  O   1.795        C  167 1.506    O  168 0.216
   170  H   0.973        N  161 0.956
   171  H   1.000        C  162 0.951
   172  H   0.999        C  165 0.969
   173  H   1.000        C  165 0.972
   174  H   1.000        C  166 0.983
   175  H   0.999        C  166 0.963
   176  N   3.418        C  163 1.271    C  177 0.986    H  184 0.853    O  164 0.185
   177  C   3.971        N  176 0.986    C  180 0.978    C  178 0.941    H  185 0.937
   178  C   3.956        O  179 1.593    N  188 1.320    C  177 0.941
   179  O   1.915        C  178 1.593    N  188 0.194
   180  C   3.989        C  177 0.978    H  186 0.969    H  187 0.968    C  181 0.924
   181  C   3.929        O  183 1.500    O  182 1.471    C  180 0.924
   182  O   1.856        C  181 1.471    O  183 0.204
   183  O   1.844        C  181 1.500    O  182 0.204
   184  H   0.955        N  176 0.853
   185  H   0.996        C  177 0.937
   186  H   0.997        C  180 0.969
   187  H   0.999        C  180 0.968
   188  N   3.538        C  178 1.320    C  194 0.975    C  189 0.967    O  179 0.194
   189  C   3.963        C  190 0.974    N  188 0.967    C  192 0.961    H  195 0.945
   190  C   3.904        O  191 1.913    C  189 0.974    H  391 0.949
   191  O   2.055        C  190 1.913
   192  C   3.984        C  193 1.004    H  197 0.973    H  196 0.970    C  189 0.961
   193  C   3.988        C  192 1.004    C  194 0.999    H  198 0.977    H  199 0.977
   194  C   3.961        C  193 0.999    N  188 0.975    H  201 0.967    H  200 0.967
   195  H   0.993        C  189 0.945
   196  H   0.991        C  192 0.970
   197  H   0.996        C  192 0.973
   198  H   0.994        C  193 0.977
   199  H   0.995        C  193 0.977
   200  H   0.996        C  194 0.967
   201  H   0.999        C  194 0.967
   202  N   2.998        C  203 1.010    H  392 0.956    H  209 0.951
   203  C   3.988        N  202 1.010    C  204 0.975    H  210 0.967    C  206 0.949
   204  C   3.904        O  205 1.908    C  203 0.975    H  393 0.955
   205  O   2.045        C  204 1.908
   206  C   3.994        C  208 1.009    C  207 1.007    H  211 0.963    C  203 0.949
   207  C   3.996        C  206 1.007    H  214 0.983    H  213 0.980    H  212 0.979
   208  C   3.995        C  206 1.009    H  216 0.985    H  215 0.983    H  217 0.981
   209  H   0.970        N  202 0.951
   210  H   0.999        C  203 0.967
   211  H   0.997        C  206 0.963
   212  H   0.998        C  207 0.979
   213  H   0.998        C  207 0.980
   214  H   0.999        C  207 0.983
   215  H   0.998        C  208 0.983
   216  H   1.000        C  208 0.985
   217  H   0.998        C  208 0.981
   218  N   2.994        C  219 1.026    H  394 0.952    H  226 0.942
   219  C   3.985        N  218 1.026    C  222 0.964    C  220 0.950    H  227 0.936
   220  C   3.945        O  221 1.614    N  232 1.287    C  219 0.950
   221  O   1.956        C  220 1.614    N  232 0.189
   222  C   3.993        H  228 0.971    C  223 0.964    C  219 0.964    H  229 0.953
   223  C   3.949        O  224 1.648    N  225 1.309    C  222 0.964
   224  O   1.960        C  223 1.648    N  225 0.198
   225  N   3.390        C  223 1.309    H  231 0.929    H  230 0.920    O  224 0.198
   226  H   0.977        N  218 0.942
   227  H   0.995        C  219 0.936
   228  H   0.997        C  222 0.971
   229  H   0.995        C  222 0.953
   230  H   0.941        N  225 0.920
   231  H   0.948        N  225 0.929
   232  N   3.507        C  220 1.287    C  233 0.978    C  238 0.968    O  221 0.189
   233  C   3.971        C  234 1.000    N  232 0.978    C  236 0.955    H  239 0.921
   234  C   3.890        O  235 1.831    C  233 1.000    H  395 0.954
   235  O   2.068        C  234 1.831
   236  C   3.980        C  237 1.003    H  240 0.977    H  241 0.969    C  233 0.955
   237  C   3.987        C  236 1.003    C  238 1.002    H  243 0.975    H  242 0.971
   238  C   3.952        C  237 1.002    N  232 0.968    H  244 0.963    H  245 0.959
   239  H   0.990        C  233 0.921
   240  H   0.996        C  236 0.977
   241  H   0.993        C  236 0.969
   242  H   0.992        C  237 0.971
   243  H   0.994        C  237 0.975
   244  H   0.995        C  238 0.963
   245  H   0.992        C  238 0.959
   246  N   3.004        C  247 1.022    H  396 0.964    H  254 0.913
   247  C   3.986        N  246 1.022    C  250 0.974    H  255 0.949    C  248 0.940
   248  C   3.948        O  249 1.542    N  258 1.358    C  247 0.940
   249  O   1.932        C  248 1.542    N  258 0.187
   250  C   3.987        H  257 0.980    C  247 0.974    H  256 0.963    C  251 0.916
   251  C   3.933        O  252 1.515    O  253 1.476    C  250 0.916
   252  O   1.807        C  251 1.515    O  253 0.214
   253  O   1.819        C  251 1.476    O  252 0.214
   254  H   0.965        N  246 0.913
   255  H   0.999        C  247 0.949
   256  H   0.998        C  250 0.963
   257  H   1.000        C  250 0.980
   258  N   3.495        C  248 1.358    C  259 0.971    H  265 0.869    O  249 0.187
   259  C   3.947        N  258 0.971    H  266 0.951    C  262 0.949    C  260 0.933
   260  C   3.950        O  261 1.625    N  274 1.311    C  259 0.933
   261  O   1.964        C  260 1.625    N  274 0.199
   262  C   3.983        C  264 1.007    C  263 1.006    H  267 0.963    C  259 0.949
   263  C   3.988        C  262 1.006    H  269 0.983    H  270 0.982    H  268 0.981
   264  C   3.993        C  262 1.007    H  273 0.984    H  272 0.984    H  271 0.975
   265  H   0.948        N  258 0.869
   266  H   0.993        C  259 0.951
   267  H   0.997        C  262 0.963
   268  H   0.994        C  263 0.981
   269  H   0.998        C  263 0.983
   270  H   0.996        C  263 0.982
   271  H   0.994        C  264 0.975
   272  H   0.998        C  264 0.984
   273  H   0.999        C  264 0.984
   274  N   3.475        C  260 1.311    C  275 0.991    H  285 0.881    O  261 0.199
   275  C   3.968        N  274 0.991    H  286 0.951    C  278 0.944    C  276 0.940
   276  C   3.945        O  277 1.646    N  294 1.281    C  275 0.940
   277  O   1.969        C  276 1.646    N  294 0.193
   278  C   3.984        C  279 1.006    H  287 0.972    H  288 0.957    C  275 0.944
   279  C   3.986        C  281 1.417    C  280 1.409    C  278 1.006    C  284 0.110
   280  C   3.991        C  282 1.449    C  279 1.409    H  289 0.966    C  283 0.113
   281  C   3.989        C  283 1.440    C  279 1.417    H  290 0.963    C  282 0.110
   282  C   3.991        C  280 1.449    C  284 1.434    H  291 0.970    C  281 0.110
   283  C   3.990        C  284 1.441    C  281 1.440    H  292 0.969    C  280 0.113
   284  C   3.989        C  283 1.441    C  282 1.434    H  293 0.970    C  279 0.110
   285  H   0.945        N  274 0.881
   286  H   0.995        C  275 0.951
   287  H   0.996        C  278 0.972
   288  H   0.996        C  278 0.957
   289  H   0.999        C  280 0.966
   290  H   0.998        C  281 0.963
   291  H   0.998        C  282 0.970
   292  H   0.996        C  283 0.969
   293  H   0.997        C  284 0.970
   294  N   3.455        C  276 1.281    C  295 0.981    H  303 0.916    O  277 0.193
   295  C   3.967        C  298 0.993    N  294 0.981    C  296 0.967    H  304 0.916
   296  C   3.907        O  297 1.923    C  295 0.967    H  397 0.949
   297  O   2.068        C  296 1.923
   298  C   3.990        C  295 0.993    C  299 0.992    H  305 0.974    H  306 0.971
   299  C   3.994        C  298 0.992    H  308 0.978    C  300 0.970    H  307 0.953
   300  C   3.948        O  301 1.638    N  302 1.315    C  299 0.970
   301  O   1.938        C  300 1.638    N  302 0.199
   302  N   3.401        C  300 1.315    H  309 0.934    H  310 0.920    O  301 0.199
   303  H   0.956        N  294 0.916
   304  H   0.991        C  295 0.916
   305  H   0.998        C  298 0.974
   306  H   0.995        C  298 0.971
   307  H   0.993        C  299 0.953
   308  H   0.998        C  299 0.978
   309  H   0.954        N  302 0.934
   310  H   0.941        N  302 0.920
   311  N   2.999        C  312 1.006    H  318 0.955    H  398 0.953
   312  C   3.984        N  311 1.006    C  313 0.969    H  319 0.967    C  315 0.954
   313  C   3.894        O  314 1.912    C  312 0.969    H  399 0.955
   314  O   2.044        C  313 1.912
   315  C   3.994        C  317 1.009    C  316 1.008    H  320 0.965    C  312 0.954
   316  C   3.995        C  315 1.008    H  323 0.985    H  321 0.984    H  322 0.984
   317  C   3.995        C  315 1.009    H  326 0.982    H  325 0.982    H  324 0.980
   318  H   0.973        N  311 0.955
   319  H   0.998        C  312 0.967
   320  H   0.997        C  315 0.965
   321  H   0.997        C  316 0.984
   322  H   0.998        C  316 0.984
   323  H   0.999        C  316 0.985
   324  H   0.997        C  317 0.980
   325  H   1.000        C  317 0.982
   326  H   0.998        C  317 0.982
   327  N   3.002        C  328 1.025    H  335 0.952    H  400 0.950
   328  C   3.986        N  327 1.025    C  329 0.987    H  336 0.951    C  331 0.944
   329  C   3.897        O  330 1.880    C  328 0.987    H  401 0.955
   330  O   2.063        C  329 1.880
   331  C   3.991        C  332 0.996    H  338 0.971    H  337 0.970    C  328 0.944
   332  C   3.995        C  334 1.009    C  333 1.007    C  331 0.996    H  339 0.964
   333  C   3.996        C  332 1.007    H  342 0.985    H  340 0.985    H  341 0.979
   334  C   3.996        C  332 1.009    H  343 0.987    H  344 0.986    H  345 0.978
   335  H   0.974        N  327 0.952
   336  H   0.996        C  328 0.951
   337  H   0.998        C  331 0.970
   338  H   0.997        C  331 0.971
   339  H   0.998        C  332 0.964
   340  H   0.998        C  333 0.985
   341  H   0.999        C  333 0.979
   342  H   0.998        C  333 0.985
   343  H   0.999        C  334 0.987
   344  H   0.998        C  334 0.986
   345  H   0.998        C  334 0.978
   346  N   3.006        C  347 1.026    H  402 0.952    H  358 0.947
   347  C   3.987        N  346 1.026    C  348 0.992    H  359 0.947    C  350 0.935
   348  C   3.905        O  349 1.890    C  347 0.992    H  403 0.956
   349  O   2.041        C  348 1.890
   350  C   3.992        C  351 1.015    H  360 0.970    H  361 0.952    C  347 0.935
   351  C   3.987        C  352 1.409    C  353 1.398    C  350 1.015
   352  C   3.990        C  354 1.445    C  351 1.409    H  362 0.958    C  355 0.107
   353  C   3.990        C  355 1.461    C  351 1.398    H  363 0.967    C  354 0.105
   354  C   3.986        C  352 1.445    C  356 1.373    H  364 0.964    C  353 0.105
   355  C   3.990        C  353 1.461    C  356 1.363    H  365 0.969    C  352 0.107
   356  C   3.937        C  354 1.373    C  355 1.363    O  357 1.070
   357  O   2.088        C  356 1.070    H  366 0.859
   358  H   0.973        N  346 0.947
   359  H   0.995        C  347 0.947
   360  H   0.998        C  350 0.970
   361  H   0.994        C  350 0.952
   362  H   0.997        C  352 0.958
   363  H   0.999        C  353 0.967
   364  H   0.997        C  354 0.964
   365  H   0.999        C  355 0.969
   366  H   0.879        O  357 0.859
   367  N   2.992        C  368 1.006    H  404 0.954    H  375 0.925
   368  C   3.986        N  367 1.006    C  371 0.985    C  369 0.968    H  376 0.945
   369  C   3.894        O  370 1.909    C  368 0.968    H  405 0.956
   370  O   2.052        C  369 1.909
   371  C   3.995        C  372 0.994    C  368 0.985    H  377 0.973    H  378 0.968
   372  C   3.995        C  373 1.010    C  374 1.009    C  371 0.994    H  379 0.966
   373  C   3.996        C  372 1.010    H  381 0.985    H  382 0.981    H  380 0.981
   374  C   3.996        C  372 1.009    H  385 0.981    H  383 0.980    H  384 0.980
   375  H   0.968        N  367 0.925
   376  H   0.997        C  368 0.945
   377  H   0.999        C  371 0.973
   378  H   0.997        C  371 0.968
   379  H   0.999        C  372 0.966
   380  H   0.999        C  373 0.981
   381  H   0.998        C  373 0.985
   382  H   0.999        C  373 0.981
   383  H   0.999        C  374 0.980
   384  H   0.999        C  374 0.980
   385  H   0.999        C  374 0.981
   386  H   0.965        N    1 0.947
   387  H   0.990        C   20 0.949
   388  H   0.964        N   37 0.951
   389  H   0.994        C  149 0.953
   390  H   0.966        N  161 0.951
   391  H   0.990        C  190 0.949
   392  H   0.969        N  202 0.956
   393  H   0.996        C  204 0.955
   394  H   0.968        N  218 0.952
   395  H   0.995        C  234 0.954
   396  H   0.974        N  246 0.964
   397  H   0.991        C  296 0.949
   398  H   0.967        N  311 0.953
   399  H   0.995        C  313 0.955
   400  H   0.966        N  327 0.950
   401  H   0.995        C  329 0.955
   402  H   0.968        N  346 0.952
   403  H   0.996        C  348 0.956
   404  H   0.969        N  367 0.954
   405  H   0.996        C  369 0.956
 
molecular dipole:
                 x           y           z       tot (Debye)
 q only:     -209.420    -155.731     -72.082
   full:     -213.007    -156.544     -73.930     697.693
molecular quadrupole (traceless):
                xx          xy          yy          xz          yz          zz
 q only:    -9787.845  -16239.648    -180.310   -7489.746   -5333.192    9968.156
  q+dip:   -10298.364  -16628.966     119.101   -7901.253   -5493.170   10179.263
   full:   -10298.383  -16623.099     116.308   -7903.820   -5494.093   10182.076


           -------------------------------------------------
          | TOTAL ENERGY             -613.629703512739 Eh   |
          | GRADIENT NORM               0.706342532497 Eh/α |
          | HOMO-LUMO GAP               1.489322670412 eV   |
           -------------------------------------------------

------------------------------------------------------------------------
 * finished run on 2019/05/31 at 06:33:51.451     
------------------------------------------------------------------------
 total:
 * wall-time:     0 d,  0 h,  0 min, 15.408 sec
 *  cpu-time:     0 d,  0 h,  0 min, 30.436 sec
 * ratio c/w:     1.975 speedup
 SCF:
 * wall-time:     0 d,  0 h,  0 min, 14.392 sec
 *  cpu-time:     0 d,  0 h,  0 min, 28.582 sec
 * ratio c/w:     1.986 speedup

