      -----------------------------------------------------------      
     |                   =====================                   |     
     |                           x T B                           |     
     |                   =====================                   |     
     |                         S. Grimme                         |     
     |          Mulliken Center for Theoretical Chemistry        |     
     |                    University of Bonn                     |     
     |                 Version 6.0.1 (SAW181210)                 |     
      -----------------------------------------------------------      

   This program is distributed in the hope that it will be useful,
   but WITHOUT ANY WARRANTY; without even the implied warranty of
   MERCHANTABILITY or FITNESS FOR A PARTICULAR PURPOSE.
   
   FOR NON-COMMERCIAL, ACADEMIA USE ONLY.
   
   Cite this work as:
   S. Grimme, C. Bannwarth, P. Shushkov, J. Comput. Theory Chem., 2017,
   13, 1989-2009.
   C. Bannwarth, S. Ehlert and S. Grimme., ChemRxiv, 2018, preprint.
   http://doi.org/10.26434/chemrxiv.7246238.v1
   
   for sTDA-xTB:
   S. Grimme and C. Bannwarth, J. Chem. Phys., 2016, 145, 054103.
   
   in the mass-spec context:
   V. Asgeirsson, C. Bauer and S. Grimme, Chem. Sci., 2017, 8, 4879.
   
   if GBSA is used:
   P. Shushkov, F. März and S. Grimme, unpublished.
   
   for ANC optimizer:
   S. Grimme, unpublished.
   Rational Function algorithm used in ANCopt:
   F. Eckert, P. Pulay, H.-J. Werner, J. Comput. Chem., 1997, 18, 1473.
   
   with help from (in alphabetical order)
   C. Bannwarth, F. Bohle, G. Brandenburg, E. Caldeweyher, M. Checinski,
   S. Dohm, S. Ehlert, S. Ehrlich, F. März, H. Neugebauer, J. Pisarek,
   P. Pracht, P. Shushkov, and S. Spicher.
   
 * started run on 2019/03/07 at 11:37:45.958     
========================================================================
 # omp threads = 1
========================================================================
number of atoms            : 425
number of electrons        : 1138
charge                     : 0
spin                       : .0
first test random number   : .1886
           ------------------------------------------------- 
          |                 G F N 2 - x T B                 |
          | Geometry, Frequencies, Noncovalent interactions |
          |            JCTC 2018 parametrisation            |
           ------------------------------------------------- 
 
      method parameters     
 k(s)        :  1.8500
 k(p)        :  2.2300
 k(d)        :  2.2300
 k(f)        :  2.0000
 kEN (H0ij)  : -2.0000
 D4 a1       :  0.5200
 D4 a2       :  5.0000
 D4 s6       :  1.0000
 D4 s8       :  2.7000
 D4 s9       :  5.0000
 alphaj      :  2.0000

 Solvent             : h2o
 Using internal parameter file: .param_gbsa2_h2o
 Gsolv ref. state (COSMO-RS): gsolv [1 M gas/solution]
 temperature (mdtemp)       :    298.150000000000     
 dielectric constant        :    80.2000000000000     
 rho                        :    1.00000000000000     
 mass                       :    18.0000000000000     
 surface tension            :    15.5689454083859     
 probe radius               :   0.975313790000000     
 vdW radii scaling          :    1.00000000000000     
 Gshift (Eh)                :   1.857443126794793E-003
 c1                         :    1.55243817000000     
 soset                      :   0.130326360000000     
 HB correction              :  T

            Z     q(EN)     CN     RAES       Cart. coordinates
     1  N   5.0   -0.22    3.22    1.96   364.59995   132.94222   181.57243
     2  C   4.0    0.03    4.22    4.04   365.14986   135.24391   182.99728
     3  C   4.0    0.08    3.19    3.03   367.51012   134.92643   184.66969
     4  O   6.0   -0.30    1.14    1.80   367.25879   133.98535   186.79563
     5  C   4.0   -0.08    4.20    4.00   362.85951   136.09806   184.56764
     6  H   1.0    0.13    1.09    1.44   363.79114   131.81027   182.41336
     7  H   1.0    0.04    1.13    1.45   365.50890   136.56294   181.77652
     8  H   1.0    0.04    1.05    1.44   363.28470   137.62496   185.48794
     9  H   1.0    0.04    1.05    1.44   361.44410   136.43065   183.45271
    10  H   1.0    0.05    1.05    1.44   362.40408   134.77714   185.75439
    11  N   5.0   -0.21    3.28    1.98   371.07037   137.09395   189.27306
    12  C   4.0    0.03    4.37    4.33   371.08171   138.74746   191.45381
    13  C   4.0    0.08    3.24    3.04   373.78023   139.07438   192.42890
    14  O   6.0   -0.27    1.13    1.80   375.16540   137.22245   192.68969
    15  C   4.0   -0.02    4.37    4.33   369.42064   137.65142   193.61376
    16  C   4.0   -0.08    4.22    4.04   369.43197   139.44099   195.88710
    17  C   4.0   -0.09    4.22    4.04   366.71266   137.26213   192.63488
    18  H   1.0    0.12    1.10    1.44   370.14818   135.77114   189.47526
    19  H   1.0    0.04    1.12    1.45   370.39762   140.36695   190.93602
    20  H   1.0    0.06    1.12    1.45   370.10283   136.03759   194.15233
    21  H   1.0    0.06    1.05    1.44   368.39074   138.73990   197.22314
    22  H   1.0    0.05    1.06    1.44   371.14974   139.64697   196.49559
    23  H   1.0    0.05    1.06    1.44   368.76301   141.07182   195.38444
    24  H   1.0    0.04    1.05    1.44   365.66953   136.57805   193.97848
    25  H   1.0    0.05    1.05    1.44   366.02291   138.87029   192.08497
    26  H   1.0    0.05    1.06    1.44   366.73534   136.09239   191.22326
    27  N   5.0   -0.22    3.17    1.95   378.09259   141.21355   198.26627
    28  C   4.0    0.01    4.15    3.90   378.21731   141.82582   200.94590
    29  C   4.0    0.08    3.15    3.03   379.29256   139.68476   202.49736
    30  O   6.0   -0.29    1.14    1.80   379.29445   137.51536   201.72258
    31  H   1.0    0.13    1.09    1.44   378.68218   139.74901   197.88076
    32  H   1.0    0.05    1.09    1.44   379.24910   143.32249   201.18022
    33  H   1.0    0.05    1.09    1.44   376.53734   142.23211   201.55439
    34  N   5.0   -0.21    3.26    1.97   379.43240   136.65931   210.54949
    35  C   4.0    0.04    4.25    4.09   378.05668   136.65175   212.94188
    36  C   4.0    0.09    3.24    3.04   379.61004   135.21934   214.87885
    37  O   6.0   -0.27    1.14    1.80   380.92151   133.40709   214.26280
    38  C   4.0   -0.06    4.23    4.06   375.49422   135.40453   212.62252
    39  H   1.0    0.12    1.08    1.44   380.12215   135.23635   210.16965
    40  H   1.0    0.05    1.12    1.45   377.78456   138.37518   213.50124
    41  H   1.0    0.07    1.06    1.44   374.60415   135.41398   214.22500
    42  H   1.0    0.06    1.06    1.44   374.51534   136.32672   211.37719
    43  H   1.0    0.07    1.06    1.44   375.72098   133.67354   212.06127
    44  N   5.0   -0.22    3.20    1.95   378.78234   130.77659   203.21546
    45  C   4.0    0.04    4.29    4.18   376.01956   130.42322   202.95846
    46  C   4.0    0.08    3.20    3.04   375.27123   128.93033   200.62653
    47  O   6.0   -0.31    1.14    1.80   373.35127   127.59241   200.61709
    48  C   4.0   -0.03    4.38    4.34   374.58526   132.95545   203.02082
    49  C   4.0    0.16    3.31    3.05   374.28479   134.01936   205.63053
    50  O   6.0   -0.30    1.23    1.80   373.60449   132.69089   207.42199
    51  N   5.0   -0.24    3.24    1.97   374.93864   136.43821   205.98958
    52  H   1.0    0.12    1.08    1.44   379.19241   132.25058   203.76348
    53  H   1.0    0.06    1.13    1.45   375.53012   129.42922   204.41921
    54  H   1.0    0.06    1.10    1.44   375.47532   134.17243   201.97769
    55  H   1.0    0.06    1.10    1.44   372.92608   132.72112   202.27627
    56  H   1.0    0.11    1.09    1.44   374.88761   137.08072   207.48057
    57  H   1.0    0.12    1.09    1.44   375.41107   137.34906   204.72913
    58  N   5.0   -0.23    3.22    1.96   373.15284   122.15755   201.13676
    59  C   4.0    0.03    4.25    4.11   370.68486   121.58875   202.27249
    60  C   4.0    0.08    3.20    3.04   370.73778   119.78028   204.51748
    61  O   6.0   -0.28    1.15    1.80   369.38851   117.89055   204.55905
    62  C   4.0   -0.04    4.48    4.51   368.90474   120.50782   200.21457
    63  C   4.0   -0.03    4.33    4.25   368.44932   121.83819   197.70691
    64  C   4.0   -0.09    4.25    4.10   366.82982   120.23570   196.03639
    65  C   4.0   -0.09    4.24    4.09   367.33249   124.44601   198.09052
    66  H   1.0    0.13    1.09    1.44   373.40040   123.73737   200.84574
    67  H   1.0    0.05    1.13    1.45   370.08204   123.18368   202.94523
    68  H   1.0    0.06    1.10    1.44   369.52646   118.83164   199.81206
    69  H   1.0    0.05    1.11    1.45   367.26257   120.29617   201.00070
    70  H   1.0    0.05    1.14    1.45   370.06503   122.07630   196.87354
    71  H   1.0    0.04    1.06    1.44   366.55014   121.09931   194.44335
    72  H   1.0    0.05    1.06    1.44   367.66697   118.63511   195.72459
    73  H   1.0    0.04    1.06    1.44   365.21789   119.93146   196.85653
    74  H   1.0    0.04    1.06    1.44   367.06604   125.24348   196.46158
    75  H   1.0    0.04    1.06    1.44   365.73000   124.30239   198.96925
    76  H   1.0    0.05    1.06    1.44   368.48522   125.46457   199.08641
    77  N   5.0   -0.22    3.29    1.98   368.60050   120.30751   210.50224
    78  C   4.0    0.03    4.43    4.43   366.07015   120.19035   211.42065
    79  C   4.0    0.16    3.46    3.10   364.36373   119.03384   209.43455
    80  O   6.0   -0.26    1.29    1.80   363.85917   116.80396   209.69533
    81  C   4.0   -0.05    4.39    4.36   365.26135   122.83219   212.26158
    82  C   4.0   -0.03    4.27    4.15   366.57849   123.61642   214.76168
    83  C   4.0    0.25    3.14    3.03   365.55237   126.04850   215.85773
    84  O   6.0   -0.27    1.18    1.80   365.01380   127.85508   214.41587
    85  O   6.0   -0.26    1.18    1.80   365.25757   126.13165   218.20099
    86  H   1.0    0.10    1.10    1.44   369.25434   121.79284   210.58161
    87  H   1.0    0.06    1.14    1.45   365.94543   119.09809   212.88708
    88  H   1.0    0.06    1.09    1.44   365.66764   124.04539   210.94822
    89  H   1.0    0.06    1.09    1.44   363.44343   122.87376   212.48645
    90  H   1.0    0.06    1.09    1.44   366.38007   122.27283   215.99190
    91  H   1.0    0.05    1.09    1.44   368.37562   123.80540   214.45933
    92  N   5.0   -0.16    3.43    2.04   363.61162   120.41334   207.45222
    93  C   4.0    0.04    4.29    4.19   361.96000   119.38344   205.47368
    94  C   4.0    0.11    3.25    3.04   362.16787   116.48460   205.12975
    95  O   6.0   -0.26    1.11    1.80   360.37263   115.12399   205.72691
    96  C   4.0   -0.09    4.18    3.97   362.46078   120.71947   202.92822
    97  H   1.0    0.10    1.13    1.45   364.04248   121.96291   207.21790
    98  H   1.0    0.06    1.13    1.45   360.24791   119.71414   206.04060
    99  H   1.0    0.04    1.05    1.44   361.35718   120.02027   201.64321
   100  H   1.0    0.05    1.05    1.44   362.13196   122.51471   203.10397
   101  H   1.0    0.05    1.06    1.44   364.20877   120.46436   202.43689
   102  N   5.0   -0.22    3.26    1.97   363.85161   124.63310   188.23749
   103  C   4.0    0.03    4.48    4.51   362.49479   126.99525   188.74583
   104  C   4.0    0.15    3.49    3.11   361.65008   128.08185   186.25895
   105  O   6.0   -0.30    1.28    1.80   363.20911   128.58073   184.61678
   106  C   4.0   -0.02    4.40    4.38   364.16153   128.93033   190.17824
   107  C   4.0   -0.08    4.24    4.07   362.76124   131.38320   190.67902
   108  C   4.0   -0.09    4.25    4.10   365.12718   127.79272   192.60465
   109  H   1.0    0.11    1.08    1.44   365.44843   124.82396   188.00883
   110  H   1.0    0.04    1.13    1.45   361.05482   126.63432   189.82108
   111  H   1.0    0.07    1.13    1.45   365.59205   129.33851   189.10866
   112  H   1.0    0.04    1.06    1.44   363.86106   132.54349   191.57475
   113  H   1.0    0.05    1.06    1.44   362.25102   132.13342   189.08598
   114  H   1.0    0.04    1.06    1.44   361.27403   131.04305   191.69569
   115  H   1.0    0.04    1.06    1.44   366.16653   129.01915   193.48526
   116  H   1.0    0.04    1.06    1.44   363.70988   127.32218   193.66667
   117  H   1.0    0.04    1.06    1.44   366.12684   126.30361   192.22670
   118  N   5.0   -0.17    3.52    2.09   359.17454   128.40877   185.96037
   119  C   4.0    0.03    4.59    4.66   358.19944   129.45757   183.60199
   120  C   4.0    0.14    3.47    3.10   356.27759   131.51737   184.11222
   121  O   6.0   -0.30    1.27    1.80   354.92833   131.40965   186.03974
   122  C   4.0   -0.02    4.39    4.36   356.98813   127.40721   181.90313
   123  C   4.0   -0.08    4.24    4.09   358.92132   125.43434   181.20582
   124  C   4.0   -0.07    4.26    4.12   354.72991   126.19212   183.23917
   125  H   1.0    0.12    1.14    1.45   358.04827   128.04405   187.07531
   126  H   1.0    0.05    1.15    1.45   359.63752   130.16810   182.71382
   127  H   1.0    0.05    1.13    1.45   356.38720   128.20090   180.36489
   128  H   1.0    0.05    1.06    1.44   358.14086   124.16066   180.14191
   129  H   1.0    0.05    1.06    1.44   360.30271   126.22613   180.29686
   130  H   1.0    0.06    1.06    1.44   359.56572   124.64443   182.72894
   131  H   1.0    0.04    1.05    1.44   353.99102   124.91277   182.15257
   132  H   1.0    0.07    1.07    1.44   355.28927   125.41544   184.80197
   133  H   1.0    0.06    1.07    1.44   353.47513   127.47524   183.60955
   134  N   5.0   -0.16    3.51    2.08   356.14153   133.31450   182.36989
   135  C   4.0    0.04    4.48    4.50   354.29905   135.34784   182.55887
   136  C   4.0    0.15    3.47    3.10   352.05972   134.56927   180.92425
   137  O   6.0   -0.29    1.23    1.80   352.44334   133.73213   178.74351
   138  C   4.0   -0.06    4.39    4.35   355.45934   137.83472   181.60455
   139  C   4.0   -0.06    4.29    4.18   353.80394   140.18743   181.97872
   140  C   4.0   -0.05    4.33    4.25   352.11453   140.68821   179.73372
   141  C   4.0   -0.04    4.30    4.20   353.61308   141.04914   177.32054
   142  N   5.0   -0.16    4.13    3.23   351.80083   141.17954   175.15303
   143  H   1.0    0.09    1.13    1.45   357.10151   133.39009   181.06031
   144  H   1.0    0.06    1.13    1.45   353.77559   135.62374   184.29363
   145  H   1.0    0.04    1.09    1.44   357.05805   138.10117   182.46249
   146  H   1.0    0.05    1.10    1.44   355.83162   137.65898   179.81876
   147  H   1.0    0.05    1.09    1.44   352.77215   139.97200   183.47916
   148  H   1.0    0.04    1.09    1.44   354.87731   141.64441   182.26974
   149  H   1.0    0.07    1.10    1.44   350.94856   139.28981   179.52397
   150  H   1.0    0.05    1.09    1.44   351.10352   142.18298   180.05309
   151  H   1.0    0.04    1.08    1.44   354.60896   142.58549   177.41314
   152  H   1.0    0.05    1.09    1.44   354.78849   139.66209   177.08622
   153  H   1.0    0.07    1.08    1.44   352.65499   141.14363   173.70361
   154  H   1.0    0.08    1.09    1.44   350.75203   139.86618   175.21728
   155  H   1.0    0.07    1.09    1.44   350.91644   142.60628   175.24563
   156  N   5.0   -0.15    3.49    2.07   349.74670   134.75258   181.94092
   157  C   4.0    0.04    4.46    4.48   347.53950   133.95133   180.50662
   158  C   4.0    0.08    3.19    3.04   346.47558   135.86563   178.60367
   159  O   6.0   -0.29    1.13    1.80   346.84219   138.15597   178.84366
   160  C   4.0   -0.05    4.44    4.44   345.44757   133.11230   182.33021
   161  C   4.0   -0.04    4.13    3.86   346.17134   131.11863   184.28985
   162  S   6.0   -0.03    2.79    3.11   348.40688   128.82829   183.01429
   163  C   4.0   -0.08    3.97    3.56   346.40188   127.15966   180.72394
   164  H   1.0    0.12    1.13    1.45   349.43300   135.32516   183.42814
   165  H   1.0    0.06    1.17    1.46   348.13854   132.56428   179.46916
   166  H   1.0    0.05    1.09    1.44   344.83152   134.59384   183.21838
   167  H   1.0    0.04    1.10    1.44   344.04918   132.46223   181.33999
   168  H   1.0    0.06    1.13    1.45   346.90644   131.93878   185.75439
   169  H   1.0    0.04    1.13    1.45   344.66334   130.24747   184.86244
   170  H   1.0    0.05    1.09    1.44   347.38265   125.85575   179.88868
   171  H   1.0    0.05    1.09    1.44   344.98459   126.39243   181.59699
   172  H   1.0    0.04    1.09    1.44   345.77827   128.34830   179.47672
   173  N   5.0   -0.21    3.16    1.95   345.64032   139.79248   188.33198
   174  C   4.0    0.01    4.26    4.11   347.69824   139.65831   190.16501
   175  C   4.0    0.16    3.34    3.06   349.68434   137.70055   189.52439
   176  O   6.0   -0.30    1.23    1.80   350.04339   137.04104   187.32475
   177  H   1.0    0.10    1.07    1.44   344.26649   139.04981   188.78173
   178  H   1.0    0.04    1.09    1.44   348.49948   141.30237   190.28406
   179  H   1.0    0.04    1.09    1.44   347.00093   139.28036   191.81852
   180  N   5.0   -0.16    3.50    2.08   350.94479   136.80293   191.50861
   181  C   4.0    0.03    4.46    4.48   352.91388   134.85462   191.32719
   182  C   4.0    0.15    3.44    3.09   351.59674   132.28271   191.68057
   183  O   6.0   -0.29    1.23    1.80   349.59174   132.11452   192.92023
   184  C   4.0   -0.06    4.44    4.45   354.93967   135.27414   193.37755
   185  C   4.0   -0.03    4.29    4.19   356.49302   137.71000   193.15456
   186  C   4.0   -0.09    4.20    4.00   358.55282   137.79504   195.22003
   187  C   4.0   -0.09    4.25    4.11   357.72323   137.73079   190.56752
   188  H   1.0    0.10    1.13    1.45   350.68022   137.31505   193.02795
   189  H   1.0    0.06    1.12    1.45   353.76426   134.92265   189.70392
   190  H   1.0    0.05    1.09    1.44   354.11386   135.26280   195.01405
   191  H   1.0    0.04    1.09    1.44   356.09240   133.84929   193.34920
   192  H   1.0    0.05    1.12    1.45   355.40454   139.16887   193.36999
   193  H   1.0    0.05    1.05    1.44   359.52036   139.34461   195.05751
   194  H   1.0    0.04    1.05    1.44   357.76292   137.74023   196.87354
   195  H   1.0    0.04    1.05    1.44   359.67154   136.35507   195.02917
   196  H   1.0    0.04    1.06    1.44   358.72101   139.25768   190.37666
   197  H   1.0    0.04    1.06    1.44   358.81171   136.26625   190.39556
   198  H   1.0    0.05    1.06    1.44   356.42688   137.68354   189.27306
   199  N   5.0   -0.16    3.49    2.07   352.74191   130.34196   190.59587
   200  C   4.0    0.04    4.46    4.47   351.69123   127.79461   190.71492
   201  C   4.0    0.14    3.46    3.10   353.74725   125.78016   190.57508
   202  O   6.0   -0.32    1.28    1.80   355.27793   125.72914   188.83464
   203  C   4.0   -0.07    4.30    4.19   349.79583   127.39776   188.61355
   204  H   1.0    0.12    1.15    1.45   354.14031   130.45534   189.77384
   205  H   1.0    0.05    1.14    1.45   350.84841   127.62642   192.33442
   206  H   1.0    0.05    1.06    1.44   349.11553   125.69890   188.71748
   207  H   1.0    0.05    1.06    1.44   348.43334   128.61286   188.78173
   208  H   1.0    0.06    1.11    1.45   350.62164   127.62642   186.99405
   209  N   5.0   -0.17    3.51    2.08   353.71512   124.12287   192.45347
   210  C   4.0    0.04    4.51    4.56   355.57083   122.08952   192.51583
   211  C   4.0    0.08    3.26    3.05   354.63164   119.98626   190.76594
   212  O   6.0   -0.28    1.13    1.80   352.91010   118.59731   191.40845
   213  C   4.0   -0.02    4.43    4.42   355.89776   121.06340   195.23137
   214  C   4.0   -0.09    4.27    4.14   357.84417   118.98093   195.14255
   215  C   4.0   -0.09    4.27    4.13   356.68766   123.17612   196.94535
   216  H   1.0    0.09    1.13    1.45   352.65877   124.13610   193.68746
   217  H   1.0    0.04    1.13    1.45   357.20167   122.71502   191.96025
   218  H   1.0    0.05    1.13    1.45   354.32739   120.38499   195.88899
   219  H   1.0    0.04    1.06    1.44   358.08795   118.29873   196.82630
   220  H   1.0    0.06    1.06    1.44   357.26592   117.64867   194.02383
   221  H   1.0    0.04    1.06    1.44   359.43154   119.65367   194.52083
   222  H   1.0    0.04    1.06    1.44   356.89364   122.53550   198.64988
   223  H   1.0    0.04    1.06    1.44   358.27692   123.87721   196.35953
   224  H   1.0    0.04    1.06    1.44   355.40454   124.48381   196.93590
   225  N   5.0   -0.22    3.22    1.96   345.10742   124.53294   196.81874
   226  C   4.0    0.04    4.34    4.28   345.16411   127.28249   197.24015
   227  C   4.0    0.16    3.44    3.09   347.09163   127.92311   199.26782
   228  O   6.0   -0.30    1.28    1.80   346.75526   127.38454   201.53549
   229  C   4.0    0.03    4.23    4.06   342.50149   128.25192   197.93368
   230  O   6.0   -0.26    2.08    1.84   341.48671   126.98391   200.08985
   231  H   1.0    0.12    1.08    1.44   343.89800   123.73359   197.55195
   232  H   1.0    0.04    1.13    1.45   345.67434   128.12531   195.69435
   233  H   1.0    0.05    1.07    1.44   342.57708   130.05283   198.26627
   234  H   1.0    0.04    1.07    1.44   341.37710   128.01759   196.50504
   235  H   1.0    0.14    1.08    1.44   340.25650   127.80784   200.65866
   236  N   5.0   -0.16    3.49    2.07   349.16655   129.06261   198.45713
   237  C   4.0    0.04    4.44    4.44   351.13187   129.80150   200.24859
   238  C   4.0    0.16    3.45    3.09   351.23769   132.63042   200.53772
   239  O   6.0   -0.28    1.26    1.80   350.07173   134.02692   199.08074
   240  C   4.0   -0.09    4.20    4.00   353.75481   128.79238   199.40766
   241  H   1.0    0.11    1.13    1.45   349.47836   129.42355   196.90377
   242  H   1.0    0.06    1.14    1.45   350.70668   129.05883   201.86997
   243  H   1.0    0.05    1.05    1.44   355.02659   129.30639   200.62465
   244  H   1.0    0.04    1.05    1.44   353.70379   126.96313   199.31318
   245  H   1.0    0.05    1.05    1.44   354.17433   129.47835   197.75982
   246  N   5.0   -0.15    3.57    2.13   352.78538   133.57717   202.27438
   247  C   4.0    0.04    4.54    4.59   353.11797   136.25302   202.73169
   248  C   4.0    0.14    3.49    3.11   355.84296   136.73490   203.34585
   249  O   6.0   -0.30    1.31    1.80   357.17710   134.96990   204.16221
   250  C   4.0    0.06    4.34    4.28   351.43989   137.12418   204.99936
   251  O   6.0   -0.26    2.19    1.85   348.97002   136.08483   204.74236
   252  C   4.0   -0.07    4.21    4.02   351.28305   139.94554   205.11652
   253  H   1.0    0.13    1.18    1.46   353.69434   132.64175   203.24381
   254  H   1.0    0.05    1.13    1.45   352.62097   137.19221   201.23692
   255  H   1.0    0.06    1.11    1.45   352.20523   136.52514   206.55461
   256  H   1.0    0.16    1.08    1.44   348.48436   135.51981   206.14453
   257  H   1.0    0.06    1.06    1.44   350.23425   140.44254   206.53571
   258  H   1.0    0.06    1.06    1.44   352.96490   140.64285   205.32817
   259  H   1.0    0.05    1.06    1.44   350.54794   140.58238   203.56317
   260  N   5.0   -0.16    3.48    2.07   356.78782   138.98934   202.82051
   261  C   4.0    0.04    4.48    4.51   359.39753   139.62807   203.48947
   262  C   4.0    0.16    3.44    3.09   359.37296   141.02836   206.04816
   263  O   6.0   -0.29    1.23    1.80   357.71567   142.60061   206.52248
   264  C   4.0   -0.05    4.39    4.36   360.60506   141.28914   201.45423
   265  C   4.0   -0.03    4.34    4.27   363.45477   141.48378   201.62431
   266  C   4.0    0.16    3.33    3.06   364.39585   143.93665   200.56039
   267  O   6.0   -0.29    1.21    1.80   364.66609   144.25223   198.26060
   268  N   5.0   -0.23    3.25    1.97   364.81915   145.75456   202.18367
   269  H   1.0    0.09    1.13    1.45   355.96390   140.17987   202.08162
   270  H   1.0    0.07    1.13    1.45   360.39153   138.09361   203.61608
   271  H   1.0    0.05    1.09    1.44   360.15531   140.62396   199.80639
   272  H   1.0    0.06    1.10    1.44   359.89075   142.97289   201.56573
   273  H   1.0    0.06    1.10    1.44   363.97634   141.33449   203.37609
   274  H   1.0    0.06    1.09    1.44   364.22011   140.08727   200.71535
   275  H   1.0    0.13    1.10    1.44   364.61695   145.48811   203.77482
   276  H   1.0    0.13    1.09    1.44   365.29914   147.21721   201.66021
   277  N   5.0   -0.15    3.54    2.11   361.14931   140.34428   207.69789
   278  C   4.0    0.03    4.58    4.64   361.36851   141.53669   210.14886
   279  C   4.0    0.16    3.46    3.10   363.16186   143.76846   210.04115
   280  O   6.0   -0.28    1.26    1.80   364.49412   144.18987   208.16465
   281  C   4.0   -0.04    4.42    4.41   362.38519   139.60917   212.05749
   282  C   4.0    0.16    3.32    3.06   360.71467   137.27914   212.28803
   283  O   6.0   -0.29    1.25    1.80   361.64252   135.23446   212.95322
   284  N   5.0   -0.23    3.30    1.98   358.30716   137.53425   211.66064
   285  H   1.0    0.13    1.17    1.46   362.24913   139.18021   207.41632
   286  H   1.0    0.05    1.14    1.45   359.71122   142.13196   210.65720
   287  H   1.0    0.07    1.10    1.44   364.07082   139.09517   211.55482
   288  H   1.0    0.05    1.09    1.44   362.53447   140.40853   213.69966
   289  H   1.0    0.14    1.11    1.45   357.31505   136.24735   211.70411
   290  H   1.0    0.11    1.10    1.44   357.73457   138.98745   211.20900
   291  N   5.0   -0.17    3.52    2.09   362.98045   145.26323   212.01969
   292  C   4.0    0.03    4.44    4.45   364.46577   147.58949   212.47134
   293  C   4.0    0.16    3.44    3.09   367.19643   147.60460   211.42443
   294  O   6.0   -0.27    1.22    1.80   367.84271   149.27701   209.92777
   295  C   4.0   -0.06    4.37    4.33   364.46577   148.28113   215.30593
   296  C   4.0   -0.06    4.44    4.44   364.14830   146.02479   216.99534
   297  C   4.0   -0.05    4.39    4.36   366.44243   144.37884   217.09739
   298  C   4.0   -0.03    4.31    4.22   366.05314   142.18865   218.85483
   299  N   5.0   -0.17    4.18    3.38   365.11584   143.09194   221.33226
   300  H   1.0    0.09    1.16    1.46   361.93354   144.95710   213.22534
   301  H   1.0    0.06    1.13    1.45   363.59272   148.86883   211.49057
   302  H   1.0    0.05    1.10    1.44   366.03803   149.12583   215.71978
   303  H   1.0    0.05    1.09    1.44   363.11462   149.47354   215.63474
   304  H   1.0    0.04    1.11    1.44   363.74390   146.59549   218.69043
   305  H   1.0    0.04    1.12    1.45   362.72345   145.03269   216.40953
   306  H   1.0    0.05    1.13    1.45   366.83171   143.75901   215.41742
   307  H   1.0    0.05    1.10    1.44   367.88429   145.36528   217.65108
   308  H   1.0    0.05    1.09    1.44   364.85317   141.00946   218.12540
   309  H   1.0    0.06    1.09    1.44   367.62918   141.27969   219.07782
   310  H   1.0    0.08    1.09    1.44   365.64307   142.05259   222.54547
   311  H   1.0    0.07    1.10    1.44   365.70543   144.63962   221.62517
   312  H   1.0    0.07    1.09    1.44   363.43398   143.12784   221.31714
   313  N   5.0   -0.16    3.55    2.11   368.63262   145.66575   212.07260
   314  C   4.0    0.04    4.49    4.53   371.22721   145.49000   211.28081
   315  C   4.0    0.17    3.42    3.09   371.71098   144.32782   208.65409
   316  O   6.0   -0.29    1.22    1.80   373.72165   144.82482   207.54860
   317  C   4.0   -0.04    4.30    4.19   372.89017   144.14641   213.31982
   318  C   4.0    0.24    3.13    3.03   371.89618   141.49701   214.01335
   319  O   6.0   -0.29    1.22    1.80   370.04236   140.64285   212.81527
   320  O   6.0   -0.29    1.16    1.80   372.94120   140.31593   215.78592
   321  H   1.0    0.10    1.18    1.46   368.12050   144.42042   212.98345
   322  H   1.0    0.07    1.15    1.45   371.72799   147.24367   211.10318
   323  H   1.0    0.06    1.08    1.44   374.60982   144.00279   212.69999
   324  H   1.0    0.05    1.08    1.44   372.95064   145.18387   214.82972
   325  N   5.0   -0.15    3.45    2.05   369.89307   142.95588   207.65254
   326  C   4.0    0.02    4.37    4.32   370.20676   141.77858   205.20156
   327  C   4.0    0.15    3.38    3.07   369.40930   139.04604   205.07495
   328  O   6.0   -0.29    1.22    1.80   369.05403   137.98212   203.00003
   329  H   1.0    0.12    1.14    1.45   368.45688   142.67998   208.36118
   330  H   1.0    0.06    1.09    1.44   369.24300   142.72911   203.96568
   331  H   1.0    0.06    1.11    1.44   371.96988   141.89952   204.71401
   332  N   5.0   -0.14    3.51    2.09   369.10883   137.84417   207.27648
   333  C   4.0    0.04    4.46    4.48   368.33782   135.19477   207.35585
   334  C   4.0    0.17    3.47    3.10   365.74323   134.85084   206.14453
   335  O   6.0   -0.30    1.32    1.80   364.32405   136.63852   205.84974
   336  C   4.0    0.04    4.25    4.09   368.31137   134.18755   210.09217
   337  O   6.0   -0.25    2.10    1.84   366.89785   135.73713   211.75324
   338  H   1.0    0.12    1.14    1.45   369.34127   138.52825   208.73157
   339  H   1.0    0.06    1.14    1.45   369.56615   134.22723   206.39965
   340  H   1.0    0.06    1.07    1.44   367.61217   132.49436   210.10540
   341  H   1.0    0.06    1.07    1.44   370.03480   134.06094   210.70444
   342  H   1.0    0.17    1.10    1.44   365.40875   135.19666   211.84206
   343  N   5.0   -0.16    3.50    2.07   365.15741   132.54916   205.36597
   344  C   4.0    0.04    4.57    4.63   362.72534   132.01437   204.14520
   345  C   4.0    0.15    3.50    3.11   361.34017   129.99425   205.63053
   346  O   6.0   -0.30    1.25    1.80   362.31338   127.89476   206.02737
   347  C   4.0   -0.02    4.44    4.44   363.07872   131.22635   201.34841
   348  C   4.0   -0.06    4.29    4.18   360.56349   130.59707   200.14843
   349  C   4.0   -0.08    4.29    4.17   364.92498   129.04750   201.11030
   350  C   4.0   -0.10    4.10    3.80   360.82616   129.56717   197.33841
   351  H   1.0    0.10    1.13    1.45   366.13440   131.25847   205.52093
   352  H   1.0    0.07    1.14    1.45   361.71811   133.54504   204.13954
   353  H   1.0    0.05    1.13    1.45   363.79303   132.65120   200.44323
   354  H   1.0    0.05    1.09    1.44   359.70555   129.34040   201.17267
   355  H   1.0    0.05    1.08    1.44   359.50713   132.09562   200.14277
   356  H   1.0    0.04    1.07    1.44   365.11017   128.59396   199.34341
   357  H   1.0    0.05    1.06    1.44   366.55392   129.54827   201.78683
   358  H   1.0    0.06    1.06    1.44   364.29381   127.60563   202.04761
   359  H   1.0    0.04    1.05    1.44   359.16320   129.19489   196.66567
   360  H   1.0    0.04    1.05    1.44   361.63685   130.83707   196.29528
   361  H   1.0    0.04    1.05    1.44   361.83906   128.04027   197.33841
   362  N   5.0   -0.15    3.56    2.12   359.12919   130.65943   206.59807
   363  C   4.0    0.04    4.52    4.57   357.70056   128.88876   208.10229
   364  C   4.0    0.16    3.46    3.10   355.13242   128.37097   206.96279
   365  O   6.0   -0.29    1.31    1.80   354.01937   130.05472   205.84785
   366  C   4.0    0.05    4.28    4.15   357.50402   129.87897   210.78570
   367  O   6.0   -0.26    2.18    1.85   357.57961   132.53971   210.87830
   368  H   1.0    0.13    1.15    1.45   358.43566   132.11641   206.40343
   369  H   1.0    0.05    1.15    1.45   358.57739   127.28060   208.13064
   370  H   1.0    0.06    1.08    1.44   355.94122   129.28749   211.53970
   371  H   1.0    0.06    1.07    1.44   358.87786   129.19489   211.78915
   372  H   1.0    0.17    1.12    1.45   359.00447   133.01214   211.39419
   373  N   5.0   -0.16    3.48    2.07   354.34818   125.98236   206.96468
   374  C   4.0    0.03    4.51    4.56   351.87264   125.26426   205.93666
   375  C   4.0    0.17    3.46    3.10   349.77505   126.08252   207.76025
   376  O   6.0   -0.27    1.24    1.80   350.18323   126.16944   210.04493
   377  C   4.0   -0.03    4.38    4.34   351.67233   122.34275   205.47179
   378  C   4.0   -0.06    4.28    4.16   353.90221   121.38277   203.88442
   379  C   4.0   -0.07    4.21    4.02   349.04939   121.65678   204.30016
   380  C   4.0   -0.08    4.14    3.89   353.45812   118.77872   202.68823
   381  H   1.0    0.09    1.13    1.45   355.21746   124.74081   207.55238
   382  H   1.0    0.05    1.13    1.45   351.67989   126.11464   204.32473
   383  H   1.0    0.06    1.12    1.45   351.77815   121.47725   207.08373
   384  H   1.0    0.04    1.09    1.44   354.25181   122.59597   202.55595
   385  H   1.0    0.05    1.09    1.44   355.39509   121.30340   204.94456
   386  H   1.0    0.05    1.05    1.44   348.95679   119.84642   204.02426
   387  H   1.0    0.07    1.06    1.44   347.71335   122.16889   205.44723
   388  H   1.0    0.06    1.05    1.44   348.84719   122.52794   202.69956
   389  H   1.0    0.05    1.05    1.44   354.93400   118.29118   201.71691
   390  H   1.0    0.05    1.05    1.44   353.15954   117.54284   204.00725
   391  H   1.0    0.05    1.06    1.44   351.99925   118.85431   201.58274
   392  N   5.0   -0.15    3.50    2.08   347.61509   126.81951   206.73035
   393  C   4.0    0.05    4.39    4.37   345.49104   127.67177   208.31205
   394  C   4.0    0.09    3.21    3.04   344.12287   125.34741   209.40620
   395  O   6.0   -0.27    1.14    1.80   344.03406   123.38399   208.17221
   396  C   4.0   -0.03    4.38    4.35   343.66367   129.29127   206.75681
   397  C   4.0    0.16    3.30    3.05   344.38744   132.05405   206.73413
   398  O   6.0   -0.28    1.20    1.80   344.68223   133.28615   208.70511
   399  N   5.0   -0.23    3.25    1.97   344.61987   133.12930   204.47402
   400  H   1.0    0.12    1.16    1.45   347.32596   126.84596   205.13164
   401  H   1.0    0.07    1.13    1.45   346.12787   128.70168   209.68966
   402  H   1.0    0.06    1.10    1.44   343.61643   128.66388   205.03527
   403  H   1.0    0.05    1.10    1.44   341.97048   129.11553   207.43711
   404  H   1.0    0.13    1.10    1.44   344.98081   134.70911   204.35874
   405  H   1.0    0.12    1.09    1.44   344.40822   132.24491   203.12664
   406  H   1.0    0.09    1.08    1.44   363.64814   133.32757   180.21665
   407  H   1.0    0.05    1.04    1.43   369.20155   135.47625   184.03107
   408  H   1.0    0.10    1.08    1.44   370.46789   137.93705   187.92445
   409  H   1.0    0.05    1.04    1.43   374.42763   140.79711   192.85801
   410  H   1.0    0.10    1.08    1.44   376.47182   141.24425   197.75174
   411  H   1.0    0.06    1.05    1.44   380.02611   140.03038   204.20427
   412  H   1.0    0.10    1.09    1.44   378.36636   137.04868   209.28280
   413  H   1.0    0.06    1.05    1.44   379.57720   135.74646   216.69327
   414  H   1.0    0.11    1.07    1.44   379.40161   129.63222   204.31067
   415  H   1.0    0.06    1.04    1.44   376.33452   129.01835   199.06682
   416  H   1.0    0.10    1.08    1.44   374.39129   121.64125   202.18187
   417  H   1.0    0.06    1.04    1.44   371.88128   120.12520   205.98189
   418  H   1.0    0.11    1.08    1.44   369.58653   119.27012   211.42100
   419  H   1.0    0.07    1.04    1.43   363.75047   115.72751   204.42743
   420  H   1.0    0.09    1.08    1.44   363.65692   123.57226   189.55251
   421  H   1.0    0.05    1.04    1.43   345.45912   135.26570   177.12788
   422  H   1.0    0.10    1.08    1.44   345.24015   141.42053   188.04585
   423  H   1.0    0.06    1.04    1.44   355.43215   119.73847   189.07217
   424  H   1.0    0.10    1.07    1.44   344.94824   124.21671   195.15524
   425  H   1.0    0.06    1.04    1.43   343.31399   125.44304   211.11138

  Z AO/shell   Hii/eV     exponent
  1     Wed Apr 25 08:07:45 CEST 2018   EN: 2.200 GM2: 0.406  GM3: 0.0800  RAES: 1.40
     1s    -10.707211    1.230000
  6     Wed Apr 25 08:07:45 CEST 2018   EN: 2.550 GM2: 0.538  GM3: 0.1500  RAES: 3.00
     2s    -13.970922    2.096432
     2p    -10.063292    1.800000
  7     Wed Apr 25 08:07:45 CEST 2018   EN: 3.040 GM2: 0.461  GM3:-0.0640  RAES: 1.90
     2s    -16.686243    2.339881
     2p    -12.523956    2.014332
  8     Wed Apr 25 08:07:45 CEST 2018   EN: 3.440 GM2: 0.452  GM3:-0.0517  RAES: 1.80
     2s    -20.229985    2.439742
     2p    -15.503117    2.137023
 16     Tue Apr 24 11:44:34 CEST 2018   EN: 2.580 GM2: 0.340  GM3:-0.0502  RAES: 3.10
     3s    -20.029654    1.981333
     3p    -11.377694    2.025643
     3d     -0.420282    1.702555
 no old-style atom pair restraining (fixing) potential

molecular fragmentation (1/2 indicates fragments):
111111111122222222222222222222222222222222222222222222222222222222222222
222222222222222222222222222222222222222222222222222222222222222222222222
222222222222222222222222222222222222222222222222222222222222222222222222
222222222222222222222222222222222222222222222222222222222222222222222222
222222222222222222222222222222222222222222222222222222222222222222222222
22222222222222222222222222222222222222222222211222222222222222222
# atoms in fragment 1/2:    12   413
 fragment masses (1/2) :       73.09     2787.30
CMA distance (Bohr)    :  17.108
constraining FC (au)   :  0.0500
           ------------------------------------------------- 
          |        Self-Consistent Charge Iterations        |
           ------------------------------------------------- 

 Ncao       : 1025
 Nao        : 1024
 Nshell     : 624
 Nel        : 1138
 T(el)      :   500.0
 intcut     :    35.0
 scfconv/Eh :  0.100E-06
   qconv/e  :  0.100E-04
 intneglect :  0.100E-08
 broydamp   :      0.400
 iter      E             dE          RMSdq      gap      omega  full diag
   1   -656.0186176 -0.656019E+03  0.473E+00    2.92       0.0  T
   2   -657.7765865 -0.175797E+01  0.217E+00    1.52       1.0  T
   3   -657.8810847 -0.104498E+00  0.129E+00    1.78       1.0  T
   4   -657.9818816 -0.100797E+00  0.258E-01    1.37       1.0  T
   5   -657.9893154 -0.743379E-02  0.119E-01    1.49       1.0  T
   6   -657.9901578 -0.842359E-03  0.509E-02    1.44       1.0  T
   7   -657.9903794 -0.221648E-03  0.189E-02    1.44       1.0  T
   8   -657.9903964 -0.169757E-04  0.858E-03    1.43       1.0  T
   9   -657.9904034 -0.698915E-05  0.330E-03    1.42       1.5  T
  10   -657.9904040 -0.641296E-06  0.139E-03    1.42       3.5  T
  11   -657.9904042 -0.198335E-06  0.607E-04    1.42       8.0  T
  12   -657.9904043 -0.177265E-07  0.263E-04    1.42      18.4  T
  13   -657.9904043 -0.397631E-08  0.132E-04    1.42      36.7  T
  14   -657.9904043 -0.105626E-08  0.573E-05    1.42      84.7  T
  15   -657.9904043 -0.205773E-09  0.231E-05    1.42     209.8  T
speedup  1.00
cpu  time for SCC    7.89 s
wall time for SCC    7.89 s

   *** convergence criteria satisfied after 15 iterations ***

          eigenvalues
 #    :         557        558        559        560        561        562        563        564
 occ. :        2.000      2.000      2.000      2.000      2.000      2.000      2.000      2.000
 eps  :       -10.339    -10.288    -10.243    -10.127    -10.098    -10.058    -10.034     -9.901
 #    :         565        566        567        568        569        570        571        572
 occ. :        2.000      2.000      2.000      2.000      2.000      0.000      0.000      0.000
 eps  :        -9.820     -9.790     -9.689     -9.662     -9.601     -8.179     -8.095     -8.024
 #    :         573        574        575        576        577        578        579        580
 occ. :        0.000      0.000      0.000      0.000      0.000      0.000      0.000      0.000
 eps  :        -7.984     -7.887     -7.823     -7.734     -7.653     -7.553     -7.521     -6.940


   #   Z            q   n(s)   n(p)   n(d)      C6AA      α(0)
   1   7 N     -0.414  1.290  4.123  0.000    30.754     8.236
   2   6 C      0.027  1.033  2.940  0.000    20.128     6.390
   3   6 C      0.193  1.097  2.711  0.000    23.886     8.004
   4   8 O     -0.363  1.761  4.602  0.000    20.950     6.137
   5   6 C     -0.151  0.978  3.173  0.000    23.461     6.903
   6   1 H      0.185  0.815  0.000  0.000     1.185     1.705
   7   1 H      0.073  0.927  0.000  0.000     2.055     2.242
   8   1 H      0.063  0.937  0.000  0.000     2.160     2.298
   9   1 H      0.069  0.931  0.000  0.000     2.099     2.266
  10   1 H      0.056  0.944  0.000  0.000     2.245     2.343
  11   7 N     -0.406  1.281  4.126  0.000    30.549     8.209
  12   6 C      0.025  1.036  2.939  0.000    20.160     6.395
  13   6 C      0.193  1.091  2.716  0.000    23.869     8.001
  14   8 O     -0.379  1.764  4.615  0.000    21.264     6.182
  15   6 C     -0.028  1.045  2.984  0.000    21.040     6.524
  16   6 C     -0.152  0.978  3.174  0.000    23.474     6.905
  17   6 C     -0.152  0.979  3.173  0.000    23.477     6.905
  18   1 H      0.193  0.807  0.000  0.000     1.144     1.675
  19   1 H      0.060  0.940  0.000  0.000     2.198     2.318
  20   1 H      0.054  0.946  0.000  0.000     2.267     2.355
  21   1 H      0.062  0.938  0.000  0.000     2.179     2.308
  22   1 H      0.036  0.964  0.000  0.000     2.508     2.476
  23   1 H      0.065  0.935  0.000  0.000     2.141     2.288
  24   1 H      0.061  0.939  0.000  0.000     2.184     2.311
  25   1 H      0.064  0.936  0.000  0.000     2.147     2.291
  26   1 H      0.066  0.934  0.000  0.000     2.128     2.281
  27   7 N     -0.392  1.276  4.116  0.000    30.154     8.156
  28   6 C     -0.034  1.004  3.031  0.000    21.260     6.578
  29   6 C      0.186  1.082  2.732  0.000    24.019     8.026
  30   8 O     -0.390  1.752  4.638  0.000    21.476     6.213
  31   1 H      0.191  0.809  0.000  0.000     1.155     1.684
  32   1 H      0.109  0.891  0.000  0.000     1.703     2.041
  33   1 H      0.096  0.904  0.000  0.000     1.818     2.109
  34   7 N     -0.410  1.282  4.127  0.000    30.644     8.222
  35   6 C      0.036  1.028  2.936  0.000    19.985     6.367
  36   6 C      0.199  1.087  2.714  0.000    23.756     7.982
  37   8 O     -0.375  1.755  4.620  0.000    21.180     6.170
  38   6 C     -0.129  0.975  3.154  0.000    23.007     6.835
  39   1 H      0.190  0.810  0.000  0.000     1.159     1.686
  40   1 H      0.073  0.927  0.000  0.000     2.050     2.239
  41   1 H      0.060  0.940  0.000  0.000     2.198     2.318
  42   1 H      0.056  0.944  0.000  0.000     2.248     2.344
  43   1 H      0.062  0.938  0.000  0.000     2.179     2.308
  44   7 N     -0.413  1.282  4.131  0.000    30.726     8.233
  45   6 C      0.034  1.032  2.935  0.000    20.018     6.373
  46   6 C      0.190  1.095  2.716  0.000    23.939     8.013
  47   8 O     -0.370  1.756  4.614  0.000    21.099     6.158
  48   6 C     -0.114  1.012  3.102  0.000    22.670     6.776
  49   6 C      0.285  1.039  2.677  0.000    22.179     7.711
  50   8 O     -0.500  1.757  4.742  0.000    23.774     6.537
  51   7 N     -0.290  1.186  4.104  0.000    27.477     7.785
  52   1 H      0.187  0.813  0.000  0.000     1.177     1.699
  53   1 H      0.082  0.918  0.000  0.000     1.953     2.185
  54   1 H      0.098  0.902  0.000  0.000     1.798     2.097
  55   1 H      0.100  0.900  0.000  0.000     1.788     2.091
  56   1 H      0.213  0.787  0.000  0.000     1.041     1.598
  57   1 H      0.216  0.784  0.000  0.000     1.027     1.587
  58   7 N     -0.395  1.288  4.108  0.000    30.248     8.168
  59   6 C      0.023  1.036  2.942  0.000    20.210     6.403
  60   6 C      0.189  1.087  2.725  0.000    23.964     8.017
  61   8 O     -0.382  1.761  4.621  0.000    21.332     6.192
  62   6 C     -0.102  1.012  3.090  0.000    22.424     6.739
  63   6 C     -0.028  1.027  3.001  0.000    21.027     6.521
  64   6 C     -0.155  0.977  3.178  0.000    23.521     6.910
  65   6 C     -0.164  0.979  3.185  0.000    23.712     6.939
  66   1 H      0.192  0.808  0.000  0.000     1.147     1.678
  67   1 H      0.079  0.921  0.000  0.000     1.986     2.204
  68   1 H      0.069  0.931  0.000  0.000     2.094     2.263
  69   1 H      0.062  0.938  0.000  0.000     2.175     2.306
  70   1 H      0.057  0.943  0.000  0.000     2.234     2.337
  71   1 H      0.061  0.939  0.000  0.000     2.187     2.312
  72   1 H      0.051  0.949  0.000  0.000     2.312     2.378
  73   1 H      0.059  0.941  0.000  0.000     2.209     2.324
  74   1 H      0.062  0.938  0.000  0.000     2.178     2.308
  75   1 H      0.058  0.942  0.000  0.000     2.225     2.332
  76   1 H      0.050  0.950  0.000  0.000     2.321     2.382
  77   7 N     -0.407  1.270  4.137  0.000    30.563     8.211
  78   6 C      0.030  1.027  2.942  0.000    20.070     6.379
  79   6 C      0.271  1.046  2.683  0.000    22.421     7.754
  80   8 O     -0.487  1.749  4.738  0.000    23.508     6.501
  81   6 C     -0.078  1.008  3.070  0.000    21.981     6.673
  82   6 C     -0.109  1.015  3.094  0.000    22.562     6.761
  83   6 C      0.366  1.025  2.609  0.000    20.790     7.462
  84   8 O     -0.662  1.776  4.887  0.000    27.706     7.057
  85   8 O     -0.665  1.777  4.888  0.000    27.772     7.065
  86   1 H      0.183  0.817  0.000  0.000     1.199     1.715
  87   1 H      0.050  0.950  0.000  0.000     2.321     2.382
  88   1 H      0.052  0.948  0.000  0.000     2.293     2.368
  89   1 H      0.035  0.965  0.000  0.000     2.520     2.482
  90   1 H      0.038  0.962  0.000  0.000     2.473     2.459
  91   1 H      0.040  0.960  0.000  0.000     2.442     2.444
  92   7 N     -0.189  1.213  3.976  0.000    25.100     7.441
  93   6 C      0.017  1.043  2.940  0.000    20.297     6.416
  94   6 C      0.211  1.085  2.704  0.000    23.539     7.945
  95   8 O     -0.372  1.759  4.613  0.000    21.127     6.163
  96   6 C     -0.165  0.984  3.181  0.000    23.736     6.944
  97   1 H      0.219  0.781  0.000  0.000     1.016     1.578
  98   1 H      0.091  0.909  0.000  0.000     1.866     2.136
  99   1 H      0.096  0.904  0.000  0.000     1.825     2.112
 100   1 H      0.090  0.910  0.000  0.000     1.877     2.142
 101   1 H      0.083  0.917  0.000  0.000     1.950     2.184
 102   7 N     -0.416  1.290  4.126  0.000    30.821     8.245
 103   6 C      0.016  1.037  2.948  0.000    20.318     6.418
 104   6 C      0.274  1.042  2.684  0.000    22.361     7.744
 105   8 O     -0.503  1.749  4.754  0.000    23.848     6.547
 106   6 C     -0.031  1.035  2.996  0.000    21.085     6.530
 107   6 C     -0.148  0.976  3.173  0.000    23.392     6.892
 108   6 C     -0.150  0.975  3.175  0.000    23.433     6.897
 109   1 H      0.179  0.821  0.000  0.000     1.221     1.731
 110   1 H      0.051  0.949  0.000  0.000     2.312     2.378
 111   1 H      0.050  0.950  0.000  0.000     2.321     2.382
 112   1 H      0.063  0.937  0.000  0.000     2.162     2.299
 113   1 H      0.043  0.957  0.000  0.000     2.404     2.424
 114   1 H      0.053  0.947  0.000  0.000     2.280     2.361
 115   1 H      0.055  0.945  0.000  0.000     2.262     2.352
 116   1 H      0.061  0.939  0.000  0.000     2.192     2.315
 117   1 H      0.047  0.953  0.000  0.000     2.351     2.398
 118   7 N     -0.183  1.209  3.974  0.000    24.960     7.420
 119   6 C      0.008  1.039  2.953  0.000    20.441     6.435
 120   6 C      0.260  1.044  2.695  0.000    22.612     7.787
 121   8 O     -0.495  1.752  4.744  0.000    23.681     6.524
 122   6 C     -0.026  1.038  2.988  0.000    20.990     6.516
 123   6 C     -0.151  0.976  3.175  0.000    23.438     6.898
 124   6 C     -0.157  0.979  3.179  0.000    23.582     6.920
 125   1 H      0.221  0.779  0.000  0.000     1.007     1.571
 126   1 H      0.079  0.921  0.000  0.000     1.992     2.207
 127   1 H      0.059  0.941  0.000  0.000     2.205     2.322
 128   1 H      0.063  0.937  0.000  0.000     2.165     2.301
 129   1 H      0.056  0.944  0.000  0.000     2.244     2.342
 130   1 H      0.056  0.944  0.000  0.000     2.249     2.345
 131   1 H      0.055  0.945  0.000  0.000     2.255     2.348
 132   1 H      0.076  0.924  0.000  0.000     2.016     2.220
 133   1 H      0.057  0.943  0.000  0.000     2.229     2.335
 134   7 N     -0.173  1.204  3.969  0.000    24.748     7.388
 135   6 C      0.006  1.039  2.955  0.000    20.485     6.444
 136   6 C      0.264  1.049  2.687  0.000    22.554     7.777
 137   8 O     -0.500  1.757  4.743  0.000    23.787     6.539
 138   6 C     -0.111  1.014  3.097  0.000    22.604     6.767
 139   6 C     -0.103  1.006  3.097  0.000    22.461     6.745
 140   6 C     -0.119  1.008  3.111  0.000    22.769     6.791
 141   6 C     -0.074  1.020  3.054  0.000    21.986     6.689
 142   7 N     -0.141  1.145  3.996  0.000    24.041     7.282
 143   1 H      0.219  0.781  0.000  0.000     1.014     1.578
 144   1 H      0.095  0.905  0.000  0.000     1.835     2.118
 145   1 H      0.077  0.923  0.000  0.000     2.012     2.218
 146   1 H      0.085  0.915  0.000  0.000     1.924     2.169
 147   1 H      0.078  0.922  0.000  0.000     1.999     2.211
 148   1 H      0.087  0.913  0.000  0.000     1.910     2.161
 149   1 H      0.087  0.913  0.000  0.000     1.908     2.160
 150   1 H      0.099  0.901  0.000  0.000     1.791     2.093
 151   1 H      0.136  0.864  0.000  0.000     1.489     1.908
 152   1 H      0.122  0.878  0.000  0.000     1.595     1.975
 153   1 H      0.296  0.704  0.000  0.000     0.726     1.335
 154   1 H      0.280  0.720  0.000  0.000     0.776     1.380
 155   1 H      0.295  0.705  0.000  0.000     0.729     1.337
 156   7 N     -0.156  1.203  3.953  0.000    24.376     7.333
 157   6 C      0.015  1.035  2.950  0.000    20.328     6.420
 158   6 C      0.184  1.094  2.721  0.000    24.044     8.030
 159   8 O     -0.351  1.747  4.604  0.000    20.729     6.104
 160   6 C     -0.092  1.010  3.082  0.000    22.219     6.705
 161   6 C     -0.034  1.021  3.012  0.000    21.176     6.551
 162  16 S     -0.221  1.930  4.243  0.049   150.510    20.648
 163   6 C     -0.096  0.997  3.099  0.000    22.387     6.746
 164   1 H      0.225  0.775  0.000  0.000     0.988     1.557
 165   1 H      0.114  0.886  0.000  0.000     1.662     2.016
 166   1 H      0.082  0.918  0.000  0.000     1.956     2.187
 167   1 H      0.081  0.919  0.000  0.000     1.972     2.196
 168   1 H      0.068  0.932  0.000  0.000     2.104     2.268
 169   1 H      0.073  0.927  0.000  0.000     2.047     2.237
 170   1 H      0.075  0.925  0.000  0.000     2.028     2.227
 171   1 H      0.070  0.930  0.000  0.000     2.087     2.259
 172   1 H      0.074  0.926  0.000  0.000     2.037     2.232
 173   7 N     -0.409  1.273  4.136  0.000    30.625     8.219
 174   6 C     -0.030  0.999  3.031  0.000    21.178     6.563
 175   6 C      0.265  1.045  2.690  0.000    22.526     7.772
 176   8 O     -0.486  1.734  4.752  0.000    23.482     6.497
 177   1 H      0.180  0.820  0.000  0.000     1.214     1.726
 178   1 H      0.079  0.921  0.000  0.000     1.988     2.205
 179   1 H      0.048  0.952  0.000  0.000     2.347     2.395
 180   7 N     -0.184  1.208  3.976  0.000    24.983     7.423
 181   6 C      0.006  1.046  2.948  0.000    20.483     6.445
 182   6 C      0.263  1.048  2.689  0.000    22.572     7.780
 183   8 O     -0.511  1.761  4.750  0.000    24.020     6.571
 184   6 C     -0.102  1.014  3.088  0.000    22.419     6.738
 185   6 C     -0.032  1.037  2.995  0.000    21.103     6.534
 186   6 C     -0.156  0.981  3.175  0.000    23.563     6.918
 187   6 C     -0.160  0.978  3.182  0.000    23.619     6.924
 188   1 H      0.209  0.791  0.000  0.000     1.060     1.613
 189   1 H      0.099  0.901  0.000  0.000     1.790     2.092
 190   1 H      0.058  0.942  0.000  0.000     2.221     2.330
 191   1 H      0.067  0.933  0.000  0.000     2.113     2.273
 192   1 H      0.056  0.944  0.000  0.000     2.249     2.345
 193   1 H      0.063  0.937  0.000  0.000     2.167     2.302
 194   1 H      0.042  0.958  0.000  0.000     2.417     2.431
 195   1 H      0.060  0.940  0.000  0.000     2.202     2.321
 196   1 H      0.065  0.935  0.000  0.000     2.144     2.290
 197   1 H      0.058  0.942  0.000  0.000     2.220     2.330
 198   1 H      0.058  0.942  0.000  0.000     2.216     2.328
 199   7 N     -0.169  1.206  3.963  0.000    24.665     7.376
 200   6 C      0.013  1.033  2.954  0.000    20.350     6.422
 201   6 C      0.258  1.041  2.701  0.000    22.656     7.795
 202   8 O     -0.468  1.741  4.727  0.000    23.077     6.441
 203   6 C     -0.152  0.979  3.174  0.000    23.473     6.903
 204   1 H      0.229  0.771  0.000  0.000     0.971     1.543
 205   1 H      0.071  0.929  0.000  0.000     2.070     2.250
 206   1 H      0.073  0.927  0.000  0.000     2.050     2.239
 207   1 H      0.076  0.924  0.000  0.000     2.024     2.224
 208   1 H      0.091  0.909  0.000  0.000     1.872     2.139
 209   7 N     -0.172  1.207  3.965  0.000    24.725     7.385
 210   6 C      0.005  1.044  2.951  0.000    20.482     6.442
 211   6 C      0.204  1.085  2.711  0.000    23.673     7.968
 212   8 O     -0.353  1.755  4.597  0.000    20.757     6.108
 213   6 C     -0.035  1.035  2.999  0.000    21.154     6.541
 214   6 C     -0.155  0.976  3.179  0.000    23.532     6.911
 215   6 C     -0.166  0.978  3.187  0.000    23.746     6.943
 216   1 H      0.221  0.779  0.000  0.000     1.007     1.572
 217   1 H      0.100  0.900  0.000  0.000     1.787     2.090
 218   1 H      0.076  0.924  0.000  0.000     2.020     2.223
 219   1 H      0.067  0.933  0.000  0.000     2.119     2.276
 220   1 H      0.052  0.948  0.000  0.000     2.289     2.366
 221   1 H      0.066  0.934  0.000  0.000     2.124     2.279
 222   1 H      0.070  0.930  0.000  0.000     2.085     2.258
 223   1 H      0.071  0.929  0.000  0.000     2.069     2.249
 224   1 H      0.060  0.940  0.000  0.000     2.201     2.320
 225   7 N     -0.410  1.281  4.129  0.000    30.652     8.223
 226   6 C      0.014  1.037  2.949  0.000    20.351     6.425
 227   6 C      0.264  1.048  2.687  0.000    22.539     7.775
 228   8 O     -0.499  1.747  4.752  0.000    23.765     6.536
 229   6 C      0.060  0.996  2.944  0.000    19.757     6.363
 230   8 O     -0.502  1.685  4.817  0.000    22.935     6.465
 231   1 H      0.194  0.806  0.000  0.000     1.136     1.670
 232   1 H      0.065  0.935  0.000  0.000     2.136     2.285
 233   1 H      0.043  0.957  0.000  0.000     2.414     2.429
 234   1 H      0.060  0.940  0.000  0.000     2.200     2.319
 235   1 H      0.337  0.663  0.000  0.000     0.620     1.236
 236   7 N     -0.163  1.204  3.959  0.000    24.535     7.357
 237   6 C      0.006  1.036  2.958  0.000    20.476     6.442
 238   6 C      0.268  1.040  2.692  0.000    22.478     7.764
 239   8 O     -0.488  1.743  4.745  0.000    23.522     6.503
 240   6 C     -0.165  0.985  3.180  0.000    23.742     6.944
 241   1 H      0.218  0.782  0.000  0.000     1.020     1.582
 242   1 H      0.092  0.908  0.000  0.000     1.856     2.130
 243   1 H      0.077  0.923  0.000  0.000     2.014     2.219
 244   1 H      0.086  0.914  0.000  0.000     1.918     2.165
 245   1 H      0.077  0.923  0.000  0.000     2.013     2.219
 246   7 N     -0.172  1.198  3.973  0.000    24.715     7.384
 247   6 C      0.001  1.040  2.959  0.000    20.569     6.457
 248   6 C      0.257  1.044  2.700  0.000    22.679     7.799
 249   8 O     -0.502  1.753  4.749  0.000    23.830     6.545
 250   6 C      0.108  1.022  2.870  0.000    18.887     6.203
 251   8 O     -0.479  1.668  4.810  0.000    22.436     6.394
 252   6 C     -0.177  0.981  3.196  0.000    23.984     6.979
 253   1 H      0.228  0.772  0.000  0.000     0.972     1.544
 254   1 H      0.105  0.895  0.000  0.000     1.740     2.062
 255   1 H      0.041  0.959  0.000  0.000     2.429     2.437
 256   1 H      0.324  0.676  0.000  0.000     0.653     1.269
 257   1 H      0.085  0.915  0.000  0.000     1.926     2.170
 258   1 H      0.071  0.929  0.000  0.000     2.079     2.255
 259   1 H      0.085  0.915  0.000  0.000     1.931     2.173
 260   7 N     -0.169  1.205  3.964  0.000    24.649     7.374
 261   6 C     -0.000  1.044  2.956  0.000    20.588     6.460
 262   6 C      0.262  1.048  2.690  0.000    22.580     7.781
 263   8 O     -0.479  1.744  4.735  0.000    23.323     6.475
 264   6 C     -0.089  1.006  3.083  0.000    22.180     6.702
 265   6 C     -0.119  1.006  3.113  0.000    22.764     6.790
 266   6 C      0.284  1.033  2.684  0.000    22.196     7.714
 267   8 O     -0.505  1.751  4.754  0.000    23.892     6.553
 268   7 N     -0.294  1.196  4.099  0.000    27.582     7.800
 269   1 H      0.231  0.769  0.000  0.000     0.962     1.536
 270   1 H      0.100  0.900  0.000  0.000     1.782     2.087
 271   1 H      0.097  0.903  0.000  0.000     1.814     2.106
 272   1 H      0.078  0.922  0.000  0.000     1.996     2.209
 273   1 H      0.066  0.934  0.000  0.000     2.125     2.280
 274   1 H      0.090  0.910  0.000  0.000     1.883     2.146
 275   1 H      0.225  0.775  0.000  0.000     0.988     1.557
 276   1 H      0.243  0.757  0.000  0.000     0.913     1.496
 277   7 N     -0.178  1.205  3.972  0.000    24.852     7.404
 278   6 C     -0.001  1.037  2.964  0.000    20.590     6.459
 279   6 C      0.263  1.037  2.699  0.000    22.560     7.778
 280   8 O     -0.504  1.757  4.747  0.000    23.881     6.552
 281   6 C     -0.137  1.021  3.116  0.000    23.116     6.842
 282   6 C      0.283  1.035  2.682  0.000    22.212     7.717
 283   8 O     -0.522  1.774  4.749  0.000    24.286     6.607
 284   7 N     -0.281  1.190  4.090  0.000    27.254     7.753
 285   1 H      0.223  0.777  0.000  0.000     0.996     1.563
 286   1 H      0.108  0.892  0.000  0.000     1.712     2.046
 287   1 H      0.105  0.895  0.000  0.000     1.740     2.063
 288   1 H      0.118  0.882  0.000  0.000     1.632     1.997
 289   1 H      0.243  0.757  0.000  0.000     0.909     1.494
 290   1 H      0.241  0.759  0.000  0.000     0.918     1.501
 291   7 N     -0.187  1.212  3.974  0.000    25.045     7.433
 292   6 C     -0.013  1.054  2.959  0.000    20.810     6.496
 293   6 C      0.275  1.039  2.686  0.000    22.356     7.743
 294   8 O     -0.495  1.763  4.733  0.000    23.684     6.525
 295   6 C     -0.113  1.011  3.101  0.000    22.636     6.771
 296   6 C     -0.125  1.006  3.119  0.000    22.870     6.806
 297   6 C     -0.120  1.003  3.118  0.000    22.786     6.793
 298   6 C     -0.066  1.012  3.054  0.000    21.830     6.664
 299   7 N     -0.141  1.145  3.996  0.000    24.042     7.282
 300   1 H      0.240  0.760  0.000  0.000     0.921     1.503
 301   1 H      0.113  0.887  0.000  0.000     1.674     2.023
 302   1 H      0.091  0.909  0.000  0.000     1.873     2.140
 303   1 H      0.110  0.890  0.000  0.000     1.700     2.039
 304   1 H      0.108  0.892  0.000  0.000     1.716     2.048
 305   1 H      0.079  0.921  0.000  0.000     1.990     2.206
 306   1 H      0.075  0.925  0.000  0.000     2.026     2.226
 307   1 H      0.093  0.907  0.000  0.000     1.846     2.125
 308   1 H      0.120  0.880  0.000  0.000     1.616     1.988
 309   1 H      0.119  0.881  0.000  0.000     1.620     1.991
 310   1 H      0.295  0.705  0.000  0.000     0.727     1.336
 311   1 H      0.298  0.702  0.000  0.000     0.720     1.329
 312   1 H      0.298  0.702  0.000  0.000     0.718     1.327
 313   7 N     -0.188  1.206  3.982  0.000    25.083     7.438
 314   6 C      0.014  1.039  2.946  0.000    20.334     6.420
 315   6 C      0.269  1.046  2.685  0.000    22.453     7.760
 316   8 O     -0.512  1.755  4.757  0.000    24.049     6.575
 317   6 C     -0.128  1.026  3.102  0.000    22.946     6.819
 318   6 C      0.357  1.025  2.617  0.000    20.933     7.487
 319   8 O     -0.639  1.768  4.871  0.000    27.086     6.978
 320   8 O     -0.640  1.781  4.859  0.000    27.120     6.982
 321   1 H      0.224  0.776  0.000  0.000     0.992     1.560
 322   1 H      0.096  0.904  0.000  0.000     1.820     2.110
 323   1 H      0.060  0.940  0.000  0.000     2.201     2.320
 324   1 H      0.078  0.922  0.000  0.000     2.001     2.212
 325   7 N     -0.170  1.198  3.972  0.000    24.670     7.377
 326   6 C     -0.045  1.004  3.042  0.000    21.428     6.598
 327   6 C      0.263  1.041  2.696  0.000    22.567     7.779
 328   8 O     -0.488  1.752  4.736  0.000    23.519     6.502
 329   1 H      0.217  0.783  0.000  0.000     1.023     1.584
 330   1 H      0.113  0.887  0.000  0.000     1.669     2.020
 331   1 H      0.112  0.888  0.000  0.000     1.676     2.024
 332   7 N     -0.174  1.202  3.972  0.000    24.771     7.392
 333   6 C      0.009  1.037  2.953  0.000    20.421     6.434
 334   6 C      0.274  1.038  2.688  0.000    22.366     7.745
 335   8 O     -0.480  1.721  4.759  0.000    23.345     6.478
 336   6 C      0.062  0.994  2.944  0.000    19.718     6.356
 337   8 O     -0.469  1.665  4.804  0.000    22.234     6.365
 338   1 H      0.221  0.779  0.000  0.000     1.003     1.569
 339   1 H      0.080  0.920  0.000  0.000     1.983     2.202
 340   1 H      0.050  0.950  0.000  0.000     2.319     2.381
 341   1 H      0.076  0.924  0.000  0.000     2.021     2.223
 342   1 H      0.326  0.674  0.000  0.000     0.646     1.262
 343   7 N     -0.182  1.208  3.974  0.000    24.944     7.418
 344   6 C      0.005  1.042  2.953  0.000    20.488     6.444
 345   6 C      0.266  1.043  2.692  0.000    22.519     7.771
 346   8 O     -0.503  1.753  4.750  0.000    23.849     6.548
 347   6 C     -0.036  1.039  2.998  0.000    21.181     6.545
 348   6 C     -0.095  1.010  3.085  0.000    22.312     6.724
 349   6 C     -0.162  0.978  3.184  0.000    23.671     6.933
 350   6 C     -0.161  0.986  3.174  0.000    23.671     6.937
 351   1 H      0.207  0.793  0.000  0.000     1.070     1.620
 352   1 H      0.095  0.905  0.000  0.000     1.832     2.116
 353   1 H      0.072  0.928  0.000  0.000     2.068     2.249
 354   1 H      0.046  0.954  0.000  0.000     2.368     2.406
 355   1 H      0.057  0.943  0.000  0.000     2.235     2.338
 356   1 H      0.089  0.911  0.000  0.000     1.888     2.148
 357   1 H      0.041  0.959  0.000  0.000     2.431     2.438
 358   1 H      0.068  0.932  0.000  0.000     2.111     2.272
 359   1 H      0.066  0.934  0.000  0.000     2.132     2.283
 360   1 H      0.069  0.931  0.000  0.000     2.098     2.265
 361   1 H      0.069  0.931  0.000  0.000     2.092     2.261
 362   7 N     -0.167  1.205  3.962  0.000    24.607     7.367
 363   6 C      0.005  1.029  2.966  0.000    20.480     6.442
 364   6 C      0.265  1.040  2.694  0.000    22.521     7.771
 365   8 O     -0.472  1.726  4.745  0.000    23.164     6.453
 366   6 C      0.063  0.988  2.948  0.000    19.684     6.347
 367   8 O     -0.475  1.653  4.823  0.000    22.368     6.385
 368   1 H      0.240  0.760  0.000  0.000     0.924     1.505
 369   1 H      0.081  0.919  0.000  0.000     1.965     2.192
 370   1 H      0.067  0.933  0.000  0.000     2.115     2.274
 371   1 H      0.046  0.954  0.000  0.000     2.366     2.405
 372   1 H      0.330  0.670  0.000  0.000     0.636     1.252
 373   7 N     -0.180  1.207  3.973  0.000    24.907     7.412
 374   6 C      0.001  1.050  2.949  0.000    20.571     6.458
 375   6 C      0.276  1.040  2.684  0.000    22.332     7.738
 376   8 O     -0.519  1.757  4.762  0.000    24.204     6.596
 377   6 C     -0.042  1.050  2.992  0.000    21.288     6.563
 378   6 C     -0.092  1.007  3.085  0.000    22.245     6.713
 379   6 C     -0.162  0.984  3.178  0.000    23.693     6.938
 380   6 C     -0.153  0.978  3.175  0.000    23.500     6.909
 381   1 H      0.210  0.790  0.000  0.000     1.056     1.610
 382   1 H      0.094  0.906  0.000  0.000     1.842     2.122
 383   1 H      0.055  0.945  0.000  0.000     2.261     2.351
 384   1 H      0.065  0.935  0.000  0.000     2.140     2.287
 385   1 H      0.042  0.958  0.000  0.000     2.419     2.432
 386   1 H      0.081  0.919  0.000  0.000     1.968     2.194
 387   1 H      0.059  0.941  0.000  0.000     2.213     2.326
 388   1 H      0.074  0.926  0.000  0.000     2.041     2.234
 389   1 H      0.062  0.938  0.000  0.000     2.177     2.307
 390   1 H      0.051  0.949  0.000  0.000     2.306     2.375
 391   1 H      0.074  0.926  0.000  0.000     2.045     2.236
 392   7 N     -0.177  1.213  3.965  0.000    24.840     7.402
 393   6 C      0.025  1.037  2.938  0.000    20.155     6.393
 394   6 C      0.196  1.089  2.715  0.000    23.821     7.993
 395   8 O     -0.346  1.754  4.591  0.000    20.626     6.089
 396   6 C     -0.126  1.016  3.109  0.000    22.889     6.809
 397   6 C      0.282  1.036  2.681  0.000    22.215     7.717
 398   8 O     -0.510  1.759  4.750  0.000    23.996     6.568
 399   7 N     -0.279  1.192  4.087  0.000    27.205     7.747
 400   1 H      0.246  0.754  0.000  0.000     0.899     1.485
 401   1 H      0.104  0.896  0.000  0.000     1.751     2.069
 402   1 H      0.111  0.889  0.000  0.000     1.683     2.029
 403   1 H      0.113  0.887  0.000  0.000     1.673     2.023
 404   1 H      0.246  0.754  0.000  0.000     0.897     1.483
 405   1 H      0.226  0.774  0.000  0.000     0.983     1.553
 406   1 H      0.191  0.809  0.000  0.000     1.153     1.682
 407   1 H      0.068  0.932  0.000  0.000     2.112     2.272
 408   1 H      0.175  0.825  0.000  0.000     1.241     1.745
 409   1 H      0.061  0.939  0.000  0.000     2.190     2.314
 410   1 H      0.175  0.825  0.000  0.000     1.243     1.746
 411   1 H      0.062  0.938  0.000  0.000     2.174     2.306
 412   1 H      0.171  0.829  0.000  0.000     1.269     1.764
 413   1 H      0.068  0.932  0.000  0.000     2.107     2.270
 414   1 H      0.185  0.815  0.000  0.000     1.184     1.704
 415   1 H      0.095  0.905  0.000  0.000     1.828     2.114
 416   1 H      0.167  0.833  0.000  0.000     1.290     1.779
 417   1 H      0.051  0.949  0.000  0.000     2.304     2.373
 418   1 H      0.183  0.817  0.000  0.000     1.198     1.714
 419   1 H      0.079  0.921  0.000  0.000     1.991     2.207
 420   1 H      0.180  0.820  0.000  0.000     1.214     1.726
 421   1 H      0.088  0.912  0.000  0.000     1.895     2.153
 422   1 H      0.186  0.814  0.000  0.000     1.177     1.700
 423   1 H      0.079  0.921  0.000  0.000     1.992     2.207
 424   1 H      0.192  0.808  0.000  0.000     1.147     1.677
 425   1 H      0.086  0.914  0.000  0.000     1.913     2.163

 Mol. C6AA /au·bohr⁶  :    1578855.335237
 Mol. C8AA /au·bohr⁸  :   34937661.877312
 Mol. α(0) /au        :       1869.567319

 
molecular dipole:
                 x           y           z       tot (Debye)
 q only:      -22.664      24.800     -31.661
   full:      -23.032      25.489     -28.139     112.874
molecular quadrupole (traceless):
                xx          xy          yy          xz          yz          zz
 q only:   -13663.402    8807.092   20848.214  -23695.781    1334.350   -7184.811
  q+dip:   -14698.684    9092.205   20418.432  -21848.224    2230.254   -5719.748
   full:   -14696.089    9089.973   20417.574  -21848.063    2231.468   -5721.485
speedup  1.00
cpu  time for grad    9.85 s
wall time for grad    9.85 s

SCC energy    :    -658.0053817
rep           :      13.7730382
ES            :       2.1557938
AES           :      -0.0440586
AXC           :       0.0994076
disp          :      -0.5146157
XB            :       0.0000000
fix           :       0.0000000
Gborn         :       0.0000000
Gsasa         :       0.0000000
Ghb           :       0.0000000
Gshift        :       0.0000000
Gsolv         :      -0.4915835     -308.47
Etot ala COSMO:    -658.0053817
grad norm     :       2.6430412
total E       :    -644.1819265
atomizationE  :     112.3771015    70517.70
(atE without considering molecular charge,
 total energy contains solvation terms)
H-L gap (eV)  :          1.4221

------------------------------------------------------------------------
 * finished run on 2019/03/07 at 11:37:56.925     
------------------------------------------------------------------------
 total:
 * wall-time:     0 d,  0 h,  0 min, 10.966 sec
 *  cpu-time:     0 d,  0 h,  0 min, 10.738 sec
 * ratio c/w:     0.979 speedup
 SCF:
 * wall-time:     0 d,  0 h,  0 min, 10.562 sec
 *  cpu-time:     0 d,  0 h,  0 min, 10.561 sec
 * ratio c/w:     1.000 speedup

