      -----------------------------------------------------------      
     |                   =====================                   |     
     |                           x T B                           |     
     |                   =====================                   |     
     |                         S. Grimme                         |     
     |          Mulliken Center for Theoretical Chemistry        |     
     |                    University of Bonn                     |     
     |                 Version 6.0.1 (SAW181210)                 |     
      -----------------------------------------------------------      

   This program is distributed in the hope that it will be useful,
   but WITHOUT ANY WARRANTY; without even the implied warranty of
   MERCHANTABILITY or FITNESS FOR A PARTICULAR PURPOSE.
   
   FOR NON-COMMERCIAL, ACADEMIA USE ONLY.
   
   Cite this work as:
   S. Grimme, C. Bannwarth, P. Shushkov, J. Comput. Theory Chem., 2017,
   13, 1989-2009.
   C. Bannwarth, S. Ehlert and S. Grimme., ChemRxiv, 2018, preprint.
   http://doi.org/10.26434/chemrxiv.7246238.v1
   
   for sTDA-xTB:
   S. Grimme and C. Bannwarth, J. Chem. Phys., 2016, 145, 054103.
   
   in the mass-spec context:
   V. Asgeirsson, C. Bauer and S. Grimme, Chem. Sci., 2017, 8, 4879.
   
   if GBSA is used:
   P. Shushkov, F. März and S. Grimme, unpublished.
   
   for ANC optimizer:
   S. Grimme, unpublished.
   Rational Function algorithm used in ANCopt:
   F. Eckert, P. Pulay, H.-J. Werner, J. Comput. Chem., 1997, 18, 1473.
   
   with help from (in alphabetical order)
   C. Bannwarth, F. Bohle, G. Brandenburg, E. Caldeweyher, M. Checinski,
   S. Dohm, S. Ehlert, S. Ehrlich, F. März, H. Neugebauer, J. Pisarek,
   P. Pracht, P. Shushkov, and S. Spicher.
   
 * started run on 2019/03/14 at 15:08:19.623     
========================================================================
 # omp threads = 1
========================================================================
number of atoms            : 540
number of electrons        : 1378
charge                     : 0
spin                       : .0
first test random number   : .6964
           ------------------------------------------------- 
          |                 G F N 2 - x T B                 |
          | Geometry, Frequencies, Noncovalent interactions |
          |            JCTC 2018 parametrisation            |
           ------------------------------------------------- 
 
      method parameters     
 k(s)        :  1.8500
 k(p)        :  2.2300
 k(d)        :  2.2300
 k(f)        :  2.0000
 kEN (H0ij)  : -2.0000
 D4 a1       :  0.5200
 D4 a2       :  5.0000
 D4 s6       :  1.0000
 D4 s8       :  2.7000
 D4 s9       :  5.0000
 alphaj      :  2.0000

 Solvent             : h2o
 Using internal parameter file: .param_gbsa2_h2o
 Gsolv ref. state (COSMO-RS): gsolv [1 M gas/solution]
 temperature (mdtemp)       :    298.150000000000     
 dielectric constant        :    80.2000000000000     
 rho                        :    1.00000000000000     
 mass                       :    18.0000000000000     
 surface tension            :    15.5689454083859     
 probe radius               :   0.975313790000000     
 vdW radii scaling          :    1.00000000000000     
 Gshift (Eh)                :   1.857443126794793E-003
 c1                         :    1.55243817000000     
 soset                      :   0.130326360000000     
 HB correction              :  T

            Z     q(EN)     CN     RAES       Cart. coordinates
     1  N   5.0   -0.21    3.20    1.96    78.25094   118.71634    60.80335
     2  C   4.0    0.03    4.22    4.03    79.77262   117.29677    59.02850
     3  C   4.0    0.08    3.23    3.04    78.14614   115.38541    57.60997
     4  O   6.0   -0.29    1.12    1.80    78.67373   114.74353    55.44202
     5  C   4.0   -0.05    4.37    4.33    81.88004   115.80590    60.32562
     6  C   4.0   -0.03    4.18    3.96    83.61021   117.32099    62.07900
     7  C   4.0   -0.08    4.12    3.83    85.30502   115.44642    63.47338
     8  C   4.0   -0.08    4.10    3.81    85.19421   119.23065    60.62255
     9  H   1.0    0.08    1.02    1.43    78.56081   118.44754    62.67818
    10  H   1.0    0.05    1.05    1.44    80.54350   118.59016    57.60212
    11  H   1.0    0.04    1.03    1.43    80.99702   114.29086    61.41190
    12  H   1.0    0.04    1.03    1.43    83.02907   114.96276    58.83395
    13  H   1.0    0.04    1.06    1.44    82.46424   118.31779    63.47395
    14  H   1.0    0.04    1.00    1.43    86.66131   116.42964    64.65800
    15  H   1.0    0.04    1.00    1.43    84.16654   114.21484    64.66115
    16  H   1.0    0.04    1.00    1.43    86.33019   114.27735    62.13104
    17  H   1.0    0.03    1.00    1.43    86.33496   120.33188    61.92687
    18  H   1.0    0.03    1.00    1.43    86.45281   118.25678    59.32508
    19  H   1.0    0.04    1.00    1.43    84.01170   120.52072    59.54755
    20  N   5.0   -0.21    3.18    1.95   117.19314    98.81449    78.35599
    21  C   4.0    0.03    4.25    4.10   115.51172   100.78958    77.45678
    22  C   4.0    0.07    3.23    3.04   116.70508   102.30467    75.30689
    23  O   6.0   -0.30    1.13    1.80   115.42350   103.57706    73.84731
    24  C   4.0    0.05    4.22    4.04   114.70636   102.66522    79.56604
    25  O   6.0   -0.26    2.11    1.84   113.55576   101.38232    81.58218
    26  C   4.0   -0.06    4.10    3.80   112.84419   104.64053    78.59130
    27  H   1.0    0.08    1.02    1.43   118.55119    99.32540    79.60183
    28  H   1.0    0.05    1.05    1.44   113.82044    99.85721    76.71403
    29  H   1.0    0.04    1.03    1.43   116.43951   103.61699    80.22918
    30  H   1.0    0.11    1.03    1.43   114.77672   100.17800    82.23523
    31  H   1.0    0.04    1.00    1.43   112.28119   105.86134    80.14134
    32  H   1.0    0.06    1.01    1.43   113.68580   105.77641    77.10784
    33  H   1.0    0.05    1.00    1.43   111.16927   103.71297    77.85141
    34  N   5.0   -0.21    3.21    1.96   113.39636    99.20653    59.03379
    35  C   4.0    0.03    4.33    4.25   111.09043   100.34649    58.09650
    36  C   4.0    0.08    3.26    3.05   111.84907   102.46054    56.30957
    37  O   6.0   -0.29    1.12    1.80   110.67323   102.85532    54.34999
    38  C   4.0   -0.03    4.32    4.23   109.30648   101.20520    60.22413
    39  C   4.0   -0.05    4.19    3.98   108.05887    98.86962    61.39941
    40  C   4.0   -0.07    4.15    3.89   107.35477   103.03740    59.15870
    41  C   4.0   -0.08    4.01    3.64   106.72301    99.40886    63.88737
    42  H   1.0    0.08    1.03    1.43   113.70888    99.37186    60.91437
    43  H   1.0    0.05    1.06    1.44   110.08111    98.97078    56.92924
    44  H   1.0    0.04    1.05    1.44   110.42496   102.18150    61.65709
    45  H   1.0    0.04    1.03    1.43   106.65524    98.14297    60.08154
    46  H   1.0    0.04    1.03    1.43   109.50594    97.42984    61.66639
    47  H   1.0    0.03    1.00    1.43   105.96630   103.55075    60.57885
    48  H   1.0    0.05    1.01    1.43   108.27796   104.74567    58.49142
    49  H   1.0    0.05    1.00    1.43   106.38052   102.17541    57.57032
    50  H   1.0    0.04    1.00    1.43   106.02598    97.66267    64.71593
    51  H   1.0    0.04    1.00    1.43   107.96951   100.32262    65.24040
    52  H   1.0    0.03    1.01    1.43   105.11610   100.62932    63.54828
    53  N   5.0   -0.21    3.23    1.96   108.97271   106.20656    39.05837
    54  C   4.0    0.03    4.23    4.06   109.51621   108.37114    37.51294
    55  C   4.0    0.08    3.19    3.04   111.64564   107.89009    35.57919
    56  O   6.0   -0.28    1.12    1.80   111.97256   109.35389    33.81747
    57  C   4.0   -0.03    4.33    4.25   110.30562   110.64507    39.13545
    58  C   4.0   -0.02    3.56    3.15   108.83723   110.91290    41.55686
    59  C   4.0   -0.05    3.53    3.13   110.14403   111.41115    43.77682
    60  C   4.0   -0.05    3.49    3.11   106.24609   110.56069    41.71772
    61  C   4.0   -0.04    3.38    3.07   108.90713   111.90395    46.02388
    62  C   4.0   -0.05    3.42    3.08   105.01816   110.82654    44.02027
    63  C   4.0   -0.04    3.37    3.07   106.30707   111.68332    46.12530
    64  H   1.0    0.09    1.03    1.43   109.99857   106.01778    40.67049
    65  H   1.0    0.05    1.05    1.44   107.80883   108.81376    36.42512
    66  H   1.0    0.04    1.04    1.43   112.30585   110.44769    39.61072
    67  H   1.0    0.05    1.03    1.43   110.10444   112.31645    37.93704
    68  H   1.0    0.05    1.04    1.43   112.18018   111.39439    43.73037
    69  H   1.0    0.05    1.03    1.43   105.18757   110.07627    40.04094
    70  H   1.0    0.05    1.03    1.43   109.98255   112.37895    47.69373
    71  H   1.0    0.04    1.03    1.43   103.05003   110.33188    44.20266
    72  H   1.0    0.05    1.03    1.43   105.29658   112.15233    47.83359
    73  N   5.0   -0.21    3.20    1.96    97.05101    98.67336    66.67482
    74  C   4.0    0.03    4.24    4.08    97.33260   100.92484    68.19562
    75  C   4.0    0.08    3.21    3.04    95.23960   101.15253    70.16443
    76  O   6.0   -0.29    1.12    1.80    95.73473   101.87673    72.31633
    77  C   4.0   -0.05    4.36    4.31    97.33918   103.31816    66.58088
    78  C   4.0   -0.03    4.18    3.96    99.62321   103.48525    64.80509
    79  C   4.0   -0.08    4.10    3.80    99.43787   105.88155    63.20903
    80  C   4.0   -0.08    4.12    3.84   102.07388   103.43262    66.32547
    81  H   1.0    0.08    1.02    1.43    96.89431    98.85272    64.77121
    82  H   1.0    0.05    1.06    1.44    99.10157   100.78448    69.27038
    83  H   1.0    0.04    1.03    1.43    95.58325   103.37123    65.50275
    84  H   1.0    0.04    1.03    1.43    97.35203   104.93774    67.86225
    85  H   1.0    0.04    1.06    1.44    99.58758   101.86510    63.52777
    86  H   1.0    0.04    1.00    1.43   100.94135   105.93749    61.80920
    87  H   1.0    0.04    1.00    1.43    97.63551   105.95003    62.22666
    88  H   1.0    0.04    1.00    1.43    99.58642   107.55450    64.39045
    89  H   1.0    0.03    1.00    1.43   103.62950   104.18816    65.22087
    90  H   1.0    0.04    1.00    1.43   101.88707   104.56763    68.02523
    91  H   1.0    0.04    1.00    1.43   102.53290   101.50985    66.87215
    92  N   5.0   -0.21    3.20    1.96    98.51370    99.74799    86.44186
    93  C   4.0    0.03    4.32    4.23    99.43373   101.97775    87.73458
    94  C   4.0    0.08    3.22    3.04    97.58883   103.09884    89.64002
    95  O   6.0   -0.29    1.13    1.80    98.42370   104.07252    91.58080
    96  C   4.0   -0.03    4.28    4.15   100.25795   103.95335    85.75971
    97  C   4.0   -0.07    4.15    3.91   100.97386   106.42308    87.05276
    98  C   4.0   -0.08    4.12    3.84   102.52697   102.96199    84.26883
    99  H   1.0    0.08    1.03    1.43    98.05662   100.01393    84.59357
   100  H   1.0    0.05    1.06    1.44   101.11514   101.46207    88.84266
   101  H   1.0    0.04    1.05    1.44    98.64542   104.25166    84.49659
   102  H   1.0    0.03    1.01    1.43   101.69263   107.74456    85.66551
   103  H   1.0    0.05    1.00    1.43    99.36077   107.27209    87.99521
   104  H   1.0    0.05    1.00    1.43   102.42139   106.09214    88.47108
   105  H   1.0    0.04    1.00    1.43   103.09177   104.37816    82.89649
   106  H   1.0    0.04    1.00    1.43   104.10114   102.64633    85.55003
   107  H   1.0    0.04    1.00    1.43   102.01442   101.24963    83.26830
   108  N   5.0   -0.22    3.22    1.96   113.10345   120.05454    86.66073
   109  C   4.0    0.03    4.38    4.34   113.24255   118.17611    84.66880
   110  C   4.0    0.14    3.44    3.09   110.63449   117.61991    83.59370
   111  O   6.0   -0.34    1.45    1.80   110.33851   117.78473    81.29914
   112  C   4.0   -0.04    4.32    4.23   114.57858   115.74427    85.42966
   113  C   4.0   -0.02    3.55    3.14   117.34556   116.17188    85.95424
   114  C   4.0   -0.05    3.47    3.10   118.79574   114.22595    86.96314
   115  C   4.0   -0.04    3.52    3.13   118.53179   118.44385    85.43868
   116  C   4.0   -0.03    3.45    3.09   121.34422   114.53820    87.40465
   117  C   4.0   -0.04    3.43    3.09   121.07357   118.78429    85.89317
   118  C   4.0    0.07    3.42    3.09   122.53918   116.81236    86.81574
   119  O   6.0   -0.24    2.10    1.84   125.07728   116.92486    87.25101
   120  H   1.0    0.08    1.02    1.43   113.92769   119.69234    88.33728
   121  H   1.0    0.04    1.07    1.44   114.30849   118.94840    83.05938
   122  H   1.0    0.04    1.02    1.43   113.67139   114.84829    87.05120
   123  H   1.0    0.04    1.03    1.43   114.40738   114.45315    83.82033
   124  H   1.0    0.05    1.03    1.43   117.92604   112.42155    87.34629
   125  H   1.0    0.05    1.04    1.44   117.55565   120.01196    84.58599
   126  H   1.0    0.06    1.03    1.43   122.47213   113.03553    88.19683
   127  H   1.0    0.05    1.03    1.43   121.82210   120.62502    85.47933
   128  H   1.0    0.12    1.01    1.43   125.89948   118.40844    86.50980
   129  N   5.0   -0.15    3.46    2.05   108.82158   116.86283    85.15016
   130  C   4.0    0.03    4.39    4.37   106.19925   116.51600    84.37576
   131  C   4.0    0.16    3.50    3.12   105.30249   118.73469    82.74429
   132  O   6.0   -0.33    1.39    1.80   104.30766   118.36184    80.69401
   133  C   4.0   -0.05    4.33    4.26   104.57596   116.16053    86.75481
   134  C   4.0   -0.03    4.16    3.92   101.80542   115.33948    86.41619
   135  C   4.0   -0.07    4.15    3.90   100.48401   116.55762    84.17447
   136  C   4.0   -0.08    4.12    3.84   101.60795   112.47209    86.22459
   137  H   1.0    0.07    1.08    1.44   109.17051   116.96817    87.02215
   138  H   1.0    0.04    1.06    1.44   106.06840   114.87347    83.12736
   139  H   1.0    0.04    1.04    1.43   105.44851   114.70351    87.92422
   140  H   1.0    0.04    1.03    1.43   104.64657   117.94314    87.76490
   141  H   1.0    0.04    1.06    1.44   100.79486   115.90539    88.13377
   142  H   1.0    0.04    1.00    1.43    98.48468   116.09535    84.19821
   143  H   1.0    0.05    1.00    1.43   100.65853   118.60414    84.21286
   144  H   1.0    0.05    1.01    1.43   101.28680   115.84709    82.42340
   145  H   1.0    0.04    1.00    1.43    99.63518   111.92347    86.06243
   146  H   1.0    0.03    1.00    1.43   102.59707   111.76919    84.56769
   147  H   1.0    0.04    1.00    1.43   102.41224   111.58629    87.89463
   148  N   5.0   -0.15    3.52    2.09   105.59181   121.04906    83.71078
   149  C   4.0    0.03    4.42    4.41   104.74119   123.33500    82.46605
   150  C   4.0    0.15    3.45    3.09   106.00464   123.68579    79.89125
   151  O   6.0   -0.32    1.23    1.80   105.03941   124.96968    78.22039
   152  C   4.0   -0.05    4.35    4.28   105.12354   125.58520    84.25586
   153  C   4.0   -0.03    4.07    3.75   105.06326   128.15482    82.97848
   154  S   6.0   -0.05    2.48    3.10   105.12390   130.65766    85.33146
   155  C   4.0   -0.07    3.88    3.43   108.24505   130.15991    86.72802
   156  H   1.0    0.07    1.07    1.44   106.72961   121.25123    85.24034
   157  H   1.0    0.05    1.13    1.45   102.72374   123.12574    82.03394
   158  H   1.0    0.04    1.04    1.43   103.62730   125.54332    85.67401
   159  H   1.0    0.04    1.04    1.43   106.95131   125.37048    85.18550
   160  H   1.0    0.05    1.06    1.44   106.65421   128.42097    81.69690
   161  H   1.0    0.05    1.07    1.44   103.30985   128.42778    81.93574
   162  H   1.0    0.04    1.05    1.44   108.62830   131.84204    87.83174
   163  H   1.0    0.04    1.04    1.43   108.18272   128.51259    87.94634
   164  H   1.0    0.04    1.04    1.43   109.61450   129.94409    85.21477
   165  N   5.0   -0.13    3.61    2.16   108.15194   122.41511    79.61189
   166  C   4.0    0.04    4.47    4.49   109.56060   122.37643    77.29183
   167  C   4.0    0.15    3.44    3.09   108.69150   120.14644    75.66971
   168  O   6.0   -0.33    1.37    1.80   107.88391   120.59407    73.52727
   169  C   4.0   -0.04    4.32    4.23   112.35585   122.50630    77.97279
   170  C   4.0   -0.01    3.57    3.15   112.92420   124.89548    79.43479
   171  C   4.0   -0.04    3.47    3.10   114.77253   124.83968    81.29194
   172  C   4.0   -0.04    3.49    3.11   111.75117   127.19855    78.91715
   173  C   4.0   -0.04    3.38    3.07   115.46300   127.02855    82.54221
   174  C   4.0   -0.04    3.37    3.07   112.40806   129.37992    80.20869
   175  C   4.0   -0.04    3.37    3.07   114.30050   129.30761    82.00912
   176  H   1.0    0.10    1.11    1.44   109.01831   121.60725    81.11304
   177  H   1.0    0.06    1.07    1.44   109.03745   124.04997    76.18781
   178  H   1.0    0.05    1.03    1.43   112.86785   120.84633    79.08961
   179  H   1.0    0.04    1.03    1.43   113.50718   122.46476    76.26030
   180  H   1.0    0.05    1.03    1.43   115.76664   123.09736    81.69331
   181  H   1.0    0.05    1.03    1.43   110.34366   127.34564    77.44714
   182  H   1.0    0.05    1.03    1.43   116.96495   126.92741    83.90944
   183  H   1.0    0.05    1.03    1.43   111.46536   131.14636    79.79596
   184  H   1.0    0.05    1.03    1.43   114.88560   131.02078    82.94155
   185  N   5.0   -0.15    3.53    2.10   108.71420   117.85795    76.67830
   186  C   4.0    0.03    4.49    4.52   107.88396   115.66009    75.28403
   187  C   4.0    0.16    3.54    3.14   105.18620   116.07272    74.39682
   188  O   6.0   -0.33    1.38    1.80   104.48057   115.16598    72.38223
   189  C   4.0   -0.02    4.29    4.18   108.14093   113.09188    76.68568
   190  C   4.0   -0.05    4.19    3.99   105.87825   112.60520    78.44742
   191  C   4.0   -0.07    4.11    3.83   110.72180   112.85544    77.95216
   192  C   4.0   -0.08    4.01    3.64   106.14567   110.25936    80.10436
   193  H   1.0    0.12    1.18    1.46   109.36553   117.62089    78.46340
   194  H   1.0    0.04    1.06    1.44   109.02292   115.52844    73.55395
   195  H   1.0    0.04    1.06    1.44   108.07741   111.64292    75.20577
   196  H   1.0    0.06    1.03    1.43   105.49616   114.25099    79.61859
   197  H   1.0    0.04    1.04    1.43   104.23005   112.33621    77.23520
   198  H   1.0    0.04    1.00    1.43   110.94409   110.98074    78.75668
   199  H   1.0    0.04    1.00    1.43   112.21203   113.12337    76.56176
   200  H   1.0    0.06    1.02    1.43   110.94509   114.24328    79.43842
   201  H   1.0    0.03    1.00    1.43   104.33093   109.76758    80.93666
   202  H   1.0    0.04    1.00    1.43   106.73768   108.67966    78.93531
   203  H   1.0    0.04    1.00    1.43   107.47052   110.53911    81.65051
   204  N   5.0   -0.14    3.56    2.13   103.66091   117.44690    75.85068
   205  C   4.0    0.03    4.45    4.46   101.05110   117.78295    75.10468
   206  C   4.0    0.16    3.48    3.11   100.94927   119.35909    72.68951
   207  O   6.0   -0.33    1.30    1.80    99.39601   118.88715    71.04005
   208  C   4.0   -0.05    4.32    4.23    99.39852   118.95818    77.17367
   209  C   4.0   -0.03    4.10    3.81    99.92293   121.75856    77.52996
   210  S   6.0   -0.05    2.57    3.10    98.52257   123.03046    80.40260
   211  C   4.0   -0.07    3.89    3.44    95.33591   123.56347    79.28674
   212  H   1.0    0.12    1.15    1.45   104.19587   118.00997    77.60748
   213  H   1.0    0.05    1.06    1.44   100.24676   115.92957    74.62208
   214  H   1.0    0.04    1.03    1.43    97.42608   118.66492    76.64601
   215  H   1.0    0.05    1.04    1.43    99.75509   117.98052    78.95219
   216  H   1.0    0.07    1.09    1.44   101.94256   122.07395    77.70937
   217  H   1.0    0.04    1.07    1.44    99.20205   122.89409    75.97131
   218  H   1.0    0.04    1.05    1.44    94.32825   124.53002    80.78664
   219  H   1.0    0.04    1.04    1.43    95.42754   124.74469    77.60945
   220  H   1.0    0.04    1.04    1.43    94.46304   121.75281    78.88140
   221  N   5.0   -0.14    3.53    2.10   102.59921   121.26344    72.54700
   222  C   4.0    0.04    4.49    4.52   102.84869   122.85288    70.32911
   223  C   4.0    0.15    3.51    3.12   103.97953   121.34648    68.14796
   224  O   6.0   -0.32    1.32    1.80   103.21294   121.61485    65.97776
   225  C   4.0   -0.02    4.32    4.23   104.45728   125.22327    70.89906
   226  C   4.0   -0.05    4.17    3.93   102.83411   127.38509    71.94830
   227  C   4.0   -0.07    4.16    3.91   105.99505   126.07130    68.60141
   228  C   4.0   -0.08    4.02    3.66   101.08582   128.60184    70.01000
   229  H   1.0    0.10    1.09    1.44   103.92930   121.44332    73.90571
   230  H   1.0    0.05    1.06    1.44   100.94835   123.41052    69.72093
   231  H   1.0    0.06    1.06    1.44   105.79428   124.68052    72.38218
   232  H   1.0    0.05    1.03    1.43   101.73901   126.65944    73.53871
   233  H   1.0    0.04    1.03    1.43   104.10456   128.83686    72.67823
   234  H   1.0    0.04    1.00    1.43   106.87387   127.88985    68.97620
   235  H   1.0    0.04    1.00    1.43   107.48113   124.70811    68.20884
   236  H   1.0    0.05    1.00    1.43   104.82688   126.24967    66.92044
   237  H   1.0    0.04    1.00    1.43    99.97029   130.08127    70.89539
   238  H   1.0    0.04    1.00    1.43   102.17129   129.44779    68.48809
   239  H   1.0    0.04    1.00    1.43    99.79699   127.22653    69.19375
   240  N   5.0   -0.14    3.55    2.11   105.82293   119.74337    68.75383
   241  C   4.0    0.03    4.46    4.47   107.14294   118.38032    66.78168
   242  C   4.0    0.16    3.50    3.11   105.36721   116.39979    65.68640
   243  O   6.0   -0.32    1.36    1.80   105.16787   116.07888    63.40074
   244  C   4.0   -0.05    4.38    4.34   109.52916   117.07145    67.72709
   245  C   4.0   -0.02    4.20    4.00   111.33761   118.82543    69.14965
   246  C   4.0   -0.08    4.11    3.83   113.28127   117.19852    70.51771
   247  C   4.0   -0.07    4.10    3.81   112.56297   120.71701    67.35300
   248  H   1.0    0.11    1.12    1.45   106.52267   119.72834    70.53794
   249  H   1.0    0.05    1.06    1.44   107.58921   119.70671    65.24933
   250  H   1.0    0.05    1.03    1.43   108.95620   115.52009    68.96154
   251  H   1.0    0.04    1.03    1.43   110.50897   116.27317    66.09739
   252  H   1.0    0.06    1.08    1.44   110.26738   119.87758    70.55825
   253  H   1.0    0.04    1.00    1.43   114.31211   118.30886    71.89400
   254  H   1.0    0.04    1.00    1.43   112.34624   115.66054    71.50728
   255  H   1.0    0.04    1.00    1.43   114.58801   116.38513    69.15973
   256  H   1.0    0.05    1.00    1.43   113.34401   122.33467    68.34844
   257  H   1.0    0.05    1.00    1.43   114.08214   119.84791    66.27673
   258  H   1.0    0.04    1.00    1.43   111.16656   121.43885    66.03486
   259  N   5.0   -0.14    3.56    2.12   104.10263   115.05406    67.38213
   260  C   4.0    0.04    4.51    4.56   102.03456   113.41791    66.66031
   261  C   4.0    0.16    3.56    3.14   100.18905   114.98249    65.10972
   262  O   6.0   -0.33    1.37    1.80    99.55141   114.28689    62.99424
   263  C   4.0   -0.02    4.27    4.15   100.77310   112.23243    68.99392
   264  C   4.0   -0.08    4.14    3.88    97.97971   111.66894    68.54356
   265  C   4.0   -0.07    4.11    3.82   102.19218   109.83692    69.72832
   266  H   1.0    0.12    1.16    1.45   104.37634   115.35672    69.25931
   267  H   1.0    0.05    1.06    1.44   102.72886   111.92498    65.39219
   268  H   1.0    0.06    1.07    1.44   100.91594   113.60562    70.52781
   269  H   1.0    0.04    1.00    1.43    97.22734   110.61164    70.13507
   270  H   1.0    0.05    1.00    1.43    96.91318   113.41376    68.36317
   271  H   1.0    0.04    1.00    1.43    97.70731   110.55985    66.83652
   272  H   1.0    0.04    1.00    1.43   101.35108   108.98865    71.39852
   273  H   1.0    0.03    1.00    1.43   102.09923   108.47923    68.19224
   274  H   1.0    0.05    1.00    1.43   104.15960   110.27231    70.11299
   275  N   5.0   -0.14    3.52    2.09    99.35204   117.12000    66.14179
   276  C   4.0    0.04    4.37    4.33    97.38273   118.55471    64.90440
   277  C   4.0    0.16    3.48    3.11    98.18670   119.41711    62.28761
   278  O   6.0   -0.34    1.37    1.80    96.58455   119.62757    60.61877
   279  C   4.0   -0.07    4.12    3.85    96.63677   120.85392    66.46227
   280  H   1.0    0.12    1.12    1.45    99.73285   117.62436    67.95512
   281  H   1.0    0.04    1.05    1.44    95.72540   117.32815    64.62223
   282  H   1.0    0.04    1.00    1.43    95.06866   121.81948    65.55764
   283  H   1.0    0.05    1.01    1.43    96.09525   120.26291    68.35063
   284  H   1.0    0.06    1.00    1.43    98.23356   122.13844    66.59673
   285  N   5.0   -0.13    3.53    2.10   100.61219   119.94301    61.92611
   286  C   4.0    0.04    4.44    4.45   101.48505   120.82781    59.50195
   287  C   4.0    0.15    3.50    3.11   102.18926   118.59372    57.82905
   288  O   6.0   -0.33    1.47    1.80   101.70592   118.67115    55.55916
   289  C   4.0   -0.04    4.29    4.18   103.60364   122.78300    59.70319
   290  C   4.0   -0.01    3.51    3.12   102.78536   125.47774    60.23183
   291  C   4.0   -0.04    3.47    3.10   104.60608   127.19585    61.04990
   292  C   4.0   -0.04    3.47    3.10   100.35422   126.37792    59.81477
   293  C   4.0   -0.05    3.37    3.07   104.02231   129.71781    61.41534
   294  C   4.0   -0.04    3.38    3.07    99.76133   128.90300    60.18043
   295  C   4.0   -0.04    3.37    3.07   101.59422   130.58752    60.97355
   296  H   1.0    0.12    1.12    1.45   101.82480   120.02867    63.40927
   297  H   1.0    0.06    1.08    1.44    99.85666   121.67142    58.53398
   298  H   1.0    0.05    1.03    1.43   104.92003   122.16664    61.16810
   299  H   1.0    0.04    1.03    1.43   104.62976   122.78086    57.90594
   300  H   1.0    0.04    1.03    1.43   106.51858   126.56520    61.38787
   301  H   1.0    0.05    1.03    1.43    98.87008   125.13037    59.18603
   302  H   1.0    0.04    1.03    1.43   105.47429   131.01024    62.03769
   303  H   1.0    0.04    1.03    1.43    97.85958   129.55919    59.83031
   304  H   1.0    0.05    1.03    1.43   101.13678   132.55689    61.24674
   305  N   5.0   -0.14    3.55    2.11   103.18240   116.52961    58.83347
   306  C   4.0    0.05    4.47    4.50   103.35161   114.33062    57.22885
   307  C   4.0    0.16    3.48    3.10   100.69671   113.66148    56.29858
   308  O   6.0   -0.32    1.32    1.80   100.39992   112.91145    54.12561
   309  C   4.0    0.03    4.14    3.88   104.65543   112.11878    58.53537
   310  O   6.0   -0.25    2.06    1.83   107.26732   112.38570    58.12340
   311  H   1.0    0.13    1.15    1.45   103.69435   116.38037    60.67371
   312  H   1.0    0.06    1.06    1.44   104.46233   114.77458    55.52960
   313  H   1.0    0.05    1.01    1.43   104.20830   112.17809    60.55689
   314  H   1.0    0.04    1.01    1.43   103.95964   110.34732    57.70027
   315  H   1.0    0.12    1.02    1.43   108.16609   111.06863    59.00348
   316  N   5.0   -0.14    3.54    2.10    98.84188   113.99136    57.96010
   317  C   4.0    0.04    4.49    4.52    96.18355   113.57250    57.43750
   318  C   4.0    0.15    3.51    3.12    95.28321   115.47602    55.48309
   319  O   6.0   -0.34    1.41    1.80    94.28999   114.66998    53.53312
   320  C   4.0   -0.02    4.28    4.15    94.61923   113.72070    59.88509
   321  C   4.0   -0.08    4.13    3.86    91.80879   114.13988    59.37746
   322  C   4.0   -0.07    4.12    3.84    94.97382   111.30691    61.41952
   323  H   1.0    0.12    1.15    1.45    99.26481   114.36911    59.79459
   324  H   1.0    0.05    1.06    1.44    95.92567   111.71323    56.54858
   325  H   1.0    0.06    1.06    1.44    95.33466   115.33435    60.95297
   326  H   1.0    0.03    1.00    1.43    90.85984   114.60311    61.13979
   327  H   1.0    0.04    1.01    1.43    91.49413   115.68256    58.06449
   328  H   1.0    0.04    1.00    1.43    90.95988   112.44741    58.58278
   329  H   1.0    0.04    1.00    1.43    94.04998   111.49723    63.24338
   330  H   1.0    0.04    1.00    1.43    94.13792   109.71327    60.42727
   331  H   1.0    0.05    1.01    1.43    96.96841   110.93289    61.71169
   332  N   5.0   -0.14    3.52    2.09    95.61698   117.91335    55.94788
   333  C   4.0    0.03    4.52    4.57    94.66473   119.81942    54.22279
   334  C   4.0    0.16    3.57    3.15    96.08176   119.60056    51.73103
   335  O   6.0   -0.34    1.40    1.80    94.96980   119.89474    49.71587
   336  C   4.0   -0.02    4.30    4.20    94.83064   122.51131    55.31469
   337  C   4.0   -0.05    4.18    3.95    92.68055   123.22428    57.14897
   338  C   4.0   -0.08    4.17    3.94    94.79974   124.46256    53.18225
   339  C   4.0   -0.08    4.03    3.67    91.26655   121.06943    58.41505
   340  H   1.0    0.12    1.14    1.45    96.21954   118.51923    57.67721
   341  H   1.0    0.04    1.07    1.44    92.70266   119.36604    53.73603
   342  H   1.0    0.05    1.06    1.44    96.62930   122.62913    56.32295
   343  H   1.0    0.04    1.03    1.43    93.49345   124.40851    58.62930
   344  H   1.0    0.03    1.04    1.43    91.32060   124.37458    56.11040
   345  H   1.0    0.04    1.00    1.43    94.73752   126.36088    53.96380
   346  H   1.0    0.05    1.00    1.43    96.44295   124.30717    51.96378
   347  H   1.0    0.04    1.00    1.43    93.11832   124.18090    52.03265
   348  H   1.0    0.03    1.00    1.43    89.83725   121.88082    59.64066
   349  H   1.0    0.03    1.00    1.43    90.32441   119.86466    57.04354
   350  H   1.0    0.06    1.01    1.43    92.53368   119.92959    59.54805
   351  N   5.0   -0.14    3.56    2.12    98.52404   119.05979    51.83416
   352  C   4.0    0.04    4.49    4.52    99.82440   118.53601    49.49459
   353  C   4.0    0.16    3.55    3.14    98.52720   116.28505    48.27849
   354  O   6.0   -0.33    1.46    1.80    97.82521   116.39600    46.07871
   355  C   4.0   -0.05    4.35    4.30   102.63853   118.00958    49.81119
   356  C   4.0   -0.02    4.21    4.01   104.09387   120.28599    50.84841
   357  C   4.0   -0.08    4.10    3.81   106.88530   119.64511    51.16420
   358  C   4.0   -0.08    4.13    3.85   103.78543   122.59026    49.15512
   359  H   1.0    0.12    1.17    1.46    99.46930   118.80344    53.48340
   360  H   1.0    0.05    1.06    1.44    99.52394   120.13856    48.21152
   361  H   1.0    0.06    1.03    1.43   102.85876   116.41482    51.09721
   362  H   1.0    0.04    1.03    1.43   103.38812   117.47488    47.96046
   363  H   1.0    0.06    1.08    1.44   103.31946   120.72231    52.70387
   364  H   1.0    0.04    1.00    1.43   107.88650   121.25218    51.96218
   365  H   1.0    0.05    1.00    1.43   107.11771   118.04355    52.42867
   366  H   1.0    0.04    1.00    1.43   107.73177   119.19281    49.34813
   367  H   1.0    0.04    1.00    1.43   105.01813   124.09326    49.81605
   368  H   1.0    0.04    1.00    1.43   104.29368   122.10081    47.22671
   369  H   1.0    0.04    1.00    1.43   101.84241   123.25505    49.19952
   370  N   5.0   -0.14    3.55    2.12    98.19795   114.23267    49.67671
   371  C   4.0    0.04    4.39    4.36    97.12377   111.96539    48.58346
   372  C   4.0    0.17    3.48    3.10    94.53231   112.56594    47.43403
   373  O   6.0   -0.30    1.24    1.80    93.82927   111.51842    45.49481
   374  C   4.0    0.04    4.14    3.88    97.06976   109.84184    50.58192
   375  O   6.0   -0.25    2.06    1.83    94.76000   109.64480    51.85842
   376  H   1.0    0.12    1.13    1.45    98.91466   114.10973    51.45226
   377  H   1.0    0.04    1.05    1.44    98.29211   111.31768    46.99274
   378  H   1.0    0.05    1.02    1.43    97.37956   108.01266    49.69755
   379  H   1.0    0.06    1.03    1.43    98.63017   110.18754    51.89695
   380  H   1.0    0.15    1.06    1.44    94.42219   111.26075    52.66843
   381  N   5.0   -0.13    3.53    2.10    93.18769   114.37316    48.58408
   382  C   4.0    0.04    4.49    4.52    90.70799   115.03123    47.62925
   383  C   4.0    0.15    3.47    3.10    90.91259   116.83937    45.38551
   384  O   6.0   -0.28    1.22    1.80    89.26537   116.81686    43.73224
   385  C   4.0   -0.02    4.24    4.09    88.78348   116.14322    49.53208
   386  C   4.0   -0.07    4.09    3.79    88.52572   114.54228    51.91181
   387  C   4.0   -0.07    4.12    3.84    89.24120   118.93885    50.10312
   388  H   1.0    0.12    1.13    1.45    93.64693   114.91273    50.36906
   389  H   1.0    0.07    1.07    1.44    89.90286   113.27338    46.86681
   390  H   1.0    0.05    1.07    1.44    86.98413   116.01656    48.53697
   391  H   1.0    0.04    1.00    1.43    87.15201   115.39805    53.17961
   392  H   1.0    0.05    1.00    1.43    87.84315   112.67327    51.40278
   393  H   1.0    0.06    1.02    1.43    90.31407   114.36125    52.89153
   394  H   1.0    0.04    1.00    1.43    88.15929   119.53947    51.74419
   395  H   1.0    0.06    1.03    1.43    91.22409   119.32027    50.41636
   396  H   1.0    0.05    1.00    1.43    88.63286   120.08102    48.50707
   397  N   5.0   -0.14    3.55    2.11    92.90123   118.36225    45.31751
   398  C   4.0    0.04    4.50    4.54    93.41270   120.00039    43.18995
   399  C   4.0    0.16    3.51    3.12    94.55975   118.53151    40.99719
   400  O   6.0   -0.28    1.25    1.80    94.23636   119.27247    38.82191
   401  C   4.0   -0.02    4.27    4.15    95.21958   122.17288    43.90245
   402  C   4.0   -0.07    4.15    3.89    96.19303   123.57801    41.57600
   403  C   4.0   -0.07    4.12    3.84    93.88991   124.02575    45.65739
   404  H   1.0    0.12    1.14    1.45    94.01882   118.54415    46.87106
   405  H   1.0    0.06    1.06    1.44    91.60664   120.75072    42.50018
   406  H   1.0    0.05    1.06    1.44    96.81525   121.28842    44.87193
   407  H   1.0    0.04    1.00    1.43    97.32675   125.18589    42.15935
   408  H   1.0    0.06    1.01    1.43    97.33181   122.35966    40.38184
   409  H   1.0    0.05    1.00    1.43    94.62444   124.27692    40.44779
   410  H   1.0    0.04    1.00    1.43    95.17688   125.52184    46.22322
   411  H   1.0    0.04    1.00    1.43    92.29494   124.87457    44.68187
   412  H   1.0    0.06    1.01    1.43    93.21421   123.05043    47.32541
   413  N   5.0   -0.14    3.54    2.11    95.96942   116.53400    41.56607
   414  C   4.0    0.04    4.44    4.44    96.96111   114.95177    39.57036
   415  C   4.0    0.10    3.29    3.05    94.70407   113.47025    38.60563
   416  O   6.0   -0.27    1.12    1.80    94.26486   113.38157    36.33691
   417  C   4.0   -0.02    4.23    4.05    99.24172   113.26380    40.22253
   418  C   4.0   -0.07    4.13    3.86   101.15896   114.83637    41.68972
   419  C   4.0   -0.07    4.11    3.82    98.47772   110.81776    41.54225
   420  H   1.0    0.12    1.17    1.46    96.37370   116.11151    43.38753
   421  H   1.0    0.07    1.06    1.44    97.53647   116.20783    38.01654
   422  H   1.0    0.04    1.06    1.44   100.06186   112.73944    38.39242
   423  H   1.0    0.04    1.03    1.43   102.92769   113.86247    42.01594
   424  H   1.0    0.04    1.00    1.43   101.56820   116.53353    40.61072
   425  H   1.0    0.07    1.03    1.43   100.40155   115.34904    43.51974
   426  H   1.0    0.04    1.00    1.43   100.13961   109.72283    42.03184
   427  H   1.0    0.06    1.01    1.43    97.39389   111.17907    43.24079
   428  H   1.0    0.05    1.00    1.43    97.32654   109.67045    40.28770
   429  N   5.0   -0.21    3.22    1.96   115.62346   125.65603    38.12268
   430  C   4.0    0.03    4.31    4.22   114.23534   126.87276    40.15971
   431  C   4.0    0.15    3.51    3.12   114.07862   125.07548    42.39892
   432  O   6.0   -0.33    1.40    1.80   114.71392   125.79304    44.50644
   433  C   4.0   -0.04    4.31    4.23   111.61445   127.75309    39.26832
   434  C   4.0   -0.01    3.58    3.15   109.68009   127.90653    41.34764
   435  C   4.0   -0.05    3.45    3.10   109.14599   130.15399    42.59498
   436  C   4.0   -0.04    3.50    3.12   108.28867   125.77106    41.96276
   437  C   4.0   -0.04    3.44    3.09   107.24336   130.26327    44.37890
   438  C   4.0   -0.05    3.42    3.09   106.37874   125.85146    43.73676
   439  C   4.0    0.06    3.45    3.09   105.83406   128.11548    44.95278
   440  O   6.0   -0.25    2.11    1.84   103.95505   128.35208    46.69102
   441  H   1.0    0.08    1.02    1.43   114.83710   125.78423    36.36972
   442  H   1.0    0.05    1.05    1.44   115.31259   128.50208    40.86336
   443  H   1.0    0.04    1.03    1.43   111.81179   129.59570    38.37477
   444  H   1.0    0.04    1.04    1.43   110.94358   126.41886    37.85390
   445  H   1.0    0.05    1.03    1.43   110.20224   131.84393    42.16020
   446  H   1.0    0.05    1.04    1.43   108.70285   124.01124    41.02010
   447  H   1.0    0.05    1.03    1.43   106.77997   132.00482    45.33318
   448  H   1.0    0.04    1.03    1.43   105.29501   124.16434    44.11561
   449  H   1.0    0.11    1.04    1.43   103.07499   126.76621    46.90699
   450  N   5.0   -0.15    3.47    2.06   113.22848   122.75300    41.97242
   451  C   4.0    0.04    4.45    4.46   113.05635   121.00793    44.06161
   452  C   4.0    0.09    3.40    3.08   115.63318   120.70975    45.28496
   453  O   6.0   -0.30    1.13    1.80   115.84430   120.81108    47.58974
   454  C   4.0   -0.03    4.28    4.16   112.16683   118.34305    43.33132
   455  C   4.0   -0.07    4.22    4.04   113.05314   116.48249    45.34360
   456  C   4.0   -0.08    4.10    3.81   109.30337   118.17374    43.08448
   457  H   1.0    0.07    1.06    1.44   112.71852   122.10793    40.23937
   458  H   1.0    0.05    1.05    1.44   111.79946   121.80881    45.51226
   459  H   1.0    0.04    1.06    1.44   113.03352   117.85193    41.52323
   460  H   1.0    0.04    1.05    1.44   112.44875   114.61562    44.82879
   461  H   1.0    0.05    1.02    1.43   115.09494   116.45616    45.52037
   462  H   1.0    0.05    1.00    1.43   112.21811   116.95147    47.16079
   463  H   1.0    0.04    1.00    1.43   108.78617   116.33669    42.32489
   464  H   1.0    0.04    1.00    1.43   108.42866   118.38474    44.92997
   465  H   1.0    0.04    1.00    1.43   108.59304   119.62140    41.82628
   466  N   5.0   -0.19    3.23    1.96   117.46350   126.34303    48.67436
   467  C   4.0    0.04    4.32    4.24   115.85664   126.59252    50.86258
   468  C   4.0    0.08    3.23    3.04   116.48506   124.59967    52.85621
   469  O   6.0   -0.34    1.29    1.80   116.65106   125.31441    55.06223
   470  C   4.0   -0.02    4.26    4.12   113.04581   126.58876    50.14861
   471  C   4.0   -0.08    4.14    3.89   111.40511   126.61425    52.52083
   472  C   4.0   -0.07    4.13    3.87   112.40666   128.92653    48.58681
   473  H   1.0    0.13    1.11    1.45   116.61602   126.00896    46.97963
   474  H   1.0    0.05    1.06    1.44   116.28454   128.40347    51.79683
   475  H   1.0    0.06    1.05    1.44   112.67794   124.88384    49.04211
   476  H   1.0    0.04    1.00    1.43   109.42324   126.60061    51.98802
   477  H   1.0    0.04    1.00    1.43   111.79227   125.01266    53.74378
   478  H   1.0    0.04    1.00    1.43   111.76992   128.32060    53.60748
   479  H   1.0    0.05    1.00    1.43   110.43547   128.84619    48.01778
   480  H   1.0    0.04    1.00    1.43   112.71444   130.60779    49.72488
   481  H   1.0    0.06    1.01    1.43   113.55322   129.05694    46.89492
   482  N   5.0   -0.21    3.30    1.98   118.47084   126.36784    59.52026
   483  C   4.0    0.03    4.41    4.40   116.84605   125.88891    61.67219
   484  C   4.0    0.15    3.45    3.10   118.06620   123.89214    63.35849
   485  O   6.0   -0.33    1.34    1.80   117.59374   123.83289    65.62695
   486  C   4.0   -0.02    4.31    4.22   114.13588   125.00452    61.00737
   487  C   4.0   -0.04    4.22    4.03   114.24111   122.31780    59.91653
   488  C   4.0   -0.08    4.12    3.83   112.84496   126.94849    59.31584
   489  C   4.0   -0.08    4.02    3.65   111.90263   121.48915    58.45580
   490  H   1.0    0.13    1.13    1.45   117.90055   125.80528    57.77417
   491  H   1.0    0.04    1.05    1.44   116.71979   127.63464    62.78512
   492  H   1.0    0.04    1.06    1.44   113.11741   124.93564    62.80832
   493  H   1.0    0.05    1.04    1.43   115.87291   122.21504    58.67229
   494  H   1.0    0.04    1.03    1.43   114.55965   120.99843    61.47020
   495  H   1.0    0.03    1.00    1.43   110.92584   126.40185    58.83164
   496  H   1.0    0.04    1.00    1.43   112.76318   128.73990    60.31442
   497  H   1.0    0.06    1.01    1.43   113.90539   127.18888    57.58171
   498  H   1.0    0.04    1.00    1.43   112.00265   119.47558    58.05577
   499  H   1.0    0.04    1.00    1.43   110.18918   121.82615    59.53083
   500  H   1.0    0.04    1.00    1.43   111.77737   122.50320    56.67671
   501  N   5.0   -0.15    3.41    2.03   119.55684   122.25489    62.16818
   502  C   4.0    0.02    4.15    3.90   121.09142   120.35546    63.36200
   503  C   4.0    0.09    3.13    3.03   123.58396   121.45384    64.30058
   504  O   6.0   -0.27    1.12    1.80   124.45881   120.75893    66.31537
   505  H   1.0    0.08    1.08    1.44   119.75604   122.35016    60.26621
   506  H   1.0    0.07    1.04    1.43   120.16139   119.58451    65.04402
   507  H   1.0    0.04    1.02    1.43   121.43432   118.84596    61.99749
   508  N   5.0   -0.19    3.21    1.96   120.75739   124.58483    69.46073
   509  C   4.0    0.04    4.21    4.01   120.09682   122.90026    71.51861
   510  C   4.0    0.10    3.22    3.04   122.42232   121.86367    72.85722
   511  O   6.0   -0.29    1.12    1.80   122.55764   121.86058    75.17359
   512  C   4.0    0.03    4.17    3.95   118.41256   120.73829    70.65558
   513  O   6.0   -0.24    2.06    1.83   119.67153   119.02538    69.05513
   514  H   1.0    0.13    1.12    1.45   119.71892   124.35221    67.84224
   515  H   1.0    0.04    1.06    1.44   119.01994   123.94057    72.94894
   516  H   1.0    0.04    1.02    1.43   117.77847   119.76834    72.37098
   517  H   1.0    0.05    1.02    1.43   116.80520   121.55789    69.64543
   518  H   1.0    0.11    1.03    1.43   118.76713   117.44801    69.14679
   519  H   1.0    0.09    1.07    1.44    78.49126   120.38126    60.55262
   520  H   1.0    0.06    1.05    1.44    76.62526   114.63550    58.44401
   521  H   1.0    0.09    1.07    1.44   116.28513    97.61025    79.14205
   522  H   1.0    0.06    1.05    1.44   118.57818   102.27768    75.05824
   523  H   1.0    0.09    1.07    1.44   113.38018    97.53834    58.70296
   524  H   1.0    0.06    1.05    1.44   113.33003   103.55981    56.72119
   525  H   1.0    0.09    1.08    1.44   107.34541   106.25450    39.55046
   526  H   1.0    0.06    1.04    1.43   112.76458   106.37832    35.76245
   527  H   1.0    0.09    1.07    1.44    98.40171    97.66439    66.89876
   528  H   1.0    0.05    1.04    1.44    93.45978   100.71243    69.70659
   529  H   1.0    0.09    1.07    1.44    99.70708    98.53681    86.47978
   530  H   1.0    0.05    1.04    1.43    95.73013   103.03685    89.30468
   531  H   1.0    0.09    1.07    1.44   113.83423   121.49679    86.13304
   532  H   1.0    0.07    1.05    1.44    93.57628   112.56690    39.82346
   533  H   1.0    0.09    1.07    1.44   117.17107   126.34999    37.99664
   534  H   1.0    0.05    1.05    1.44   117.16248   120.43009    44.21067
   535  H   1.0    0.09    1.07    1.44   118.35144   127.77700    48.45559
   536  H   1.0    0.06    1.04    1.43   116.74285   122.79909    52.34384
   537  H   1.0    0.10    1.07    1.44   118.72677   128.04191    59.36357
   538  H   1.0    0.06    1.04    1.44   124.49865   122.74223    63.26401
   539  H   1.0    0.10    1.07    1.44   120.53352   126.19735    69.95290
   540  H   1.0    0.08    1.05    1.44   123.86408   121.17401    71.84887

  Z AO/shell   Hii/eV     exponent
  1     Wed Apr 25 08:07:45 CEST 2018   EN: 2.200 GM2: 0.406  GM3: 0.0800  RAES: 1.40
     1s    -10.707211    1.230000
  6     Wed Apr 25 08:07:45 CEST 2018   EN: 2.550 GM2: 0.538  GM3: 0.1500  RAES: 3.00
     2s    -13.970922    2.096432
     2p    -10.063292    1.800000
  7     Wed Apr 25 08:07:45 CEST 2018   EN: 3.040 GM2: 0.461  GM3:-0.0640  RAES: 1.90
     2s    -16.686243    2.339881
     2p    -12.523956    2.014332
  8     Wed Apr 25 08:07:45 CEST 2018   EN: 3.440 GM2: 0.452  GM3:-0.0517  RAES: 1.80
     2s    -20.229985    2.439742
     2p    -15.503117    2.137023
 16     Tue Apr 24 11:44:34 CEST 2018   EN: 2.580 GM2: 0.340  GM3:-0.0502  RAES: 3.10
     3s    -20.029654    1.981333
     3p    -11.377694    2.025643
     3d     -0.420282    1.702555
 no old-style atom pair restraining (fixing) potential

molecular fragmentation (1/2 indicates fragments):
111111111111111111122222222222222222222222222222222222222222222222222222
222222222222222222222222222222222222222222222222222222222222222222222222
222222222222222222222222222222222222222222222222222222222222222222222222
222222222222222222222222222222222222222222222222222222222222222222222222
222222222222222222222222222222222222222222222222222222222222222222222222
222222222222222222222222222222222222222222222222222222222222222222222222
222222222222222222222222222222222222222222222222222222222222222222222222
222222222222221122222222222222222222
# atoms in fragment 1/2:    21   519
 fragment masses (1/2) :      115.17     3352.38
CMA distance (Bohr)    :  24.331
constraining FC (au)   :  0.0500
           ------------------------------------------------- 
          |        Self-Consistent Charge Iterations        |
           ------------------------------------------------- 

 Ncao       : 1281
 Nao        : 1279
 Nshell     : 785
 Nel        : 1378
 T(el)      :   500.0
 intcut     :    35.0
 scfconv/Eh :  0.100E-06
   qconv/e  :  0.100E-04
 intneglect :  0.100E-08
 broydamp   :      0.400
 iter      E             dE          RMSdq      gap      omega  full diag
   1   -777.9913054 -0.777991E+03  0.428E+00    2.93       0.0  T
   2   -779.5216206 -0.153032E+01  0.206E+00    1.79       1.0  T
   3   -779.6030188 -0.813982E-01  0.115E+00    1.96       1.0  T
   4   -779.7254778 -0.122459E+00  0.215E-01    1.45       1.0  T
   5   -779.7305234 -0.504562E-02  0.976E-02    1.61       1.0  T
   6   -779.7313730 -0.849595E-03  0.417E-02    1.59       1.0  T
   7   -779.7316052 -0.232161E-03  0.180E-02    1.57       1.0  T
   8   -779.7316322 -0.269932E-04  0.791E-03    1.56       1.0  T
   9   -779.7316391 -0.695580E-05  0.358E-03    1.56       1.2  T
  10   -779.7316404 -0.130408E-05  0.145E-03    1.57       3.0  T
  11   -779.7316406 -0.127964E-06  0.723E-04    1.57       6.0  T
  12   -779.7316406 -0.348917E-07  0.324E-04    1.57      13.3  T
  13   -779.7316406 -0.128981E-07  0.168E-04    1.57      25.5  T
  14   -779.7316406 -0.234206E-08  0.806E-05    1.57      53.4  T
  15   -779.7316406 -0.492605E-09  0.318E-05    1.57     135.5  T
speedup  1.00
cpu  time for SCC   12.50 s
wall time for SCC   12.50 s

   *** convergence criteria satisfied after 15 iterations ***

          eigenvalues
 #    :         677        678        679        680        681        682        683        684
 occ. :        2.000      2.000      2.000      2.000      2.000      2.000      2.000      2.000
 eps  :       -10.307    -10.301    -10.081    -10.077     -9.987     -9.981     -9.981     -9.979
 #    :         685        686        687        688        689        690        691        692
 occ. :        2.000      2.000      2.000      2.000      2.000      0.000      0.000      0.000
 eps  :        -9.929     -9.772     -9.700     -9.550     -9.441     -7.875     -7.702     -7.696
 #    :         693        694        695        696        697        698        699        700
 occ. :        0.000      0.000      0.000      0.000      0.000      0.000      0.000      0.000
 eps  :        -7.678     -7.652     -7.636     -7.626     -7.611     -7.598     -7.477     -7.469


   #   Z            q   n(s)   n(p)   n(d)      C6AA      α(0)
   1   7 N     -0.393  1.315  4.078  0.000    30.175     8.158
   2   6 C      0.042  1.054  2.904  0.000    19.887     6.352
   3   6 C      0.199  1.094  2.707  0.000    23.770     7.985
   4   8 O     -0.396  1.765  4.631  0.000    21.607     6.232
   5   6 C     -0.068  1.058  3.010  0.000    21.793     6.644
   6   6 C     -0.008  1.056  2.953  0.000    20.694     6.470
   7   6 C     -0.119  1.043  3.076  0.000    22.827     6.811
   8   6 C     -0.115  1.039  3.076  0.000    22.755     6.802
   9   1 H      0.169  0.831  0.000  0.000     1.276     1.770
  10   1 H      0.052  0.948  0.000  0.000     2.300     2.372
  11   1 H      0.045  0.955  0.000  0.000     2.388     2.416
  12   1 H      0.044  0.956  0.000  0.000     2.393     2.419
  13   1 H      0.038  0.962  0.000  0.000     2.476     2.461
  14   1 H      0.049  0.951  0.000  0.000     2.337     2.391
  15   1 H      0.041  0.959  0.000  0.000     2.442     2.444
  16   1 H      0.042  0.958  0.000  0.000     2.422     2.434
  17   1 H      0.045  0.955  0.000  0.000     2.377     2.411
  18   1 H      0.042  0.958  0.000  0.000     2.424     2.435
  19   1 H      0.036  0.964  0.000  0.000     2.505     2.475
  20   7 N     -0.393  1.325  4.069  0.000    30.188     8.160
  21   6 C      0.018  1.065  2.917  0.000    20.299     6.418
  22   6 C      0.193  1.092  2.715  0.000    23.868     8.001
  23   8 O     -0.377  1.758  4.618  0.000    21.221     6.176
  24   6 C      0.122  1.046  2.832  0.000    18.693     6.173
  25   8 O     -0.472  1.727  4.744  0.000    22.291     6.374
  26   6 C     -0.126  1.040  3.086  0.000    22.978     6.836
  27   1 H      0.165  0.835  0.000  0.000     1.306     1.790
  28   1 H      0.081  0.919  0.000  0.000     1.973     2.196
  29   1 H      0.012  0.988  0.000  0.000     2.861     2.645
  30   1 H      0.328  0.672  0.000  0.000     0.643     1.259
  31   1 H      0.064  0.936  0.000  0.000     2.150     2.293
  32   1 H      0.055  0.945  0.000  0.000     2.260     2.351
  33   1 H      0.062  0.938  0.000  0.000     2.176     2.307
  34   7 N     -0.394  1.322  4.071  0.000    30.199     8.162
  35   6 C      0.034  1.058  2.908  0.000    20.008     6.370
  36   6 C      0.202  1.090  2.707  0.000    23.699     7.973
  37   8 O     -0.389  1.762  4.628  0.000    21.472     6.213
  38   6 C     -0.022  1.068  2.954  0.000    20.927     6.507
  39   6 C     -0.061  1.049  3.012  0.000    21.666     6.626
  40   6 C     -0.111  1.037  3.074  0.000    22.684     6.791
  41   6 C     -0.115  1.037  3.078  0.000    22.768     6.804
  42   1 H      0.170  0.830  0.000  0.000     1.274     1.768
  43   1 H      0.051  0.949  0.000  0.000     2.302     2.373
  44   1 H      0.048  0.952  0.000  0.000     2.349     2.397
  45   1 H      0.039  0.961  0.000  0.000     2.462     2.454
  46   1 H      0.035  0.965  0.000  0.000     2.511     2.478
  47   1 H      0.052  0.948  0.000  0.000     2.299     2.371
  48   1 H      0.029  0.971  0.000  0.000     2.604     2.524
  49   1 H      0.042  0.958  0.000  0.000     2.420     2.433
  50   1 H      0.040  0.960  0.000  0.000     2.454     2.450
  51   1 H      0.041  0.959  0.000  0.000     2.440     2.443
  52   1 H      0.051  0.949  0.000  0.000     2.310     2.377
  53   7 N     -0.388  1.312  4.076  0.000    30.042     8.140
  54   6 C      0.041  1.055  2.904  0.000    19.906     6.356
  55   6 C      0.198  1.094  2.709  0.000    23.788     7.987
  56   8 O     -0.383  1.759  4.624  0.000    21.354     6.196
  57   6 C     -0.071  1.055  3.016  0.000    21.854     6.654
  58   6 C      0.014  1.079  2.908  0.000    27.708     8.634
  59   6 C     -0.044  1.081  2.963  0.000    29.084     8.845
  60   6 C     -0.040  1.076  2.964  0.000    29.001     8.831
  61   6 C     -0.032  1.081  2.950  0.000    28.788     8.799
  62   6 C     -0.035  1.082  2.953  0.000    28.876     8.812
  63   6 C     -0.033  1.078  2.955  0.000    28.827     8.805
  64   1 H      0.164  0.836  0.000  0.000     1.310     1.793
  65   1 H      0.063  0.937  0.000  0.000     2.163     2.300
  66   1 H      0.049  0.951  0.000  0.000     2.331     2.388
  67   1 H      0.064  0.936  0.000  0.000     2.153     2.295
  68   1 H      0.045  0.955  0.000  0.000     2.378     2.412
  69   1 H      0.035  0.965  0.000  0.000     2.514     2.479
  70   1 H      0.050  0.950  0.000  0.000     2.325     2.384
  71   1 H      0.037  0.963  0.000  0.000     2.495     2.470
  72   1 H      0.035  0.965  0.000  0.000     2.523     2.484
  73   7 N     -0.392  1.311  4.081  0.000    30.149     8.155
  74   6 C      0.039  1.054  2.906  0.000    19.929     6.359
  75   6 C      0.198  1.093  2.708  0.000    23.772     7.985
  76   8 O     -0.387  1.760  4.628  0.000    21.427     6.206
  77   6 C     -0.070  1.060  3.010  0.000    21.826     6.650
  78   6 C     -0.009  1.056  2.953  0.000    20.702     6.472
  79   6 C     -0.113  1.041  3.072  0.000    22.720     6.796
  80   6 C     -0.119  1.041  3.078  0.000    22.833     6.813
  81   1 H      0.165  0.835  0.000  0.000     1.301     1.787
  82   1 H      0.058  0.942  0.000  0.000     2.226     2.333
  83   1 H      0.047  0.953  0.000  0.000     2.356     2.400
  84   1 H      0.047  0.953  0.000  0.000     2.364     2.404
  85   1 H      0.035  0.965  0.000  0.000     2.514     2.480
  86   1 H      0.037  0.963  0.000  0.000     2.486     2.466
  87   1 H      0.038  0.962  0.000  0.000     2.473     2.459
  88   1 H      0.039  0.961  0.000  0.000     2.459     2.452
  89   1 H      0.044  0.956  0.000  0.000     2.392     2.419
  90   1 H      0.049  0.951  0.000  0.000     2.336     2.390
  91   1 H      0.043  0.957  0.000  0.000     2.411     2.428
  92   7 N     -0.395  1.322  4.073  0.000    30.237     8.167
  93   6 C      0.034  1.059  2.907  0.000    20.014     6.372
  94   6 C      0.201  1.090  2.709  0.000    23.722     7.976
  95   8 O     -0.385  1.761  4.624  0.000    21.386     6.200
  96   6 C     -0.015  1.066  2.949  0.000    20.806     6.487
  97   6 C     -0.120  1.040  3.079  0.000    22.842     6.814
  98   6 C     -0.118  1.042  3.076  0.000    22.804     6.808
  99   1 H      0.163  0.837  0.000  0.000     1.314     1.796
 100   1 H      0.055  0.945  0.000  0.000     2.264     2.353
 101   1 H      0.038  0.962  0.000  0.000     2.482     2.464
 102   1 H      0.061  0.939  0.000  0.000     2.189     2.313
 103   1 H      0.030  0.970  0.000  0.000     2.585     2.514
 104   1 H      0.047  0.953  0.000  0.000     2.358     2.401
 105   1 H      0.054  0.946  0.000  0.000     2.272     2.357
 106   1 H      0.050  0.950  0.000  0.000     2.321     2.383
 107   1 H      0.043  0.957  0.000  0.000     2.405     2.425
 108   7 N     -0.389  1.301  4.088  0.000    30.062     8.143
 109   6 C      0.030  1.055  2.915  0.000    20.080     6.382
 110   6 C      0.260  1.050  2.690  0.000    22.621     7.788
 111   8 O     -0.493  1.728  4.765  0.000    23.619     6.516
 112   6 C     -0.077  1.054  3.023  0.000    21.965     6.671
 113   6 C      0.001  1.076  2.924  0.000    28.010     8.681
 114   6 C     -0.045  1.083  2.962  0.000    29.113     8.848
 115   6 C     -0.045  1.077  2.968  0.000    29.111     8.848
 116   6 C     -0.058  1.076  2.981  0.000    29.429     8.896
 117   6 C     -0.076  1.076  3.000  0.000    29.906     8.968
 118   6 C      0.145  1.046  2.809  0.000    24.835     8.167
 119   8 O     -0.444  1.723  4.721  0.000    21.718     6.291
 120   1 H      0.173  0.827  0.000  0.000     1.256     1.756
 121   1 H      0.045  0.955  0.000  0.000     2.385     2.415
 122   1 H      0.066  0.934  0.000  0.000     2.127     2.281
 123   1 H      0.060  0.940  0.000  0.000     2.202     2.321
 124   1 H      0.047  0.953  0.000  0.000     2.361     2.403
 125   1 H      0.040  0.960  0.000  0.000     2.445     2.445
 126   1 H      0.045  0.955  0.000  0.000     2.385     2.415
 127   1 H      0.038  0.962  0.000  0.000     2.473     2.459
 128   1 H      0.345  0.655  0.000  0.000     0.599     1.216
 129   7 N     -0.163  1.250  3.914  0.000    24.535     7.357
 130   6 C      0.009  1.066  2.924  0.000    20.431     6.437
 131   6 C      0.278  1.043  2.679  0.000    22.294     7.732
 132   8 O     -0.469  1.728  4.741  0.000    23.115     6.446
 133   6 C     -0.089  1.063  3.027  0.000    22.201     6.707
 134   6 C     -0.014  1.056  2.958  0.000    20.796     6.486
 135   6 C     -0.116  1.038  3.078  0.000    22.772     6.804
 136   6 C     -0.121  1.044  3.077  0.000    22.871     6.818
 137   1 H      0.228  0.772  0.000  0.000     0.973     1.545
 138   1 H      0.098  0.902  0.000  0.000     1.801     2.099
 139   1 H      0.081  0.919  0.000  0.000     1.971     2.196
 140   1 H      0.060  0.940  0.000  0.000     2.197     2.318
 141   1 H      0.047  0.953  0.000  0.000     2.363     2.404
 142   1 H      0.042  0.958  0.000  0.000     2.427     2.436
 143   1 H      0.036  0.964  0.000  0.000     2.497     2.471
 144   1 H      0.045  0.955  0.000  0.000     2.377     2.411
 145   1 H      0.043  0.957  0.000  0.000     2.413     2.429
 146   1 H      0.044  0.956  0.000  0.000     2.400     2.423
 147   1 H      0.046  0.954  0.000  0.000     2.365     2.405
 148   7 N     -0.176  1.245  3.931  0.000    24.811     7.398
 149   6 C      0.008  1.065  2.926  0.000    20.442     6.438
 150   6 C      0.274  1.038  2.688  0.000    22.360     7.743
 151   8 O     -0.487  1.752  4.735  0.000    23.491     6.498
 152   6 C     -0.075  1.056  3.019  0.000    21.894     6.656
 153   6 C     -0.002  1.058  2.944  0.000    20.626     6.467
 154  16 S     -0.233  1.924  4.259  0.051   151.043    20.685
 155   6 C     -0.064  1.057  3.008  0.000    21.809     6.662
 156   1 H      0.211  0.789  0.000  0.000     1.050     1.605
 157   1 H      0.101  0.899  0.000  0.000     1.777     2.085
 158   1 H      0.084  0.916  0.000  0.000     1.938     2.177
 159   1 H      0.064  0.936  0.000  0.000     2.156     2.296
 160   1 H      0.042  0.958  0.000  0.000     2.419     2.432
 161   1 H      0.064  0.936  0.000  0.000     2.157     2.297
 162   1 H      0.071  0.929  0.000  0.000     2.075     2.253
 163   1 H      0.066  0.934  0.000  0.000     2.125     2.279
 164   1 H      0.058  0.942  0.000  0.000     2.227     2.334
 165   7 N     -0.175  1.238  3.937  0.000    24.790     7.395
 166   6 C      0.025  1.058  2.917  0.000    20.155     6.392
 167   6 C      0.262  1.046  2.692  0.000    22.584     7.782
 168   8 O     -0.512  1.740  4.771  0.000    24.041     6.574
 169   6 C     -0.079  1.054  3.025  0.000    21.999     6.676
 170   6 C      0.009  1.082  2.909  0.000    27.824     8.652
 171   6 C     -0.042  1.080  2.962  0.000    29.034     8.836
 172   6 C     -0.040  1.079  2.961  0.000    28.993     8.830
 173   6 C     -0.033  1.080  2.954  0.000    28.834     8.806
 174   6 C     -0.031  1.080  2.950  0.000    28.771     8.796
 175   6 C     -0.035  1.080  2.955  0.000    28.865     8.810
 176   1 H      0.205  0.795  0.000  0.000     1.083     1.630
 177   1 H      0.079  0.921  0.000  0.000     1.994     2.208
 178   1 H      0.072  0.928  0.000  0.000     2.060     2.244
 179   1 H      0.061  0.939  0.000  0.000     2.186     2.312
 180   1 H      0.035  0.965  0.000  0.000     2.516     2.481
 181   1 H      0.031  0.969  0.000  0.000     2.572     2.508
 182   1 H      0.043  0.957  0.000  0.000     2.410     2.428
 183   1 H      0.035  0.965  0.000  0.000     2.510     2.477
 184   1 H      0.041  0.959  0.000  0.000     2.439     2.442
 185   7 N     -0.190  1.256  3.934  0.000    25.125     7.444
 186   6 C      0.018  1.064  2.918  0.000    20.268     6.410
 187   6 C      0.277  1.043  2.680  0.000    22.315     7.736
 188   8 O     -0.502  1.732  4.770  0.000    23.831     6.545
 189   6 C     -0.023  1.069  2.955  0.000    20.959     6.512
 190   6 C     -0.068  1.050  3.018  0.000    21.794     6.647
 191   6 C     -0.127  1.039  3.088  0.000    22.997     6.838
 192   6 C     -0.111  1.036  3.075  0.000    22.691     6.793
 193   1 H      0.266  0.734  0.000  0.000     0.824     1.422
 194   1 H      0.067  0.933  0.000  0.000     2.122     2.278
 195   1 H      0.052  0.948  0.000  0.000     2.296     2.370
 196   1 H      0.051  0.949  0.000  0.000     2.313     2.378
 197   1 H      0.028  0.972  0.000  0.000     2.609     2.526
 198   1 H      0.063  0.937  0.000  0.000     2.167     2.302
 199   1 H      0.043  0.957  0.000  0.000     2.406     2.426
 200   1 H      0.061  0.939  0.000  0.000     2.184     2.311
 201   1 H      0.041  0.959  0.000  0.000     2.429     2.437
 202   1 H      0.045  0.955  0.000  0.000     2.382     2.414
 203   1 H      0.050  0.950  0.000  0.000     2.323     2.384
 204   7 N     -0.202  1.258  3.944  0.000    25.393     7.484
 205   6 C      0.024  1.060  2.916  0.000    20.162     6.392
 206   6 C      0.273  1.043  2.684  0.000    22.393     7.749
 207   8 O     -0.485  1.734  4.752  0.000    23.461     6.494
 208   6 C     -0.075  1.054  3.021  0.000    21.901     6.659
 209   6 C     -0.010  1.061  2.949  0.000    20.767     6.489
 210  16 S     -0.217  1.910  4.254  0.053   150.323    20.636
 211   6 C     -0.060  1.055  3.005  0.000    21.719     6.648
 212   1 H      0.249  0.751  0.000  0.000     0.889     1.477
 213   1 H      0.077  0.923  0.000  0.000     2.013     2.219
 214   1 H      0.062  0.938  0.000  0.000     2.175     2.306
 215   1 H      0.088  0.912  0.000  0.000     1.897     2.154
 216   1 H      0.058  0.942  0.000  0.000     2.223     2.332
 217   1 H      0.035  0.965  0.000  0.000     2.512     2.478
 218   1 H      0.070  0.930  0.000  0.000     2.082     2.256
 219   1 H      0.052  0.948  0.000  0.000     2.299     2.371
 220   1 H      0.058  0.942  0.000  0.000     2.225     2.333
 221   7 N     -0.178  1.249  3.930  0.000    24.863     7.406
 222   6 C      0.021  1.064  2.915  0.000    20.220     6.403
 223   6 C      0.276  1.042  2.681  0.000    22.327     7.738
 224   8 O     -0.494  1.736  4.757  0.000    23.642     6.519
 225   6 C     -0.021  1.067  2.953  0.000    20.905     6.503
 226   6 C     -0.062  1.051  3.011  0.000    21.683     6.630
 227   6 C     -0.112  1.037  3.076  0.000    22.708     6.795
 228   6 C     -0.112  1.036  3.077  0.000    22.713     6.797
 229   1 H      0.205  0.795  0.000  0.000     1.081     1.628
 230   1 H      0.075  0.925  0.000  0.000     2.033     2.230
 231   1 H      0.053  0.947  0.000  0.000     2.279     2.361
 232   1 H      0.039  0.961  0.000  0.000     2.467     2.456
 233   1 H      0.050  0.950  0.000  0.000     2.326     2.385
 234   1 H      0.057  0.943  0.000  0.000     2.232     2.336
 235   1 H      0.035  0.965  0.000  0.000     2.517     2.481
 236   1 H      0.048  0.952  0.000  0.000     2.349     2.397
 237   1 H      0.046  0.954  0.000  0.000     2.366     2.405
 238   1 H      0.047  0.953  0.000  0.000     2.361     2.403
 239   1 H      0.032  0.968  0.000  0.000     2.557     2.501
 240   7 N     -0.198  1.256  3.942  0.000    25.298     7.470
 241   6 C      0.029  1.057  2.914  0.000    20.077     6.379
 242   6 C      0.272  1.041  2.687  0.000    22.410     7.753
 243   8 O     -0.496  1.731  4.765  0.000    23.698     6.527
 244   6 C     -0.079  1.060  3.019  0.000    21.988     6.674
 245   6 C     -0.022  1.056  2.965  0.000    20.923     6.506
 246   6 C     -0.119  1.042  3.077  0.000    22.831     6.812
 247   6 C     -0.108  1.038  3.070  0.000    22.617     6.781
 248   1 H      0.234  0.766  0.000  0.000     0.946     1.524
 249   1 H      0.062  0.938  0.000  0.000     2.175     2.306
 250   1 H      0.050  0.950  0.000  0.000     2.326     2.385
 251   1 H      0.067  0.933  0.000  0.000     2.124     2.279
 252   1 H      0.055  0.945  0.000  0.000     2.259     2.350
 253   1 H      0.044  0.956  0.000  0.000     2.399     2.422
 254   1 H      0.041  0.959  0.000  0.000     2.437     2.441
 255   1 H      0.046  0.954  0.000  0.000     2.368     2.407
 256   1 H      0.042  0.958  0.000  0.000     2.427     2.436
 257   1 H      0.044  0.956  0.000  0.000     2.390     2.418
 258   1 H      0.032  0.968  0.000  0.000     2.562     2.503
 259   7 N     -0.198  1.259  3.939  0.000    25.304     7.471
 260   6 C      0.021  1.065  2.914  0.000    20.217     6.401
 261   6 C      0.279  1.042  2.679  0.000    22.282     7.731
 262   8 O     -0.491  1.730  4.761  0.000    23.596     6.513
 263   6 C     -0.023  1.062  2.961  0.000    20.946     6.509
 264   6 C     -0.120  1.039  3.081  0.000    22.847     6.815
 265   6 C     -0.122  1.042  3.080  0.000    22.894     6.822
 266   1 H      0.244  0.756  0.000  0.000     0.906     1.491
 267   1 H      0.071  0.929  0.000  0.000     2.080     2.256
 268   1 H      0.057  0.943  0.000  0.000     2.237     2.339
 269   1 H      0.059  0.941  0.000  0.000     2.205     2.322
 270   1 H      0.036  0.964  0.000  0.000     2.502     2.474
 271   1 H      0.046  0.954  0.000  0.000     2.364     2.405
 272   1 H      0.055  0.945  0.000  0.000     2.264     2.353
 273   1 H      0.054  0.946  0.000  0.000     2.266     2.354
 274   1 H      0.051  0.949  0.000  0.000     2.303     2.373
 275   7 N     -0.194  1.257  3.938  0.000    25.216     7.458
 276   6 C      0.034  1.054  2.912  0.000    20.009     6.369
 277   6 C      0.274  1.042  2.684  0.000    22.369     7.746
 278   8 O     -0.490  1.730  4.760  0.000    23.566     6.509
 279   6 C     -0.128  1.041  3.087  0.000    23.012     6.839
 280   1 H      0.230  0.770  0.000  0.000     0.966     1.539
 281   1 H      0.068  0.932  0.000  0.000     2.110     2.272
 282   1 H      0.073  0.927  0.000  0.000     2.055     2.242
 283   1 H      0.083  0.917  0.000  0.000     1.946     2.182
 284   1 H      0.056  0.944  0.000  0.000     2.248     2.345
 285   7 N     -0.183  1.250  3.932  0.000    24.955     7.419
 286   6 C      0.025  1.056  2.920  0.000    20.162     6.393
 287   6 C      0.264  1.044  2.692  0.000    22.554     7.778
 288   8 O     -0.494  1.731  4.763  0.000    23.642     6.519
 289   6 C     -0.070  1.052  3.018  0.000    21.839     6.652
 290   6 C      0.014  1.082  2.903  0.000    27.688     8.631
 291   6 C     -0.039  1.080  2.960  0.000    28.976     8.828
 292   6 C     -0.040  1.077  2.964  0.000    29.002     8.832
 293   6 C     -0.033  1.080  2.953  0.000    28.824     8.804
 294   6 C     -0.033  1.081  2.952  0.000    28.818     8.803
 295   6 C     -0.036  1.080  2.956  0.000    28.899     8.816
 296   1 H      0.231  0.769  0.000  0.000     0.960     1.534
 297   1 H      0.082  0.918  0.000  0.000     1.960     2.189
 298   1 H      0.062  0.938  0.000  0.000     2.170     2.304
 299   1 H      0.068  0.932  0.000  0.000     2.107     2.270
 300   1 H      0.034  0.966  0.000  0.000     2.525     2.485
 301   1 H      0.031  0.969  0.000  0.000     2.567     2.505
 302   1 H      0.041  0.959  0.000  0.000     2.440     2.443
 303   1 H      0.040  0.960  0.000  0.000     2.447     2.446
 304   1 H      0.040  0.960  0.000  0.000     2.451     2.448
 305   7 N     -0.186  1.256  3.930  0.000    25.022     7.429
 306   6 C      0.025  1.059  2.916  0.000    20.146     6.388
 307   6 C      0.272  1.043  2.684  0.000    22.401     7.750
 308   8 O     -0.495  1.734  4.761  0.000    23.678     6.524
 309   6 C      0.077  1.036  2.887  0.000    19.510     6.328
 310   8 O     -0.471  1.718  4.753  0.000    22.273     6.371
 311   1 H      0.249  0.751  0.000  0.000     0.886     1.474
 312   1 H      0.092  0.908  0.000  0.000     1.858     2.131
 313   1 H      0.051  0.949  0.000  0.000     2.306     2.375
 314   1 H      0.038  0.962  0.000  0.000     2.469     2.457
 315   1 H      0.345  0.655  0.000  0.000     0.600     1.217
 316   7 N     -0.197  1.257  3.941  0.000    25.281     7.468
 317   6 C      0.020  1.065  2.915  0.000    20.239     6.406
 318   6 C      0.275  1.042  2.683  0.000    22.353     7.743
 319   8 O     -0.509  1.739  4.770  0.000    23.988     6.567
 320   6 C     -0.023  1.062  2.960  0.000    20.942     6.509
 321   6 C     -0.119  1.039  3.080  0.000    22.843     6.815
 322   6 C     -0.123  1.042  3.081  0.000    22.903     6.823
 323   1 H      0.244  0.756  0.000  0.000     0.907     1.492
 324   1 H      0.071  0.929  0.000  0.000     2.071     2.251
 325   1 H      0.055  0.945  0.000  0.000     2.260     2.351
 326   1 H      0.063  0.937  0.000  0.000     2.167     2.302
 327   1 H      0.037  0.963  0.000  0.000     2.493     2.469
 328   1 H      0.049  0.951  0.000  0.000     2.338     2.391
 329   1 H      0.057  0.943  0.000  0.000     2.229     2.335
 330   1 H      0.047  0.953  0.000  0.000     2.359     2.402
 331   1 H      0.057  0.943  0.000  0.000     2.240     2.340
 332   7 N     -0.191  1.262  3.929  0.000    25.154     7.449
 333   6 C      0.021  1.062  2.917  0.000    20.216     6.401
 334   6 C      0.275  1.040  2.685  0.000    22.355     7.744
 335   8 O     -0.499  1.739  4.760  0.000    23.755     6.535
 336   6 C     -0.020  1.066  2.954  0.000    20.889     6.501
 337   6 C     -0.067  1.054  3.014  0.000    21.788     6.645
 338   6 C     -0.116  1.042  3.075  0.000    22.778     6.804
 339   6 C     -0.119  1.037  3.082  0.000    22.840     6.815
 340   1 H      0.247  0.753  0.000  0.000     0.896     1.483
 341   1 H      0.076  0.924  0.000  0.000     2.026     2.226
 342   1 H      0.040  0.960  0.000  0.000     2.446     2.446
 343   1 H      0.047  0.953  0.000  0.000     2.364     2.404
 344   1 H      0.049  0.951  0.000  0.000     2.335     2.389
 345   1 H      0.060  0.940  0.000  0.000     2.199     2.319
 346   1 H      0.037  0.963  0.000  0.000     2.483     2.464
 347   1 H      0.048  0.952  0.000  0.000     2.340     2.392
 348   1 H      0.051  0.949  0.000  0.000     2.312     2.378
 349   1 H      0.026  0.974  0.000  0.000     2.645     2.543
 350   1 H      0.060  0.940  0.000  0.000     2.196     2.318
 351   7 N     -0.200  1.257  3.943  0.000    25.347     7.477
 352   6 C      0.029  1.057  2.914  0.000    20.073     6.377
 353   6 C      0.277  1.041  2.683  0.000    22.323     7.738
 354   8 O     -0.491  1.731  4.760  0.000    23.574     6.510
 355   6 C     -0.072  1.057  3.016  0.000    21.877     6.658
 356   6 C     -0.018  1.055  2.964  0.000    20.867     6.497
 357   6 C     -0.111  1.040  3.071  0.000    22.676     6.789
 358   6 C     -0.119  1.040  3.079  0.000    22.833     6.813
 359   1 H      0.245  0.755  0.000  0.000     0.904     1.489
 360   1 H      0.073  0.927  0.000  0.000     2.053     2.241
 361   1 H      0.052  0.948  0.000  0.000     2.297     2.370
 362   1 H      0.056  0.944  0.000  0.000     2.252     2.347
 363   1 H      0.060  0.940  0.000  0.000     2.204     2.321
 364   1 H      0.044  0.956  0.000  0.000     2.391     2.418
 365   1 H      0.037  0.963  0.000  0.000     2.490     2.468
 366   1 H      0.042  0.958  0.000  0.000     2.416     2.431
 367   1 H      0.051  0.949  0.000  0.000     2.303     2.373
 368   1 H      0.044  0.956  0.000  0.000     2.390     2.418
 369   1 H      0.030  0.970  0.000  0.000     2.585     2.514
 370   7 N     -0.195  1.256  3.939  0.000    25.222     7.459
 371   6 C      0.017  1.066  2.917  0.000    20.286     6.413
 372   6 C      0.289  1.038  2.673  0.000    22.093     7.697
 373   8 O     -0.512  1.753  4.760  0.000    24.062     6.577
 374   6 C      0.065  1.039  2.896  0.000    19.699     6.359
 375   8 O     -0.484  1.719  4.765  0.000    22.551     6.411
 376   1 H      0.234  0.766  0.000  0.000     0.947     1.524
 377   1 H      0.065  0.935  0.000  0.000     2.140     2.288
 378   1 H      0.059  0.941  0.000  0.000     2.215     2.327
 379   1 H      0.068  0.932  0.000  0.000     2.110     2.271
 380   1 H      0.325  0.675  0.000  0.000     0.650     1.267
 381   7 N     -0.202  1.260  3.942  0.000    25.381     7.482
 382   6 C      0.029  1.061  2.911  0.000    20.096     6.383
 383   6 C      0.279  1.042  2.679  0.000    22.280     7.730
 384   8 O     -0.544  1.761  4.784  0.000    24.789     6.675
 385   6 C     -0.014  1.060  2.954  0.000    20.788     6.485
 386   6 C     -0.120  1.040  3.080  0.000    22.857     6.817
 387   6 C     -0.124  1.039  3.085  0.000    22.945     6.831
 388   1 H      0.237  0.763  0.000  0.000     0.934     1.514
 389   1 H      0.052  0.948  0.000  0.000     2.295     2.369
 390   1 H      0.038  0.962  0.000  0.000     2.474     2.460
 391   1 H      0.053  0.947  0.000  0.000     2.282     2.362
 392   1 H      0.038  0.962  0.000  0.000     2.473     2.459
 393   1 H      0.060  0.940  0.000  0.000     2.199     2.319
 394   1 H      0.053  0.947  0.000  0.000     2.288     2.366
 395   1 H      0.067  0.933  0.000  0.000     2.119     2.277
 396   1 H      0.027  0.973  0.000  0.000     2.636     2.539
 397   7 N     -0.191  1.253  3.938  0.000    25.146     7.448
 398   6 C      0.029  1.061  2.911  0.000    20.095     6.382
 399   6 C      0.278  1.043  2.680  0.000    22.305     7.734
 400   8 O     -0.523  1.752  4.771  0.000    24.305     6.610
 401   6 C     -0.012  1.061  2.951  0.000    20.757     6.480
 402   6 C     -0.114  1.039  3.075  0.000    22.734     6.798
 403   6 C     -0.122  1.041  3.081  0.000    22.890     6.821
 404   1 H      0.244  0.756  0.000  0.000     0.906     1.491
 405   1 H      0.055  0.945  0.000  0.000     2.254     2.348
 406   1 H      0.047  0.953  0.000  0.000     2.363     2.404
 407   1 H      0.060  0.940  0.000  0.000     2.200     2.319
 408   1 H      0.037  0.963  0.000  0.000     2.495     2.470
 409   1 H      0.043  0.957  0.000  0.000     2.415     2.430
 410   1 H      0.057  0.943  0.000  0.000     2.230     2.335
 411   1 H      0.040  0.960  0.000  0.000     2.442     2.444
 412   1 H      0.058  0.942  0.000  0.000     2.220     2.330
 413   7 N     -0.197  1.253  3.944  0.000    25.278     7.467
 414   6 C      0.031  1.060  2.909  0.000    20.052     6.375
 415   6 C      0.213  1.083  2.704  0.000    23.503     7.940
 416   8 O     -0.380  1.752  4.628  0.000    21.283     6.185
 417   6 C     -0.012  1.062  2.949  0.000    20.749     6.479
 418   6 C     -0.134  1.038  3.096  0.000    23.135     6.858
 419   6 C     -0.119  1.037  3.082  0.000    22.844     6.815
 420   1 H      0.249  0.751  0.000  0.000     0.886     1.475
 421   1 H      0.077  0.923  0.000  0.000     2.010     2.217
 422   1 H      0.050  0.950  0.000  0.000     2.319     2.381
 423   1 H      0.068  0.932  0.000  0.000     2.112     2.273
 424   1 H      0.046  0.954  0.000  0.000     2.372     2.409
 425   1 H      0.062  0.938  0.000  0.000     2.177     2.307
 426   1 H      0.059  0.941  0.000  0.000     2.210     2.325
 427   1 H      0.051  0.949  0.000  0.000     2.309     2.376
 428   1 H      0.029  0.971  0.000  0.000     2.596     2.520
 429   7 N     -0.398  1.323  4.075  0.000    30.322     8.178
 430   6 C      0.036  1.057  2.906  0.000    19.980     6.367
 431   6 C      0.273  1.046  2.681  0.000    22.392     7.750
 432   8 O     -0.486  1.742  4.745  0.000    23.481     6.497
 433   6 C     -0.078  1.057  3.021  0.000    21.974     6.673
 434   6 C     -0.005  1.079  2.926  0.000    28.134     8.700
 435   6 C     -0.039  1.082  2.957  0.000    28.978     8.828
 436   6 C     -0.046  1.084  2.962  0.000    29.143     8.853
 437   6 C     -0.059  1.075  2.985  0.000    29.478     8.903
 438   6 C     -0.076  1.078  2.998  0.000    29.890     8.965
 439   6 C      0.143  1.045  2.811  0.000    24.874     8.174
 440   8 O     -0.428  1.714  4.714  0.000    21.405     6.246
 441   1 H      0.169  0.831  0.000  0.000     1.280     1.773
 442   1 H      0.031  0.969  0.000  0.000     2.566     2.505
 443   1 H      0.053  0.947  0.000  0.000     2.282     2.362
 444   1 H      0.059  0.941  0.000  0.000     2.211     2.325
 445   1 H      0.039  0.961  0.000  0.000     2.461     2.453
 446   1 H      0.044  0.956  0.000  0.000     2.398     2.422
 447   1 H      0.046  0.954  0.000  0.000     2.368     2.407
 448   1 H      0.046  0.954  0.000  0.000     2.368     2.406
 449   1 H      0.332  0.668  0.000  0.000     0.633     1.250
 450   7 N     -0.161  1.240  3.922  0.000    24.485     7.349
 451   6 C      0.025  1.059  2.916  0.000    20.152     6.390
 452   6 C      0.211  1.080  2.709  0.000    23.526     7.944
 453   8 O     -0.363  1.752  4.610  0.000    20.951     6.137
 454   6 C     -0.021  1.063  2.958  0.000    20.910     6.503
 455   6 C     -0.131  1.039  3.092  0.000    23.061     6.846
 456   6 C     -0.118  1.039  3.079  0.000    22.819     6.811
 457   1 H      0.218  0.782  0.000  0.000     1.019     1.581
 458   1 H      0.081  0.919  0.000  0.000     1.973     2.197
 459   1 H      0.055  0.945  0.000  0.000     2.254     2.348
 460   1 H      0.076  0.924  0.000  0.000     2.018     2.221
 461   1 H      0.038  0.962  0.000  0.000     2.476     2.461
 462   1 H      0.049  0.951  0.000  0.000     2.331     2.388
 463   1 H      0.054  0.946  0.000  0.000     2.272     2.357
 464   1 H      0.048  0.952  0.000  0.000     2.347     2.396
 465   1 H      0.049  0.951  0.000  0.000     2.337     2.390
 466   7 N     -0.418  1.319  4.099  0.000    30.867     8.251
 467   6 C      0.046  1.058  2.897  0.000    19.819     6.341
 468   6 C      0.199  1.100  2.701  0.000    23.756     7.982
 469   8 O     -0.370  1.737  4.632  0.000    21.081     6.156
 470   6 C     -0.008  1.061  2.946  0.000    20.680     6.468
 471   6 C     -0.110  1.040  3.069  0.000    22.644     6.784
 472   6 C     -0.109  1.039  3.070  0.000    22.633     6.782
 473   1 H      0.197  0.803  0.000  0.000     1.119     1.657
 474   1 H      0.035  0.965  0.000  0.000     2.513     2.479
 475   1 H      0.043  0.957  0.000  0.000     2.415     2.430
 476   1 H      0.042  0.958  0.000  0.000     2.426     2.436
 477   1 H      0.031  0.969  0.000  0.000     2.570     2.507
 478   1 H      0.043  0.957  0.000  0.000     2.413     2.429
 479   1 H      0.038  0.962  0.000  0.000     2.479     2.462
 480   1 H      0.035  0.965  0.000  0.000     2.514     2.480
 481   1 H      0.051  0.949  0.000  0.000     2.310     2.377
 482   7 N     -0.432  1.321  4.111  0.000    31.269     8.305
 483   6 C      0.029  1.063  2.908  0.000    20.091     6.384
 484   6 C      0.264  1.050  2.686  0.000    22.543     7.775
 485   8 O     -0.491  1.739  4.753  0.000    23.593     6.512
 486   6 C     -0.017  1.065  2.951  0.000    20.836     6.492
 487   6 C     -0.065  1.050  3.015  0.000    21.749     6.640
 488   6 C     -0.113  1.037  3.076  0.000    22.710     6.795
 489   6 C     -0.103  1.034  3.069  0.000    22.530     6.769
 490   1 H      0.209  0.791  0.000  0.000     1.060     1.612
 491   1 H      0.030  0.970  0.000  0.000     2.587     2.516
 492   1 H      0.024  0.976  0.000  0.000     2.674     2.557
 493   1 H      0.047  0.953  0.000  0.000     2.355     2.400
 494   1 H      0.027  0.973  0.000  0.000     2.624     2.533
 495   1 H      0.041  0.959  0.000  0.000     2.435     2.440
 496   1 H      0.031  0.969  0.000  0.000     2.571     2.507
 497   1 H      0.059  0.941  0.000  0.000     2.215     2.328
 498   1 H      0.043  0.957  0.000  0.000     2.413     2.429
 499   1 H      0.030  0.970  0.000  0.000     2.580     2.512
 500   1 H      0.036  0.964  0.000  0.000     2.509     2.477
 501   7 N     -0.156  1.231  3.925  0.000    24.378     7.333
 502   6 C     -0.041  1.052  2.989  0.000    21.390     6.599
 503   6 C      0.203  1.081  2.717  0.000    23.691     7.971
 504   8 O     -0.351  1.755  4.596  0.000    20.734     6.105
 505   1 H      0.218  0.782  0.000  0.000     1.017     1.579
 506   1 H      0.123  0.877  0.000  0.000     1.592     1.973
 507   1 H      0.111  0.889  0.000  0.000     1.692     2.034
 508   7 N     -0.419  1.328  4.090  0.000    30.895     8.255
 509   6 C      0.046  1.050  2.904  0.000    19.827     6.343
 510   6 C      0.207  1.092  2.701  0.000    23.603     7.957
 511   8 O     -0.387  1.753  4.634  0.000    21.424     6.206
 512   6 C      0.078  1.039  2.883  0.000    19.486     6.322
 513   8 O     -0.465  1.722  4.743  0.000    22.155     6.354
 514   1 H      0.203  0.797  0.000  0.000     1.093     1.638
 515   1 H      0.032  0.968  0.000  0.000     2.562     2.503
 516   1 H      0.023  0.977  0.000  0.000     2.681     2.561
 517   1 H      0.066  0.934  0.000  0.000     2.128     2.281
 518   1 H      0.332  0.668  0.000  0.000     0.633     1.250
 519   1 H      0.182  0.818  0.000  0.000     1.201     1.716
 520   1 H      0.075  0.925  0.000  0.000     2.028     2.227
 521   1 H      0.191  0.809  0.000  0.000     1.154     1.683
 522   1 H      0.078  0.922  0.000  0.000     1.997     2.210
 523   1 H      0.183  0.817  0.000  0.000     1.196     1.713
 524   1 H      0.074  0.926  0.000  0.000     2.045     2.236
 525   1 H      0.182  0.818  0.000  0.000     1.204     1.719
 526   1 H      0.077  0.923  0.000  0.000     2.007     2.215
 527   1 H      0.182  0.818  0.000  0.000     1.203     1.718
 528   1 H      0.071  0.929  0.000  0.000     2.071     2.250
 529   1 H      0.185  0.815  0.000  0.000     1.185     1.705
 530   1 H      0.069  0.931  0.000  0.000     2.098     2.265
 531   1 H      0.174  0.826  0.000  0.000     1.249     1.751
 532   1 H      0.058  0.942  0.000  0.000     2.218     2.329
 533   1 H      0.182  0.818  0.000  0.000     1.203     1.718
 534   1 H      0.066  0.934  0.000  0.000     2.132     2.283
 535   1 H      0.171  0.829  0.000  0.000     1.265     1.762
 536   1 H      0.077  0.923  0.000  0.000     2.009     2.216
 537   1 H      0.169  0.831  0.000  0.000     1.281     1.773
 538   1 H      0.075  0.925  0.000  0.000     2.029     2.228
 539   1 H      0.172  0.828  0.000  0.000     1.261     1.759
 540   1 H      0.078  0.922  0.000  0.000     2.002     2.213

 Mol. C6AA /au·bohr⁶  :    2596540.190035
 Mol. C8AA /au·bohr⁸  :   58248913.592720
 Mol. α(0) /au        :       2428.199894

 
molecular dipole:
                 x           y           z       tot (Debye)
 q only:       12.190      -1.194      27.052
   full:       13.578      -0.653      28.919      81.224
molecular quadrupole (traceless):
                xx          xy          yy          xz          yz          zz
 q only:      844.974    1820.628   -3045.993    5042.358    4519.948    2201.019
  q+dip:      948.314    2160.303   -3143.690    5482.487    4871.905    2195.375
   full:      947.226    2158.442   -3139.642    5478.906    4869.432    2192.415
speedup  1.00
cpu  time for grad   15.69 s
wall time for grad   15.69 s

SCC energy    :    -779.7633244
rep           :      10.1845547
ES            :       1.5462431
AES           :       0.0078417
AXC           :       0.3076884
disp          :      -0.6987365
XB            :       0.0000000
fix           :       0.0000000
Gborn         :       0.0000000
Gsasa         :       0.0000000
Ghb           :       0.0000000
Gshift        :       0.0000000
Gsolv         :      -0.2401401     -150.69
Etot ala COSMO:    -779.7633244
grad norm     :       0.7433714
total E       :    -769.5177328
atomizationE  :     147.8206163    92758.84
(atE without considering molecular charge,
 total energy contains solvation terms)
H-L gap (eV)  :          1.5657

------------------------------------------------------------------------
 * finished run on 2019/03/14 at 15:08:36.274     
------------------------------------------------------------------------
 total:
 * wall-time:     0 d,  0 h,  0 min, 16.650 sec
 *  cpu-time:     0 d,  0 h,  0 min, 16.543 sec
 * ratio c/w:     0.994 speedup
 SCF:
 * wall-time:     0 d,  0 h,  0 min, 16.303 sec
 *  cpu-time:     0 d,  0 h,  0 min, 16.301 sec
 * ratio c/w:     1.000 speedup

