      -----------------------------------------------------------      
     |                   =====================                   |     
     |                           x T B                           |     
     |                   =====================                   |     
     |                         S. Grimme                         |     
     |          Mulliken Center for Theoretical Chemistry        |     
     |                    University of Bonn                     |     
     |                 Version 6.0.1 (SAW181210)                 |     
      -----------------------------------------------------------      

   This program is distributed in the hope that it will be useful,
   but WITHOUT ANY WARRANTY; without even the implied warranty of
   MERCHANTABILITY or FITNESS FOR A PARTICULAR PURPOSE.
   
   FOR NON-COMMERCIAL, ACADEMIA USE ONLY.
   
   Cite this work as:
   S. Grimme, C. Bannwarth, P. Shushkov, J. Comput. Theory Chem., 2017,
   13, 1989-2009.
   C. Bannwarth, S. Ehlert and S. Grimme., ChemRxiv, 2018, preprint.
   http://doi.org/10.26434/chemrxiv.7246238.v1
   
   for sTDA-xTB:
   S. Grimme and C. Bannwarth, J. Chem. Phys., 2016, 145, 054103.
   
   in the mass-spec context:
   V. Asgeirsson, C. Bauer and S. Grimme, Chem. Sci., 2017, 8, 4879.
   
   if GBSA is used:
   P. Shushkov, F. März and S. Grimme, unpublished.
   
   for ANC optimizer:
   S. Grimme, unpublished.
   Rational Function algorithm used in ANCopt:
   F. Eckert, P. Pulay, H.-J. Werner, J. Comput. Chem., 1997, 18, 1473.
   
   with help from (in alphabetical order)
   C. Bannwarth, F. Bohle, G. Brandenburg, E. Caldeweyher, M. Checinski,
   S. Dohm, S. Ehlert, S. Ehrlich, F. März, H. Neugebauer, J. Pisarek,
   P. Pracht, P. Shushkov, and S. Spicher.
   
 * started run on 2019/03/14 at 15:08:19.550     
========================================================================
 # omp threads = 1
========================================================================
number of atoms            : 562
number of electrons        : 1432
charge                     : 1
spin                       : .0
first test random number   : .2748
           ------------------------------------------------- 
          |                 G F N 2 - x T B                 |
          | Geometry, Frequencies, Noncovalent interactions |
          |            JCTC 2018 parametrisation            |
           ------------------------------------------------- 
 
      method parameters     
 k(s)        :  1.8500
 k(p)        :  2.2300
 k(d)        :  2.2300
 k(f)        :  2.0000
 kEN (H0ij)  : -2.0000
 D4 a1       :  0.5200
 D4 a2       :  5.0000
 D4 s6       :  1.0000
 D4 s8       :  2.7000
 D4 s9       :  5.0000
 alphaj      :  2.0000

 Solvent             : h2o
 Using internal parameter file: .param_gbsa2_h2o
 Gsolv ref. state (COSMO-RS): gsolv [1 M gas/solution]
 temperature (mdtemp)       :    298.150000000000     
 dielectric constant        :    80.2000000000000     
 rho                        :    1.00000000000000     
 mass                       :    18.0000000000000     
 surface tension            :    15.5689454083859     
 probe radius               :   0.975313790000000     
 vdW radii scaling          :    1.00000000000000     
 Gshift (Eh)                :   1.857443126794793E-003
 c1                         :    1.55243817000000     
 soset                      :   0.130326360000000     
 HB correction              :  T

            Z     q(EN)     CN     RAES       Cart. coordinates
     1  N   5.0   -0.21    3.24    1.97    92.95335    92.85581    32.99807
     2  C   4.0    0.03    4.20    4.01    94.62685    91.59227    34.76571
     3  C   4.0    0.08    3.22    3.04    95.33716    93.46275    36.84214
     4  O   6.0   -0.33    1.22    1.80    95.18793    92.91847    39.09317
     5  C   4.0   -0.05    4.37    4.33    96.80145    90.56107    33.14290
     6  C   4.0   -0.03    4.18    3.95    99.01592    89.28591    34.47762
     7  C   4.0   -0.08    4.10    3.80   100.79841    88.16364    32.48730
     8  C   4.0   -0.07    4.14    3.89   100.40305    91.16924    36.17408
     9  H   1.0    0.08    1.03    1.43    93.41165    92.80740    31.14934
    10  H   1.0    0.04    1.05    1.44    93.64336    90.04245    35.72663
    11  H   1.0    0.04    1.04    1.43    95.92793    89.17472    31.89226
    12  H   1.0    0.04    1.04    1.43    97.53417    92.13533    32.04278
    13  H   1.0    0.04    1.06    1.44    98.26811    87.72987    35.60168
    14  H   1.0    0.04    1.00    1.43   102.20342    86.92783    33.34079
    15  H   1.0    0.04    1.00    1.43    99.73600    87.03269    31.14134
    16  H   1.0    0.04    1.00    1.43   101.80015    89.64394    31.48173
    17  H   1.0    0.04    1.00    1.43   102.33478    90.57025    36.51440
    18  H   1.0    0.04    1.00    1.43   100.43864    93.01472    35.28027
    19  H   1.0    0.05    1.01    1.43    99.48372    91.31909    38.00111
    20  N   5.0   -0.19    3.26    1.97    91.05541    94.21949    41.87837
    21  C   4.0    0.03    4.27    4.15    91.14118    92.15129    43.66882
    22  C   4.0    0.16    3.45    3.10    93.07024    92.78021    45.73788
    23  O   6.0   -0.31    1.27    1.80    92.62180    92.44364    47.98354
    24  C   4.0    0.04    4.14    3.89    91.77071    89.62858    42.35196
    25  O   6.0   -0.27    2.09    1.84    94.34025    89.02864    42.31545
    26  H   1.0    0.10    1.03    1.43    90.99304    93.84293    40.00281
    27  H   1.0    0.05    1.05    1.44    89.29987    91.99294    44.61357
    28  H   1.0    0.04    1.02    1.43    90.83359    88.11029    43.38518
    29  H   1.0    0.04    1.01    1.43    91.00547    89.69306    40.42301
    30  H   1.0    0.14    1.07    1.44    95.17653    90.19304    41.15624
    31  N   5.0   -0.14    3.49    2.07    95.24179    93.72998    44.88196
    32  C   4.0    0.04    4.26    4.12    97.15444    94.62032    46.62687
    33  C   4.0    0.09    3.26    3.05    95.99301    96.61885    48.35810
    34  O   6.0   -0.28    1.13    1.80    96.12561    96.38942    50.66737
    35  C   4.0   -0.07    4.10    3.80    99.42278    95.70469    45.23999
    36  H   1.0    0.10    1.08    1.44    95.50795    93.94421    42.99884
    37  H   1.0    0.05    1.05    1.44    97.71138    93.05553    47.87435
    38  H   1.0    0.05    1.00    1.43   100.80510    96.36145    46.60910
    39  H   1.0    0.04    1.00    1.43   100.30115    94.28078    44.05249
    40  H   1.0    0.05    1.00    1.43    98.80218    97.28324    44.08942
    41  N   5.0   -0.18    3.22    1.96    92.37055    93.55808    53.40887
    42  C   4.0    0.04    4.14    3.88    93.99256    92.21514    55.17041
    43  C   4.0    0.10    3.20    3.04    95.35353    94.08898    56.90689
    44  O   6.0   -0.31    1.22    1.80    95.09231    94.03658    59.20534
    45  C   4.0   -0.07    4.11    3.83    95.87271    90.62619    53.69049
    46  H   1.0    0.12    1.06    1.44    92.69906    93.27396    51.53667
    47  H   1.0    0.05    1.05    1.44    92.83728    91.00250    56.39585
    48  H   1.0    0.04    1.00    1.43    97.18103    89.69409    54.97061
    49  H   1.0    0.04    1.00    1.43    94.84978    89.21015    52.60958
    50  H   1.0    0.06    1.00    1.43    96.93124    91.82295    52.40043
    51  N   5.0   -0.20    3.26    1.97    94.47710    94.60286    64.42123
    52  C   4.0    0.03    4.22    4.05    96.71383    94.18319    65.94690
    53  C   4.0    0.09    3.21    3.04    96.96248    96.40917    67.77366
    54  O   6.0   -0.27    1.11    1.80    97.08250    96.11593    70.07045
    55  C   4.0   -0.03    4.30    4.20    99.07373    93.91463    64.28720
    56  C   4.0   -0.01    3.53    3.13    99.14750    91.63766    62.55999
    57  C   4.0   -0.04    3.48    3.11   101.42448    90.98038    61.41357
    58  C   4.0   -0.02    3.53    3.13    97.01296    90.25072    61.92642
    59  C   4.0   -0.04    3.38    3.07   101.55493    89.01443    59.69367
    60  C   4.0   -0.04    3.40    3.08    97.10749    88.39783    60.08433
    61  C   4.0   -0.04    3.37    3.07    99.38664    87.73209    58.99402
    62  H   1.0    0.12    1.08    1.44    94.73921    94.60161    62.51997
    63  H   1.0    0.05    1.05    1.44    96.44871    92.47754    67.10323
    64  H   1.0    0.05    1.03    1.43    99.23124    95.60600    63.10436
    65  H   1.0    0.04    1.03    1.43   100.72386    93.87996    65.52614
    66  H   1.0    0.05    1.03    1.43   103.13183    91.98617    61.90147
    67  H   1.0    0.05    1.05    1.44    95.24352    90.60470    62.86128
    68  H   1.0    0.05    1.03    1.43   103.35125    88.51538    58.86658
    69  H   1.0    0.05    1.03    1.43    95.38151    87.50484    59.46641
    70  H   1.0    0.06    1.03    1.43    99.46122    86.19736    57.65352
    71  N   5.0   -0.21    3.18    1.95   111.26014    60.64952    59.07015
    72  C   4.0    0.03    4.33    4.25   111.71585    63.07639    57.87772
    73  C   4.0    0.08    3.28    3.05   113.96177    62.90171    56.11134
    74  O   6.0   -0.30    1.13    1.80   114.04554    64.14318    54.16128
    75  C   4.0   -0.02    4.34    4.27   112.07877    65.30136    59.70513
    76  C   4.0   -0.05    4.22    4.05   111.85951    67.76176    58.19578
    77  C   4.0   -0.07    4.15    3.89   114.63505    65.17211    61.02382
    78  C   4.0   -0.08    4.03    3.68   111.50653    70.02961    59.91423
    79  H   1.0    0.08    1.02    1.43   111.33662    60.62794    60.98887
    80  H   1.0    0.04    1.07    1.44   110.09239    63.51134    56.67612
    81  H   1.0    0.04    1.05    1.44   110.56856    65.21407    61.11374
    82  H   1.0    0.05    1.03    1.43   113.54441    67.98361    57.02549
    83  H   1.0    0.04    1.03    1.43   110.25833    67.65561    56.91169
    84  H   1.0    0.04    1.00    1.43   114.64383    66.33573    62.71392
    85  H   1.0    0.05    1.01    1.43   115.05654    63.24833    61.54753
    86  H   1.0    0.05    1.00    1.43   116.13773    65.79433    59.76946
    87  H   1.0    0.04    1.00    1.43   111.22675    71.74621    58.82216
    88  H   1.0    0.04    1.00    1.43   109.85266    69.75938    61.10148
    89  H   1.0    0.04    1.00    1.43   113.15279    70.27755    61.11334
    90  N   5.0   -0.19    3.19    1.95   110.88833    61.07774    50.89075
    91  C   4.0    0.03    4.22    4.05   109.72680    63.19398    49.58800
    92  C   4.0    0.08    3.24    3.04   111.66570    64.68715    48.06486
    93  O   6.0   -0.33    1.22    1.80   111.05519    65.62496    46.03682
    94  C   4.0   -0.04    4.35    4.28   108.43343    65.16352    51.28290
    95  C   4.0   -0.03    4.19    3.99   106.65309    64.05983    53.27140
    96  C   4.0   -0.08    4.11    3.81   105.53239    66.13088    54.93886
    97  C   4.0   -0.08    4.12    3.85   104.51488    62.53225    52.11564
    98  H   1.0    0.09    1.02    1.43   110.50577    60.74008    52.74307
    99  H   1.0    0.04    1.05    1.44   108.36026    62.46575    48.20402
   100  H   1.0    0.05    1.03    1.43   109.90202    66.28451    52.20722
   101  H   1.0    0.04    1.03    1.43   107.37629    66.40444    50.01502
   102  H   1.0    0.04    1.07    1.44   107.76132    62.77732    54.44044
   103  H   1.0    0.04    1.00    1.43   104.90053    65.33370    56.72293
   104  H   1.0    0.03    1.00    1.43   106.89454    67.61389    55.32733
   105  H   1.0    0.04    1.00    1.43   103.92344    66.97451    53.98480
   106  H   1.0    0.04    1.00    1.43   103.56241    61.49217    53.60778
   107  H   1.0    0.04    1.00    1.43   103.14285    63.75140    51.19786
   108  H   1.0    0.04    1.00    1.43   105.24661    61.21040    50.73471
   109  N   5.0   -0.21    3.22    1.96   112.89536    65.15537    41.44298
   110  C   4.0    0.03    4.14    3.88   112.59591    67.62761    40.30113
   111  C   4.0    0.08    3.21    3.04   114.83545    68.20047    38.53397
   112  O   6.0   -0.29    1.12    1.80   114.84996    70.03076    37.12485
   113  C   4.0   -0.06    4.12    3.85   112.53933    69.73670    42.25936
   114  H   1.0    0.12    1.09    1.44   112.97249    65.10204    43.35400
   115  H   1.0    0.04    1.05    1.44   110.82243    67.67160    39.23005
   116  H   1.0    0.05    1.00    1.43   112.10893    71.50608    41.30731
   117  H   1.0    0.06    1.01    1.43   111.12003    69.34773    43.68631
   118  H   1.0    0.05    1.00    1.43   114.39475    69.87428    43.12702
   119  N   5.0   -0.20    3.16    1.95   112.96938    62.74555    33.21676
   120  C   4.0    0.03    4.21    4.01   110.78617    64.00885    32.12423
   121  C   4.0    0.08    3.24    3.04   111.51391    65.83710    30.04479
   122  O   6.0   -0.28    1.12    1.80   110.11148    66.01450    28.17720
   123  C   4.0   -0.05    4.35    4.28   109.27408    65.61969    34.05294
   124  C   4.0   -0.03    4.16    3.91   106.64875    64.61356    34.81011
   125  C   4.0   -0.08    4.09    3.79   106.65911    61.96406    35.94180
   126  C   4.0   -0.08    4.12    3.83   105.51463    66.45944    36.72521
   127  H   1.0    0.08    1.03    1.43   112.93848    62.69708    35.14655
   128  H   1.0    0.05    1.05    1.44   109.48973    62.63971    31.25851
   129  H   1.0    0.04    1.03    1.43   110.43448    65.89230    35.71732
   130  H   1.0    0.05    1.05    1.44   108.96056    67.48356    33.22562
   131  H   1.0    0.04    1.06    1.44   105.52188    64.61432    33.08453
   132  H   1.0    0.04    1.00    1.43   104.75581    61.36289    36.43700
   133  H   1.0    0.04    1.00    1.43   107.48379    60.60218    34.64816
   134  H   1.0    0.04    1.01    1.43   107.78178    61.97938    37.65126
   135  H   1.0    0.03    1.00    1.43   103.56261    65.99555    37.15140
   136  H   1.0    0.04    1.00    1.43   106.59118    66.35368    38.47054
   137  H   1.0    0.04    1.00    1.43   105.59790    68.38378    36.01782
   138  N   5.0   -0.21    3.22    1.96   100.63999    72.39671    24.32382
   139  C   4.0    0.02    4.29    4.17    98.99081    72.85634    26.47323
   140  C   4.0    0.15    3.41    3.08   100.34699    74.48041    28.45485
   141  O   6.0   -0.33    1.31    1.80   100.99493    73.71447    30.52995
   142  C   4.0   -0.05    4.25    4.09    97.89719    70.35448    27.45281
   143  C   4.0   -0.04    4.21    4.01    99.84591    68.59939    28.64987
   144  C   4.0   -0.05    4.15    3.90    98.65421    66.18431    29.72591
   145  C   4.0   -0.04    4.12    3.84   100.34188    65.06915    31.80700
   146  N   5.0   -0.12    4.01    2.88   101.20379    62.45761    31.20158
   147  H   1.0    0.09    1.02    1.43   102.16811    71.26130    24.54614
   148  H   1.0    0.04    1.06    1.44    97.44141    74.01100    25.71158
   149  H   1.0    0.04    1.03    1.43    96.43559    70.78927    28.83652
   150  H   1.0    0.04    1.03    1.43    97.00193    69.43858    25.83537
   151  H   1.0    0.05    1.03    1.43   101.28542    68.14792    27.25907
   152  H   1.0    0.06    1.05    1.44   100.77007    69.62138    30.16616
   153  H   1.0    0.04    1.03    1.43    96.78668    66.64022    30.45892
   154  H   1.0    0.04    1.03    1.43    98.36594    64.82464    28.20703
   155  H   1.0    0.04    1.03    1.43   102.00235    66.26863    32.00226
   156  H   1.0    0.03    1.02    1.43    99.37553    64.99034    33.62325
   157  H   1.0    0.05    1.02    1.43   102.96218    62.10619    31.97688
   158  H   1.0    0.05    1.02    1.43    99.92608    61.14952    31.87587
   159  H   1.0    0.06    1.02    1.43   101.39738    62.23352    29.28027
   160  N   5.0   -0.15    3.48    2.06   100.74554    76.90613    27.78921
   161  C   4.0    0.03    4.45    4.47   102.24945    78.44808    29.47716
   162  C   4.0    0.15    3.45    3.09   100.61394    79.89817    31.37107
   163  O   6.0   -0.33    1.29    1.80   101.45620    80.51955    33.42851
   164  C   4.0   -0.05    4.34    4.27   103.97305    80.31721    28.11763
   165  C   4.0   -0.04    4.04    3.70   105.89196    79.00726    26.43392
   166  S   6.0   -0.01    2.57    3.10   108.74802    80.91912    25.84546
   167  C   4.0   -0.06    3.89    3.45   107.47467    84.12319    25.86286
   168  H   1.0    0.08    1.06    1.44   100.43978    77.50199    26.00423
   169  H   1.0    0.06    1.07    1.44   103.41042    77.14130    30.60341
   170  H   1.0    0.04    1.03    1.43   102.85582    81.62549    26.98651
   171  H   1.0    0.05    1.05    1.44   104.97037    81.38545    29.56945
   172  H   1.0    0.05    1.08    1.44   106.66499    77.33029    27.34037
   173  H   1.0    0.05    1.06    1.44   105.11390    78.45985    24.60648
   174  H   1.0    0.06    1.05    1.44   108.89637    85.26419    24.91969
   175  H   1.0    0.04    1.03    1.43   105.72592    84.20813    24.80365
   176  H   1.0    0.04    1.03    1.43   107.23195    84.76225    27.79772
   177  N   5.0   -0.14    3.54    2.10    98.27386    80.48513    30.61697
   178  C   4.0    0.04    4.42    4.41    96.45251    81.46925    32.41208
   179  C   4.0    0.16    3.49    3.11    96.03069    79.46006    34.45343
   180  O   6.0   -0.32    1.30    1.80    95.92121    79.96417    36.69930
   181  C   4.0    0.03    4.15    3.90    93.97121    82.08016    31.05989
   182  O   6.0   -0.26    2.10    1.84    93.16607    79.84760    29.84645
   183  H   1.0    0.08    1.08    1.44    97.62245    79.92734    28.91027
   184  H   1.0    0.04    1.05    1.44    97.20702    83.15257    33.35563
   185  H   1.0    0.04    1.01    1.43    92.59632    82.73778    32.46036
   186  H   1.0    0.04    1.01    1.43    94.30515    83.58207    29.66677
   187  H   1.0    0.12    1.02    1.43    91.40735    79.97729    29.39587
   188  N   5.0   -0.13    3.54    2.11    95.94175    77.08608    33.57524
   189  C   4.0    0.03    4.44    4.45    95.68744    74.98311    35.30936
   190  C   4.0    0.16    3.58    3.16    97.90417    74.97369    37.13595
   191  O   6.0   -0.33    1.36    1.80    97.61322    74.58732    39.41156
   192  C   4.0    0.05    4.25    4.11    95.67304    72.46477    33.77942
   193  O   6.0   -0.28    2.21    1.86    93.45532    71.07521    34.15493
   194  C   4.0   -0.07    4.18    3.95    97.89431    70.71320    34.32291
   195  H   1.0    0.09    1.08    1.44    95.45210    76.79974    31.74668
   196  H   1.0    0.06    1.04    1.43    93.96626    75.22474    36.45908
   197  H   1.0    0.05    1.05    1.44    95.64388    73.00643    31.78166
   198  H   1.0    0.11    1.08    1.44    93.59141    70.22553    35.76641
   199  H   1.0    0.04    1.02    1.43    97.39127    68.88863    33.54402
   200  H   1.0    0.06    1.02    1.43    99.61298    71.36155    33.43068
   201  H   1.0    0.04    1.01    1.43    98.17577    70.51323    36.34610
   202  N   5.0   -0.14    3.59    2.15   100.18295    75.22738    36.11263
   203  C   4.0    0.03    4.38    4.35   102.38731    74.97908    37.72118
   204  C   4.0    0.16    3.49    3.11   102.34670    77.14939    39.62330
   205  O   6.0   -0.33    1.32    1.80   102.96037    76.84179    41.83655
   206  C   4.0   -0.07    4.09    3.79   104.77524    74.89578    36.12878
   207  H   1.0    0.10    1.08    1.44   100.44926    75.33232    34.21923
   208  H   1.0    0.05    1.06    1.44   102.18763    73.24544    38.84619
   209  H   1.0    0.04    1.00    1.43   106.40149    74.53760    37.32425
   210  H   1.0    0.05    1.00    1.43   104.62611    73.38598    34.74419
   211  H   1.0    0.05    1.00    1.43   105.05865    76.68057    35.15229
   212  N   5.0   -0.14    3.55    2.12   101.45943    79.31814    38.71871
   213  C   4.0    0.04    4.54    4.59   101.08000    81.46785    40.35610
   214  C   4.0    0.16    3.59    3.16    99.32994    80.76389    42.51500
   215  O   6.0   -0.33    1.36    1.80    99.80479    81.39232    44.68991
   216  C   4.0   -0.02    4.34    4.28   100.07862    83.74109    38.84230
   217  C   4.0   -0.05    4.21    4.01   102.12936    85.77497    38.81798
   218  C   4.0   -0.07    4.18    3.96    97.53531    84.71281    39.80992
   219  C   4.0   -0.08    4.04    3.69   102.34549    87.20113    41.30300
   220  H   1.0    0.11    1.11    1.45   101.31416    79.61969    36.82840
   221  H   1.0    0.05    1.07    1.44   102.88222    81.96132    41.25538
   222  H   1.0    0.06    1.07    1.44    99.80606    83.10300    36.89394
   223  H   1.0    0.04    1.03    1.43   103.92231    84.87535    38.33129
   224  H   1.0    0.04    1.07    1.44   101.69945    87.12186    37.35460
   225  H   1.0    0.04    1.00    1.43    97.06385    86.49823    38.92201
   226  H   1.0    0.06    1.01    1.43    96.03720    83.38455    39.36841
   227  H   1.0    0.05    1.01    1.43    97.55072    85.01957    41.83741
   228  H   1.0    0.04    1.00    1.43   103.85023    88.59421    41.19794
   229  H   1.0    0.04    1.00    1.43   100.58966    88.17912    41.71526
   230  H   1.0    0.04    1.00    1.43   102.74042    85.92607    42.86232
   231  N   5.0   -0.13    3.57    2.13    97.28013    79.41708    41.91208
   232  C   4.0    0.03    4.40    4.38    95.45957    78.86743    43.88757
   233  C   4.0    0.16    3.52    3.12    96.87891    77.34178    45.90292
   234  O   6.0   -0.32    1.31    1.80    96.71770    77.85940    48.15428
   235  C   4.0    0.03    4.12    3.85    93.05699    77.69504    42.74792
   236  O   6.0   -0.27    2.09    1.84    93.23864    75.16602    42.05195
   237  H   1.0    0.12    1.10    1.44    96.76902    79.23394    40.07383
   238  H   1.0    0.05    1.06    1.44    94.86589    80.62521    44.81994
   239  H   1.0    0.04    1.02    1.43    91.52372    77.79746    44.12718
   240  H   1.0    0.05    1.01    1.43    92.55697    78.87576    41.10821
   241  H   1.0    0.15    1.08    1.44    94.76861    74.89718    41.04687
   242  N   5.0   -0.14    3.52    2.09    98.35393    75.49929    45.00688
   243  C   4.0    0.04    4.51    4.55    99.99652    74.10561    46.69975
   244  C   4.0    0.16    3.54    3.13   101.60863    75.92889    48.25357
   245  O   6.0   -0.32    1.36    1.80   101.88847    75.60354    50.54077
   246  C   4.0   -0.02    4.27    4.14   101.74771    72.22252    45.33688
   247  C   4.0   -0.08    4.14    3.87   103.14100    70.61246    47.28701
   248  C   4.0   -0.08    4.13    3.86   100.28409    70.47503    43.58295
   249  H   1.0    0.11    1.09    1.44    98.56932    75.31423    43.11543
   250  H   1.0    0.04    1.06    1.44    98.80113    73.08893    48.05595
   251  H   1.0    0.06    1.06    1.44   103.11712    73.32109    44.25268
   252  H   1.0    0.04    1.00    1.43   104.38440    69.28541    46.33357
   253  H   1.0    0.05    1.00    1.43   104.26014    71.79086    48.53697
   254  H   1.0    0.04    1.00    1.43   101.79568    69.55574    48.42888
   255  H   1.0    0.04    1.00    1.43   101.59192    69.24620    42.58677
   256  H   1.0    0.03    1.01    1.43    99.03301    69.30303    44.70591
   257  H   1.0    0.06    1.01    1.43    99.18007    71.52848    42.21455
   258  N   5.0   -0.13    3.54    2.11   102.73963    77.79547    47.01048
   259  C   4.0    0.04    4.45    4.47   104.36282    79.54929    48.34681
   260  C   4.0    0.16    3.51    3.12   102.91426    80.65952    50.58622
   261  O   6.0   -0.31    1.27    1.80   103.85496    80.85404    52.69174
   262  C   4.0   -0.04    4.35    4.28   105.34719    81.69025    46.66662
   263  C   4.0   -0.02    4.18    3.95   107.15151    80.80711    44.57590
   264  C   4.0   -0.07    4.10    3.81   108.18974    83.07230    43.11792
   265  C   4.0   -0.06    4.13    3.86   109.34716    79.29981    45.66716
   266  H   1.0    0.12    1.11    1.45   102.69167    77.82786    45.09594
   267  H   1.0    0.06    1.07    1.44   105.96451    78.52164    49.16073
   268  H   1.0    0.05    1.03    1.43   103.74680    82.67090    45.81949
   269  H   1.0    0.04    1.03    1.43   106.34191    83.02349    47.89158
   270  H   1.0    0.06    1.06    1.44   106.11509    79.58974    43.26645
   271  H   1.0    0.05    1.00    1.43   109.48145    82.41796    41.65909
   272  H   1.0    0.04    1.00    1.43   106.69789    84.16568    42.23038
   273  H   1.0    0.05    1.00    1.43   109.23835    84.31015    44.37917
   274  H   1.0    0.05    1.00    1.43   110.83693    79.08150    44.27041
   275  H   1.0    0.05    1.00    1.43   110.12591    80.27377    47.29971
   276  H   1.0    0.05    1.00    1.43   108.74032    77.43965    46.28038
   277  N   5.0   -0.14    3.55    2.11   100.58705    81.46044    50.04443
   278  C   4.0    0.03    4.44    4.45    99.02049    82.64948    51.94325
   279  C   4.0    0.16    3.47    3.10    98.59393    80.80765    54.12046
   280  O   6.0   -0.33    1.29    1.80    98.96929    81.42727    56.32546
   281  C   4.0   -0.05    4.35    4.29    96.46022    83.49454    50.89231
   282  C   4.0   -0.02    4.20    4.00    96.62761    84.94944    48.39525
   283  C   4.0   -0.07    4.11    3.82    94.00873    85.89177    47.65057
   284  C   4.0   -0.07    4.11    3.83    98.50388    87.13129    48.48756
   285  H   1.0    0.11    1.11    1.45    99.90175    81.27027    48.27004
   286  H   1.0    0.05    1.05    1.44   100.04952    84.26598    52.74554
   287  H   1.0    0.05    1.03    1.43    95.27261    81.83524    50.58343
   288  H   1.0    0.04    1.03    1.43    95.55258    84.66538    52.32953
   289  H   1.0    0.06    1.07    1.44    97.25554    83.63620    46.93392
   290  H   1.0    0.06    1.02    1.43    94.13651    86.88945    45.86625
   291  H   1.0    0.04    1.00    1.43    92.69973    84.31706    47.46214
   292  H   1.0    0.05    1.00    1.43    93.25978    87.19899    49.04851
   293  H   1.0    0.04    1.00    1.43    98.40198    88.18949    46.73093
   294  H   1.0    0.04    1.01    1.43    98.06533    88.40245    50.03180
   295  H   1.0    0.04    1.00    1.43   100.41985    86.43749    48.73847
   296  N   5.0   -0.14    3.51    2.08    97.75185    78.53635    53.44750
   297  C   4.0    0.04    4.36    4.30    97.09394    76.61779    55.28972
   298  C   4.0    0.16    3.50    3.11    99.35996    75.84074    56.89819
   299  O   6.0   -0.31    1.36    1.80    99.31414    75.98169    59.20788
   300  C   4.0   -0.08    4.16    3.92    96.12012    74.30661    53.90350
   301  H   1.0    0.11    1.11    1.44    97.48236    78.12441    51.58818
   302  H   1.0    0.05    1.05    1.44    95.67339    77.38585    56.59589
   303  H   1.0    0.04    1.01    1.43    95.80124    72.76329    55.21998
   304  H   1.0    0.04    1.01    1.43    94.37203    74.78992    52.94944
   305  H   1.0    0.05    1.01    1.43    97.50952    73.72681    52.50708
   306  N   5.0   -0.15    3.55    2.11   101.28904    74.87664    55.59453
   307  C   4.0    0.03    4.42    4.41   103.57733    74.05256    56.84773
   308  C   4.0    0.16    3.51    3.12   104.33150    76.04835    58.80502
   309  O   6.0   -0.32    1.26    1.80   105.07135    75.45493    60.91804
   310  C   4.0   -0.05    4.24    4.07   105.67594    73.49637    54.90656
   311  C   4.0   -0.03    4.27    4.14   106.94818    75.90486    53.97375
   312  C   4.0    0.15    3.24    3.04   108.75677    75.80681    51.76184
   313  O   6.0   -0.31    1.35    1.80   110.16763    77.58690    51.35566
   314  N   5.0   -0.19    3.19    1.95   108.60975    73.84144    50.15604
   315  H   1.0    0.11    1.13    1.45   101.34403    75.05345    53.68110
   316  H   1.0    0.05    1.05    1.44   103.16443    72.31551    57.91270
   317  H   1.0    0.04    1.02    1.43   107.05752    72.25374    55.79615
   318  H   1.0    0.04    1.03    1.43   104.78299    72.51245    53.32864
   319  H   1.0    0.07    1.06    1.44   105.48600    77.22438    53.35732
   320  H   1.0    0.05    1.04    1.43   107.96882    76.83631    55.50341
   321  H   1.0    0.08    1.03    1.43   107.68724    72.25540    50.63103
   322  H   1.0    0.09    1.03    1.43   109.91544    73.75881    48.76616
   323  N   5.0   -0.13    3.55    2.11   104.14864    78.43974    58.01544
   324  C   4.0    0.04    4.34    4.28   104.88865    80.54985    59.58083
   325  C   4.0    0.16    3.50    3.11   103.15248    80.74760    61.87659
   326  O   6.0   -0.32    1.36    1.80   104.06478    80.80278    64.01185
   327  C   4.0   -0.07    4.12    3.84   104.86902    82.98267    58.05414
   328  H   1.0    0.11    1.09    1.44   103.54067    78.88161    56.26030
   329  H   1.0    0.05    1.05    1.44   106.78803    80.16514    60.33704
   330  H   1.0    0.04    1.00    1.43   105.54204    84.53594    59.21277
   331  H   1.0    0.06    1.00    1.43   106.06012    82.78712    56.39342
   332  H   1.0    0.06    1.01    1.43   102.96202    83.39352    57.41771
   333  N   5.0   -0.14    3.51    2.09   100.67587    80.83855    61.45810
   334  C   4.0    0.04    4.53    4.58    98.98497    80.94820    63.60764
   335  C   4.0    0.16    3.55    3.14    99.73484    78.87797    65.48491
   336  O   6.0   -0.32    1.30    1.80    99.82578    79.27644    67.76700
   337  C   4.0   -0.02    4.27    4.14    96.18582    80.59437    62.90191
   338  C   4.0   -0.08    4.14    3.88    94.56891    80.90031    65.27397
   339  C   4.0   -0.07    4.13    3.87    95.33339    82.54148    60.96462
   340  H   1.0    0.11    1.10    1.44    99.95079    80.88305    59.68494
   341  H   1.0    0.05    1.05    1.44    99.23117    82.77383    64.57943
   342  H   1.0    0.05    1.05    1.44    95.95942    78.69270    62.12452
   343  H   1.0    0.04    1.00    1.43    92.57262    80.80637    64.80070
   344  H   1.0    0.05    1.00    1.43    94.98241    79.45773    66.67259
   345  H   1.0    0.04    1.00    1.43    94.95220    82.73620    66.11669
   346  H   1.0    0.04    1.00    1.43    93.32560    82.32420    60.58545
   347  H   1.0    0.04    1.02    1.43    95.66547    84.41320    61.72736
   348  H   1.0    0.06    1.02    1.43    96.35398    82.36551    59.19756
   349  N   5.0   -0.14    3.58    2.14   100.12549    76.61044    64.45445
   350  C   4.0    0.04    4.44    4.44   100.52814    74.36614    65.97649
   351  C   4.0    0.16    3.47    3.10   102.82905    74.78415    67.66912
   352  O   6.0   -0.28    1.22    1.80   102.79954    74.30093    69.95075
   353  C   4.0   -0.03    4.32    4.23   100.90826    72.05458    64.27336
   354  C   4.0   -0.00    3.54    3.13    98.71939    71.46637    62.53141
   355  C   4.0   -0.04    3.47    3.10    98.94822    69.44390    60.86080
   356  C   4.0   -0.03    3.53    3.13    96.52516    72.90106    62.43869
   357  C   4.0   -0.04    3.37    3.07    97.05469    68.88652    59.14788
   358  C   4.0   -0.04    3.39    3.08    94.66873    72.40007    60.66511
   359  C   4.0   -0.04    3.38    3.07    94.90272    70.37179    59.03711
   360  H   1.0    0.12    1.12    1.45    99.93441    76.33173    62.56401
   361  H   1.0    0.05    1.05    1.44    98.91095    74.06791    67.24974
   362  H   1.0    0.06    1.03    1.43   102.59210    72.36457    63.11019
   363  H   1.0    0.05    1.03    1.43   101.28566    70.41696    65.47536
   364  H   1.0    0.05    1.03    1.43   100.61567    68.26860    60.93232
   365  H   1.0    0.05    1.04    1.43    96.22202    74.42868    63.75155
   366  H   1.0    0.05    1.03    1.43    97.26863    67.30574    57.87875
   367  H   1.0    0.05    1.03    1.43    93.04685    73.62928    60.55265
   368  H   1.0    0.06    1.03    1.43    93.39671    69.92758    57.73499
   369  N   5.0   -0.14    3.52    2.09   104.85664    75.68847    66.49280
   370  C   4.0    0.04    4.45    4.47   107.17465    76.15336    67.86266
   371  C   4.0    0.16    3.49    3.11   106.84413    78.23686    69.81639
   372  O   6.0   -0.27    1.25    1.80   107.83313    78.06215    71.91637
   373  C   4.0   -0.04    4.38    4.34   109.32053    76.92732    66.09514
   374  C   4.0   -0.02    4.18    3.96   110.30126    74.76000    64.44630
   375  C   4.0   -0.08    4.11    3.83   112.46009    75.74544    62.80795
   376  C   4.0   -0.07    4.12    3.83   111.18081    72.54369    66.06998
   377  H   1.0    0.11    1.09    1.44   104.85582    75.95691    64.59044
   378  H   1.0    0.06    1.06    1.44   107.68204    74.44122    68.91530
   379  H   1.0    0.05    1.03    1.43   108.64248    78.47154    64.90903
   380  H   1.0    0.05    1.03    1.43   110.87577    77.63591    67.25359
   381  H   1.0    0.05    1.06    1.44   108.77306    74.12698    63.20929
   382  H   1.0    0.04    1.01    1.43   113.18867    74.27045    61.59266
   383  H   1.0    0.04    1.00    1.43   111.81720    77.30148    61.63624
   384  H   1.0    0.04    1.00    1.43   114.01322    76.40199    63.97551
   385  H   1.0    0.04    1.00    1.43   112.20142    71.18639    64.92715
   386  H   1.0    0.05    1.00    1.43   112.44033    73.18725    67.56119
   387  H   1.0    0.05    1.00    1.43   109.58310    71.56890    66.91682
   388  N   5.0   -0.14    3.54    2.11   105.57585    80.26939    69.07614
   389  C   4.0    0.04    4.45    4.46   105.27291    82.37284    70.79743
   390  C   4.0    0.16    3.49    3.11   103.84548    81.46874    73.12912
   391  O   6.0   -0.26    1.24    1.80   104.52180    82.04615    75.28341
   392  C   4.0   -0.04    4.34    4.28   103.93273    84.58968    69.52462
   393  C   4.0   -0.02    4.19    3.98   105.37590    85.63989    67.23655
   394  C   4.0   -0.07    4.12    3.83   103.82670    87.72890    65.99287
   395  C   4.0   -0.07    4.11    3.82   107.96718    86.66662    67.96907
   396  H   1.0    0.12    1.11    1.45   104.76142    80.36599    67.34271
   397  H   1.0    0.06    1.06    1.44   107.14583    82.96283    71.47057
   398  H   1.0    0.05    1.03    1.43   102.05808    83.95847    68.93583
   399  H   1.0    0.05    1.03    1.43   103.71065    86.08466    70.92678
   400  H   1.0    0.06    1.07    1.44   105.61828    84.11913    65.86403
   401  H   1.0    0.04    1.00    1.43   104.82579    88.46152    64.35743
   402  H   1.0    0.04    1.00    1.43   102.00542    87.01406    65.36873
   403  H   1.0    0.04    1.00    1.43   103.51864    89.27212    67.31274
   404  H   1.0    0.04    1.00    1.43   108.87130    87.49869    66.32466
   405  H   1.0    0.05    1.00    1.43   107.78730    88.11460    69.41573
   406  H   1.0    0.05    1.00    1.43   109.19046    85.18596    68.69085
   407  N   5.0   -0.14    3.50    2.08   101.85474    79.98703    72.72930
   408  C   4.0    0.05    4.36    4.32   100.48299    79.01331    74.88571
   409  C   4.0    0.11    3.24    3.04   102.16648    77.23084    76.40759
   410  O   6.0   -0.25    1.11    1.80   102.14037    77.24090    78.73305
   411  C   4.0   -0.04    4.34    4.26    98.02868    77.72235    74.09284
   412  C   4.0   -0.02    4.19    3.97    96.20340    79.47238    72.66985
   413  C   4.0   -0.07    4.11    3.81    93.77593    78.04287    72.04865
   414  C   4.0   -0.07    4.11    3.83    95.57479    81.84442    74.17607
   415  H   1.0    0.11    1.10    1.44   101.21989    79.56491    70.96698
   416  H   1.0    0.07    1.06    1.44   100.05896    80.58748    76.17277
   417  H   1.0    0.06    1.03    1.43    98.49470    76.09828    72.90603
   418  H   1.0    0.05    1.03    1.43    97.10225    77.01841    75.79803
   419  H   1.0    0.06    1.06    1.44    97.09816    80.03610    70.89542
   420  H   1.0    0.04    1.00    1.43    92.47164    79.26852    71.04068
   421  H   1.0    0.04    1.00    1.43    94.18088    76.39021    70.89753
   422  H   1.0    0.05    1.00    1.43    92.85404    77.40128    73.77095
   423  H   1.0    0.04    1.00    1.43    94.10007    82.90520    73.22038
   424  H   1.0    0.05    1.00    1.43    94.90335    81.36560    76.05981
   425  H   1.0    0.05    1.00    1.43    97.22353    83.04876    74.37420
   426  N   5.0   -0.20    3.24    1.96   119.75706    79.42719    48.74096
   427  C   4.0    0.03    4.30    4.19   117.24610    79.61023    47.66895
   428  C   4.0    0.08    3.19    3.03   116.95756    82.08443    46.18326
   429  O   6.0   -0.29    1.11    1.80   116.07568    82.06938    44.03759
   430  C   4.0   -0.03    4.11    3.83   115.29976    79.32649    49.76823
   431  S   6.0   -0.03    2.48    3.10   115.03172    76.05215    50.76774
   432  H   1.0    0.08    1.03    1.43   119.89300    79.13629    50.63351
   433  H   1.0    0.05    1.07    1.44   116.97156    78.09159    46.27211
   434  H   1.0    0.05    1.07    1.44   115.80671    80.46209    51.40698
   435  H   1.0    0.06    1.08    1.44   113.42903    79.87962    49.12929
   436  H   1.0    0.05    0.98    1.43   117.39862    75.87176    51.60989
   437  N   5.0   -0.20    3.21    1.96   117.52410    81.58609    30.54884
   438  C   4.0    0.04    4.21    4.02   115.16422    80.87951    29.36283
   439  C   4.0    0.08    3.27    3.05   114.59324    82.87088    27.35475
   440  O   6.0   -0.27    1.17    1.80   114.10026    82.36202    25.15452
   441  C   4.0   -0.04    4.29    4.18   112.94304    80.88209    31.23582
   442  C   4.0    0.05    3.72    3.26   112.60854    78.57985    32.84265
   443  N   5.0   -0.17    2.52    1.90   112.86112    76.16217    31.97537
   444  C   4.0   -0.01    3.61    3.17   111.79285    78.50785    35.30470
   445  C   4.0    0.08    3.64    3.19   112.22774    74.68590    33.85334
   446  N   5.0   -0.12    3.45    2.05   111.55551    76.01578    35.92010
   447  H   1.0    0.09    1.03    1.43   117.43301    81.72095    32.46607
   448  H   1.0    0.06    1.05    1.44   115.31358    79.04021    28.41746
   449  H   1.0    0.04    1.03    1.43   113.10777    82.53801    32.45116
   450  H   1.0    0.05    1.07    1.44   111.22926    81.11047    30.09718
   451  H   1.0    0.05    1.02    1.43   111.35991    79.96900    36.63115
   452  H   1.0    0.06    1.02    1.43   112.30387    72.66584    33.82126
   453  H   1.0    0.07    1.05    1.44   111.03222    75.33598    37.61922
   454  N   5.0   -0.21    3.20    1.95    87.91875    67.09792    30.27090
   455  C   4.0    0.03    4.25    4.10    88.99896    69.16139    31.72295
   456  C   4.0    0.09    3.27    3.05    87.17625    69.80112    33.87706
   457  O   6.0   -0.31    1.17    1.80    87.74625    70.03205    36.09090
   458  C   4.0    0.05    4.21    4.03    89.56269    71.62651    30.23124
   459  O   6.0   -0.24    2.18    1.85    89.57045    73.65405    31.95902
   460  C   4.0   -0.06    4.08    3.76    87.63528    72.29449    28.19429
   461  H   1.0    0.08    1.02    1.43    87.40375    67.34560    28.45023
   462  H   1.0    0.05    1.07    1.44    90.73734    68.47647    32.61217
   463  H   1.0    0.04    1.03    1.43    91.44205    71.43575    29.36873
   464  H   1.0    0.14    1.07    1.44    90.80230    73.24431    33.26000
   465  H   1.0    0.05    1.00    1.43    88.31493    73.92992    27.15754
   466  H   1.0    0.04    1.00    1.43    87.34209    70.78362    26.83834
   467  H   1.0    0.05    1.00    1.43    85.86225    72.84269    29.07077
   468  N   5.0   -0.19    3.26    1.97    87.89428    65.46664    38.73744
   469  C   4.0    0.03    4.40    4.38    89.92076    66.23527    40.41765
   470  C   4.0    0.15    3.51    3.12    88.78646    67.71204    42.61668
   471  O   6.0   -0.32    1.30    1.80    89.41796    67.31675    44.80678
   472  C   4.0   -0.02    4.35    4.29    91.97772    67.73918    38.99720
   473  C   4.0   -0.06    4.18    3.96    94.58377    66.51459    39.33155
   474  C   4.0   -0.06    4.24    4.08    92.05525    70.52787    39.76769
   475  C   4.0   -0.08    4.06    3.72    95.55484    66.81369    42.01935
   476  H   1.0    0.09    1.03    1.43    88.20217    65.50911    36.84654
   477  H   1.0    0.04    1.06    1.44    90.74274    64.53099    41.24946
   478  H   1.0    0.05    1.07    1.44    91.45055    67.62482    37.00302
   479  H   1.0    0.04    1.02    1.43    94.46017    64.53038    38.79497
   480  H   1.0    0.03    1.03    1.43    95.93037    67.43631    38.07440
   481  H   1.0    0.05    1.01    1.43    93.82271    71.39483    39.20033
   482  H   1.0    0.07    1.01    1.43    90.51628    71.56969    38.90416
   483  H   1.0    0.05    1.02    1.43    91.92194    70.77837    41.79648
   484  H   1.0    0.03    1.00    1.43    97.41054    65.96865    42.23052
   485  H   1.0    0.04    1.01    1.43    95.67196    68.80739    42.46246
   486  H   1.0    0.05    1.00    1.43    94.28715    65.96763    43.38937
   487  N   5.0   -0.14    3.49    2.07    87.08725    69.47728    41.98633
   488  C   4.0    0.04    4.28    4.16    86.11278    71.15248    43.92669
   489  C   4.0    0.11    3.26    3.05    84.85912    69.54020    45.97437
   490  O   6.0   -0.29    1.11    1.80    85.13302    69.96642    48.24073
   491  C   4.0    0.03    4.12    3.83    84.35621    73.21071    42.84357
   492  O   6.0   -0.24    2.03    1.83    81.86865    72.48236    42.38130
   493  H   1.0    0.10    1.08    1.44    86.78719    69.83021    40.13106
   494  H   1.0    0.05    1.05    1.44    87.69520    72.14121    44.83923
   495  H   1.0    0.05    1.02    1.43    84.23999    74.74106    44.22709
   496  H   1.0    0.05    1.01    1.43    85.25672    73.94647    41.11792
   497  H   1.0    0.12    1.02    1.43    81.85685    71.10109    41.15256
   498  N   5.0   -0.19    3.23    1.96    89.72819    66.57555    50.29841
   499  C   4.0    0.03    4.25    4.10    90.58989    68.39414    52.14511
   500  C   4.0    0.09    3.24    3.04    88.74048    68.61528    54.32649
   501  O   6.0   -0.32    1.18    1.80    89.42310    68.45927    56.53511
   502  C   4.0   -0.04    4.41    4.39    90.77800    71.01763    50.97462
   503  C   4.0   -0.02    4.22    4.04    92.31382    71.08931    48.53876
   504  C   4.0   -0.07    4.15    3.90    92.51888    73.83745    47.74393
   505  C   4.0   -0.08    4.12    3.84    94.89501    69.86182    48.82907
   506  H   1.0    0.12    1.06    1.44    89.45774    67.19340    48.50629
   507  H   1.0    0.04    1.05    1.44    92.41821    67.79913    52.93086
   508  H   1.0    0.06    1.03    1.43    88.87964    71.70442    50.55730
   509  H   1.0    0.04    1.03    1.43    91.60415    72.28238    52.37480
   510  H   1.0    0.06    1.08    1.44    91.27464    70.08473    47.06700
   511  H   1.0    0.06    1.03    1.43    93.49091    73.99754    45.95186
   512  H   1.0    0.04    1.00    1.43    90.63633    74.64707    47.56292
   513  H   1.0    0.05    1.01    1.43    93.55332    74.93119    49.13597
   514  H   1.0    0.04    1.01    1.43    95.96502    70.16034    47.10905
   515  H   1.0    0.04    1.00    1.43    95.90846    70.69359    50.40575
   516  H   1.0    0.04    1.00    1.43    94.71304    67.84497    49.15744
   517  N   5.0   -0.20    3.20    1.96    89.52219    66.51413    61.49456
   518  C   4.0    0.03    4.28    4.17    89.34145    68.14855    63.69674
   519  C   4.0    0.08    3.22    3.04    87.38729    67.07165    65.53352
   520  O   6.0   -0.27    1.11    1.80    87.82773    66.98636    67.81394
   521  C   4.0   -0.02    4.24    4.07    88.88825    70.94554    63.01084
   522  C   4.0   -0.07    4.12    3.84    86.12157    71.73405    62.88329
   523  C   4.0   -0.08    4.13    3.86    90.21741    72.60211    64.96620
   524  H   1.0    0.12    1.07    1.44    89.43699    67.30981    59.74887
   525  H   1.0    0.05    1.06    1.44    91.14442    68.04705    64.73563
   526  H   1.0    0.05    1.06    1.44    89.74016    71.23514    61.15073
   527  H   1.0    0.04    1.00    1.43    86.00034    73.68733    62.25953
   528  H   1.0    0.05    1.00    1.43    85.04612    70.56264    61.59318
   529  H   1.0    0.05    1.00    1.43    85.28091    71.63123    64.75660
   530  H   1.0    0.04    1.00    1.43    89.98969    74.59391    64.51817
   531  H   1.0    0.05    1.00    1.43    89.39595    72.25668    66.81884
   532  H   1.0    0.04    1.00    1.43    92.22172    72.17535    65.06781
   533  H   1.0    0.09    1.07    1.44    91.40306    92.16238    33.08928
   534  H   1.0    0.06    1.05    1.44    95.94635    95.19283    36.38740
   535  H   1.0    0.10    1.07    1.44    89.66593    95.15845    42.16173
   536  H   1.0    0.06    1.04    1.43    95.12053    98.12121    47.61462
   537  H   1.0    0.10    1.07    1.44    90.75260    93.10082    53.66524
   538  H   1.0    0.07    1.05    1.44    96.49397    95.40324    56.16989
   539  H   1.0    0.10    1.07    1.44    93.33587    93.38259    64.73915
   540  H   1.0    0.06    1.05    1.44    97.03235    98.17579    67.10642
   541  H   1.0    0.09    1.07    1.44   109.70739    60.09478    58.65327
   542  H   1.0    0.06    1.05    1.44   115.40701    61.75868    56.53070
   543  H   1.0    0.09    1.07    1.44   110.44979    59.62656    50.11982
   544  H   1.0    0.07    1.04    1.44   113.42500    64.89706    48.72202
   545  H   1.0    0.10    1.07    1.44   111.58493    64.16442    41.00325
   546  H   1.0    0.06    1.05    1.44   116.34052    67.05790    38.51520
   547  H   1.0    0.10    1.07    1.44   113.02938    61.13758    32.66595
   548  H   1.0    0.06    1.04    1.43   113.09258    66.86421    30.19946
   549  H   1.0    0.09    1.07    1.44    99.74985    71.66874    23.07071
   550  H   1.0    0.08    1.05    1.44   103.31754    76.02658    75.51546
   551  H   1.0    0.10    1.07    1.44   120.58625    78.12589    48.02570
   552  H   1.0    0.06    1.04    1.43   117.48934    83.72189    46.96235
   553  H   1.0    0.10    1.07    1.44   118.71192    80.42407    30.18639
   554  H   1.0    0.06    1.05    1.44   114.61025    84.70465    27.81089
   555  H   1.0    0.09    1.07    1.44    89.03031    65.81279    30.19715
   556  H   1.0    0.06    1.05    1.44    85.34091    70.06735    33.51415
   557  H   1.0    0.10    1.07    1.44    87.46329    63.85493    39.06792
   558  H   1.0    0.07    1.05    1.44    83.76843    68.07566    45.48797
   559  H   1.0    0.10    1.07    1.44    90.86233    65.31455    50.17133
   560  H   1.0    0.07    1.05    1.44    86.90367    68.89686    53.98311
   561  H   1.0    0.10    1.07    1.44    91.00902    65.68876    61.52063
   562  H   1.0    0.06    1.04    1.44    85.73345    66.42860    64.88363

  Z AO/shell   Hii/eV     exponent
  1     Wed Apr 25 08:07:45 CEST 2018   EN: 2.200 GM2: 0.406  GM3: 0.0800  RAES: 1.40
     1s    -10.707211    1.230000
  6     Wed Apr 25 08:07:45 CEST 2018   EN: 2.550 GM2: 0.538  GM3: 0.1500  RAES: 3.00
     2s    -13.970922    2.096432
     2p    -10.063292    1.800000
  7     Wed Apr 25 08:07:45 CEST 2018   EN: 3.040 GM2: 0.461  GM3:-0.0640  RAES: 1.90
     2s    -16.686243    2.339881
     2p    -12.523956    2.014332
  8     Wed Apr 25 08:07:45 CEST 2018   EN: 3.440 GM2: 0.452  GM3:-0.0517  RAES: 1.80
     2s    -20.229985    2.439742
     2p    -15.503117    2.137023
 16     Tue Apr 24 11:44:34 CEST 2018   EN: 2.580 GM2: 0.340  GM3:-0.0502  RAES: 3.10
     3s    -20.029654    1.981333
     3p    -11.377694    2.025643
     3d     -0.420282    1.702555
 no old-style atom pair restraining (fixing) potential

molecular fragmentation (1/2 indicates fragments):
111111111111111111122222222222222222222222222222222222222222222222222222
222222222222222222222222222222222222222222222222222222222222222222222222
222222222222222222222222222222222222222222222222222222222222222222222222
222222222222222222222222222222222222222222222222222222222222222222222222
222222222222222222222222222222222222222222222222222222222222222222222222
222222222222222222222222222222222222222222222222222222222222222222222222
222222222222222222222222222222222222222222222222222222222222222222222222
2222222222222222222222222222112222222222222222222222222222
# atoms in fragment 1/2:    21   541
 fragment masses (1/2) :      115.17     3470.50
CMA distance (Bohr)    :  20.448
constraining FC (au)   :  0.0500
           ------------------------------------------------- 
          |        Self-Consistent Charge Iterations        |
           ------------------------------------------------- 

 Ncao       : 1321
 Nao        : 1319
 Nshell     : 813
 Nel        : 1432
 T(el)      :   500.0
 intcut     :    35.0
 scfconv/Eh :  0.100E-06
   qconv/e  :  0.100E-04
 intneglect :  0.100E-08
 broydamp   :      0.400
 iter      E             dE          RMSdq      gap      omega  full diag
   1   -811.5767345 -0.811577E+03  0.437E+00    2.72       0.0  T
   2   -813.2908713 -0.171414E+01  0.206E+00    1.66       1.0  T
   3   -813.3909761 -0.100105E+00  0.119E+00    1.97       1.0  T
   4   -813.5271021 -0.136126E+00  0.227E-01    1.39       1.0  T
   5   -813.5330440 -0.594194E-02  0.104E-01    1.53       1.0  T
   6   -813.5341629 -0.111883E-02  0.454E-02    1.50       1.0  T
   7   -813.5344428 -0.279901E-03  0.221E-02    1.49       1.0  T
   8   -813.5344970 -0.542389E-04  0.103E-02    1.49       1.0  T
   9   -813.5345106 -0.135561E-04  0.537E-03    1.49       1.0  T
  10   -813.5345139 -0.336533E-05  0.249E-03    1.48       1.7  T
  11   -813.5345145 -0.570791E-06  0.127E-03    1.48       3.3  T
  12   -813.5345147 -0.175399E-06  0.578E-04    1.48       7.3  T
  13   -813.5345147 -0.555019E-07  0.277E-04    1.48      15.2  T
  14   -813.5345147 -0.590910E-08  0.115E-04    1.48      36.7  T
  15   -813.5345147 -0.149907E-08  0.486E-05    1.48      86.9  T
  16   -813.5345147 -0.238060E-09  0.219E-05    1.48     193.0  T
speedup  1.00
cpu  time for SCC   14.20 s
wall time for SCC   14.20 s

   *** convergence criteria satisfied after 16 iterations ***

          eigenvalues
 #    :         704        705        706        707        708        709        710        711
 occ. :        2.000      2.000      2.000      2.000      2.000      2.000      2.000      2.000
 eps  :       -10.067    -10.063    -10.040    -10.002     -9.942     -9.921     -9.873     -9.814
 #    :         712        713        714        715        716        717        718        719
 occ. :        2.000      2.000      2.000      2.000      2.000      0.000      0.000      0.000
 eps  :        -9.669     -9.638     -9.593     -9.585     -9.563     -8.081     -7.969     -7.742
 #    :         720        721        722        723        724        725        726        727
 occ. :        0.000      0.000      0.000      0.000      0.000      0.000      0.000      0.000
 eps  :        -7.701     -7.690     -7.684     -7.668     -7.598     -7.596     -7.585     -7.561


   #   Z            q   n(s)   n(p)   n(d)      C6AA      α(0)
   1   7 N     -0.395  1.315  4.081  0.000    30.244     8.168
   2   6 C      0.039  1.055  2.906  0.000    19.941     6.361
   3   6 C      0.200  1.095  2.705  0.000    23.749     7.981
   4   8 O     -0.372  1.745  4.626  0.000    21.124     6.162
   5   6 C     -0.076  1.066  3.010  0.000    21.940     6.667
   6   6 C     -0.023  1.058  2.965  0.000    20.945     6.510
   7   6 C     -0.122  1.043  3.079  0.000    22.895     6.822
   8   6 C     -0.123  1.041  3.082  0.000    22.914     6.825
   9   1 H      0.174  0.826  0.000  0.000     1.246     1.749
  10   1 H      0.045  0.955  0.000  0.000     2.378     2.411
  11   1 H      0.058  0.942  0.000  0.000     2.227     2.334
  12   1 H      0.061  0.939  0.000  0.000     2.190     2.314
  13   1 H      0.044  0.956  0.000  0.000     2.402     2.424
  14   1 H      0.046  0.954  0.000  0.000     2.369     2.407
  15   1 H      0.042  0.958  0.000  0.000     2.418     2.432
  16   1 H      0.047  0.953  0.000  0.000     2.363     2.404
  17   1 H      0.055  0.945  0.000  0.000     2.256     2.349
  18   1 H      0.042  0.958  0.000  0.000     2.421     2.433
  19   1 H      0.036  0.964  0.000  0.000     2.506     2.475
  20   7 N     -0.390  1.307  4.083  0.000    30.093     8.147
  21   6 C      0.020  1.063  2.917  0.000    20.257     6.411
  22   6 C      0.276  1.044  2.680  0.000    22.327     7.738
  23   8 O     -0.502  1.750  4.752  0.000    23.824     6.544
  24   6 C      0.077  1.039  2.885  0.000    19.516     6.329
  25   8 O     -0.473  1.715  4.758  0.000    22.318     6.377
  26   1 H      0.164  0.836  0.000  0.000     1.309     1.792
  27   1 H      0.026  0.974  0.000  0.000     2.649     2.545
  28   1 H      0.045  0.955  0.000  0.000     2.381     2.413
  29   1 H      0.034  0.966  0.000  0.000     2.529     2.487
  30   1 H      0.334  0.666  0.000  0.000     0.627     1.244
  31   7 N     -0.164  1.242  3.921  0.000    24.541     7.357
  32   6 C      0.032  1.055  2.913  0.000    20.039     6.374
  33   6 C      0.200  1.085  2.715  0.000    23.745     7.981
  34   8 O     -0.358  1.763  4.595  0.000    20.865     6.124
  35   6 C     -0.137  1.043  3.094  0.000    23.185     6.865
  36   1 H      0.238  0.762  0.000  0.000     0.931     1.511
  37   1 H      0.078  0.922  0.000  0.000     2.001     2.212
  38   1 H      0.070  0.930  0.000  0.000     2.088     2.260
  39   1 H      0.086  0.914  0.000  0.000     1.919     2.166
  40   1 H      0.076  0.924  0.000  0.000     2.019     2.222
  41   7 N     -0.396  1.316  4.080  0.000    30.270     8.171
  42   6 C      0.050  1.051  2.899  0.000    19.749     6.331
  43   6 C      0.200  1.097  2.703  0.000    23.746     7.980
  44   8 O     -0.371  1.746  4.626  0.000    21.112     6.160
  45   6 C     -0.113  1.041  3.072  0.000    22.712     6.795
  46   1 H      0.186  0.814  0.000  0.000     1.180     1.702
  47   1 H      0.034  0.966  0.000  0.000     2.529     2.487
  48   1 H      0.040  0.960  0.000  0.000     2.452     2.449
  49   1 H      0.059  0.941  0.000  0.000     2.210     2.325
  50   1 H      0.061  0.939  0.000  0.000     2.182     2.310
  51   7 N     -0.406  1.319  4.087  0.000    30.532     8.206
  52   6 C      0.045  1.054  2.901  0.000    19.833     6.344
  53   6 C      0.201  1.094  2.705  0.000    23.725     7.977
  54   8 O     -0.390  1.762  4.628  0.000    21.478     6.214
  55   6 C     -0.073  1.056  3.017  0.000    21.881     6.659
  56   6 C      0.018  1.084  2.898  0.000    27.614     8.619
  57   6 C     -0.044  1.082  2.962  0.000    29.081     8.844
  58   6 C     -0.038  1.080  2.957  0.000    28.940     8.822
  59   6 C     -0.037  1.079  2.957  0.000    28.911     8.817
  60   6 C     -0.038  1.080  2.958  0.000    28.949     8.823
  61   6 C     -0.040  1.079  2.962  0.000    28.996     8.830
  62   1 H      0.206  0.794  0.000  0.000     1.077     1.626
  63   1 H      0.038  0.962  0.000  0.000     2.475     2.460
  64   1 H      0.067  0.933  0.000  0.000     2.117     2.276
  65   1 H      0.046  0.954  0.000  0.000     2.372     2.408
  66   1 H      0.035  0.965  0.000  0.000     2.521     2.483
  67   1 H      0.046  0.954  0.000  0.000     2.366     2.405
  68   1 H      0.033  0.967  0.000  0.000     2.541     2.493
  69   1 H      0.040  0.960  0.000  0.000     2.447     2.446
  70   1 H      0.035  0.965  0.000  0.000     2.523     2.484
  71   7 N     -0.394  1.320  4.074  0.000    30.212     8.163
  72   6 C      0.030  1.058  2.912  0.000    20.080     6.382
  73   6 C      0.199  1.088  2.714  0.000    23.767     7.984
  74   8 O     -0.366  1.751  4.615  0.000    21.016     6.146
  75   6 C     -0.020  1.067  2.953  0.000    20.897     6.501
  76   6 C     -0.062  1.050  3.011  0.000    21.676     6.628
  77   6 C     -0.116  1.036  3.080  0.000    22.769     6.803
  78   6 C     -0.108  1.038  3.070  0.000    22.630     6.784
  79   1 H      0.160  0.840  0.000  0.000     1.338     1.812
  80   1 H      0.060  0.940  0.000  0.000     2.198     2.319
  81   1 H      0.045  0.955  0.000  0.000     2.388     2.417
  82   1 H      0.039  0.961  0.000  0.000     2.464     2.455
  83   1 H      0.041  0.959  0.000  0.000     2.442     2.444
  84   1 H      0.043  0.957  0.000  0.000     2.403     2.424
  85   1 H      0.048  0.952  0.000  0.000     2.344     2.394
  86   1 H      0.038  0.962  0.000  0.000     2.481     2.463
  87   1 H      0.036  0.964  0.000  0.000     2.502     2.474
  88   1 H      0.040  0.960  0.000  0.000     2.444     2.445
  89   1 H      0.039  0.961  0.000  0.000     2.464     2.455
  90   7 N     -0.385  1.308  4.077  0.000    29.968     8.130
  91   6 C      0.044  1.056  2.901  0.000    19.863     6.349
  92   6 C      0.193  1.096  2.712  0.000    23.881     8.004
  93   8 O     -0.365  1.738  4.628  0.000    21.001     6.144
  94   6 C     -0.070  1.058  3.012  0.000    21.829     6.650
  95   6 C     -0.008  1.054  2.954  0.000    20.678     6.468
  96   6 C     -0.119  1.042  3.077  0.000    22.835     6.813
  97   6 C     -0.120  1.040  3.080  0.000    22.849     6.815
  98   1 H      0.148  0.852  0.000  0.000     1.413     1.862
  99   1 H      0.054  0.946  0.000  0.000     2.270     2.356
 100   1 H      0.047  0.953  0.000  0.000     2.355     2.400
 101   1 H      0.054  0.946  0.000  0.000     2.267     2.355
 102   1 H      0.028  0.972  0.000  0.000     2.615     2.529
 103   1 H      0.039  0.961  0.000  0.000     2.464     2.455
 104   1 H      0.035  0.965  0.000  0.000     2.519     2.482
 105   1 H      0.051  0.949  0.000  0.000     2.309     2.376
 106   1 H      0.040  0.960  0.000  0.000     2.450     2.448
 107   1 H      0.051  0.949  0.000  0.000     2.302     2.373
 108   1 H      0.046  0.954  0.000  0.000     2.371     2.408
 109   7 N     -0.407  1.321  4.086  0.000    30.564     8.211
 110   6 C      0.045  1.053  2.901  0.000    19.833     6.344
 111   6 C      0.197  1.096  2.707  0.000    23.803     7.990
 112   8 O     -0.384  1.755  4.628  0.000    21.355     6.196
 113   6 C     -0.117  1.041  3.076  0.000    22.797     6.807
 114   1 H      0.185  0.815  0.000  0.000     1.186     1.706
 115   1 H      0.063  0.937  0.000  0.000     2.164     2.301
 116   1 H      0.050  0.950  0.000  0.000     2.319     2.381
 117   1 H      0.078  0.922  0.000  0.000     2.003     2.213
 118   1 H      0.041  0.959  0.000  0.000     2.442     2.444
 119   7 N     -0.398  1.335  4.063  0.000    30.305     8.176
 120   6 C      0.037  1.056  2.907  0.000    19.978     6.367
 121   6 C      0.198  1.093  2.709  0.000    23.783     7.987
 122   8 O     -0.391  1.758  4.633  0.000    21.503     6.217
 123   6 C     -0.072  1.062  3.010  0.000    21.867     6.656
 124   6 C     -0.024  1.064  2.960  0.000    20.968     6.513
 125   6 C     -0.129  1.040  3.089  0.000    23.028     6.842
 126   6 C     -0.133  1.045  3.088  0.000    23.101     6.852
 127   1 H      0.163  0.837  0.000  0.000     1.315     1.796
 128   1 H      0.059  0.941  0.000  0.000     2.209     2.324
 129   1 H      0.052  0.948  0.000  0.000     2.299     2.371
 130   1 H      0.047  0.953  0.000  0.000     2.353     2.399
 131   1 H      0.052  0.948  0.000  0.000     2.291     2.367
 132   1 H      0.065  0.935  0.000  0.000     2.139     2.287
 133   1 H      0.041  0.959  0.000  0.000     2.429     2.437
 134   1 H      0.037  0.963  0.000  0.000     2.483     2.464
 135   1 H      0.071  0.929  0.000  0.000     2.073     2.251
 136   1 H      0.040  0.960  0.000  0.000     2.445     2.445
 137   1 H      0.048  0.952  0.000  0.000     2.342     2.393
 138   7 N     -0.395  1.317  4.078  0.000    30.232     8.166
 139   6 C      0.020  1.062  2.917  0.000    20.249     6.410
 140   6 C      0.263  1.054  2.683  0.000    22.574     7.781
 141   8 O     -0.459  1.727  4.731  0.000    22.889     6.414
 142   6 C     -0.079  1.055  3.024  0.000    22.007     6.679
 143   6 C     -0.089  1.052  3.037  0.000    22.187     6.706
 144   6 C     -0.098  1.058  3.040  0.000    22.371     6.734
 145   6 C     -0.060  1.064  2.996  0.000    21.744     6.656
 146   7 N     -0.142  1.228  3.914  0.000    24.063     7.286
 147   1 H      0.160  0.840  0.000  0.000     1.334     1.809
 148   1 H      0.051  0.949  0.000  0.000     2.302     2.373
 149   1 H      0.048  0.952  0.000  0.000     2.348     2.396
 150   1 H      0.048  0.952  0.000  0.000     2.344     2.394
 151   1 H      0.051  0.949  0.000  0.000     2.310     2.377
 152   1 H      0.080  0.920  0.000  0.000     1.981     2.201
 153   1 H      0.080  0.920  0.000  0.000     1.981     2.201
 154   1 H      0.081  0.919  0.000  0.000     1.972     2.196
 155   1 H      0.119  0.881  0.000  0.000     1.620     1.990
 156   1 H      0.121  0.879  0.000  0.000     1.604     1.980
 157   1 H      0.277  0.723  0.000  0.000     0.786     1.389
 158   1 H      0.303  0.697  0.000  0.000     0.705     1.315
 159   1 H      0.293  0.707  0.000  0.000     0.734     1.343
 160   7 N     -0.185  1.249  3.935  0.000    24.999     7.426
 161   6 C      0.006  1.063  2.931  0.000    20.468     6.441
 162   6 C      0.265  1.045  2.691  0.000    22.536     7.774
 163   8 O     -0.472  1.737  4.735  0.000    23.175     6.454
 164   6 C     -0.073  1.052  3.021  0.000    21.875     6.655
 165   6 C     -0.022  1.066  2.955  0.000    20.971     6.521
 166  16 S     -0.243  1.939  4.239  0.065   151.475    20.715
 167   6 C     -0.062  1.054  3.008  0.000    21.759     6.654
 168   1 H      0.214  0.786  0.000  0.000     1.039     1.597
 169   1 H      0.103  0.897  0.000  0.000     1.761     2.076
 170   1 H      0.068  0.932  0.000  0.000     2.113     2.273
 171   1 H      0.077  0.923  0.000  0.000     2.011     2.218
 172   1 H      0.073  0.927  0.000  0.000     2.056     2.242
 173   1 H      0.064  0.936  0.000  0.000     2.152     2.294
 174   1 H      0.052  0.948  0.000  0.000     2.301     2.372
 175   1 H      0.070  0.930  0.000  0.000     2.089     2.260
 176   1 H      0.061  0.939  0.000  0.000     2.192     2.315
 177   7 N     -0.171  1.241  3.931  0.000    24.705     7.382
 178   6 C      0.011  1.062  2.927  0.000    20.395     6.430
 179   6 C      0.276  1.041  2.683  0.000    22.333     7.739
 180   8 O     -0.468  1.738  4.730  0.000    23.089     6.442
 181   6 C      0.064  1.039  2.896  0.000    19.715     6.360
 182   8 O     -0.471  1.704  4.767  0.000    22.270     6.370
 183   1 H      0.228  0.772  0.000  0.000     0.973     1.545
 184   1 H      0.091  0.909  0.000  0.000     1.865     2.136
 185   1 H      0.053  0.947  0.000  0.000     2.281     2.362
 186   1 H      0.062  0.938  0.000  0.000     2.180     2.309
 187   1 H      0.350  0.650  0.000  0.000     0.588     1.204
 188   7 N     -0.188  1.256  3.932  0.000    25.078     7.438
 189   6 C     -0.005  1.071  2.934  0.000    20.676     6.475
 190   6 C      0.271  1.041  2.688  0.000    22.419     7.754
 191   8 O     -0.492  1.739  4.753  0.000    23.597     6.513
 192   6 C      0.096  1.054  2.850  0.000    19.090     6.238
 193   8 O     -0.465  1.712  4.753  0.000    22.154     6.354
 194   6 C     -0.173  1.052  3.122  0.000    23.939     6.977
 195   1 H      0.227  0.773  0.000  0.000     0.978     1.549
 196   1 H      0.086  0.914  0.000  0.000     1.918     2.166
 197   1 H      0.066  0.934  0.000  0.000     2.129     2.282
 198   1 H      0.338  0.662  0.000  0.000     0.618     1.234
 199   1 H      0.098  0.902  0.000  0.000     1.803     2.100
 200   1 H      0.098  0.902  0.000  0.000     1.807     2.102
 201   1 H      0.054  0.946  0.000  0.000     2.271     2.356
 202   7 N     -0.166  1.245  3.921  0.000    24.594     7.365
 203   6 C      0.014  1.062  2.924  0.000    20.340     6.420
 204   6 C      0.273  1.040  2.687  0.000    22.384     7.748
 205   8 O     -0.491  1.740  4.751  0.000    23.580     6.511
 206   6 C     -0.135  1.041  3.094  0.000    23.161     6.862
 207   1 H      0.230  0.770  0.000  0.000     0.966     1.540
 208   1 H      0.101  0.899  0.000  0.000     1.779     2.086
 209   1 H      0.070  0.930  0.000  0.000     2.083     2.257
 210   1 H      0.091  0.909  0.000  0.000     1.871     2.139
 211   1 H      0.063  0.937  0.000  0.000     2.168     2.303
 212   7 N     -0.188  1.255  3.932  0.000    25.068     7.436
 213   6 C      0.018  1.062  2.919  0.000    20.263     6.408
 214   6 C      0.286  1.039  2.675  0.000    22.153     7.708
 215   8 O     -0.492  1.743  4.749  0.000    23.615     6.515
 216   6 C     -0.028  1.068  2.960  0.000    21.032     6.523
 217   6 C     -0.080  1.051  3.029  0.000    22.030     6.681
 218   6 C     -0.125  1.039  3.087  0.000    22.966     6.834
 219   6 C     -0.112  1.035  3.077  0.000    22.700     6.794
 220   1 H      0.234  0.766  0.000  0.000     0.947     1.525
 221   1 H      0.071  0.929  0.000  0.000     2.076     2.253
 222   1 H      0.065  0.935  0.000  0.000     2.147     2.291
 223   1 H      0.035  0.965  0.000  0.000     2.521     2.483
 224   1 H      0.074  0.926  0.000  0.000     2.039     2.233
 225   1 H      0.058  0.942  0.000  0.000     2.223     2.331
 226   1 H      0.055  0.945  0.000  0.000     2.261     2.351
 227   1 H      0.042  0.958  0.000  0.000     2.426     2.436
 228   1 H      0.038  0.962  0.000  0.000     2.470     2.458
 229   1 H      0.046  0.954  0.000  0.000     2.372     2.408
 230   1 H      0.028  0.972  0.000  0.000     2.621     2.532
 231   7 N     -0.196  1.256  3.940  0.000    25.262     7.465
 232   6 C      0.011  1.065  2.924  0.000    20.399     6.430
 233   6 C      0.284  1.039  2.677  0.000    22.185     7.713
 234   8 O     -0.496  1.740  4.756  0.000    23.699     6.527
 235   6 C      0.069  1.038  2.894  0.000    19.651     6.352
 236   8 O     -0.469  1.711  4.758  0.000    22.230     6.365
 237   1 H      0.234  0.766  0.000  0.000     0.947     1.525
 238   1 H      0.062  0.938  0.000  0.000     2.172     2.305
 239   1 H      0.057  0.943  0.000  0.000     2.236     2.338
 240   1 H      0.044  0.956  0.000  0.000     2.393     2.419
 241   1 H      0.337  0.663  0.000  0.000     0.619     1.236
 242   7 N     -0.175  1.245  3.930  0.000    24.799     7.396
 243   6 C      0.016  1.065  2.919  0.000    20.303     6.415
 244   6 C      0.277  1.044  2.679  0.000    22.318     7.737
 245   8 O     -0.515  1.736  4.779  0.000    24.119     6.585
 246   6 C     -0.030  1.062  2.968  0.000    21.068     6.528
 247   6 C     -0.124  1.041  3.083  0.000    22.929     6.827
 248   6 C     -0.136  1.044  3.091  0.000    23.163     6.861
 249   1 H      0.228  0.772  0.000  0.000     0.973     1.546
 250   1 H      0.076  0.924  0.000  0.000     2.022     2.224
 251   1 H      0.063  0.937  0.000  0.000     2.163     2.300
 252   1 H      0.067  0.933  0.000  0.000     2.122     2.278
 253   1 H      0.029  0.971  0.000  0.000     2.603     2.523
 254   1 H      0.050  0.950  0.000  0.000     2.325     2.385
 255   1 H      0.071  0.929  0.000  0.000     2.072     2.251
 256   1 H      0.059  0.941  0.000  0.000     2.206     2.323
 257   1 H      0.060  0.940  0.000  0.000     2.196     2.317
 258   7 N     -0.185  1.254  3.932  0.000    25.017     7.428
 259   6 C      0.031  1.056  2.912  0.000    20.047     6.374
 260   6 C      0.279  1.042  2.679  0.000    22.279     7.730
 261   8 O     -0.514  1.746  4.767  0.000    24.092     6.581
 262   6 C     -0.071  1.056  3.015  0.000    21.858     6.655
 263   6 C     -0.013  1.057  2.956  0.000    20.770     6.482
 264   6 C     -0.115  1.041  3.074  0.000    22.758     6.801
 265   6 C     -0.109  1.038  3.071  0.000    22.638     6.783
 266   1 H      0.240  0.760  0.000  0.000     0.923     1.505
 267   1 H      0.062  0.938  0.000  0.000     2.181     2.310
 268   1 H      0.061  0.939  0.000  0.000     2.192     2.315
 269   1 H      0.037  0.963  0.000  0.000     2.495     2.470
 270   1 H      0.048  0.952  0.000  0.000     2.345     2.395
 271   1 H      0.046  0.954  0.000  0.000     2.366     2.406
 272   1 H      0.047  0.953  0.000  0.000     2.358     2.401
 273   1 H      0.033  0.967  0.000  0.000     2.538     2.491
 274   1 H      0.046  0.954  0.000  0.000     2.367     2.406
 275   1 H      0.029  0.971  0.000  0.000     2.606     2.524
 276   1 H      0.038  0.962  0.000  0.000     2.477     2.461
 277   7 N     -0.188  1.249  3.939  0.000    25.068     7.436
 278   6 C      0.033  1.057  2.911  0.000    20.027     6.372
 279   6 C      0.275  1.043  2.682  0.000    22.353     7.742
 280   8 O     -0.505  1.738  4.767  0.000    23.889     6.553
 281   6 C     -0.076  1.059  3.018  0.000    21.950     6.669
 282   6 C     -0.013  1.056  2.957  0.000    20.773     6.483
 283   6 C     -0.118  1.040  3.077  0.000    22.806     6.809
 284   6 C     -0.119  1.037  3.081  0.000    22.833     6.813
 285   1 H      0.239  0.761  0.000  0.000     0.927     1.508
 286   1 H      0.058  0.942  0.000  0.000     2.223     2.332
 287   1 H      0.054  0.946  0.000  0.000     2.267     2.355
 288   1 H      0.046  0.954  0.000  0.000     2.364     2.405
 289   1 H      0.050  0.950  0.000  0.000     2.319     2.381
 290   1 H      0.067  0.933  0.000  0.000     2.121     2.278
 291   1 H      0.029  0.971  0.000  0.000     2.603     2.523
 292   1 H      0.031  0.969  0.000  0.000     2.568     2.506
 293   1 H      0.051  0.949  0.000  0.000     2.309     2.376
 294   1 H      0.040  0.960  0.000  0.000     2.446     2.446
 295   1 H      0.032  0.968  0.000  0.000     2.558     2.501
 296   7 N     -0.189  1.253  3.935  0.000    25.091     7.439
 297   6 C      0.028  1.056  2.916  0.000    20.103     6.384
 298   6 C      0.275  1.041  2.683  0.000    22.347     7.741
 299   8 O     -0.495  1.742  4.753  0.000    23.679     6.524
 300   6 C     -0.132  1.043  3.088  0.000    23.076     6.848
 301   1 H      0.241  0.759  0.000  0.000     0.921     1.503
 302   1 H      0.063  0.937  0.000  0.000     2.166     2.302
 303   1 H      0.067  0.933  0.000  0.000     2.115     2.274
 304   1 H      0.075  0.925  0.000  0.000     2.036     2.232
 305   1 H      0.071  0.929  0.000  0.000     2.071     2.250
 306   7 N     -0.201  1.259  3.943  0.000    25.377     7.482
 307   6 C      0.021  1.063  2.916  0.000    20.219     6.403
 308   6 C      0.282  1.041  2.677  0.000    22.228     7.720
 309   8 O     -0.494  1.739  4.755  0.000    23.659     6.521
 310   6 C     -0.077  1.056  3.021  0.000    21.976     6.674
 311   6 C     -0.104  1.052  3.051  0.000    22.471     6.748
 312   6 C      0.291  1.037  2.671  0.000    22.058     7.690
 313   8 O     -0.479  1.746  4.733  0.000    23.322     6.475
 314   7 N     -0.280  1.263  4.017  0.000    27.225     7.749
 315   1 H      0.252  0.748  0.000  0.000     0.877     1.467
 316   1 H      0.075  0.925  0.000  0.000     2.037     2.232
 317   1 H      0.069  0.931  0.000  0.000     2.101     2.267
 318   1 H      0.082  0.918  0.000  0.000     1.956     2.187
 319   1 H      0.094  0.906  0.000  0.000     1.842     2.123
 320   1 H      0.054  0.946  0.000  0.000     2.270     2.356
 321   1 H      0.213  0.787  0.000  0.000     1.044     1.601
 322   1 H      0.223  0.777  0.000  0.000     0.998     1.565
 323   7 N     -0.180  1.245  3.935  0.000    24.899     7.411
 324   6 C      0.035  1.055  2.910  0.000    19.991     6.367
 325   6 C      0.275  1.042  2.682  0.000    22.343     7.741
 326   8 O     -0.502  1.740  4.763  0.000    23.836     6.546
 327   6 C     -0.129  1.041  3.088  0.000    23.030     6.842
 328   1 H      0.217  0.783  0.000  0.000     1.023     1.584
 329   1 H      0.059  0.941  0.000  0.000     2.208     2.324
 330   1 H      0.060  0.940  0.000  0.000     2.196     2.317
 331   1 H      0.079  0.921  0.000  0.000     1.989     2.206
 332   1 H      0.069  0.931  0.000  0.000     2.096     2.264
 333   7 N     -0.179  1.250  3.929  0.000    24.877     7.408
 334   6 C      0.030  1.063  2.907  0.000    20.067     6.377
 335   6 C      0.287  1.041  2.672  0.000    22.142     7.706
 336   8 O     -0.505  1.739  4.766  0.000    23.903     6.555
 337   6 C     -0.016  1.060  2.956  0.000    20.831     6.491
 338   6 C     -0.115  1.040  3.076  0.000    22.759     6.801
 339   6 C     -0.129  1.042  3.088  0.000    23.033     6.842
 340   1 H      0.238  0.762  0.000  0.000     0.932     1.513
 341   1 H      0.053  0.947  0.000  0.000     2.285     2.364
 342   1 H      0.044  0.956  0.000  0.000     2.394     2.420
 343   1 H      0.059  0.941  0.000  0.000     2.213     2.327
 344   1 H      0.036  0.964  0.000  0.000     2.498     2.472
 345   1 H      0.045  0.955  0.000  0.000     2.388     2.417
 346   1 H      0.054  0.946  0.000  0.000     2.270     2.356
 347   1 H      0.052  0.948  0.000  0.000     2.296     2.370
 348   1 H      0.060  0.940  0.000  0.000     2.201     2.320
 349   7 N     -0.197  1.253  3.944  0.000    25.270     7.466
 350   6 C      0.035  1.057  2.908  0.000    19.984     6.365
 351   6 C      0.277  1.040  2.683  0.000    22.321     7.737
 352   8 O     -0.522  1.760  4.762  0.000    24.280     6.606
 353   6 C     -0.078  1.055  3.023  0.000    21.984     6.674
 354   6 C      0.014  1.083  2.903  0.000    27.690     8.631
 355   6 C     -0.046  1.079  2.966  0.000    29.132     8.851
 356   6 C     -0.034  1.078  2.957  0.000    28.853     8.809
 357   6 C     -0.038  1.080  2.958  0.000    28.949     8.823
 358   6 C     -0.032  1.080  2.951  0.000    28.791     8.799
 359   6 C     -0.042  1.080  2.962  0.000    29.049     8.838
 360   1 H      0.240  0.760  0.000  0.000     0.922     1.505
 361   1 H      0.052  0.948  0.000  0.000     2.292     2.368
 362   1 H      0.071  0.929  0.000  0.000     2.078     2.254
 363   1 H      0.060  0.940  0.000  0.000     2.200     2.319
 364   1 H      0.038  0.962  0.000  0.000     2.471     2.458
 365   1 H      0.025  0.975  0.000  0.000     2.662     2.551
 366   1 H      0.051  0.949  0.000  0.000     2.304     2.374
 367   1 H      0.041  0.959  0.000  0.000     2.430     2.438
 368   1 H      0.053  0.947  0.000  0.000     2.278     2.360
 369   7 N     -0.182  1.249  3.933  0.000    24.947     7.418
 370   6 C      0.030  1.057  2.913  0.000    20.067     6.378
 371   6 C      0.280  1.040  2.680  0.000    22.261     7.727
 372   8 O     -0.532  1.760  4.772  0.000    24.499     6.636
 373   6 C     -0.070  1.058  3.012  0.000    21.821     6.649
 374   6 C     -0.013  1.056  2.957  0.000    20.774     6.483
 375   6 C     -0.119  1.041  3.079  0.000    22.838     6.813
 376   6 C     -0.117  1.040  3.077  0.000    22.800     6.808
 377   1 H      0.229  0.771  0.000  0.000     0.970     1.543
 378   1 H      0.065  0.935  0.000  0.000     2.142     2.289
 379   1 H      0.050  0.950  0.000  0.000     2.319     2.381
 380   1 H      0.046  0.954  0.000  0.000     2.366     2.405
 381   1 H      0.050  0.950  0.000  0.000     2.321     2.383
 382   1 H      0.060  0.940  0.000  0.000     2.201     2.320
 383   1 H      0.033  0.967  0.000  0.000     2.538     2.491
 384   1 H      0.041  0.959  0.000  0.000     2.437     2.441
 385   1 H      0.059  0.941  0.000  0.000     2.215     2.327
 386   1 H      0.036  0.964  0.000  0.000     2.501     2.473
 387   1 H      0.029  0.971  0.000  0.000     2.607     2.525
 388   7 N     -0.190  1.251  3.940  0.000    25.131     7.445
 389   6 C      0.033  1.057  2.910  0.000    20.025     6.371
 390   6 C      0.280  1.043  2.678  0.000    22.270     7.729
 391   8 O     -0.523  1.757  4.766  0.000    24.304     6.610
 392   6 C     -0.070  1.058  3.013  0.000    21.837     6.652
 393   6 C     -0.015  1.056  2.959  0.000    20.810     6.489
 394   6 C     -0.109  1.041  3.068  0.000    22.638     6.783
 395   6 C     -0.117  1.040  3.076  0.000    22.791     6.807
 396   1 H      0.236  0.764  0.000  0.000     0.940     1.519
 397   1 H      0.063  0.937  0.000  0.000     2.167     2.302
 398   1 H      0.047  0.953  0.000  0.000     2.353     2.399
 399   1 H      0.051  0.949  0.000  0.000     2.311     2.377
 400   1 H      0.050  0.950  0.000  0.000     2.320     2.382
 401   1 H      0.050  0.950  0.000  0.000     2.324     2.384
 402   1 H      0.030  0.970  0.000  0.000     2.589     2.516
 403   1 H      0.041  0.959  0.000  0.000     2.430     2.438
 404   1 H      0.053  0.947  0.000  0.000     2.285     2.364
 405   1 H      0.042  0.958  0.000  0.000     2.421     2.433
 406   1 H      0.030  0.970  0.000  0.000     2.582     2.513
 407   7 N     -0.182  1.249  3.933  0.000    24.938     7.417
 408   6 C      0.038  1.055  2.906  0.000    19.931     6.356
 409   6 C      0.214  1.085  2.701  0.000    23.476     7.935
 410   8 O     -0.375  1.753  4.623  0.000    21.197     6.173
 411   6 C     -0.067  1.057  3.009  0.000    21.773     6.642
 412   6 C     -0.013  1.056  2.957  0.000    20.779     6.484
 413   6 C     -0.115  1.042  3.073  0.000    22.747     6.800
 414   6 C     -0.119  1.040  3.078  0.000    22.824     6.812
 415   1 H      0.231  0.769  0.000  0.000     0.961     1.535
 416   1 H      0.083  0.917  0.000  0.000     1.948     2.182
 417   1 H      0.050  0.950  0.000  0.000     2.316     2.380
 418   1 H      0.059  0.941  0.000  0.000     2.213     2.327
 419   1 H      0.051  0.949  0.000  0.000     2.312     2.378
 420   1 H      0.054  0.946  0.000  0.000     2.265     2.354
 421   1 H      0.033  0.967  0.000  0.000     2.540     2.492
 422   1 H      0.046  0.954  0.000  0.000     2.367     2.406
 423   1 H      0.054  0.946  0.000  0.000     2.265     2.354
 424   1 H      0.044  0.956  0.000  0.000     2.392     2.419
 425   1 H      0.031  0.969  0.000  0.000     2.579     2.511
 426   7 N     -0.388  1.314  4.074  0.000    30.035     8.139
 427   6 C      0.040  1.057  2.903  0.000    19.888     6.347
 428   6 C      0.196  1.093  2.711  0.000    23.816     7.992
 429   8 O     -0.363  1.754  4.609  0.000    20.953     6.137
 430   6 C     -0.003  1.064  2.939  0.000    20.633     6.467
 431  16 S     -0.284  1.936  4.290  0.058   153.317    20.840
 432   1 H      0.166  0.834  0.000  0.000     1.300     1.786
 433   1 H      0.063  0.937  0.000  0.000     2.169     2.303
 434   1 H      0.051  0.949  0.000  0.000     2.305     2.374
 435   1 H      0.063  0.937  0.000  0.000     2.160     2.298
 436   1 H      0.170  0.830  0.000  0.000     1.266     1.759
 437   7 N     -0.391  1.324  4.068  0.000    30.136     8.153
 438   6 C      0.044  1.054  2.902  0.000    19.852     6.347
 439   6 C      0.203  1.091  2.705  0.000    23.678     7.970
 440   8 O     -0.380  1.758  4.623  0.000    21.291     6.186
 441   6 C     -0.074  1.054  3.021  0.000    21.910     6.663
 442   6 C      0.059  1.064  2.877  0.000    26.269     8.368
 443   7 N     -0.302  1.488  3.814  0.000    28.676     7.940
 444   6 C     -0.035  1.064  2.971  0.000    28.824     8.805
 445   6 C      0.089  1.061  2.850  0.000    25.775     8.306
 446   7 N     -0.088  1.236  3.851  0.000    22.947     7.115
 447   1 H      0.168  0.832  0.000  0.000     1.284     1.775
 448   1 H      0.057  0.943  0.000  0.000     2.240     2.340
 449   1 H      0.052  0.948  0.000  0.000     2.295     2.369
 450   1 H      0.065  0.935  0.000  0.000     2.137     2.286
 451   1 H      0.038  0.962  0.000  0.000     2.479     2.462
 452   1 H      0.053  0.947  0.000  0.000     2.288     2.365
 453   1 H      0.189  0.811  0.000  0.000     1.164     1.690
 454   7 N     -0.395  1.312  4.082  0.000    30.222     8.165
 455   6 C      0.013  1.068  2.919  0.000    20.378     6.431
 456   6 C      0.204  1.090  2.706  0.000    23.661     7.966
 457   8 O     -0.360  1.741  4.619  0.000    20.895     6.129
 458   6 C      0.116  1.051  2.834  0.000    18.785     6.189
 459   8 O     -0.494  1.728  4.766  0.000    22.763     6.441
 460   6 C     -0.124  1.039  3.085  0.000    22.943     6.831
 461   1 H      0.163  0.837  0.000  0.000     1.314     1.795
 462   1 H      0.078  0.922  0.000  0.000     1.999     2.211
 463   1 H      0.034  0.966  0.000  0.000     2.525     2.485
 464   1 H      0.327  0.673  0.000  0.000     0.646     1.262
 465   1 H      0.059  0.941  0.000  0.000     2.206     2.323
 466   1 H      0.050  0.950  0.000  0.000     2.318     2.381
 467   1 H      0.053  0.947  0.000  0.000     2.280     2.361
 468   7 N     -0.398  1.317  4.081  0.000    30.318     8.178
 469   6 C      0.032  1.059  2.909  0.000    20.055     6.378
 470   6 C      0.277  1.048  2.675  0.000    22.319     7.737
 471   8 O     -0.497  1.749  4.748  0.000    23.722     6.530
 472   6 C     -0.038  1.073  2.965  0.000    21.219     6.552
 473   6 C     -0.075  1.056  3.019  0.000    21.939     6.668
 474   6 C     -0.141  1.045  3.096  0.000    23.279     6.880
 475   6 C     -0.125  1.036  3.088  0.000    22.947     6.831
 476   1 H      0.165  0.835  0.000  0.000     1.305     1.790
 477   1 H      0.037  0.963  0.000  0.000     2.486     2.466
 478   1 H      0.064  0.936  0.000  0.000     2.150     2.293
 479   1 H      0.048  0.952  0.000  0.000     2.351     2.398
 480   1 H      0.056  0.944  0.000  0.000     2.244     2.343
 481   1 H      0.058  0.942  0.000  0.000     2.228     2.334
 482   1 H      0.063  0.937  0.000  0.000     2.161     2.299
 483   1 H      0.048  0.952  0.000  0.000     2.344     2.394
 484   1 H      0.050  0.950  0.000  0.000     2.320     2.382
 485   1 H      0.050  0.950  0.000  0.000     2.318     2.381
 486   1 H      0.028  0.972  0.000  0.000     2.612     2.527
 487   7 N     -0.176  1.246  3.930  0.000    24.806     7.397
 488   6 C      0.017  1.061  2.922  0.000    20.300     6.416
 489   6 C      0.212  1.080  2.708  0.000    23.515     7.941
 490   8 O     -0.369  1.761  4.609  0.000    21.081     6.156
 491   6 C      0.072  1.038  2.890  0.000    19.605     6.345
 492   8 O     -0.476  1.729  4.747  0.000    22.390     6.388
 493   1 H      0.236  0.764  0.000  0.000     0.941     1.519
 494   1 H      0.083  0.917  0.000  0.000     1.951     2.184
 495   1 H      0.066  0.934  0.000  0.000     2.134     2.284
 496   1 H      0.064  0.936  0.000  0.000     2.157     2.297
 497   1 H      0.348  0.652  0.000  0.000     0.592     1.209
 498   7 N     -0.401  1.315  4.086  0.000    30.399     8.189
 499   6 C      0.048  1.050  2.902  0.000    19.787     6.336
 500   6 C      0.199  1.097  2.704  0.000    23.754     7.982
 501   8 O     -0.385  1.746  4.639  0.000    21.384     6.200
 502   6 C     -0.071  1.057  3.013  0.000    21.835     6.649
 503   6 C     -0.012  1.054  2.959  0.000    20.761     6.481
 504   6 C     -0.121  1.041  3.079  0.000    22.856     6.815
 505   6 C     -0.119  1.038  3.081  0.000    22.835     6.813
 506   1 H      0.188  0.812  0.000  0.000     1.170     1.694
 507   1 H      0.041  0.959  0.000  0.000     2.429     2.437
 508   1 H      0.047  0.953  0.000  0.000     2.356     2.400
 509   1 H      0.032  0.968  0.000  0.000     2.560     2.502
 510   1 H      0.056  0.944  0.000  0.000     2.244     2.342
 511   1 H      0.062  0.938  0.000  0.000     2.170     2.304
 512   1 H      0.022  0.978  0.000  0.000     2.700     2.570
 513   1 H      0.033  0.967  0.000  0.000     2.546     2.495
 514   1 H      0.054  0.946  0.000  0.000     2.266     2.354
 515   1 H      0.034  0.966  0.000  0.000     2.536     2.490
 516   1 H      0.041  0.959  0.000  0.000     2.436     2.441
 517   7 N     -0.407  1.316  4.091  0.000    30.579     8.213
 518   6 C      0.038  1.061  2.901  0.000    19.956     6.363
 519   6 C      0.205  1.092  2.703  0.000    23.640     7.962
 520   8 O     -0.397  1.764  4.633  0.000    21.629     6.235
 521   6 C     -0.016  1.066  2.950  0.000    20.824     6.491
 522   6 C     -0.117  1.039  3.078  0.000    22.794     6.807
 523   6 C     -0.114  1.042  3.072  0.000    22.722     6.796
 524   1 H      0.194  0.806  0.000  0.000     1.135     1.669
 525   1 H      0.038  0.962  0.000  0.000     2.481     2.463
 526   1 H      0.057  0.943  0.000  0.000     2.230     2.335
 527   1 H      0.051  0.949  0.000  0.000     2.306     2.375
 528   1 H      0.051  0.949  0.000  0.000     2.308     2.376
 529   1 H      0.032  0.968  0.000  0.000     2.556     2.500
 530   1 H      0.046  0.954  0.000  0.000     2.373     2.409
 531   1 H      0.036  0.964  0.000  0.000     2.504     2.475
 532   1 H      0.037  0.963  0.000  0.000     2.489     2.467
 533   1 H      0.182  0.818  0.000  0.000     1.201     1.716
 534   1 H      0.082  0.918  0.000  0.000     1.954     2.186
 535   1 H      0.178  0.822  0.000  0.000     1.227     1.735
 536   1 H      0.073  0.927  0.000  0.000     2.051     2.239
 537   1 H      0.176  0.824  0.000  0.000     1.239     1.744
 538   1 H      0.073  0.927  0.000  0.000     2.052     2.240
 539   1 H      0.174  0.826  0.000  0.000     1.251     1.752
 540   1 H      0.074  0.926  0.000  0.000     2.040     2.233
 541   1 H      0.182  0.818  0.000  0.000     1.203     1.718
 542   1 H      0.067  0.933  0.000  0.000     2.115     2.274
 543   1 H      0.182  0.818  0.000  0.000     1.203     1.718
 544   1 H      0.069  0.931  0.000  0.000     2.094     2.263
 545   1 H      0.176  0.824  0.000  0.000     1.237     1.742
 546   1 H      0.067  0.933  0.000  0.000     2.113     2.273
 547   1 H      0.183  0.817  0.000  0.000     1.197     1.714
 548   1 H      0.061  0.939  0.000  0.000     2.181     2.309
 549   1 H      0.184  0.816  0.000  0.000     1.193     1.711
 550   1 H      0.060  0.940  0.000  0.000     2.200     2.319
 551   1 H      0.191  0.809  0.000  0.000     1.155     1.683
 552   1 H      0.075  0.925  0.000  0.000     2.027     2.226
 553   1 H      0.182  0.818  0.000  0.000     1.202     1.717
 554   1 H      0.066  0.934  0.000  0.000     2.124     2.279
 555   1 H      0.194  0.806  0.000  0.000     1.137     1.670
 556   1 H      0.063  0.937  0.000  0.000     2.166     2.301
 557   1 H      0.174  0.826  0.000  0.000     1.251     1.752
 558   1 H      0.075  0.925  0.000  0.000     2.032     2.229
 559   1 H      0.178  0.822  0.000  0.000     1.227     1.735
 560   1 H      0.068  0.932  0.000  0.000     2.111     2.272
 561   1 H      0.173  0.827  0.000  0.000     1.254     1.754
 562   1 H      0.072  0.928  0.000  0.000     2.060     2.244

 Mol. C6AA /au·bohr⁶  :    2717704.772685
 Mol. C8AA /au·bohr⁸  :   60255642.860751
 Mol. α(0) /au        :       2470.944086

 
molecular dipole:
                 x           y           z       tot (Debye)
 q only:       94.887      59.041      -9.878
   full:       94.093      58.573     -12.765     283.582
molecular quadrupole (traceless):
                xx          xy          yy          xz          yz          zz
 q only:     8928.151    8181.652     714.169   -1658.128   -2272.486   -9642.320
  q+dip:     8941.636    8003.866     878.813   -2081.900   -2663.399   -9820.449
   full:     8946.177    8002.302     885.599   -2082.819   -2665.341   -9831.775
speedup  1.00
cpu  time for grad   17.95 s
wall time for grad   17.95 s

SCC energy    :    -813.5670504
rep           :      10.3588312
ES            :       1.9123090
AES           :      -0.0267378
AXC           :       0.3266936
disp          :      -0.7406283
XB            :       0.0000000
fix           :       0.0000000
Gborn         :       0.0000000
Gsasa         :       0.0000000
Ghb           :       0.0000000
Gshift        :       0.0000000
Gsolv         :      -0.4213875     -264.42
Etot ala COSMO:    -813.5670504
grad norm     :       0.8577223
total E       :    -803.1344934
atomizationE  :     150.4781439    94426.46
(atE without considering molecular charge,
 total energy contains solvation terms)
H-L gap (eV)  :          1.4813

------------------------------------------------------------------------
 * finished run on 2019/03/14 at 15:08:39.027     
------------------------------------------------------------------------
 total:
 * wall-time:     0 d,  0 h,  0 min, 19.476 sec
 *  cpu-time:     0 d,  0 h,  0 min, 19.249 sec
 * ratio c/w:     0.988 speedup
 SCF:
 * wall-time:     0 d,  0 h,  0 min, 18.882 sec
 *  cpu-time:     0 d,  0 h,  0 min, 18.878 sec
 * ratio c/w:     1.000 speedup

