      -----------------------------------------------------------      
     |                   =====================                   |     
     |                           x T B                           |     
     |                   =====================                   |     
     |                         S. Grimme                         |     
     |          Mulliken Center for Theoretical Chemistry        |     
     |                    University of Bonn                     |     
     |                 Version 6.0.1 (SAW181210)                 |     
      -----------------------------------------------------------      

   This program is distributed in the hope that it will be useful,
   but WITHOUT ANY WARRANTY; without even the implied warranty of
   MERCHANTABILITY or FITNESS FOR A PARTICULAR PURPOSE.
   
   FOR NON-COMMERCIAL, ACADEMIA USE ONLY.
   
   Cite this work as:
   S. Grimme, C. Bannwarth, P. Shushkov, J. Comput. Theory Chem., 2017,
   13, 1989-2009.
   C. Bannwarth, S. Ehlert and S. Grimme., ChemRxiv, 2018, preprint.
   http://doi.org/10.26434/chemrxiv.7246238.v1
   
   for sTDA-xTB:
   S. Grimme and C. Bannwarth, J. Chem. Phys., 2016, 145, 054103.
   
   in the mass-spec context:
   V. Asgeirsson, C. Bauer and S. Grimme, Chem. Sci., 2017, 8, 4879.
   
   if GBSA is used:
   P. Shushkov, F. März and S. Grimme, unpublished.
   
   for ANC optimizer:
   S. Grimme, unpublished.
   Rational Function algorithm used in ANCopt:
   F. Eckert, P. Pulay, H.-J. Werner, J. Comput. Chem., 1997, 18, 1473.
   
   with help from (in alphabetical order)
   C. Bannwarth, F. Bohle, G. Brandenburg, E. Caldeweyher, M. Checinski,
   S. Dohm, S. Ehlert, S. Ehrlich, F. März, H. Neugebauer, J. Pisarek,
   P. Pracht, P. Shushkov, and S. Spicher.
   
 * started run on 2019/03/14 at 15:08:19.309     
========================================================================
 # omp threads = 1
========================================================================
number of atoms            : 562
number of electrons        : 1482
charge                     : -1
spin                       : .0
first test random number   : .5724
           ------------------------------------------------- 
          |                 G F N 2 - x T B                 |
          | Geometry, Frequencies, Noncovalent interactions |
          |            JCTC 2018 parametrisation            |
           ------------------------------------------------- 
 
      method parameters     
 k(s)        :  1.8500
 k(p)        :  2.2300
 k(d)        :  2.2300
 k(f)        :  2.0000
 kEN (H0ij)  : -2.0000
 D4 a1       :  0.5200
 D4 a2       :  5.0000
 D4 s6       :  1.0000
 D4 s8       :  2.7000
 D4 s9       :  5.0000
 alphaj      :  2.0000

 Solvent             : h2o
 Using internal parameter file: .param_gbsa2_h2o
 Gsolv ref. state (COSMO-RS): gsolv [1 M gas/solution]
 temperature (mdtemp)       :    298.150000000000     
 dielectric constant        :    80.2000000000000     
 rho                        :    1.00000000000000     
 mass                       :    18.0000000000000     
 surface tension            :    15.5689454083859     
 probe radius               :   0.975313790000000     
 vdW radii scaling          :    1.00000000000000     
 Gshift (Eh)                :   1.857443126794793E-003
 c1                         :    1.55243817000000     
 soset                      :   0.130326360000000     
 HB correction              :  T

            Z     q(EN)     CN     RAES       Cart. coordinates
     1  N   5.0   -0.22    3.26    1.97    68.17368   112.13096    39.21387
     2  C   4.0    0.02    4.36    4.31    66.50664   113.63989    37.65331
     3  C   4.0    0.13    3.49    3.11    67.83844   115.18841    35.62267
     4  O   6.0   -0.34    1.34    1.80    66.88141   115.49997    33.53452
     5  C   4.0   -0.04    4.42    4.41    65.23786   115.55455    39.41961
     6  C   4.0   -0.02    3.61    3.17    63.78531   114.33332    41.50145
     7  C   4.0   -0.05    3.52    3.12    63.52315   115.65639    43.74647
     8  C   4.0   -0.05    3.51    3.12    62.89087   111.88986    41.33436
     9  C   4.0   -0.05    3.41    3.08    62.48869   114.52713    45.85771
    10  C   4.0   -0.05    3.42    3.09    61.91091   110.74099    43.46058
    11  C   4.0   -0.05    3.38    3.07    61.70526   112.03499    45.71733
    12  H   1.0    0.08    1.04    1.43    68.44742   112.86039    40.96706
    13  H   1.0    0.04    1.05    1.44    65.13441   112.43966    36.66925
    14  H   1.0    0.04    1.04    1.43    66.71502   116.69508    40.29441
    15  H   1.0    0.03    1.05    1.44    64.01650   116.83512    38.38768
    16  H   1.0    0.04    1.03    1.43    64.19028   117.58277    43.81311
    17  H   1.0    0.04    1.03    1.43    63.02453   110.85702    39.58343
    18  H   1.0    0.04    1.03    1.43    62.37175   115.57252    47.60605
    19  H   1.0    0.04    1.07    1.44    61.40128   108.79655    43.33275
    20  H   1.0    0.04    1.03    1.43    60.93274   111.12432    47.36551
    21  N   5.0   -0.15    3.48    2.06    70.07447   116.18101    36.24781
    22  C   4.0    0.03    4.30    4.20    71.42153   117.75112    34.45317
    23  C   4.0    0.07    3.19    3.03    73.02683   115.94346    32.74301
    24  O   6.0   -0.30    1.12    1.80    73.28687   116.36735    30.46235
    25  C   4.0   -0.04    4.26    4.12    72.86850   119.88226    35.79155
    26  C   4.0   -0.02    3.50    3.12    71.25432   121.98606    36.91339
    27  C   4.0   -0.05    3.47    3.10    72.34387   124.36875    37.21002
    28  C   4.0   -0.05    3.50    3.12    68.78252   121.68884    37.74684
    29  C   4.0   -0.04    3.44    3.09    70.97971   126.39076    38.13257
    30  C   4.0   -0.05    3.43    3.09    67.38849   123.70273    38.67896
    31  C   4.0    0.07    3.44    3.09    68.45619   126.09030    38.81201
    32  O   6.0   -0.25    2.11    1.84    67.15712   128.16434    39.60224
    33  H   1.0    0.07    1.06    1.44    70.46172   116.45856    38.11730
    34  H   1.0    0.06    1.06    1.44    70.04118   118.67847    33.20304
    35  H   1.0    0.04    1.03    1.43    74.00669   119.08480    37.31610
    36  H   1.0    0.04    1.03    1.43    74.16872   120.72948    34.42860
    37  H   1.0    0.04    1.03    1.43    74.30013   124.66763    36.70745
    38  H   1.0    0.05    1.04    1.44    67.86797   119.87647    37.71993
    39  H   1.0    0.05    1.03    1.43    71.81153   128.24336    38.30527
    40  H   1.0    0.05    1.02    1.43    65.44708   123.40267    39.26210
    41  H   1.0    0.12    1.04    1.43    65.38017   127.78017    39.74273
    42  N   5.0   -0.16    3.45    2.05    71.37588   110.48654    30.30496
    43  C   4.0    0.03    4.48    4.51    70.20551   109.45938    28.06013
    44  C   4.0    0.15    3.44    3.09    70.09932   111.34527    25.87983
    45  O   6.0   -0.29    1.26    1.80    70.61182   110.71819    23.72191
    46  C   4.0   -0.05    4.32    4.23    67.53375   108.69473    28.88184
    47  C   4.0   -0.04    4.24    4.08    66.99186   110.25932    31.25684
    48  C   4.0    0.00    4.35    4.29    69.52260   111.40367    32.05725
    49  H   1.0    0.04    1.05    1.44    71.34763   107.87175    27.39625
    50  H   1.0    0.04    1.03    1.43    66.20648   109.07706    27.36102
    51  H   1.0    0.04    1.02    1.43    67.46150   106.68310    29.29738
    52  H   1.0    0.04    1.03    1.43    65.67802   111.78793    30.86406
    53  H   1.0    0.04    1.02    1.43    66.21807   109.09672    32.76097
    54  H   1.0    0.07    1.09    1.44    69.43423   113.45307    31.89636
    55  H   1.0    0.04    1.02    1.43    70.05107   110.93270    33.98692
    56  N   5.0   -0.15    3.44    2.04    69.19135   113.66533    26.44006
    57  C   4.0    0.05    4.38    4.35    69.01686   115.50214    24.41608
    58  C   4.0    0.11    3.29    3.05    71.53635   115.77923    23.05301
    59  O   6.0   -0.27    1.12    1.80    71.64726   115.85676    20.75388
    60  C   4.0    0.05    4.22    4.04    68.01666   118.10979    25.27448
    61  O   6.0   -0.25    2.11    1.84    67.47296   119.53830    23.07896
    62  C   4.0   -0.07    4.08    3.76    69.71716   119.52755    27.10326
    63  H   1.0    0.08    1.07    1.44    69.07481   114.25573    28.24757
    64  H   1.0    0.06    1.06    1.44    67.71785   114.73516    22.99101
    65  H   1.0    0.04    1.08    1.44    66.24217   117.76743    26.26194
    66  H   1.0    0.12    1.03    1.43    67.74655   121.30284    23.44843
    67  H   1.0    0.04    1.00    1.43    68.71196   121.17111    27.82670
    68  H   1.0    0.06    1.02    1.43    70.19174   118.33029    28.69942
    69  H   1.0    0.05    1.00    1.43    71.45865   120.15569    26.20984
    70  N   5.0   -0.22    3.22    1.96    52.61420   113.66680    69.07061
    71  C   4.0    0.03    4.23    4.06    54.44954   114.35789    67.15554
    72  C   4.0    0.07    3.29    3.05    55.61395   111.91620    66.20440
    73  O   6.0   -0.34    1.32    1.80    55.39992   111.34440    63.95313
    74  C   4.0   -0.04    4.30    4.20    56.33945   116.25660    68.22562
    75  C   4.0   -0.02    3.53    3.13    58.91004   116.46898    66.99871
    76  C   4.0   -0.05    3.48    3.11    60.71497   117.91640    68.25388
    77  C   4.0   -0.04    3.50    3.12    59.60046   115.30410    64.74990
    78  C   4.0   -0.05    3.38    3.07    63.16315   118.05776    67.36446
    79  C   4.0   -0.04    3.37    3.07    62.08204   115.35827    63.90734
    80  C   4.0   -0.04    3.37    3.07    63.87432   116.70351    65.24037
    81  H   1.0    0.08    1.02    1.43    53.03509   114.00127    70.91441
    82  H   1.0    0.05    1.05    1.44    53.41999   115.13915    65.52814
    83  H   1.0    0.04    1.03    1.43    55.41181   118.10016    68.19222
    84  H   1.0    0.04    1.04    1.43    56.66106   115.75662    70.20460
    85  H   1.0    0.05    1.03    1.43    60.19941   118.96376    69.92988
    86  H   1.0    0.07    1.06    1.44    58.19406   114.37596    63.61807
    87  H   1.0    0.04    1.03    1.43    64.50112   119.21018    68.38037
    88  H   1.0    0.05    1.03    1.43    62.65457   114.36288    62.21510
    89  H   1.0    0.04    1.03    1.43    65.79544   116.69332    64.56086
    90  N   5.0   -0.20    3.25    1.97    51.45354   108.71614    62.23445
    91  C   4.0    0.02    4.30    4.19    50.94173   110.00884    59.87468
    92  C   4.0    0.15    3.48    3.10    53.14764   109.69442    58.06606
    93  O   6.0   -0.34    1.40    1.80    52.82724   109.08374    55.86084
    94  C   4.0    0.03    4.15    3.90    50.32690   112.81240    60.26194
    95  O   6.0   -0.26    2.06    1.83    52.42669   114.33502    60.78595
    96  H   1.0    0.09    1.03    1.43    51.38396   109.78159    63.82814
    97  H   1.0    0.03    1.07    1.44    49.31807   109.11372    58.96828
    98  H   1.0    0.04    1.02    1.43    49.51920   113.54825    58.50860
    99  H   1.0    0.03    1.01    1.43    48.92056   112.93510    61.78472
   100  H   1.0    0.14    1.07    1.44    53.49141   113.45050    62.00416
   101  N   5.0   -0.14    3.52    2.09    55.44385   110.10973    58.98926
   102  C   4.0    0.04    4.33    4.26    57.60605   109.78497    57.36603
   103  C   4.0    0.10    3.28    3.05    57.64208   107.13110    56.25453
   104  O   6.0   -0.33    1.25    1.80    58.43894   106.78663    54.10443
   105  C   4.0    0.03    4.15    3.90    59.99785   110.33592    58.88905
   106  O   6.0   -0.25    2.04    1.83    60.63931   108.47271    60.63740
   107  H   1.0    0.12    1.14    1.45    55.69874   110.46854    60.85052
   108  H   1.0    0.05    1.05    1.44    57.50192   111.08989    55.75357
   109  H   1.0    0.04    1.02    1.43    61.61975   110.47802    57.61601
   110  H   1.0    0.04    1.01    1.43    59.67650   112.17380    59.80160
   111  H   1.0    0.12    1.01    1.43    59.20359   107.86475    61.63369
   112  N   5.0   -0.21    3.27    1.97    52.21864   103.15691    55.87442
   113  C   4.0    0.03    4.42    4.42    50.21636   102.68250    54.07430
   114  C   4.0    0.15    3.52    3.12    50.80484   104.03121    51.60779
   115  O   6.0   -0.33    1.31    1.80    50.02005   103.21459    49.58714
   116  C   4.0   -0.02    4.34    4.28    47.56026   103.54280    54.88951
   117  C   4.0   -0.05    4.22    4.05    47.54189   106.30334    55.77465
   118  C   4.0   -0.09    4.11    3.81    46.50622   101.80871    56.92656
   119  C   4.0   -0.08    4.01    3.63    45.43041   107.88077    54.62454
   120  H   1.0    0.08    1.02    1.43    51.82890   104.16198    57.47162
   121  H   1.0    0.04    1.05    1.44    50.17628   100.65261    53.64573
   122  H   1.0    0.04    1.07    1.44    46.40591   103.36719    53.17930
   123  H   1.0    0.03    1.04    1.43    47.37125   106.33831    57.82841
   124  H   1.0    0.06    1.07    1.44    49.31836   107.18698    55.25382
   125  H   1.0    0.03    1.00    1.43    44.66257   102.48977    57.51815
   126  H   1.0    0.03    1.00    1.43    46.29768    99.88938    56.22831
   127  H   1.0    0.04    1.00    1.43    47.78909   101.82316    58.52884
   128  H   1.0    0.03    1.00    1.43    45.66412   109.85162    55.16284
   129  H   1.0    0.04    1.00    1.43    45.51332   107.74942    52.57704
   130  H   1.0    0.03    1.00    1.43    43.58454   107.24270    55.25364
   131  N   5.0   -0.14    3.61    2.17    52.07698   106.18201    51.88933
   132  C   4.0    0.04    4.53    4.58    53.10869   107.48104    49.73151
   133  C   4.0    0.16    3.62    3.18    54.89906   105.55034    48.58853
   134  O   6.0   -0.32    1.52    1.80    54.56980   104.84892    46.41612
   135  C   4.0   -0.02    4.32    4.24    54.31628   110.04887    50.26330
   136  C   4.0   -0.04    4.20    4.00    52.30655   111.96688    51.08368
   137  C   4.0   -0.08    4.17    3.93    55.62491   110.95575    47.86340
   138  C   4.0   -0.08    4.02    3.65    53.46919   114.44028    51.99300
   139  H   1.0    0.12    1.14    1.45    52.76567   106.59561    53.62879
   140  H   1.0    0.05    1.06    1.44    51.58944   107.75397    48.33957
   141  H   1.0    0.06    1.06    1.44    55.71340   109.82040    51.76214
   142  H   1.0    0.03    1.03    1.43    51.03716   112.32644    49.49615
   143  H   1.0    0.06    1.04    1.43    51.19675   111.14925    52.60798
   144  H   1.0    0.03    1.00    1.43    56.64415   112.69348    48.23216
   145  H   1.0    0.04    1.01    1.43    56.94543   109.56356    47.14021
   146  H   1.0    0.03    1.00    1.43    54.22686   111.30162    46.39881
   147  H   1.0    0.04    1.00    1.43    52.03303   115.68178    52.77688
   148  H   1.0    0.04    1.00    1.43    54.84801   114.06713    53.46871
   149  H   1.0    0.03    1.00    1.43    54.39173   115.43066    50.45032
   150  N   5.0   -0.15    3.47    2.06    56.64185   104.41836    50.03138
   151  C   4.0    0.03    4.42    4.42    58.18318   102.55828    48.70542
   152  C   4.0    0.10    3.34    3.06    56.38319   100.71505    47.38502
   153  O   6.0   -0.29    1.15    1.80    56.64338   100.25257    45.12513
   154  C   4.0    0.05    4.17    3.94    60.31872   101.27180    50.22098
   155  O   6.0   -0.26    2.08    1.84    59.50777    99.62687    52.13806
   156  C   4.0   -0.07    4.06    3.73    62.20374   103.23789    51.23289
   157  H   1.0    0.12    1.13    1.45    57.19971   105.11120    51.74414
   158  H   1.0    0.04    1.09    1.44    59.12934   103.50590    47.12966
   159  H   1.0    0.04    1.04    1.43    61.33340   100.05988    48.86352
   160  H   1.0    0.12    1.02    1.43    57.84535   100.11846    52.77429
   161  H   1.0    0.05    1.00    1.43    63.58557   102.33216    52.45661
   162  H   1.0    0.04    1.00    1.43    63.18509   104.12751    49.66684
   163  H   1.0    0.07    1.02    1.43    61.22554   104.66498    52.32609
   164  N   5.0   -0.19    3.28    1.98    51.03671   100.99093    44.96541
   165  C   4.0    0.03    4.42    4.41    49.72866   101.96973    42.78267
   166  C   4.0    0.15    3.45    3.10    51.51930   102.97036    40.76333
   167  O   6.0   -0.30    1.22    1.80    50.91135   102.77221    38.51981
   168  C   4.0   -0.02    4.28    4.16    47.88420   104.08167    43.53956
   169  C   4.0   -0.07    4.14    3.89    46.79551   105.41568    41.22611
   170  C   4.0   -0.08    4.13    3.85    45.75557   102.95874    45.11781
   171  H   1.0    0.13    1.08    1.44    50.86116   101.93325    46.62774
   172  H   1.0    0.04    1.05    1.44    48.69957   100.37571    41.93222
   173  H   1.0    0.05    1.05    1.44    48.96290   105.43741    44.66844
   174  H   1.0    0.03    1.00    1.43    45.29390   106.68945    41.80206
   175  H   1.0    0.05    1.00    1.43    48.22655   106.50424    40.23486
   176  H   1.0    0.05    1.00    1.43    46.00503   104.04062    39.92075
   177  H   1.0    0.04    1.00    1.43    44.43016   104.42441    45.66864
   178  H   1.0    0.03    1.00    1.43    44.74314   101.55932    44.00600
   179  H   1.0    0.05    1.00    1.43    46.50883   102.07159    46.80586
   180  N   5.0   -0.14    3.49    2.07    53.59785   104.11033    41.57112
   181  C   4.0    0.04    4.45    4.47    55.60401   104.99368    39.94699
   182  C   4.0    0.09    3.29    3.05    57.20219   102.85491    38.88457
   183  O   6.0   -0.30    1.13    1.80    58.47105   103.30548    36.98674
   184  C   4.0   -0.02    4.31    4.21    57.51255   106.82398    41.15288
   185  C   4.0   -0.08    4.12    3.84    56.10338   109.16819    42.01976
   186  C   4.0   -0.07    4.21    4.02    58.97984   105.37493    43.16918
   187  H   1.0    0.13    1.17    1.46    53.86120   104.22561    43.46861
   188  H   1.0    0.05    1.06    1.44    54.77264   106.02568    38.36302
   189  H   1.0    0.05    1.06    1.44    58.80152   107.34638    39.61930
   190  H   1.0    0.04    1.01    1.43    57.32781   110.53523    42.92932
   191  H   1.0    0.04    1.00    1.43    55.29948   110.08080    40.36611
   192  H   1.0    0.05    1.01    1.43    54.61209   108.61333    43.30947
   193  H   1.0    0.04    1.01    1.43    59.43505   106.53043    44.80086
   194  H   1.0    0.08    1.05    1.44    57.80441   103.83364    43.80030
   195  H   1.0    0.04    1.00    1.43    60.69450   104.57254    42.36426
   196  N   5.0   -0.21    3.21    1.96    57.21041   120.00358    17.13828
   197  C   4.0    0.02    4.31    4.22    55.01457   121.20867    18.27746
   198  C   4.0    0.15    3.44    3.09    54.28090   119.83979    20.72244
   199  O   6.0   -0.32    1.34    1.80    54.14411   120.95706    22.73595
   200  C   4.0   -0.05    4.34    4.27    52.73206   121.29137    16.51669
   201  C   4.0   -0.05    4.06    3.72    53.20700   122.91248    14.18912
   202  S   6.0   -0.06    2.46    3.10    50.34355   123.27328    12.28974
   203  C   4.0   -0.08    3.88    3.44    50.02934   120.02559    11.16887
   204  H   1.0    0.07    1.02    1.43    56.93842   118.87473    15.61652
   205  H   1.0    0.04    1.05    1.44    55.56017   123.13153    18.82556
   206  H   1.0    0.04    1.03    1.43    52.21942   119.37760    15.95464
   207  H   1.0    0.04    1.04    1.43    51.15639   122.09751    17.57848
   208  H   1.0    0.04    1.07    1.44    53.74860   124.82296    14.73328
   209  H   1.0    0.03    1.06    1.44    54.66215   122.12396    12.96691
   210  H   1.0    0.03    1.05    1.44    48.56428   120.06376     9.73743
   211  H   1.0    0.03    1.04    1.43    51.80328   119.42515    10.33510
   212  H   1.0    0.03    1.03    1.43    49.45138   118.80564    12.71119
   213  N   5.0   -0.15    3.50    2.08    53.91339   117.33652    20.51940
   214  C   4.0    0.03    4.52    4.57    52.95918   115.93709    22.68739
   215  C   4.0    0.16    3.59    3.16    54.74588   116.27268    24.89015
   216  O   6.0   -0.33    1.38    1.80    53.96498   116.41694    27.05560
   217  C   4.0   -0.03    4.27    4.13    52.65637   113.09798    22.10047
   218  C   4.0   -0.08    4.15    3.89    51.99779   111.64864    24.50937
   219  C   4.0   -0.08    4.12    3.84    50.56027   112.73577    20.15399
   220  H   1.0    0.07    1.07    1.44    53.64621   116.53839    18.80412
   221  H   1.0    0.05    1.05    1.44    51.13120   116.72065    23.28730
   222  H   1.0    0.04    1.05    1.44    54.45914   112.37539    21.39477
   223  H   1.0    0.03    1.00    1.43    51.78215   109.65408    24.09403
   224  H   1.0    0.05    1.01    1.43    53.47360   111.84853    25.91886
   225  H   1.0    0.04    1.00    1.43    50.24269   112.34274    25.31786
   226  H   1.0    0.03    1.01    1.43    50.17645   110.73823    19.94334
   227  H   1.0    0.04    1.00    1.43    48.84057   113.63431    20.82358
   228  H   1.0    0.03    1.00    1.43    51.05322   113.51797    18.32317
   229  N   5.0   -0.15    3.50    2.08    57.23672   116.15588    24.38396
   230  C   4.0    0.03    4.58    4.64    58.90810   116.44517    26.52531
   231  C   4.0    0.16    3.58    3.16    58.51143   119.08138    27.61931
   232  O   6.0   -0.33    1.46    1.80    57.81564   119.32413    29.81338
   233  C   4.0   -0.03    4.31    4.22    61.69590   115.85404    26.04374
   234  C   4.0   -0.05    4.18    3.97    62.09770   113.16082    25.04634
   235  C   4.0   -0.07    4.21    4.02    63.05743   116.22558    28.56399
   236  C   4.0   -0.08    4.04    3.69    61.28550   111.10700    26.88833
   237  H   1.0    0.08    1.06    1.44    57.92633   116.33476    22.62055
   238  H   1.0    0.05    1.08    1.44    58.18432   115.16079    27.98634
   239  H   1.0    0.04    1.05    1.44    62.46254   117.18284    24.65767
   240  H   1.0    0.04    1.03    1.43    61.04595   112.89818    23.29992
   241  H   1.0    0.04    1.03    1.43    64.10303   112.91564    24.63032
   242  H   1.0    0.04    1.00    1.43    64.82093   115.18474    28.61646
   243  H   1.0    0.04    1.00    1.43    63.45955   118.20735    28.91933
   244  H   1.0    0.04    1.01    1.43    61.89508   115.55985    30.10953
   245  H   1.0    0.04    1.00    1.43    61.77933   109.28583    26.07952
   246  H   1.0    0.03    1.00    1.43    62.23820   111.27948    28.69357
   247  H   1.0    0.04    1.00    1.43    59.26311   111.20732    27.20950
   248  N   5.0   -0.14    3.47    2.06    58.80004   121.08422    26.11607
   249  C   4.0    0.04    4.45    4.47    58.19231   123.55831    27.13713
   250  C   4.0    0.18    3.55    3.14    55.76830   123.43338    28.72249
   251  O   6.0   -0.32    1.33    1.80    55.69838   124.51673    30.77168
   252  C   4.0   -0.03    4.26    4.13    57.87929   125.50811    25.06075
   253  C   4.0    0.25    3.13    3.03    57.41120   128.15804    26.31094
   254  O   6.0   -0.30    1.17    1.80    59.26297   129.13649    27.37612
   255  O   6.0   -0.30    1.16    1.80    55.23201   129.02845    26.11789
   256  H   1.0    0.08    1.06    1.44    59.38753   121.00672    24.30362
   257  H   1.0    0.06    1.05    1.44    59.68574   124.17931    28.45696
   258  H   1.0    0.05    1.02    1.43    59.58801   125.63607    23.91113
   259  H   1.0    0.06    1.03    1.43    56.25070   125.01960    23.90240
   260  N   5.0   -0.12    3.52    2.09    53.80764   122.11512    27.82092
   261  C   4.0    0.04    4.45    4.47    51.39834   121.95860    29.11927
   262  C   4.0    0.16    3.51    3.12    51.62968   120.62970    31.65197
   263  O   6.0   -0.33    1.38    1.80    50.73590   121.60363    33.57845
   264  C   4.0   -0.04    4.33    4.25    49.48227   120.47515    27.53403
   265  C   4.0    0.06    3.78    3.32    48.84400   121.83838    25.15340
   266  N   5.0   -0.18    2.52    1.90    47.73472   120.64708    23.14947
   267  C   4.0   -0.01    3.62    3.18    49.12965   124.35378    24.61398
   268  C   4.0    0.06    3.64    3.19    47.35426   122.40032    21.45132
   269  N   5.0   -0.12    3.45    2.05    48.16542   124.68238    22.24644
   270  H   1.0    0.12    1.13    1.45    53.76248   121.51175    26.00398
   271  H   1.0    0.05    1.05    1.44    50.68691   123.87436    29.51458
   272  H   1.0    0.06    1.04    1.43    50.22201   118.59594    27.10977
   273  H   1.0    0.04    1.03    1.43    47.75586   120.19053    28.63794
   274  H   1.0    0.05    1.02    1.43    49.94457   125.89091    25.64693
   275  H   1.0    0.04    1.02    1.43    46.51791   122.09889    19.63376
   276  H   1.0    0.07    1.05    1.44    48.10910   126.33651    21.30915
   277  N   5.0   -0.14    3.57    2.13    52.63786   118.33815    31.64666
   278  C   4.0    0.04    4.55    4.61    52.84674   117.01413    34.02580
   279  C   4.0    0.15    3.53    3.13    54.57324   118.51965    35.77309
   280  O   6.0   -0.34    1.37    1.80    54.27084   118.38109    38.06877
   281  C   4.0   -0.02    4.29    4.17    53.70415   114.22356    33.78437
   282  C   4.0   -0.05    4.25    4.09    56.56055   114.25885    33.29282
   283  C   4.0   -0.08    4.10    3.80    52.04724   112.87767    31.84645
   284  C   4.0   -0.08    3.99    3.60    57.99105   111.78395    32.99341
   285  H   1.0    0.12    1.12    1.45    53.50391   117.67243    30.06518
   286  H   1.0    0.05    1.06    1.44    50.97682   117.05770    34.93061
   287  H   1.0    0.04    1.05    1.44    53.39003   113.32879    35.62604
   288  H   1.0    0.06    1.04    1.43    56.93081   115.47267    31.67240
   289  H   1.0    0.04    1.06    1.44    57.37537   115.14831    34.96305
   290  H   1.0    0.04    1.00    1.43    52.59478   110.91694    31.63868
   291  H   1.0    0.04    1.00    1.43    50.09317   112.90041    32.48403
   292  H   1.0    0.06    1.01    1.43    52.16102   113.81428    30.03095
   293  H   1.0    0.03    1.00    1.43    59.98526   112.21509    32.73374
   294  H   1.0    0.04    1.00    1.43    57.82849   110.68514    34.71822
   295  H   1.0    0.04    1.00    1.43    57.35319   110.68909    31.38762
   296  N   5.0   -0.14    3.56    2.12    56.37586   119.92663    34.71640
   297  C   4.0    0.04    4.49    4.52    58.17382   121.29918    36.23484
   298  C   4.0    0.15    3.51    3.12    57.04845   123.68852    37.32956
   299  O   6.0   -0.33    1.36    1.80    57.76316   124.51592    39.37705
   300  C   4.0   -0.04    4.42    4.41    60.48007   122.32480    34.81702
   301  C   4.0   -0.02    4.20    4.00    62.02785   120.40815    33.30572
   302  C   4.0   -0.07    4.12    3.85    64.76260   121.28053    33.17003
   303  C   4.0   -0.07    4.19    3.98    61.80192   117.78222    34.43478
   304  H   1.0    0.12    1.13    1.45    56.62249   119.96309    32.82074
   305  H   1.0    0.05    1.06    1.44    58.77101   120.08381    37.80378
   306  H   1.0    0.05    1.03    1.43    59.83850   123.85466    33.58654
   307  H   1.0    0.04    1.04    1.43    61.69465   123.15272    36.26616
   308  H   1.0    0.06    1.09    1.44    61.27502   120.34439    31.39955
   309  H   1.0    0.05    1.00    1.43    65.85794   120.05938    31.93780
   310  H   1.0    0.04    1.00    1.43    64.84931   123.21930    32.49397
   311  H   1.0    0.04    1.04    1.43    65.61646   121.19341    35.02118
   312  H   1.0    0.06    1.04    1.43    63.41733   116.64439    33.91014
   313  H   1.0    0.04    1.02    1.43    61.62625   117.88710    36.47089
   314  H   1.0    0.04    1.03    1.43    60.11197   116.90164    33.73442
   315  N   5.0   -0.14    3.61    2.17    55.42129   124.84508    35.82609
   316  C   4.0    0.03    4.45    4.46    54.08650   127.12089    36.51612
   317  C   4.0    0.15    3.54    3.13    52.22222   126.30912    38.54065
   318  O   6.0   -0.32    1.39    1.80    52.12394   127.34175    40.61096
   319  C   4.0   -0.05    4.34    4.27    52.76704   128.25770    34.21886
   320  C   4.0   -0.01    4.16    3.92    54.34085   130.12809    32.61632
   321  C   4.0   -0.08    4.11    3.82    53.09421   132.73059    32.67650
   322  C   4.0   -0.06    4.12    3.85    57.11274   130.36097    33.37562
   323  H   1.0    0.12    1.14    1.45    55.25283   124.25273    34.01033
   324  H   1.0    0.05    1.06    1.44    55.36772   128.49780    37.38192
   325  H   1.0    0.06    1.03    1.43    52.16460   126.68898    33.02797
   326  H   1.0    0.04    1.04    1.43    51.07403   129.25212    34.84175
   327  H   1.0    0.07    1.06    1.44    54.33123   129.43924    30.66659
   328  H   1.0    0.04    1.00    1.43    54.12502   134.02934    31.46660
   329  H   1.0    0.04    1.00    1.43    51.15885   132.61040    31.99634
   330  H   1.0    0.04    1.00    1.43    53.08164   133.48320    34.59088
   331  H   1.0    0.06    1.00    1.43    58.09799   131.40915    31.90862
   332  H   1.0    0.04    1.00    1.43    57.34458   131.36272    35.15615
   333  H   1.0    0.06    1.00    1.43    57.99413   128.51022    33.49123
   334  N   5.0   -0.14    3.59    2.15    50.75922   124.35652    37.95319
   335  C   4.0    0.04    4.51    4.56    49.10071   123.35445    39.87668
   336  C   4.0    0.16    3.50    3.11    50.70555   122.70435    42.20645
   337  O   6.0   -0.32    1.36    1.80    50.09181   123.56439    44.26635
   338  C   4.0   -0.04    4.09    3.77    47.51671   121.18002    38.87591
   339  S   6.0   -0.07    2.32    3.10    45.32440   122.24808    36.41897
   340  H   1.0    0.12    1.13    1.45    50.98909   123.41917    36.29559
   341  H   1.0    0.05    1.07    1.44    47.84392   124.87902    40.53022
   342  H   1.0    0.05    1.07    1.44    48.69025   119.72179    38.02968
   343  H   1.0    0.04    1.07    1.44    46.35857   120.37457    40.37471
   344  H   1.0    0.07    1.00    1.43    47.07822   122.51792    34.64114
   345  N   5.0   -0.14    3.49    2.07    52.76129   121.30073    41.89576
   346  C   4.0    0.04    4.53    4.58    54.22529   120.53789    44.08333
   347  C   4.0    0.16    3.55    3.14    55.21069   122.83918    45.51009
   348  O   6.0   -0.33    1.38    1.80    54.81400   123.07419    47.77755
   349  C   4.0   -0.02    4.30    4.19    56.45540   118.83200    43.35020
   350  C   4.0   -0.08    4.21    4.02    58.43246   118.88186    45.43305
   351  C   4.0   -0.07    4.13    3.85    55.61376   116.10631    42.95742
   352  H   1.0    0.12    1.14    1.45    53.23975   120.43033    40.24628
   353  H   1.0    0.05    1.05    1.44    52.97030   119.53804    45.40718
   354  H   1.0    0.05    1.06    1.44    57.28318   119.55916    41.60393
   355  H   1.0    0.04    1.06    1.44    59.94152   117.60464    44.93257
   356  H   1.0    0.04    1.01    1.43    59.22573   120.75312    45.70678
   357  H   1.0    0.04    1.01    1.43    57.58067   118.24554    47.18481
   358  H   1.0    0.04    1.00    1.43    57.23577   114.94829    42.46150
   359  H   1.0    0.03    1.00    1.43    54.80294   115.39169    44.69886
   360  H   1.0    0.06    1.01    1.43    54.23025   115.95984    41.45580
   361  N   5.0   -0.14    3.54    2.11    56.62893   124.44481    44.20043
   362  C   4.0    0.03    4.43    4.43    57.84522   126.60664    45.35448
   363  C   4.0    0.16    3.52    3.12    55.86620   128.29021    46.55444
   364  O   6.0   -0.33    1.44    1.80    56.20118   129.17392    48.68177
   365  C   4.0   -0.03    4.33    4.25    59.36735   128.08630    43.38079
   366  C   4.0   -0.01    3.52    3.13    60.90415   130.27829    44.37804
   367  C   4.0   -0.04    3.47    3.10    61.06955   132.48763    42.95615
   368  C   4.0   -0.04    3.50    3.11    62.25519   130.15326    46.62826
   369  C   4.0   -0.04    3.37    3.07    62.54455   134.49611    43.74842
   370  C   4.0   -0.04    3.44    3.09    63.69674   132.17980    47.44783
   371  C   4.0   -0.04    3.38    3.07    63.85277   134.35567    46.00829
   372  H   1.0    0.12    1.17    1.46    56.98294   124.16632    42.33656
   373  H   1.0    0.05    1.05    1.44    59.07564   125.94575    46.89414
   374  H   1.0    0.05    1.03    1.43    60.61571   126.74006    42.43330
   375  H   1.0    0.05    1.03    1.43    58.05088   128.77579    41.94880
   376  H   1.0    0.05    1.03    1.43    60.03826   132.65655    41.19969
   377  H   1.0    0.05    1.03    1.43    62.16286   128.48980    47.80458
   378  H   1.0    0.05    1.03    1.43    62.66806   136.17371    42.59151
   379  H   1.0    0.05    1.03    1.43    64.67833   132.06088    49.23185
   380  H   1.0    0.05    1.03    1.43    64.96443   135.94113    46.64666
   381  N   5.0   -0.14    3.53    2.10    53.80157   128.77392    45.22465
   382  C   4.0    0.04    4.44    4.45    51.76110   130.21065    46.34205
   383  C   4.0    0.16    3.49    3.11    50.85882   128.88198    48.74935
   384  O   6.0   -0.33    1.32    1.80    50.66428   130.06717    50.73704
   385  C   4.0   -0.04    4.34    4.27    49.57049   130.54990    44.49172
   386  C   4.0   -0.04    4.06    3.73    50.21858   132.41712    42.40077
   387  S   6.0   -0.06    2.47    3.10    47.48908   133.25045    40.46981
   388  C   4.0   -0.06    3.88    3.44    47.13153   130.39360    38.61721
   389  H   1.0    0.12    1.13    1.45    53.49918   128.03384    43.48233
   390  H   1.0    0.05    1.05    1.44    52.49474   132.06200    46.94076
   391  H   1.0    0.06    1.04    1.43    49.12020   128.71469    43.67182
   392  H   1.0    0.04    1.04    1.43    47.92095   131.23942    45.51909
   393  H   1.0    0.04    1.08    1.44    50.84523   134.20807    43.19569
   394  H   1.0    0.05    1.07    1.44    51.66349   131.66360    41.14395
   395  H   1.0    0.04    1.04    1.43    45.76697   130.77882    37.13821
   396  H   1.0    0.05    1.05    1.44    48.94975   129.92487    37.79460
   397  H   1.0    0.04    1.04    1.43    46.46898   128.86565    39.81350
   398  N   5.0   -0.14    3.49    2.07    50.28995   126.44378    48.56210
   399  C   4.0    0.04    4.43    4.44    49.31556   125.12132    50.74502
   400  C   4.0    0.16    3.47    3.10    51.23762   124.98816    52.89333
   401  O   6.0   -0.34    1.40    1.80    50.47048   125.23900    55.07023
   402  C   4.0   -0.05    4.35    4.30    48.43504   122.42769    50.17576
   403  C   4.0   -0.02    4.18    3.96    46.22393   122.22253    48.31318
   404  C   4.0   -0.08    4.11    3.82    45.80321   119.44027    47.66865
   405  C   4.0   -0.08    4.10    3.80    43.80081   123.37012    49.37118
   406  H   1.0    0.12    1.12    1.45    50.46671   125.45955    46.92521
   407  H   1.0    0.05    1.06    1.44    47.73080   126.22920    51.50754
   408  H   1.0    0.05    1.03    1.43    50.04662   121.38072    49.43035
   409  H   1.0    0.04    1.03    1.43    47.87089   121.57992    51.97272
   410  H   1.0    0.06    1.07    1.44    46.74851   123.20720    46.57901
   411  H   1.0    0.03    1.00    1.43    44.32515   119.24538    46.25494
   412  H   1.0    0.04    1.00    1.43    47.52736   118.61936    46.91124
   413  H   1.0    0.03    1.00    1.43    45.24891   118.39482    49.34779
   414  H   1.0    0.03    1.00    1.43    42.26554   123.13920    48.02617
   415  H   1.0    0.03    1.00    1.43    43.26780   122.43956    51.12443
   416  H   1.0    0.04    1.00    1.43    44.02595   125.37817    49.73504
   417  N   5.0   -0.14    3.52    2.09    53.64509   124.50578    52.38659
   418  C   4.0    0.03    4.51    4.55    55.50714   124.36553    54.39580
   419  C   4.0    0.15    3.52    3.13    55.99551   127.02034    55.41373
   420  O   6.0   -0.32    1.37    1.80    56.19623   127.44503    57.68841
   421  C   4.0   -0.02    4.32    4.23    57.97376   123.06261    53.55551
   422  C   4.0   -0.05    4.19    3.98    57.44473   120.30146    52.84776
   423  C   4.0   -0.07    4.14    3.89    59.91398   123.20954    55.69094
   424  C   4.0   -0.08    4.02    3.65    59.76702   118.93891    51.81893
   425  H   1.0    0.12    1.16    1.45    54.22013   124.22165    50.58004
   426  H   1.0    0.05    1.06    1.44    54.69296   123.28231    55.96995
   427  H   1.0    0.05    1.05    1.44    58.68722   124.06119    51.88791
   428  H   1.0    0.04    1.03    1.43    56.74993   119.30469    54.51260
   429  H   1.0    0.05    1.03    1.43    55.96689   120.27656    51.41246
   430  H   1.0    0.04    1.00    1.43    61.70525   122.40261    55.10484
   431  H   1.0    0.05    1.01    1.43    60.24777   125.15214    56.26504
   432  H   1.0    0.04    1.00    1.43    59.22647   122.17068    57.32469
   433  H   1.0    0.03    1.00    1.43    59.23470   117.08116    51.12298
   434  H   1.0    0.04    1.00    1.43    60.57434   120.01453    50.26756
   435  H   1.0    0.04    1.00    1.43    61.19825   118.68615    53.26549
   436  N   5.0   -0.14    3.53    2.10    56.17434   128.87001    53.71636
   437  C   4.0    0.05    4.51    4.55    56.30825   131.44393    54.62097
   438  C   4.0    0.16    3.53    3.13    54.09838   131.94610    56.41058
   439  O   6.0   -0.32    1.36    1.80    54.46578   133.13720    58.36361
   440  C   4.0   -0.03    4.13    3.86    56.15868   133.49204    52.60255
   441  S   6.0   -0.06    2.42    3.10    59.03127   133.78599    50.73717
   442  H   1.0    0.12    1.13    1.45    55.96575   128.54379    51.83973
   443  H   1.0    0.06    1.06    1.44    58.06587   131.69510    55.70810
   444  H   1.0    0.06    1.07    1.44    54.64535   133.11213    51.26521
   445  H   1.0    0.04    1.07    1.44    55.85595   135.30441    53.53858
   446  H   1.0    0.08    1.03    1.43    58.50708   131.68850    49.46452
   447  N   5.0   -0.14    3.50    2.07    51.81181   131.16384    55.70834
   448  C   4.0    0.03    4.52    4.57    49.61148   131.74721    57.24782
   449  C   4.0    0.15    3.53    3.13    49.61242   130.11409    59.61996
   450  O   6.0   -0.33    1.41    1.80    49.51914   131.11666    61.71118
   451  C   4.0   -0.02    4.33    4.26    47.11371   131.48237    55.79194
   452  C   4.0   -0.05    4.19    3.99    46.90994   133.60679    53.83573
   453  C   4.0   -0.08    4.15    3.90    44.89585   131.55343    57.64093
   454  C   4.0   -0.08    4.01    3.64    44.80111   133.16324    51.92763
   455  H   1.0    0.12    1.11    1.45    51.51500   130.35353    53.99219
   456  H   1.0    0.05    1.06    1.44    49.78437   133.69550    57.95082
   457  H   1.0    0.05    1.05    1.44    47.13251   129.66271    54.81225
   458  H   1.0    0.03    1.03    1.43    46.60749   135.39512    54.81856
   459  H   1.0    0.05    1.03    1.43    48.69562   133.71741    52.81461
   460  H   1.0    0.03    1.00    1.43    43.11405   131.33796    56.64883
   461  H   1.0    0.04    1.01    1.43    45.03908   130.04323    59.02414
   462  H   1.0    0.04    1.00    1.43    44.87769   133.34666    58.64443
   463  H   1.0    0.03    1.00    1.43    44.76845   134.67660    50.53949
   464  H   1.0    0.04    1.00    1.43    45.13099   131.39047    50.94218
   465  H   1.0    0.03    1.00    1.43    42.96558   133.08593    52.84142
   466  N   5.0   -0.15    3.55    2.11    49.66983   127.62976    59.34731
   467  C   4.0    0.03    4.53    4.58    49.69303   125.99260    61.54063
   468  C   4.0    0.16    3.51    3.12    51.83149   126.77627    63.30608
   469  O   6.0   -0.33    1.33    1.80    51.53074   126.82212    65.61227
   470  C   4.0   -0.02    4.34    4.27    49.99963   123.22592    60.71031
   471  C   4.0   -0.05    4.19    3.98    47.73567   122.29669    59.15206
   472  C   4.0   -0.07    4.13    3.86    50.47453   121.49347    62.96302
   473  C   4.0   -0.08    4.02    3.65    45.17144   122.49763    60.43995
   474  H   1.0    0.12    1.17    1.46    49.85905   126.81472    57.62080
   475  H   1.0    0.05    1.05    1.44    47.93305   126.26091    62.61149
   476  H   1.0    0.05    1.06    1.44    51.65832   123.17226    59.47364
   477  H   1.0    0.06    1.04    1.43    47.66852   123.36796    57.39892
   478  H   1.0    0.04    1.03    1.43    48.09331   120.32337    58.67015
   479  H   1.0    0.04    1.00    1.43    50.62326   119.55465    62.30138
   480  H   1.0    0.05    1.00    1.43    52.21686   121.99206    63.92794
   481  H   1.0    0.04    1.00    1.43    48.92962   121.64193    64.30403
   482  H   1.0    0.03    1.00    1.43    43.72825   121.80266    59.15571
   483  H   1.0    0.03    1.00    1.43    45.09290   121.38763    62.16382
   484  H   1.0    0.04    1.00    1.43    44.72888   124.45130    60.88825
   485  N   5.0   -0.14    3.45    2.05    54.01072   127.31936    62.18302
   486  C   4.0    0.02    4.25    4.10    56.21285   128.27234    63.46872
   487  C   4.0    0.16    3.35    3.06    55.75388   130.84695    64.67954
   488  O   6.0   -0.33    1.35    1.80    56.54863   131.24204    66.82057
   489  H   1.0    0.12    1.13    1.45    54.22035   127.21654    60.27859
   490  H   1.0    0.05    1.02    1.43    56.80604   126.98831    64.98274
   491  H   1.0    0.05    1.03    1.43    57.73339   128.43156    62.08491
   492  N   5.0   -0.13    3.53    2.10    54.45080   132.54082    63.35523
   493  C   4.0    0.05    4.47    4.49    53.87829   135.02442    64.36062
   494  C   4.0    0.16    3.47    3.10    51.99639   134.78126    66.53293
   495  O   6.0   -0.29    1.22    1.80    52.07966   136.24928    68.32131
   496  C   4.0    0.06    4.22    4.03    52.92471   136.88857    62.30477
   497  O   6.0   -0.25    2.10    1.84    54.21048   139.20589    62.66863
   498  C   4.0   -0.07    4.11    3.81    50.06053   137.24053    62.34416
   499  H   1.0    0.12    1.13    1.45    54.10051   132.27307    61.48767
   500  H   1.0    0.06    1.06    1.44    55.59482   135.87298    65.16324
   501  H   1.0    0.07    1.07    1.44    53.48914   136.10197    60.47643
   502  H   1.0    0.11    1.03    1.43    53.55791   140.41921    61.46922
   503  H   1.0    0.04    1.00    1.43    49.45941   138.42785    60.77670
   504  H   1.0    0.05    1.01    1.43    49.16870   135.40458    62.17901
   505  H   1.0    0.05    1.00    1.43    49.47552   138.12340    64.10538
   506  N   5.0   -0.14    3.57    2.13    50.30805   132.92756    66.32948
   507  C   4.0    0.04    4.50    4.54    48.38342   132.39054    68.19093
   508  C   4.0    0.16    3.47    3.10    49.55977   131.13351    70.49503
   509  O   6.0   -0.29    1.23    1.80    48.78430   131.61386    72.62357
   510  C   4.0   -0.02    4.27    4.14    46.29473   130.67298    67.10879
   511  C   4.0   -0.07    4.14    3.88    44.42434   129.94924    69.18301
   512  C   4.0   -0.08    4.12    3.85    44.89374   131.99345    64.96635
   513  H   1.0    0.12    1.15    1.45    50.33697   131.79803    64.78183
   514  H   1.0    0.06    1.05    1.44    47.53928   134.16464    68.85849
   515  H   1.0    0.05    1.05    1.44    47.21241   128.96508    66.38439
   516  H   1.0    0.03    1.00    1.43    42.91668   128.78997    68.41013
   517  H   1.0    0.05    1.00    1.43    45.33951   128.90525    70.69468
   518  H   1.0    0.04    1.00    1.43    43.59180   131.64269    69.99556
   519  H   1.0    0.03    1.00    1.43    43.39559   130.77083    64.27692
   520  H   1.0    0.04    1.00    1.43    44.05610   133.74463    65.63091
   521  H   1.0    0.06    1.02    1.43    46.17092   132.41537    63.42413
   522  N   5.0   -0.13    3.54    2.11    51.42818   129.50999    70.02856
   523  C   4.0    0.04    4.39    4.36    52.73193   128.17353    72.03015
   524  C   4.0    0.16    3.44    3.09    54.54605   129.98093    73.36657
   525  O   6.0   -0.28    1.22    1.80    54.75098   129.99989    75.67733
   526  C   4.0    0.04    4.16    3.91    54.19422   125.89873    70.96499
   527  O   6.0   -0.26    2.04    1.83    52.61243   124.03867    69.96204
   528  H   1.0    0.11    1.12    1.45    51.82308   129.01066    68.21565
   529  H   1.0    0.06    1.05    1.44    51.35823   127.51538    73.43754
   530  H   1.0    0.05    1.01    1.43    55.54286   126.59581    69.54826
   531  H   1.0    0.05    1.02    1.43    55.25213   125.00793    72.49947
   532  H   1.0    0.14    1.06    1.44    51.80287   124.72219    68.45893
   533  N   5.0   -0.14    3.52    2.09    55.81466   131.50203    71.82179
   534  C   4.0    0.04    4.43    4.43    57.41409   133.51047    72.74981
   535  C   4.0    0.10    3.29    3.05    55.76110   135.41986    74.13212
   536  O   6.0   -0.28    1.13    1.80    56.47698   136.16132    76.21039
   537  C   4.0   -0.02    4.26    4.12    59.00248   134.73365    70.65160
   538  C   4.0   -0.07    4.14    3.89    60.02810   137.28377    71.52229
   539  C   4.0   -0.07    4.11    3.83    61.17938   132.99455    69.91719
   540  H   1.0    0.12    1.14    1.45    55.69345   131.32527    69.91170
   541  H   1.0    0.06    1.06    1.44    58.67068   132.75016    74.22168
   542  H   1.0    0.06    1.06    1.44    57.77721   135.01928    69.01402
   543  H   1.0    0.04    1.00    1.43    61.32389   138.02563    70.11491
   544  H   1.0    0.05    1.00    1.43    58.50418   138.63249    71.78918
   545  H   1.0    0.05    1.00    1.43    61.04023   137.06464    73.29680
   546  H   1.0    0.04    1.00    1.43    62.29572   133.86245    68.42890
   547  H   1.0    0.04    1.00    1.43    62.39556   132.66662    71.54018
   548  H   1.0    0.06    1.00    1.43    60.46333   131.19728    69.23892
   549  H   1.0    0.09    1.07    1.44    67.51606   110.57443    39.40703
   550  H   1.0    0.05    1.04    1.43    73.85784   114.42202    33.49514
   551  H   1.0    0.09    1.10    1.44    72.74424   109.55979    30.70655
   552  H   1.0    0.06    1.05    1.44    73.13948   115.90127    24.04606
   553  H   1.0    0.09    1.07    1.44    51.16442   114.51363    68.79938
   554  H   1.0    0.05    1.04    1.43    56.54526   110.78561    67.39834
   555  H   1.0    0.08    1.07    1.44    50.31572   107.47209    62.45867
   556  H   1.0    0.06    1.05    1.44    57.01651   105.67001    57.27675
   557  H   1.0    0.09    1.07    1.44    52.83102   101.67662    56.44564
   558  H   1.0    0.06    1.04    1.44    54.99440    99.88676    48.36290
   559  H   1.0    0.09    1.07    1.44    50.48913    99.41505    45.29603
   560  H   1.0    0.07    1.04    1.43    57.19470   101.16237    39.72499
   561  H   1.0    0.09    1.07    1.44    58.30120   121.19593    16.60816
   562  H   1.0    0.07    1.04    1.43    54.15474   136.02565    73.34237

  Z AO/shell   Hii/eV     exponent
  1     Wed Apr 25 08:07:45 CEST 2018   EN: 2.200 GM2: 0.406  GM3: 0.0800  RAES: 1.40
     1s    -10.707211    1.230000
  6     Wed Apr 25 08:07:45 CEST 2018   EN: 2.550 GM2: 0.538  GM3: 0.1500  RAES: 3.00
     2s    -13.970922    2.096432
     2p    -10.063292    1.800000
  7     Wed Apr 25 08:07:45 CEST 2018   EN: 3.040 GM2: 0.461  GM3:-0.0640  RAES: 1.90
     2s    -16.686243    2.339881
     2p    -12.523956    2.014332
  8     Wed Apr 25 08:07:45 CEST 2018   EN: 3.440 GM2: 0.452  GM3:-0.0517  RAES: 1.80
     2s    -20.229985    2.439742
     2p    -15.503117    2.137023
 16     Tue Apr 24 11:44:34 CEST 2018   EN: 2.580 GM2: 0.340  GM3:-0.0502  RAES: 3.10
     3s    -20.029654    1.981333
     3p    -11.377694    2.025643
     3d     -0.420282    1.702555
 no old-style atom pair restraining (fixing) potential

molecular fragmentation (1/2 indicates fragments):
111111111111111111111111111111111111111112222222222222222222222222222222
222222222222222222222222222222222222222222222222222222222222222222222222
222222222222222222222222222222222222222222222222222222222222222222222222
222222222222222222222222222222222222222222222222222222222222222222222222
222222222222222222222222222222222222222222222222222222222222222222222222
222222222222222222222222222222222222222222222222222222222222222222222222
222222222222222222222222222222222222222222222222222222222222222222222222
2222222222222222222222222222222222222222222211222222222222
# atoms in fragment 1/2:    43   519
 fragment masses (1/2) :      312.37     3471.43
CMA distance (Bohr)    :  15.201
constraining FC (au)   :  0.0500
           ------------------------------------------------- 
          |        Self-Consistent Charge Iterations        |
           ------------------------------------------------- 

 Ncao       : 1375
 Nao        : 1371
 Nshell     : 829
 Nel        : 1482
 T(el)      :   500.0
 intcut     :    35.0
 scfconv/Eh :  0.100E-06
   qconv/e  :  0.100E-04
 intneglect :  0.100E-08
 broydamp   :      0.400
 iter      E             dE          RMSdq      gap      omega  full diag
   1   -840.4037658 -0.840404E+03  0.436E+00    2.89       0.0  T
   2   -842.1056604 -0.170189E+01  0.209E+00    1.48       1.0  T
   3   -842.1953978 -0.897374E-01  0.116E+00    1.44       1.0  T
   4   -842.3294868 -0.134089E+00  0.230E-01    0.75       1.0  T
   5   -842.3359928 -0.650595E-02  0.112E-01    0.98       1.0  T
   6   -842.3372639 -0.127115E-02  0.475E-02    0.99       1.0  T
   7   -842.3376345 -0.370587E-03  0.212E-02    0.98       1.0  T
   8   -842.3376719 -0.374167E-04  0.103E-02    0.98       1.0  T
   9   -842.3376859 -0.139875E-04  0.497E-03    0.98       1.0  T
  10   -842.3376886 -0.268863E-05  0.246E-03    0.98       1.7  T
  11   -842.3376892 -0.615047E-06  0.117E-03    0.98       3.6  T
  12   -842.3376893 -0.131924E-06  0.563E-04    0.98       7.5  T
  13   -842.3376894 -0.413461E-07  0.275E-04    0.98      15.3  T
  14   -842.3376894 -0.755676E-08  0.118E-04    0.98      35.7  T
  15   -842.3376894 -0.151203E-08  0.495E-05    0.98      85.2  T
  16   -842.3376894 -0.298883E-09  0.211E-05    0.98     200.0  T
speedup  1.00
cpu  time for SCC   15.70 s
wall time for SCC   15.70 s

   *** convergence criteria satisfied after 16 iterations ***

          eigenvalues
 #    :         729        730        731        732        733        734        735        736
 occ. :        2.000      2.000      2.000      2.000      2.000      2.000      2.000      2.000
 eps  :       -10.470    -10.413    -10.400    -10.300    -10.239    -10.120    -10.110    -10.101
 #    :         737        738        739        740        741        742        743        744
 occ. :        2.000      2.000      2.000      2.000      2.000      0.000      0.000      0.000
 eps  :        -9.996     -9.984     -9.900     -9.391     -9.289     -8.310     -8.211     -7.966
 #    :         745        746        747        748        749        750        751        752
 occ. :        0.000      0.000      0.000      0.000      0.000      0.000      0.000      0.000
 eps  :        -7.638     -7.597     -7.549     -7.517     -6.917     -6.872     -6.827     -6.791


   #   Z            q   n(s)   n(p)   n(d)      C6AA      α(0)
   1   7 N     -0.387  1.316  4.071  0.000    30.015     8.137
   2   6 C      0.027  1.056  2.917  0.000    20.139     6.392
   3   6 C      0.260  1.050  2.691  0.000    22.629     7.790
   4   8 O     -0.478  1.746  4.732  0.000    23.309     6.473
   5   6 C     -0.080  1.055  3.025  0.000    21.995     6.673
   6   6 C      0.007  1.078  2.916  0.000    27.868     8.659
   7   6 C     -0.049  1.079  2.970  0.000    29.220     8.865
   8   6 C     -0.043  1.076  2.967  0.000    29.060     8.840
   9   6 C     -0.036  1.082  2.954  0.000    28.903     8.816
  10   6 C     -0.050  1.084  2.966  0.000    29.233     8.867
  11   6 C     -0.041  1.079  2.962  0.000    29.031     8.836
  12   1 H      0.165  0.835  0.000  0.000     1.302     1.788
  13   1 H      0.052  0.948  0.000  0.000     2.299     2.371
  14   1 H      0.047  0.953  0.000  0.000     2.363     2.404
  15   1 H      0.056  0.944  0.000  0.000     2.244     2.342
  16   1 H      0.031  0.969  0.000  0.000     2.568     2.506
  17   1 H      0.033  0.967  0.000  0.000     2.539     2.492
  18   1 H      0.047  0.953  0.000  0.000     2.356     2.400
  19   1 H      0.062  0.938  0.000  0.000     2.178     2.308
  20   1 H      0.047  0.953  0.000  0.000     2.354     2.399
  21   7 N     -0.171  1.253  3.917  0.000    24.692     7.380
  22   6 C      0.021  1.064  2.914  0.000    20.227     6.405
  23   6 C      0.192  1.096  2.711  0.000    23.887     8.004
  24   8 O     -0.366  1.762  4.604  0.000    21.020     6.147
  25   6 C     -0.081  1.057  3.025  0.000    22.046     6.684
  26   6 C      0.002  1.079  2.919  0.000    27.983     8.677
  27   6 C     -0.041  1.085  2.956  0.000    29.024     8.835
  28   6 C     -0.047  1.077  2.970  0.000    29.165     8.856
  29   6 C     -0.057  1.076  2.982  0.000    29.425     8.895
  30   6 C     -0.074  1.076  2.998  0.000    29.838     8.957
  31   6 C      0.144  1.044  2.811  0.000    24.853     8.170
  32   8 O     -0.427  1.717  4.710  0.000    21.377     6.242
  33   1 H      0.219  0.781  0.000  0.000     1.016     1.579
  34   1 H      0.091  0.909  0.000  0.000     1.866     2.136
  35   1 H      0.082  0.918  0.000  0.000     1.955     2.186
  36   1 H      0.076  0.924  0.000  0.000     2.018     2.222
  37   1 H      0.053  0.947  0.000  0.000     2.288     2.366
  38   1 H      0.052  0.948  0.000  0.000     2.298     2.371
  39   1 H      0.050  0.950  0.000  0.000     2.323     2.384
  40   1 H      0.031  0.969  0.000  0.000     2.569     2.507
  41   1 H      0.322  0.678  0.000  0.000     0.660     1.276
  42   7 N     -0.288  1.240  4.048  0.000    27.429     7.778
  43   6 C      0.022  1.063  2.916  0.000    20.196     6.396
  44   6 C      0.274  1.050  2.676  0.000    22.362     7.744
  45   8 O     -0.500  1.757  4.743  0.000    23.790     6.539
  46   6 C     -0.071  1.056  3.014  0.000    21.834     6.650
  47   6 C     -0.070  1.053  3.017  0.000    21.834     6.650
  48   6 C      0.006  1.049  2.945  0.000    20.517     6.457
  49   1 H      0.040  0.960  0.000  0.000     2.448     2.447
  50   1 H      0.046  0.954  0.000  0.000     2.370     2.407
  51   1 H      0.054  0.946  0.000  0.000     2.271     2.357
  52   1 H      0.054  0.946  0.000  0.000     2.268     2.355
  53   1 H      0.050  0.950  0.000  0.000     2.322     2.383
  54   1 H      0.045  0.955  0.000  0.000     2.379     2.412
  55   1 H      0.041  0.959  0.000  0.000     2.431     2.438
  56   7 N     -0.179  1.248  3.931  0.000    24.876     7.408
  57   6 C      0.024  1.061  2.915  0.000    20.168     6.394
  58   6 C      0.218  1.078  2.705  0.000    23.405     7.923
  59   8 O     -0.371  1.754  4.617  0.000    21.112     6.160
  60   6 C      0.104  1.047  2.849  0.000    18.961     6.217
  61   8 O     -0.494  1.730  4.764  0.000    22.755     6.440
  62   6 C     -0.143  1.044  3.099  0.000    23.324     6.887
  63   1 H      0.213  0.787  0.000  0.000     1.041     1.598
  64   1 H      0.087  0.913  0.000  0.000     1.908     2.160
  65   1 H      0.063  0.937  0.000  0.000     2.159     2.298
  66   1 H      0.339  0.661  0.000  0.000     0.614     1.231
  67   1 H      0.055  0.945  0.000  0.000     2.258     2.350
  68   1 H      0.078  0.922  0.000  0.000     1.998     2.211
  69   1 H      0.054  0.946  0.000  0.000     2.267     2.355
  70   7 N     -0.385  1.309  4.075  0.000    29.947     8.127
  71   6 C      0.036  1.054  2.910  0.000    19.984     6.368
  72   6 C      0.203  1.099  2.697  0.000    23.679     7.969
  73   8 O     -0.363  1.734  4.629  0.000    20.965     6.139
  74   6 C     -0.080  1.058  3.022  0.000    22.025     6.680
  75   6 C      0.007  1.084  2.908  0.000    27.858     8.657
  76   6 C     -0.043  1.081  2.962  0.000    29.063     8.841
  77   6 C     -0.051  1.078  2.974  0.000    29.278     8.874
  78   6 C     -0.032  1.080  2.952  0.000    28.801     8.801
  79   6 C     -0.035  1.082  2.954  0.000    28.879     8.812
  80   6 C     -0.036  1.079  2.957  0.000    28.901     8.816
  81   1 H      0.169  0.831  0.000  0.000     1.278     1.771
  82   1 H      0.066  0.934  0.000  0.000     2.133     2.284
  83   1 H      0.067  0.933  0.000  0.000     2.114     2.274
  84   1 H      0.066  0.934  0.000  0.000     2.132     2.283
  85   1 H      0.031  0.969  0.000  0.000     2.579     2.511
  86   1 H      0.042  0.958  0.000  0.000     2.417     2.431
  87   1 H      0.031  0.969  0.000  0.000     2.569     2.506
  88   1 H      0.046  0.954  0.000  0.000     2.366     2.405
  89   1 H      0.036  0.964  0.000  0.000     2.499     2.472
  90   7 N     -0.387  1.310  4.077  0.000    30.009     8.136
  91   6 C      0.009  1.058  2.933  0.000    20.439     6.439
  92   6 C      0.269  1.044  2.687  0.000    22.452     7.760
  93   8 O     -0.481  1.737  4.744  0.000    23.367     6.481
  94   6 C      0.077  1.037  2.886  0.000    19.504     6.326
  95   8 O     -0.489  1.723  4.766  0.000    22.649     6.424
  96   1 H      0.162  0.838  0.000  0.000     1.323     1.802
  97   1 H      0.052  0.948  0.000  0.000     2.290     2.367
  98   1 H      0.043  0.957  0.000  0.000     2.410     2.428
  99   1 H      0.029  0.971  0.000  0.000     2.598     2.521
 100   1 H      0.330  0.670  0.000  0.000     0.638     1.254
 101   7 N     -0.179  1.246  3.933  0.000    24.868     7.406
 102   6 C      0.015  1.059  2.926  0.000    20.317     6.417
 103   6 C      0.205  1.086  2.709  0.000    23.640     7.963
 104   8 O     -0.355  1.737  4.618  0.000    20.808     6.116
 105   6 C      0.072  1.037  2.892  0.000    19.586     6.338
 106   8 O     -0.465  1.713  4.751  0.000    22.153     6.354
 107   1 H      0.251  0.749  0.000  0.000     0.880     1.469
 108   1 H      0.096  0.904  0.000  0.000     1.821     2.110
 109   1 H      0.082  0.918  0.000  0.000     1.962     2.190
 110   1 H      0.061  0.939  0.000  0.000     2.191     2.315
 111   1 H      0.338  0.662  0.000  0.000     0.618     1.235
 112   7 N     -0.390  1.309  4.081  0.000    30.091     8.147
 113   6 C      0.026  1.060  2.914  0.000    20.143     6.391
 114   6 C      0.266  1.046  2.689  0.000    22.520     7.772
 115   8 O     -0.515  1.748  4.767  0.000    24.121     6.585
 116   6 C     -0.021  1.064  2.957  0.000    20.905     6.503
 117   6 C     -0.078  1.052  3.025  0.000    21.978     6.674
 118   6 C     -0.113  1.041  3.072  0.000    22.711     6.795
 119   6 C     -0.108  1.037  3.070  0.000    22.619     6.782
 120   1 H      0.157  0.843  0.000  0.000     1.353     1.822
 121   1 H      0.033  0.967  0.000  0.000     2.543     2.494
 122   1 H      0.030  0.970  0.000  0.000     2.586     2.515
 123   1 H      0.036  0.964  0.000  0.000     2.503     2.474
 124   1 H      0.068  0.932  0.000  0.000     2.111     2.272
 125   1 H      0.047  0.953  0.000  0.000     2.352     2.398
 126   1 H      0.036  0.964  0.000  0.000     2.497     2.471
 127   1 H      0.045  0.955  0.000  0.000     2.382     2.414
 128   1 H      0.039  0.961  0.000  0.000     2.463     2.454
 129   1 H      0.031  0.969  0.000  0.000     2.571     2.507
 130   1 H      0.037  0.963  0.000  0.000     2.485     2.465
 131   7 N     -0.186  1.256  3.930  0.000    25.027     7.430
 132   6 C      0.025  1.060  2.915  0.000    20.141     6.389
 133   6 C      0.277  1.046  2.677  0.000    22.316     7.738
 134   8 O     -0.458  1.733  4.725  0.000    22.877     6.413
 135   6 C     -0.027  1.064  2.963  0.000    21.013     6.520
 136   6 C     -0.065  1.050  3.016  0.000    21.747     6.639
 137   6 C     -0.124  1.043  3.081  0.000    22.929     6.826
 138   6 C     -0.107  1.037  3.071  0.000    22.609     6.781
 139   1 H      0.245  0.755  0.000  0.000     0.903     1.488
 140   1 H      0.064  0.936  0.000  0.000     2.148     2.292
 141   1 H      0.059  0.941  0.000  0.000     2.209     2.324
 142   1 H      0.032  0.968  0.000  0.000     2.552     2.498
 143   1 H      0.056  0.944  0.000  0.000     2.245     2.343
 144   1 H      0.063  0.937  0.000  0.000     2.167     2.302
 145   1 H      0.046  0.954  0.000  0.000     2.374     2.410
 146   1 H      0.046  0.954  0.000  0.000     2.373     2.409
 147   1 H      0.036  0.964  0.000  0.000     2.500     2.472
 148   1 H      0.042  0.958  0.000  0.000     2.417     2.431
 149   1 H      0.040  0.960  0.000  0.000     2.454     2.450
 150   7 N     -0.203  1.262  3.940  0.000    25.407     7.486
 151   6 C      0.004  1.066  2.931  0.000    20.506     6.446
 152   6 C      0.214  1.078  2.708  0.000    23.468     7.934
 153   8 O     -0.372  1.756  4.617  0.000    21.135     6.164
 154   6 C      0.116  1.046  2.838  0.000    18.794     6.191
 155   8 O     -0.471  1.720  4.751  0.000    22.281     6.372
 156   6 C     -0.148  1.048  3.100  0.000    23.421     6.902
 157   1 H      0.246  0.754  0.000  0.000     0.899     1.485
 158   1 H      0.092  0.908  0.000  0.000     1.855     2.130
 159   1 H      0.048  0.952  0.000  0.000     2.349     2.397
 160   1 H      0.325  0.675  0.000  0.000     0.650     1.267
 161   1 H      0.070  0.930  0.000  0.000     2.086     2.258
 162   1 H      0.059  0.941  0.000  0.000     2.211     2.325
 163   1 H      0.082  0.918  0.000  0.000     1.954     2.186
 164   7 N     -0.411  1.316  4.095  0.000    30.682     8.227
 165   6 C      0.041  1.058  2.901  0.000    19.901     6.353
 166   6 C      0.269  1.049  2.682  0.000    22.464     7.761
 167   8 O     -0.547  1.758  4.789  0.000    24.843     6.683
 168   6 C     -0.010  1.062  2.948  0.000    20.714     6.473
 169   6 C     -0.110  1.040  3.070  0.000    22.651     6.786
 170   6 C     -0.109  1.039  3.070  0.000    22.630     6.782
 171   1 H      0.186  0.814  0.000  0.000     1.179     1.701
 172   1 H      0.016  0.984  0.000  0.000     2.788     2.611
 173   1 H      0.031  0.969  0.000  0.000     2.575     2.510
 174   1 H      0.043  0.957  0.000  0.000     2.411     2.428
 175   1 H      0.030  0.970  0.000  0.000     2.585     2.514
 176   1 H      0.037  0.963  0.000  0.000     2.488     2.467
 177   1 H      0.038  0.962  0.000  0.000     2.473     2.459
 178   1 H      0.032  0.968  0.000  0.000     2.551     2.498
 179   1 H      0.049  0.951  0.000  0.000     2.328     2.386
 180   7 N     -0.193  1.249  3.945  0.000    25.195     7.455
 181   6 C      0.030  1.056  2.914  0.000    20.074     6.379
 182   6 C      0.207  1.088  2.705  0.000    23.612     7.959
 183   8 O     -0.381  1.752  4.629  0.000    21.310     6.189
 184   6 C     -0.009  1.062  2.947  0.000    20.698     6.470
 185   6 C     -0.128  1.041  3.087  0.000    23.013     6.840
 186   6 C     -0.134  1.041  3.092  0.000    23.123     6.856
 187   1 H      0.260  0.740  0.000  0.000     0.846     1.441
 188   1 H      0.078  0.922  0.000  0.000     1.997     2.210
 189   1 H      0.053  0.947  0.000  0.000     2.287     2.365
 190   1 H      0.069  0.931  0.000  0.000     2.096     2.264
 191   1 H      0.040  0.960  0.000  0.000     2.443     2.444
 192   1 H      0.059  0.941  0.000  0.000     2.213     2.327
 193   1 H      0.059  0.941  0.000  0.000     2.209     2.324
 194   1 H      0.079  0.921  0.000  0.000     1.988     2.205
 195   1 H      0.039  0.961  0.000  0.000     2.457     2.451
 196   7 N     -0.394  1.315  4.079  0.000    30.200     8.162
 197   6 C      0.030  1.058  2.912  0.000    20.082     6.383
 198   6 C      0.271  1.049  2.680  0.000    22.416     7.753
 199   8 O     -0.495  1.746  4.749  0.000    23.667     6.522
 200   6 C     -0.065  1.052  3.013  0.000    21.724     6.631
 201   6 C     -0.006  1.062  2.943  0.000    20.685     6.476
 202  16 S     -0.238  1.927  4.261  0.051   151.267    20.700
 203   6 C     -0.064  1.056  3.007  0.000    21.795     6.660
 204   1 H      0.176  0.824  0.000  0.000     1.235     1.741
 205   1 H      0.035  0.965  0.000  0.000     2.512     2.478
 206   1 H      0.056  0.944  0.000  0.000     2.243     2.342
 207   1 H      0.041  0.959  0.000  0.000     2.431     2.438
 208   1 H      0.045  0.955  0.000  0.000     2.379     2.412
 209   1 H      0.055  0.945  0.000  0.000     2.254     2.348
 210   1 H      0.072  0.928  0.000  0.000     2.059     2.244
 211   1 H      0.066  0.934  0.000  0.000     2.131     2.283
 212   1 H      0.063  0.937  0.000  0.000     2.160     2.298
 213   7 N     -0.177  1.256  3.921  0.000    24.835     7.401
 214   6 C      0.013  1.065  2.922  0.000    20.353     6.423
 215   6 C      0.282  1.042  2.676  0.000    22.219     7.720
 216   8 O     -0.476  1.728  4.748  0.000    23.255     6.465
 217   6 C     -0.022  1.065  2.958  0.000    20.936     6.508
 218   6 C     -0.121  1.039  3.082  0.000    22.867     6.818
 219   6 C     -0.127  1.042  3.086  0.000    22.993     6.836
 220   1 H      0.221  0.779  0.000  0.000     1.006     1.571
 221   1 H      0.080  0.920  0.000  0.000     1.982     2.202
 222   1 H      0.061  0.939  0.000  0.000     2.191     2.315
 223   1 H      0.063  0.937  0.000  0.000     2.161     2.299
 224   1 H      0.042  0.958  0.000  0.000     2.416     2.431
 225   1 H      0.052  0.948  0.000  0.000     2.300     2.372
 226   1 H      0.068  0.932  0.000  0.000     2.103     2.268
 227   1 H      0.057  0.943  0.000  0.000     2.240     2.341
 228   1 H      0.046  0.954  0.000  0.000     2.372     2.408
 229   7 N     -0.179  1.244  3.935  0.000    24.878     7.408
 230   6 C      0.016  1.064  2.920  0.000    20.295     6.411
 231   6 C      0.282  1.043  2.675  0.000    22.222     7.720
 232   8 O     -0.475  1.731  4.744  0.000    23.227     6.462
 233   6 C     -0.030  1.064  2.965  0.000    21.067     6.528
 234   6 C     -0.066  1.050  3.016  0.000    21.768     6.642
 235   6 C     -0.129  1.042  3.087  0.000    23.017     6.839
 236   6 C     -0.121  1.037  3.084  0.000    22.883     6.822
 237   1 H      0.208  0.792  0.000  0.000     1.065     1.616
 238   1 H      0.101  0.899  0.000  0.000     1.774     2.083
 239   1 H      0.042  0.958  0.000  0.000     2.423     2.434
 240   1 H      0.047  0.953  0.000  0.000     2.356     2.400
 241   1 H      0.044  0.956  0.000  0.000     2.400     2.423
 242   1 H      0.069  0.931  0.000  0.000     2.102     2.267
 243   1 H      0.040  0.960  0.000  0.000     2.448     2.447
 244   1 H      0.068  0.932  0.000  0.000     2.106     2.269
 245   1 H      0.047  0.953  0.000  0.000     2.358     2.401
 246   1 H      0.056  0.944  0.000  0.000     2.251     2.346
 247   1 H      0.045  0.955  0.000  0.000     2.384     2.415
 248   7 N     -0.185  1.251  3.934  0.000    25.004     7.427
 249   6 C      0.055  1.054  2.891  0.000    19.656     6.312
 250   6 C      0.298  1.042  2.660  0.000    21.940     7.670
 251   8 O     -0.509  1.736  4.773  0.000    23.994     6.567
 252   6 C     -0.101  1.068  3.033  0.000    22.429     6.743
 253   6 C      0.375  1.021  2.604  0.000    20.644     7.436
 254   8 O     -0.629  1.769  4.859  0.000    26.832     6.945
 255   8 O     -0.640  1.771  4.869  0.000    27.118     6.982
 256   1 H      0.209  0.791  0.000  0.000     1.062     1.614
 257   1 H      0.047  0.953  0.000  0.000     2.353     2.399
 258   1 H      0.034  0.966  0.000  0.000     2.535     2.490
 259   1 H      0.033  0.967  0.000  0.000     2.546     2.495
 260   7 N     -0.201  1.254  3.947  0.000    25.358     7.479
 261   6 C      0.042  1.053  2.905  0.000    19.870     6.347
 262   6 C      0.271  1.045  2.684  0.000    22.423     7.756
 263   8 O     -0.522  1.732  4.790  0.000    24.278     6.606
 264   6 C     -0.080  1.053  3.027  0.000    22.026     6.680
 265   6 C      0.060  1.060  2.880  0.000    26.133     8.331
 266   7 N     -0.294  1.478  3.816  0.000    28.455     7.909
 267   6 C     -0.021  1.060  2.960  0.000    28.487     8.754
 268   6 C      0.086  1.060  2.854  0.000    25.815     8.311
 269   7 N     -0.102  1.244  3.858  0.000    23.234     7.159
 270   1 H      0.236  0.764  0.000  0.000     0.940     1.519
 271   1 H      0.039  0.961  0.000  0.000     2.460     2.453
 272   1 H      0.087  0.913  0.000  0.000     1.912     2.162
 273   1 H      0.067  0.933  0.000  0.000     2.117     2.275
 274   1 H      0.017  0.983  0.000  0.000     2.773     2.604
 275   1 H      0.057  0.943  0.000  0.000     2.232     2.336
 276   1 H      0.203  0.797  0.000  0.000     1.089     1.635
 277   7 N     -0.175  1.255  3.921  0.000    24.798     7.396
 278   6 C      0.024  1.065  2.911  0.000    20.160     6.391
 279   6 C      0.273  1.045  2.682  0.000    22.382     7.747
 280   8 O     -0.490  1.728  4.762  0.000    23.553     6.507
 281   6 C     -0.020  1.067  2.953  0.000    20.900     6.503
 282   6 C     -0.071  1.051  3.020  0.000    21.846     6.654
 283   6 C     -0.128  1.038  3.090  0.000    23.024     6.842
 284   6 C     -0.112  1.036  3.077  0.000    22.713     6.797
 285   1 H      0.253  0.747  0.000  0.000     0.872     1.462
 286   1 H      0.068  0.932  0.000  0.000     2.103     2.268
 287   1 H      0.053  0.947  0.000  0.000     2.284     2.363
 288   1 H      0.045  0.955  0.000  0.000     2.380     2.413
 289   1 H      0.037  0.963  0.000  0.000     2.483     2.464
 290   1 H      0.064  0.936  0.000  0.000     2.149     2.293
 291   1 H      0.045  0.955  0.000  0.000     2.386     2.416
 292   1 H      0.064  0.936  0.000  0.000     2.156     2.296
 293   1 H      0.050  0.950  0.000  0.000     2.318     2.381
 294   1 H      0.045  0.955  0.000  0.000     2.389     2.417
 295   1 H      0.049  0.951  0.000  0.000     2.335     2.389
 296   7 N     -0.193  1.250  3.943  0.000    25.195     7.455
 297   6 C      0.034  1.053  2.913  0.000    20.000     6.367
 298   6 C      0.269  1.041  2.689  0.000    22.455     7.762
 299   8 O     -0.499  1.727  4.772  0.000    23.763     6.536
 300   6 C     -0.059  1.057  3.002  0.000    21.605     6.613
 301   6 C     -0.012  1.051  2.961  0.000    20.759     6.480
 302   6 C     -0.122  1.041  3.081  0.000    22.897     6.822
 303   6 C     -0.144  1.043  3.101  0.000    23.320     6.885
 304   1 H      0.236  0.764  0.000  0.000     0.940     1.519
 305   1 H      0.074  0.926  0.000  0.000     2.045     2.237
 306   1 H      0.019  0.981  0.000  0.000     2.756     2.596
 307   1 H      0.051  0.949  0.000  0.000     2.313     2.378
 308   1 H      0.033  0.967  0.000  0.000     2.538     2.491
 309   1 H      0.053  0.947  0.000  0.000     2.286     2.365
 310   1 H      0.017  0.983  0.000  0.000     2.774     2.605
 311   1 H      0.057  0.943  0.000  0.000     2.232     2.336
 312   1 H      0.089  0.911  0.000  0.000     1.886     2.148
 313   1 H      0.033  0.967  0.000  0.000     2.547     2.496
 314   1 H      0.050  0.950  0.000  0.000     2.322     2.383
 315   7 N     -0.196  1.257  3.939  0.000    25.258     7.464
 316   6 C      0.035  1.054  2.911  0.000    19.980     6.365
 317   6 C      0.273  1.042  2.684  0.000    22.384     7.749
 318   8 O     -0.485  1.727  4.758  0.000    23.456     6.493
 319   6 C     -0.067  1.058  3.008  0.000    21.771     6.642
 320   6 C      0.001  1.052  2.946  0.000    20.525     6.444
 321   6 C     -0.111  1.044  3.067  0.000    22.672     6.789
 322   6 C     -0.097  1.036  3.061  0.000    22.400     6.749
 323   1 H      0.236  0.764  0.000  0.000     0.941     1.520
 324   1 H      0.067  0.933  0.000  0.000     2.116     2.275
 325   1 H      0.042  0.958  0.000  0.000     2.427     2.436
 326   1 H      0.049  0.951  0.000  0.000     2.338     2.391
 327   1 H      0.027  0.973  0.000  0.000     2.634     2.538
 328   1 H      0.038  0.962  0.000  0.000     2.470     2.458
 329   1 H      0.037  0.963  0.000  0.000     2.487     2.466
 330   1 H      0.046  0.954  0.000  0.000     2.373     2.409
 331   1 H      0.037  0.963  0.000  0.000     2.487     2.466
 332   1 H      0.036  0.964  0.000  0.000     2.500     2.473
 333   1 H      0.027  0.973  0.000  0.000     2.627     2.535
 334   7 N     -0.194  1.256  3.939  0.000    25.215     7.458
 335   6 C      0.036  1.058  2.906  0.000    19.947     6.354
 336   6 C      0.274  1.042  2.684  0.000    22.377     7.747
 337   8 O     -0.479  1.726  4.754  0.000    23.334     6.477
 338   6 C     -0.016  1.064  2.952  0.000    20.874     6.505
 339  16 S     -0.289  1.929  4.334  0.026   153.529    20.855
 340   1 H      0.232  0.768  0.000  0.000     0.958     1.533
 341   1 H      0.072  0.928  0.000  0.000     2.059     2.244
 342   1 H      0.065  0.935  0.000  0.000     2.144     2.290
 343   1 H      0.081  0.919  0.000  0.000     1.969     2.194
 344   1 H      0.185  0.815  0.000  0.000     1.176     1.696
 345   7 N     -0.200  1.263  3.936  0.000    25.336     7.476
 346   6 C      0.025  1.065  2.910  0.000    20.143     6.389
 347   6 C      0.285  1.041  2.674  0.000    22.174     7.711
 348   8 O     -0.485  1.722  4.764  0.000    23.459     6.494
 349   6 C     -0.018  1.060  2.958  0.000    20.864     6.496
 350   6 C     -0.134  1.040  3.094  0.000    23.117     6.854
 351   6 C     -0.128  1.043  3.085  0.000    23.012     6.839
 352   1 H      0.233  0.767  0.000  0.000     0.952     1.529
 353   1 H      0.070  0.930  0.000  0.000     2.090     2.261
 354   1 H      0.037  0.963  0.000  0.000     2.491     2.468
 355   1 H      0.078  0.922  0.000  0.000     2.003     2.213
 356   1 H      0.028  0.972  0.000  0.000     2.614     2.528
 357   1 H      0.056  0.944  0.000  0.000     2.243     2.342
 358   1 H      0.058  0.942  0.000  0.000     2.224     2.332
 359   1 H      0.055  0.945  0.000  0.000     2.258     2.350
 360   1 H      0.058  0.942  0.000  0.000     2.228     2.334
 361   7 N     -0.205  1.257  3.948  0.000    25.463     7.494
 362   6 C      0.034  1.056  2.910  0.000    20.006     6.369
 363   6 C      0.276  1.041  2.683  0.000    22.331     7.739
 364   8 O     -0.502  1.730  4.771  0.000    23.824     6.544
 365   6 C     -0.073  1.055  3.018  0.000    21.889     6.660
 366   6 C      0.006  1.081  2.913  0.000    27.886     8.662
 367   6 C     -0.040  1.080  2.960  0.000    29.000     8.831
 368   6 C     -0.040  1.078  2.962  0.000    28.997     8.831
 369   6 C     -0.030  1.081  2.949  0.000    28.749     8.793
 370   6 C     -0.027  1.083  2.944  0.000    28.685     8.783
 371   6 C     -0.030  1.082  2.948  0.000    28.749     8.793
 372   1 H      0.239  0.761  0.000  0.000     0.927     1.508
 373   1 H      0.070  0.930  0.000  0.000     2.090     2.261
 374   1 H      0.075  0.925  0.000  0.000     2.034     2.230
 375   1 H      0.049  0.951  0.000  0.000     2.338     2.391
 376   1 H      0.024  0.976  0.000  0.000     2.668     2.554
 377   1 H      0.039  0.961  0.000  0.000     2.457     2.451
 378   1 H      0.038  0.962  0.000  0.000     2.470     2.458
 379   1 H      0.050  0.950  0.000  0.000     2.320     2.382
 380   1 H      0.044  0.956  0.000  0.000     2.398     2.422
 381   7 N     -0.183  1.254  3.929  0.000    24.960     7.420
 382   6 C      0.030  1.060  2.910  0.000    20.068     6.378
 383   6 C      0.274  1.042  2.685  0.000    22.376     7.747
 384   8 O     -0.496  1.733  4.763  0.000    23.689     6.526
 385   6 C     -0.066  1.051  3.015  0.000    21.748     6.635
 386   6 C     -0.010  1.065  2.945  0.000    20.756     6.487
 387  16 S     -0.215  1.914  4.254  0.047   150.225    20.629
 388   6 C     -0.049  1.049  3.000  0.000    21.521     6.617
 389   1 H      0.236  0.764  0.000  0.000     0.939     1.518
 390   1 H      0.065  0.935  0.000  0.000     2.137     2.286
 391   1 H      0.066  0.934  0.000  0.000     2.133     2.284
 392   1 H      0.064  0.936  0.000  0.000     2.150     2.293
 393   1 H      0.060  0.940  0.000  0.000     2.197     2.318
 394   1 H      0.054  0.946  0.000  0.000     2.271     2.357
 395   1 H      0.068  0.932  0.000  0.000     2.113     2.273
 396   1 H      0.037  0.963  0.000  0.000     2.488     2.466
 397   1 H      0.050  0.950  0.000  0.000     2.317     2.380
 398   7 N     -0.185  1.253  3.932  0.000    25.012     7.428
 399   6 C      0.030  1.058  2.912  0.000    20.063     6.377
 400   6 C      0.270  1.045  2.684  0.000    22.435     7.757
 401   8 O     -0.499  1.724  4.775  0.000    23.772     6.537
 402   6 C     -0.073  1.059  3.014  0.000    21.887     6.659
 403   6 C     -0.016  1.056  2.960  0.000    20.833     6.492
 404   6 C     -0.115  1.042  3.073  0.000    22.757     6.801
 405   6 C     -0.118  1.041  3.077  0.000    22.811     6.810
 406   1 H      0.239  0.761  0.000  0.000     0.926     1.508
 407   1 H      0.068  0.932  0.000  0.000     2.110     2.271
 408   1 H      0.055  0.945  0.000  0.000     2.254     2.348
 409   1 H      0.063  0.937  0.000  0.000     2.168     2.303
 410   1 H      0.047  0.953  0.000  0.000     2.360     2.402
 411   1 H      0.040  0.960  0.000  0.000     2.447     2.446
 412   1 H      0.034  0.966  0.000  0.000     2.532     2.488
 413   1 H      0.051  0.949  0.000  0.000     2.309     2.376
 414   1 H      0.045  0.955  0.000  0.000     2.380     2.413
 415   1 H      0.049  0.951  0.000  0.000     2.332     2.388
 416   1 H      0.032  0.968  0.000  0.000     2.559     2.502
 417   7 N     -0.196  1.256  3.940  0.000    25.245     7.462
 418   6 C      0.020  1.066  2.914  0.000    20.236     6.404
 419   6 C      0.274  1.045  2.680  0.000    22.362     7.744
 420   8 O     -0.499  1.738  4.761  0.000    23.752     6.534
 421   6 C     -0.019  1.066  2.954  0.000    20.885     6.500
 422   6 C     -0.070  1.052  3.018  0.000    21.828     6.651
 423   6 C     -0.121  1.039  3.082  0.000    22.870     6.819
 424   6 C     -0.116  1.038  3.077  0.000    22.780     6.806
 425   1 H      0.246  0.754  0.000  0.000     0.899     1.485
 426   1 H      0.077  0.923  0.000  0.000     2.007     2.216
 427   1 H      0.036  0.964  0.000  0.000     2.498     2.472
 428   1 H      0.051  0.949  0.000  0.000     2.310     2.377
 429   1 H      0.046  0.954  0.000  0.000     2.375     2.410
 430   1 H      0.067  0.933  0.000  0.000     2.115     2.274
 431   1 H      0.032  0.968  0.000  0.000     2.562     2.503
 432   1 H      0.056  0.944  0.000  0.000     2.240     2.341
 433   1 H      0.051  0.949  0.000  0.000     2.310     2.377
 434   1 H      0.039  0.961  0.000  0.000     2.460     2.453
 435   1 H      0.054  0.946  0.000  0.000     2.271     2.356
 436   7 N     -0.191  1.253  3.938  0.000    25.141     7.447
 437   6 C      0.035  1.056  2.909  0.000    19.962     6.357
 438   6 C      0.274  1.044  2.682  0.000    22.361     7.744
 439   8 O     -0.495  1.736  4.759  0.000    23.677     6.524
 440   6 C     -0.010  1.063  2.947  0.000    20.751     6.485
 441  16 S     -0.314  1.929  4.350  0.034   154.707    20.934
 442   1 H      0.235  0.765  0.000  0.000     0.944     1.522
 443   1 H      0.078  0.922  0.000  0.000     1.997     2.210
 444   1 H      0.064  0.936  0.000  0.000     2.154     2.295
 445   1 H      0.061  0.939  0.000  0.000     2.193     2.316
 446   1 H      0.203  0.797  0.000  0.000     1.082     1.626
 447   7 N     -0.190  1.255  3.935  0.000    25.122     7.444
 448   6 C      0.021  1.065  2.915  0.000    20.226     6.403
 449   6 C      0.273  1.042  2.685  0.000    22.390     7.749
 450   8 O     -0.503  1.736  4.767  0.000    23.848     6.547
 451   6 C     -0.022  1.066  2.957  0.000    20.937     6.508
 452   6 C     -0.065  1.051  3.014  0.000    21.737     6.637
 453   6 C     -0.119  1.039  3.079  0.000    22.825     6.812
 454   6 C     -0.107  1.036  3.071  0.000    22.612     6.781
 455   1 H      0.231  0.769  0.000  0.000     0.960     1.535
 456   1 H      0.068  0.932  0.000  0.000     2.103     2.268
 457   1 H      0.049  0.951  0.000  0.000     2.331     2.388
 458   1 H      0.042  0.958  0.000  0.000     2.423     2.434
 459   1 H      0.042  0.958  0.000  0.000     2.417     2.431
 460   1 H      0.066  0.934  0.000  0.000     2.131     2.283
 461   1 H      0.040  0.960  0.000  0.000     2.453     2.449
 462   1 H      0.048  0.952  0.000  0.000     2.341     2.392
 463   1 H      0.043  0.957  0.000  0.000     2.411     2.428
 464   1 H      0.031  0.969  0.000  0.000     2.569     2.507
 465   1 H      0.049  0.951  0.000  0.000     2.326     2.385
 466   7 N     -0.197  1.259  3.939  0.000    25.287     7.469
 467   6 C      0.023  1.063  2.914  0.000    20.189     6.397
 468   6 C      0.278  1.043  2.679  0.000    22.289     7.731
 469   8 O     -0.505  1.733  4.772  0.000    23.898     6.554
 470   6 C     -0.022  1.065  2.957  0.000    20.931     6.507
 471   6 C     -0.072  1.051  3.021  0.000    21.872     6.658
 472   6 C     -0.120  1.038  3.082  0.000    22.854     6.816
 473   6 C     -0.115  1.036  3.079  0.000    22.754     6.803
 474   1 H      0.252  0.748  0.000  0.000     0.875     1.466
 475   1 H      0.074  0.926  0.000  0.000     2.043     2.235
 476   1 H      0.043  0.957  0.000  0.000     2.412     2.429
 477   1 H      0.055  0.945  0.000  0.000     2.257     2.349
 478   1 H      0.053  0.947  0.000  0.000     2.287     2.365
 479   1 H      0.067  0.933  0.000  0.000     2.114     2.274
 480   1 H      0.037  0.963  0.000  0.000     2.490     2.467
 481   1 H      0.053  0.947  0.000  0.000     2.278     2.360
 482   1 H      0.047  0.953  0.000  0.000     2.356     2.400
 483   1 H      0.047  0.953  0.000  0.000     2.361     2.403
 484   1 H      0.032  0.968  0.000  0.000     2.560     2.502
 485   7 N     -0.177  1.243  3.933  0.000    24.831     7.401
 486   6 C     -0.031  1.051  2.980  0.000    21.192     6.567
 487   6 C      0.272  1.040  2.688  0.000    22.396     7.749
 488   8 O     -0.492  1.733  4.758  0.000    23.599     6.513
 489   1 H      0.231  0.769  0.000  0.000     0.960     1.535
 490   1 H      0.090  0.910  0.000  0.000     1.880     2.144
 491   1 H      0.102  0.898  0.000  0.000     1.768     2.080
 492   7 N     -0.191  1.257  3.933  0.000    25.133     7.446
 493   6 C      0.022  1.065  2.913  0.000    20.205     6.401
 494   6 C      0.282  1.038  2.680  0.000    22.233     7.721
 495   8 O     -0.515  1.752  4.763  0.000    24.117     6.584
 496   6 C      0.108  1.051  2.842  0.000    18.910     6.210
 497   8 O     -0.494  1.733  4.761  0.000    22.765     6.441
 498   6 C     -0.136  1.044  3.092  0.000    23.173     6.865
 499   1 H      0.234  0.766  0.000  0.000     0.948     1.525
 500   1 H      0.077  0.923  0.000  0.000     2.008     2.216
 501   1 H      0.058  0.942  0.000  0.000     2.219     2.330
 502   1 H      0.344  0.656  0.000  0.000     0.603     1.219
 503   1 H      0.057  0.943  0.000  0.000     2.240     2.341
 504   1 H      0.065  0.935  0.000  0.000     2.142     2.289
 505   1 H      0.046  0.954  0.000  0.000     2.371     2.408
 506   7 N     -0.198  1.250  3.948  0.000    25.299     7.470
 507   6 C      0.025  1.062  2.913  0.000    20.162     6.393
 508   6 C      0.280  1.041  2.679  0.000    22.259     7.726
 509   8 O     -0.512  1.754  4.759  0.000    24.057     6.576
 510   6 C     -0.014  1.062  2.952  0.000    20.794     6.486
 511   6 C     -0.116  1.040  3.076  0.000    22.770     6.803
 512   6 C     -0.125  1.042  3.083  0.000    22.947     6.830
 513   1 H      0.238  0.762  0.000  0.000     0.931     1.511
 514   1 H      0.062  0.938  0.000  0.000     2.176     2.307
 515   1 H      0.044  0.956  0.000  0.000     2.397     2.421
 516   1 H      0.062  0.938  0.000  0.000     2.175     2.306
 517   1 H      0.034  0.966  0.000  0.000     2.528     2.486
 518   1 H      0.046  0.954  0.000  0.000     2.372     2.408
 519   1 H      0.057  0.943  0.000  0.000     2.235     2.338
 520   1 H      0.044  0.956  0.000  0.000     2.390     2.418
 521   1 H      0.060  0.940  0.000  0.000     2.197     2.318
 522   7 N     -0.199  1.251  3.948  0.000    25.326     7.474
 523   6 C      0.012  1.065  2.923  0.000    20.375     6.427
 524   6 C      0.271  1.041  2.688  0.000    22.415     7.753
 525   8 O     -0.509  1.752  4.756  0.000    23.976     6.565
 526   6 C      0.074  1.037  2.889  0.000    19.555     6.335
 527   8 O     -0.455  1.703  4.752  0.000    21.956     6.325
 528   1 H      0.226  0.774  0.000  0.000     0.981     1.552
 529   1 H      0.075  0.925  0.000  0.000     2.033     2.230
 530   1 H      0.034  0.966  0.000  0.000     2.528     2.487
 531   1 H      0.064  0.936  0.000  0.000     2.153     2.294
 532   1 H      0.335  0.665  0.000  0.000     0.625     1.242
 533   7 N     -0.191  1.253  3.938  0.000    25.141     7.447
 534   6 C      0.029  1.063  2.908  0.000    20.090     6.382
 535   6 C      0.214  1.083  2.703  0.000    23.469     7.934
 536   8 O     -0.366  1.750  4.616  0.000    21.013     6.146
 537   6 C     -0.011  1.060  2.951  0.000    20.745     6.478
 538   6 C     -0.118  1.040  3.078  0.000    22.820     6.811
 539   6 C     -0.125  1.043  3.082  0.000    22.949     6.830
 540   1 H      0.236  0.764  0.000  0.000     0.938     1.517
 541   1 H      0.084  0.916  0.000  0.000     1.941     2.179
 542   1 H      0.049  0.951  0.000  0.000     2.331     2.387
 543   1 H      0.065  0.935  0.000  0.000     2.143     2.289
 544   1 H      0.031  0.969  0.000  0.000     2.566     2.505
 545   1 H      0.054  0.946  0.000  0.000     2.270     2.356
 546   1 H      0.060  0.940  0.000  0.000     2.198     2.319
 547   1 H      0.054  0.946  0.000  0.000     2.265     2.353
 548   1 H      0.057  0.943  0.000  0.000     2.231     2.336
 549   1 H      0.181  0.819  0.000  0.000     1.206     1.720
 550   1 H      0.090  0.910  0.000  0.000     1.877     2.142
 551   1 H      0.176  0.824  0.000  0.000     1.234     1.740
 552   1 H      0.069  0.931  0.000  0.000     2.100     2.266
 553   1 H      0.189  0.811  0.000  0.000     1.162     1.688
 554   1 H      0.095  0.905  0.000  0.000     1.827     2.113
 555   1 H      0.181  0.819  0.000  0.000     1.210     1.723
 556   1 H      0.087  0.913  0.000  0.000     1.911     2.162
 557   1 H      0.183  0.817  0.000  0.000     1.196     1.713
 558   1 H      0.060  0.940  0.000  0.000     2.202     2.320
 559   1 H      0.163  0.837  0.000  0.000     1.313     1.795
 560   1 H      0.069  0.931  0.000  0.000     2.091     2.261
 561   1 H      0.182  0.818  0.000  0.000     1.199     1.715
 562   1 H      0.058  0.942  0.000  0.000     2.228     2.334

 Mol. C6AA /au·bohr⁶  :    2948799.999467
 Mol. C8AA /au·bohr⁸  :   67235685.575214
 Mol. α(0) /au        :       2585.005346

 
molecular dipole:
                 x           y           z       tot (Debye)
 q only:      -52.121    -139.106     -46.972
   full:      -53.365    -138.957     -50.284     399.358
molecular quadrupole (traceless):
                xx          xy          yy          xz          yz          zz
 q only:     8394.735  -10977.234  -16581.148   -3472.869  -10178.561    8186.413
  q+dip:     8367.865  -11156.260  -16324.697   -3857.237  -10867.098    7956.832
   full:     8374.657  -11159.015  -16324.288   -3853.260  -10870.910    7949.631
speedup  1.00
cpu  time for grad   19.27 s
wall time for grad   19.27 s

SCC energy    :    -842.3661095
rep           :      10.4398230
ES            :       1.9145353
AES           :      -0.0636108
AXC           :       0.2922953
disp          :      -0.8128956
XB            :       0.0000000
fix           :       0.0000000
Gborn         :       0.0000000
Gsasa         :       0.0000000
Ghb           :       0.0000000
Gshift        :       0.0000000
Gsolv         :      -0.3147844     -197.53
Etot ala COSMO:    -842.3661095
grad norm     :       0.5930378
total E       :    -831.8448658
atomizationE  :     156.4632032    98182.14
(atE without considering molecular charge,
 total energy contains solvation terms)
H-L gap (eV)  :          0.9788

------------------------------------------------------------------------
 * finished run on 2019/03/14 at 15:08:39.749     
------------------------------------------------------------------------
 total:
 * wall-time:     0 d,  0 h,  0 min, 20.439 sec
 *  cpu-time:     0 d,  0 h,  0 min, 20.338 sec
 * ratio c/w:     0.995 speedup
 SCF:
 * wall-time:     0 d,  0 h,  0 min, 19.990 sec
 *  cpu-time:     0 d,  0 h,  0 min, 19.988 sec
 * ratio c/w:     1.000 speedup

