      -----------------------------------------------------------      
     |                   =====================                   |     
     |                           x T B                           |     
     |                   =====================                   |     
     |                         S. Grimme                         |     
     |          Mulliken Center for Theoretical Chemistry        |     
     |                    University of Bonn                     |     
     |                 Version 6.0.1 (SAW181210)                 |     
      -----------------------------------------------------------      

   This program is distributed in the hope that it will be useful,
   but WITHOUT ANY WARRANTY; without even the implied warranty of
   MERCHANTABILITY or FITNESS FOR A PARTICULAR PURPOSE.
   
   FOR NON-COMMERCIAL, ACADEMIA USE ONLY.
   
   Cite this work as:
   S. Grimme, C. Bannwarth, P. Shushkov, J. Comput. Theory Chem., 2017,
   13, 1989-2009.
   C. Bannwarth, S. Ehlert and S. Grimme., ChemRxiv, 2018, preprint.
   http://doi.org/10.26434/chemrxiv.7246238.v1
   
   for sTDA-xTB:
   S. Grimme and C. Bannwarth, J. Chem. Phys., 2016, 145, 054103.
   
   in the mass-spec context:
   V. Asgeirsson, C. Bauer and S. Grimme, Chem. Sci., 2017, 8, 4879.
   
   if GBSA is used:
   P. Shushkov, F. März and S. Grimme, unpublished.
   
   for ANC optimizer:
   S. Grimme, unpublished.
   Rational Function algorithm used in ANCopt:
   F. Eckert, P. Pulay, H.-J. Werner, J. Comput. Chem., 1997, 18, 1473.
   
   with help from (in alphabetical order)
   C. Bannwarth, F. Bohle, G. Brandenburg, E. Caldeweyher, M. Checinski,
   S. Dohm, S. Ehlert, S. Ehrlich, F. März, H. Neugebauer, J. Pisarek,
   P. Pracht, P. Shushkov, and S. Spicher.
   
 * started run on 2019/03/15 at 00:15:19.057     
========================================================================
 # omp threads = 1
========================================================================
number of atoms            : 573
number of electrons        : 1562
charge                     : 1
spin                       : .0
first test random number   : .3574
           ------------------------------------------------- 
          |                 G F N 2 - x T B                 |
          | Geometry, Frequencies, Noncovalent interactions |
          |            JCTC 2018 parametrisation            |
           ------------------------------------------------- 
 
      method parameters     
 k(s)        :  1.8500
 k(p)        :  2.2300
 k(d)        :  2.2300
 k(f)        :  2.0000
 kEN (H0ij)  : -2.0000
 D4 a1       :  0.5200
 D4 a2       :  5.0000
 D4 s6       :  1.0000
 D4 s8       :  2.7000
 D4 s9       :  5.0000
 alphaj      :  2.0000

 Solvent             : h2o
 Using internal parameter file: .param_gbsa2_h2o
 Gsolv ref. state (COSMO-RS): gsolv [1 M gas/solution]
 temperature (mdtemp)       :    298.150000000000     
 dielectric constant        :    80.2000000000000     
 rho                        :    1.00000000000000     
 mass                       :    18.0000000000000     
 surface tension            :    15.5689454083859     
 probe radius               :   0.975313790000000     
 vdW radii scaling          :    1.00000000000000     
 Gshift (Eh)                :   1.857443126794793E-003
 c1                         :    1.55243817000000     
 soset                      :   0.130326360000000     
 HB correction              :  T

            Z     q(EN)     CN     RAES       Cart. coordinates
     1  N   5.0   -0.22    3.34    2.00    46.36607    72.93339    37.61797
     2  C   4.0    0.03    4.49    4.53    48.02479    74.30287    35.96408
     3  C   4.0    0.15    3.44    3.09    47.75457    77.17971    35.88472
     4  O   6.0   -0.31    1.24    1.80    49.57477    78.57593    35.76852
     5  C   4.0   -0.04    4.22    4.05    47.76409    73.20866    33.37272
     6  S   6.0   -0.07    2.47    3.10    48.18928    69.85787    33.25031
     7  H   1.0    0.10    1.11    1.45    45.32435    71.81759    36.73839
     8  H   1.0    0.05    1.12    1.45    49.79856    74.09962    36.72882
     9  H   1.0    0.05    1.12    1.45    46.01527    73.65678    32.69220
    10  H   1.0    0.04    1.12    1.45    49.00573    74.05724    32.17024
    11  H   1.0    0.05    0.99    1.43    47.88849    69.16070    31.00916
    12  N   5.0   -0.15    3.59    2.15    45.41688    78.02505    35.94294
    13  C   4.0    0.04    4.60    4.67    44.73992    80.62629    35.92793
    14  C   4.0    0.16    3.52    3.12    45.63545    81.89423    38.31667
    15  O   6.0   -0.29    1.25    1.80    46.22603    84.09220    38.34312
    16  C   4.0    0.05    4.38    4.34    41.93865    81.11933    35.70207
    17  O   6.0   -0.26    2.18    1.85    40.88898    79.34813    34.02209
    18  C   4.0   -0.07    4.21    4.01    41.41929    83.76101    34.90791
    19  H   1.0    0.10    1.13    1.45    44.02465    76.95161    36.01914
    20  H   1.0    0.06    1.11    1.45    45.60249    81.38605    34.36444
    21  H   1.0    0.05    1.10    1.44    41.17034    80.85915    37.46951
    22  H   1.0    0.14    1.07    1.44    39.20576    79.61564    33.93969
    23  H   1.0    0.05    1.04    1.43    39.53181    84.10030    34.80484
    24  H   1.0    0.06    1.04    1.43    42.17624    85.03402    36.12970
    25  H   1.0    0.06    1.04    1.43    42.16994    84.09502    33.17345
    26  N   5.0   -0.15    3.57    2.13    45.64064    80.48102    40.38982
    27  C   4.0    0.04    4.51    4.55    46.44410    81.41131    42.79986
    28  C   4.0    0.17    3.50    3.11    49.27674    81.01960    43.20087
    29  O   6.0   -0.26    1.24    1.80    50.62376    82.68084    44.05041
    30  C   4.0   -0.03    4.44    4.45    44.96006    80.27573    44.94564
    31  C   4.0    0.16    3.33    3.06    45.61087    77.54178    45.48788
    32  O   6.0   -0.28    1.33    1.80    47.74905    77.01839    46.19266
    33  N   5.0   -0.20    3.29    1.98    43.92969    75.99603    45.17694
    34  H   1.0    0.09    1.12    1.45    45.14788    78.79306    40.41341
    35  H   1.0    0.07    1.12    1.45    46.11972    83.32850    42.77609
    36  H   1.0    0.06    1.07    1.44    45.21424    81.32945    46.54872
    37  H   1.0    0.05    1.08    1.44    43.06954    80.41041    44.57472
    38  H   1.0    0.11    1.07    1.44    44.13478    74.22989    45.43127
    39  H   1.0    0.09    1.07    1.44    42.26117    76.37398    44.62111
    40  N   5.0   -0.13    3.61    2.16    50.19349    78.81309    42.50800
    41  C   4.0    0.04    4.44    4.45    52.78270    78.09713    42.79895
    42  C   4.0    0.16    3.45    3.09    54.64748    79.57615    41.18331
    43  O   6.0   -0.30    1.26    1.80    56.88560    79.64435    41.76108
    44  C   4.0   -0.07    4.20    4.00    53.08581    75.31481    42.99769
    45  H   1.0    0.09    1.12    1.45    49.19833    77.53913    41.80448
    46  H   1.0    0.08    1.15    1.45    53.38434    78.76425    44.51616
    47  H   1.0    0.05    1.04    1.43    54.92344    74.82184    43.23727
    48  H   1.0    0.06    1.04    1.43    52.09448    74.61796    44.49212
    49  H   1.0    0.04    1.04    1.43    52.43836    74.45145    41.41647
    50  N   5.0   -0.14    3.51    2.09    53.79650    80.76623    39.18551
    51  C   4.0    0.04    4.59    4.66    55.41979    82.22077    37.56856
    52  C   4.0    0.16    3.49    3.11    56.98456    84.38800    38.57661
    53  O   6.0   -0.30    1.26    1.80    59.27171    84.38216    38.29758
    54  C   4.0   -0.04    4.53    4.58    54.03924    82.99775    35.22071
    55  C   4.0   -0.02    4.36    4.30    54.94709    81.64029    32.90295
    56  C   4.0   -0.08    4.25    4.11    53.80032    82.62072    30.56845
    57  C   4.0   -0.08    4.34    4.27    57.71576    81.79149    32.79885
    58  H   1.0    0.11    1.12    1.45    52.11458    80.72615    38.66550
    59  H   1.0    0.06    1.17    1.46    56.85628    80.95043    37.27148
    60  H   1.0    0.06    1.08    1.44    52.13811    82.72292    35.46890
    61  H   1.0    0.05    1.08    1.44    54.20916    84.90657    34.95291
    62  H   1.0    0.05    1.12    1.45    54.42537    79.77645    33.04599
    63  H   1.0    0.05    1.04    1.43    54.42282    81.66460    29.02467
    64  H   1.0    0.05    1.04    1.43    51.88660    82.47733    30.61345
    65  H   1.0    0.05    1.05    1.44    54.24704    84.47063    30.33505
    66  H   1.0    0.04    1.04    1.44    58.40847    80.85089    31.27917
    67  H   1.0    0.05    1.05    1.44    58.26530    83.62314    32.67123
    68  H   1.0    0.05    1.06    1.44    58.51341    81.04276    34.37267
    69  N   5.0   -0.14    3.48    2.06    55.78430    86.28361    39.65446
    70  C   4.0    0.02    4.37    4.33    57.08387    88.32693    40.78348
    71  C   4.0    0.17    3.45    3.09    58.00506    87.31235    43.27828
    72  O   6.0   -0.25    1.27    1.80    56.53355    87.07188    45.00207
    73  H   1.0    0.10    1.11    1.44    54.02942    86.35239    39.79351
    74  H   1.0    0.05    1.07    1.44    58.52371    88.94977    39.65471
    75  H   1.0    0.06    1.06    1.44    55.95799    89.88535    41.03317
    76  N   5.0   -0.15    3.49    2.07    60.42817    86.65933    43.48561
    77  C   4.0    0.04    4.50    4.54    61.36244    85.44361    45.71424
    78  C   4.0    0.15    3.47    3.10    64.15696    85.51609    46.49446
    79  O   6.0   -0.28    1.36    1.80    64.88312    84.21820    48.19952
    80  C   4.0   -0.00    4.50    4.53    60.49176    82.74240    45.72477
    81  C   4.0    0.18    3.29    3.05    59.71584    81.69523    48.25179
    82  O   6.0   -0.25    1.25    1.80    58.17491    82.88760    49.51722
    83  N   5.0   -0.20    3.29    1.98    60.67837    79.69554    48.92124
    84  H   1.0    0.09    1.10    1.44    61.63003    86.90670    42.22937
    85  H   1.0    0.08    1.13    1.45    60.56727    86.53505    47.10929
    86  H   1.0    0.08    1.09    1.44    59.02667    82.54827    44.47275
    87  H   1.0    0.05    1.09    1.44    61.89541    81.63815    44.99384
    88  H   1.0    0.10    1.07    1.44    60.31419    78.88621    50.48236
    89  H   1.0    0.09    1.07    1.44    61.86881    78.76037    47.95864
    90  N   5.0   -0.15    3.51    2.09    65.74662    87.02695    45.26039
    91  C   4.0    0.04    4.55    4.61    68.37903    87.14153    45.93505
    92  C   4.0    0.16    3.55    3.14    69.51357    84.52024    45.82747
    93  O   6.0   -0.28    1.35    1.80    69.53507    83.20227    47.64336
    94  C   4.0   -0.03    4.50    4.54    68.73246    88.14184    48.56232
    95  C   4.0   -0.03    4.40    4.37    67.77862    90.70360    48.99727
    96  C   4.0    0.16    3.33    3.06    68.99796    92.62122    47.31325
    97  O   6.0   -0.28    1.25    1.80    71.28886    92.94886    47.46021
    98  N   5.0   -0.20    3.29    1.98    67.61712    93.73485    45.79931
    99  H   1.0    0.08    1.10    1.44    65.25166    88.07278    43.93683
   100  H   1.0    0.04    1.10    1.44    69.27003    88.33996    44.69354
   101  H   1.0    0.08    1.09    1.44    67.89124    86.90868    49.79060
   102  H   1.0    0.06    1.08    1.44    70.60636    88.09107    49.02793
   103  H   1.0    0.05    1.09    1.44    65.86846    90.72867    48.73542
   104  H   1.0    0.06    1.07    1.44    68.02507    91.20343    50.85102
   105  H   1.0    0.09    1.07    1.44    65.84850    93.49248    45.67907
   106  H   1.0    0.11    1.07    1.44    68.21149    94.95417    44.63178
   107  N   5.0   -0.16    3.56    2.13    70.50011    83.74898    43.64826
   108  C   4.0    0.04    4.59    4.65    71.53175    81.30380    43.39320
   109  C   4.0    0.16    3.51    3.12    74.33872    81.06719    43.79831
   110  O   6.0   -0.30    1.30    1.80    75.36597    79.03513    43.86135
   111  C   4.0   -0.03    4.47    4.49    70.72254    80.12404    40.98235
   112  C   4.0   -0.02    3.65    3.20    68.16708    78.99383    41.00093
   113  C   4.0   -0.04    3.62    3.18    66.23102    79.86310    39.50021
   114  C   4.0   -0.04    3.59    3.16    67.56995    76.98632    42.55207
   115  C   4.0   -0.03    3.50    3.12    63.93220    78.82556    39.53941
   116  C   4.0   -0.04    3.50    3.11    65.24504    75.95960    42.57879
   117  C   4.0   -0.04    3.50    3.11    63.40439    76.86795    41.07439
   118  H   1.0    0.08    1.11    1.45    70.57171    84.72957    42.19221
   119  H   1.0    0.07    1.15    1.45    70.77738    80.29880    44.86963
   120  H   1.0    0.05    1.09    1.44    70.82984    81.45397    39.58868
   121  H   1.0    0.05    1.09    1.44    72.00993    78.77953    40.47298
   122  H   1.0    0.05    1.12    1.45    66.61448    81.33569    38.35825
   123  H   1.0    0.06    1.08    1.44    68.96274    76.31562    43.67600
   124  H   1.0    0.06    1.08    1.44    62.55012    79.51231    38.40729
   125  H   1.0    0.06    1.07    1.44    64.84998    74.48319    43.73609
   126  H   1.0    0.05    1.07    1.44    61.65162    76.09829    41.09257
   127  N   5.0   -0.15    3.64    2.20    75.61908    83.19275    44.06007
   128  C   4.0    0.04    4.54    4.59    78.23710    83.16263    44.60212
   129  C   4.0    0.16    3.48    3.10    78.51196    81.88838    47.20716
   130  O   6.0   -0.31    1.27    1.80    80.05457    80.26426    47.61350
   131  C   4.0   -0.06    4.46    4.47    79.33721    85.76204    44.58610
   132  C   4.0   -0.03    4.38    4.34    78.84187    87.32930    42.34120
   133  C   4.0    0.16    3.28    3.05    81.02361    87.47361    40.48957
   134  O   6.0   -0.30    1.25    1.80    80.62239    87.47529    38.20487
   135  N   5.0   -0.20    3.33    1.99    83.15338    87.59139    41.44420
   136  H   1.0    0.08    1.12    1.45    74.90584    84.79569    43.94113
   137  H   1.0    0.06    1.10    1.44    79.18737    82.16768    43.22632
   138  H   1.0    0.05    1.08    1.44    78.71421    86.68133    46.16336
   139  H   1.0    0.05    1.11    1.44    81.24992    85.64279    44.80854
   140  H   1.0    0.05    1.09    1.44    77.26356    86.65753    41.44960
   141  H   1.0    0.05    1.07    1.44    78.34946    89.12191    42.88800
   142  H   1.0    0.09    1.08    1.44    83.48262    87.59684    43.20678
   143  H   1.0    0.10    1.07    1.44    84.66625    87.70149    40.49319
   144  N   5.0   -0.14    3.55    2.11    76.90417    82.65056    48.98526
   145  C   4.0    0.03    4.54    4.59    76.84972    81.76809    51.57596
   146  C   4.0    0.16    3.45    3.10    76.36801    78.94301    52.07609
   147  O   6.0   -0.32    1.41    1.80    74.21434    78.10369    52.14898
   148  C   4.0    0.06    4.39    4.37    74.93517    83.24399    53.07675
   149  O   6.0   -0.25    2.21    1.86    72.47796    82.63153    52.25782
   150  C   4.0   -0.07    4.24    4.07    75.35881    85.99665    52.83171
   151  H   1.0    0.09    1.13    1.45    75.65720    83.84756    48.66147
   152  H   1.0    0.05    1.12    1.45    78.68172    82.07833    52.11999
   153  H   1.0    0.05    1.09    1.44    75.13118    82.77848    54.95641
   154  H   1.0    0.16    1.12    1.45    72.28838    80.93614    52.30021
   155  H   1.0    0.06    1.04    1.43    74.07474    86.99549    53.85088
   156  H   1.0    0.05    1.04    1.43    77.10922    86.50624    53.43740
   157  H   1.0    0.05    1.05    1.44    75.19118    86.53481    50.99843
   158  N   5.0   -0.16    3.45    2.05    78.34646    77.50229    52.54767
   159  C   4.0    0.04    4.40    4.38    78.31461    74.83746    53.03911
   160  C   4.0    0.11    3.28    3.05    75.83621    73.84736    54.22846
   161  O   6.0   -0.27    1.21    1.80    74.98104    71.93451    53.69038
   162  C   4.0   -0.04    4.36    4.31    80.90866    73.86924    53.81619
   163  C   4.0   -0.03    4.34    4.28    81.06185    71.29645    54.94279
   164  C   4.0    0.17    3.29    3.05    80.06885    69.21120    53.27074
   165  O   6.0   -0.27    1.37    1.80    78.32984    69.64286    51.87222
   166  N   5.0   -0.20    3.28    1.97    81.13619    67.10194    53.43684
   167  H   1.0    0.09    1.12    1.45    79.97555    78.17024    52.59165
   168  H   1.0    0.07    1.18    1.46    78.05838    73.74165    51.46348
   169  H   1.0    0.05    1.08    1.44    82.06479    73.91076    52.26045
   170  H   1.0    0.05    1.08    1.44    81.68595    75.15590    55.02623
   171  H   1.0    0.04    1.08    1.44    82.88381    70.89573    55.44994
   172  H   1.0    0.05    1.07    1.44    80.08430    71.28865    56.61198
   173  H   1.0    0.10    1.07    1.44    82.51438    66.74319    54.51419
   174  H   1.0    0.11    1.07    1.44    80.63990    65.68825    52.46480
   175  N   5.0   -0.14    3.79    2.40    70.51534    76.08330    54.98603
   176  C   4.0   -0.02    4.07    3.75    67.83700    76.32226    52.76452
   177  C   4.0    0.16    3.45    3.09    68.14038    74.45716    50.66856
   178  O   6.0   -0.30    1.27    1.80    66.34529    73.75174    49.43092
   179  C   4.0   -0.06    4.19    3.97    67.47798    78.87949    51.73053
   180  H   1.0    0.06    2.02    2.57    71.33106    77.57411    55.05430
   181  H   1.0    0.05    1.08    1.44    66.24663    75.84448    53.75977
   182  H   1.0    0.06    1.04    1.43    65.94774    78.96095    50.55330
   183  H   1.0    0.06    1.04    1.43    67.19378    80.17273    53.11760
   184  H   1.0    0.07    1.05    1.44    69.00679    79.42474    50.71305
   185  H   1.0    0.06    2.14    2.98    70.68775    77.52770    54.07849
   186  N   5.0   -0.14    3.57    2.13    70.43939    73.63954    50.22672
   187  C   4.0    0.04    4.43    4.43    71.01860    71.86898    48.30040
   188  C   4.0    0.10    3.28    3.05    69.65435    69.48471    49.12997
   189  O   6.0   -0.29    1.12    1.80    68.22900    68.36474    47.70000
   190  C   4.0   -0.05    4.42    4.41    73.70709    72.13402    47.35136
   191  C   4.0   -0.05    4.33    4.25    74.30446    70.81403    45.00209
   192  C   4.0   -0.01    4.36    4.31    76.05809    72.16151    43.27266
   193  N   5.0   -0.13    3.56    2.13    78.66326    72.20336    43.98371
   194  C   4.0    0.11    3.46    3.10    79.68801    73.86975    45.61834
   195  N   5.0   -0.16    3.58    2.14    78.38133    75.37891    46.52270
   196  N   5.0   -0.18    3.44    2.04    81.97692    73.74662    46.07076
   197  H   1.0    0.11    1.13    1.45    71.82571    74.13574    51.19027
   198  H   1.0    0.05    1.17    1.46    70.29335    72.07688    46.51371
   199  H   1.0    0.05    1.11    1.44    74.08553    74.00815    47.07882
   200  H   1.0    0.07    1.08    1.44    74.92050    71.56238    48.72178
   201  H   1.0    0.06    1.08    1.44    75.04826    69.08806    45.43585
   202  H   1.0    0.04    1.09    1.44    72.64315    70.41624    44.09851
   203  H   1.0    0.04    1.07    1.44    75.88148    71.43517    41.48785
   204  H   1.0    0.05    1.09    1.44    75.46347    73.99248    43.10391
   205  H   1.0    0.09    1.11    1.44    79.70459    70.96755    43.27230
   206  H   1.0    0.10    1.11    1.44    76.57478    75.62552    46.19965
   207  H   1.0    0.11    1.11    1.45    78.87932    76.67755    47.69908
   208  H   1.0    0.09    1.06    1.44    83.17693    72.57256    45.36930
   209  H   1.0    0.09    1.07    1.44    82.82408    74.86148    47.20752
   210  N   5.0   -0.21    3.35    2.00    64.99852    68.26533    54.29268
   211  C   4.0    0.03    4.55    4.60    62.41074    68.36008    55.06449
   212  C   4.0    0.15    3.53    3.13    60.66754    68.18798    52.81612
   213  O   6.0   -0.29    1.27    1.80    58.41383    67.85661    53.08799
   214  C   4.0   -0.02    4.45    4.45    61.79505    70.69316    56.58752
   215  C   4.0   -0.08    4.29    4.17    63.54648    70.95384    58.72952
   216  C   4.0   -0.07    4.32    4.23    61.83155    72.93888    54.94371
   217  H   1.0    0.09    1.08    1.44    65.87257    69.75905    54.61571
   218  H   1.0    0.05    1.11    1.45    62.13355    66.81494    56.20638
   219  H   1.0    0.06    1.12    1.45    59.99568    70.51504    57.29778
   220  H   1.0    0.05    1.04    1.43    63.14910    72.52004    59.76683
   221  H   1.0    0.05    1.04    1.43    63.46246    69.43688    59.90059
   222  H   1.0    0.05    1.05    1.44    65.35045    71.11505    58.09581
   223  H   1.0    0.05    1.04    1.43    61.39907    74.53105    55.92623
   224  H   1.0    0.05    1.05    1.44    63.57461    73.17221    54.17939
   225  H   1.0    0.06    1.05    1.44    60.57377    72.78157    53.50106
   226  N   5.0   -0.15    3.56    2.13    61.66202    68.50179    50.55175
   227  C   4.0    0.04    4.60    4.66    60.20240    68.25298    48.31285
   228  C   4.0    0.09    3.43    3.09    60.56962    65.83684    46.85084
   229  O   6.0   -0.31    1.18    1.80    58.83807    64.65641    45.93393
   230  C   4.0   -0.02    4.54    4.59    60.82922    70.13636    46.31514
   231  C   4.0   -0.08    4.39    4.36    59.40386    69.61406    43.98982
   232  C   4.0   -0.07    4.31    4.21    60.31726    72.69740    47.18354
   233  H   1.0    0.10    1.12    1.45    63.35197    68.89826    50.27119
   234  H   1.0    0.07    1.14    1.45    58.41213    68.43303    49.04161
   235  H   1.0    0.05    1.13    1.45    62.72715    69.93724    45.94611
   236  H   1.0    0.04    1.04    1.44    59.86661    70.85128    42.60071
   237  H   1.0    0.05    1.08    1.44    59.73469    67.84294    43.33122
   238  H   1.0    0.05    1.05    1.44    57.51946    69.77420    44.32257
   239  H   1.0    0.05    1.05    1.44    60.79022    73.98852    45.84631
   240  H   1.0    0.05    1.05    1.44    58.44812    72.90134    47.56597
   241  H   1.0    0.06    1.05    1.44    61.30012    73.11037    48.77777
   242  N   5.0   -0.21    3.26    1.97    55.38653    60.38276    45.96434
   243  C   4.0    0.04    4.35    4.28    54.80939    60.14732    43.34956
   244  C   4.0    0.09    3.27    3.05    54.56135    57.43824    42.57222
   245  O   6.0   -0.28    1.14    1.80    53.58840    56.83704    40.59159
   246  C   4.0   -0.03    4.46    4.48    56.63890    61.45887    41.62667
   247  C   4.0   -0.01    3.66    3.21    55.47480    63.02667    39.62758
   248  C   4.0   -0.03    3.60    3.17    54.02810    61.95388    37.76346
   249  C   4.0   -0.04    3.60    3.17    55.65604    65.61388    39.63323
   250  C   4.0   -0.04    3.50    3.11    52.83458    63.39302    36.05038
   251  C   4.0   -0.05    3.49    3.11    54.46708    67.04200    37.91755
   252  C   4.0   -0.04    3.52    3.12    53.05225    65.92647    36.12742
   253  H   1.0    0.11    1.07    1.44    57.10272    60.32988    46.34609
   254  H   1.0    0.06    1.12    1.45    53.08942    61.01633    43.11915
   255  H   1.0    0.06    1.10    1.44    57.81456    62.55749    42.69034
   256  H   1.0    0.05    1.09    1.44    57.78992    60.13796    40.82084
   257  H   1.0    0.07    1.08    1.44    53.88478    60.05205    37.72541
   258  H   1.0    0.05    1.08    1.44    56.71874    66.43569    40.98223
   259  H   1.0    0.05    1.07    1.44    51.76936    62.54539    34.70096
   260  H   1.0    0.05    1.07    1.44    54.64591    68.94811    37.99158
   261  H   1.0    0.05    1.10    1.44    52.14837    67.01177    34.83108
   262  N   5.0   -0.21    3.34    2.00    64.89658    55.46500    25.39025
   263  C   4.0    0.03    4.38    4.34    66.65162    57.37449    24.61191
   264  C   4.0    0.17    3.52    3.12    66.85968    59.05399    26.89624
   265  O   6.0   -0.28    1.27    1.80    68.84468    59.52279    27.87749
   266  C   4.0   -0.08    4.24    4.09    65.82291    58.82080    22.36589
   267  H   1.0    0.09    1.07    1.44    63.36400    55.52277    24.53015
   268  H   1.0    0.06    1.10    1.44    68.36539    56.59138    24.12978
   269  H   1.0    0.05    1.04    1.43    67.12966    60.13037    21.84370
   270  H   1.0    0.05    1.04    1.43    65.52386    57.66535    20.86072
   271  H   1.0    0.04    1.05    1.44    64.18312    59.74448    22.73508
   272  N   5.0   -0.15    3.57    2.13    64.64438    59.90308    27.72834
   273  C   4.0    0.03    4.44    4.44    64.31271    61.50270    29.88632
   274  C   4.0    0.09    3.33    3.06    65.86356    60.58047    32.11386
   275  O   6.0   -0.29    1.19    1.80    67.98745    61.35174    32.46208
   276  C   4.0   -0.06    4.52    4.56    61.61100    61.80801    30.62040
   277  C   4.0   -0.03    4.36    4.31    61.06434    63.13226    33.07615
   278  C   4.0   -0.08    4.32    4.23    62.68995    65.35627    33.39639
   279  C   4.0   -0.08    4.27    4.15    58.38125    63.87509    33.20369
   280  H   1.0    0.08    1.12    1.45    63.12387    59.49286    26.94328
   281  H   1.0    0.05    1.11    1.45    65.02392    63.24155    29.39434
   282  H   1.0    0.04    1.08    1.44    60.67498    62.75578    29.22087
   283  H   1.0    0.04    1.08    1.44    60.80000    60.05531    30.64837
   284  H   1.0    0.04    1.12    1.45    61.46923    61.89934    34.52152
   285  H   1.0    0.04    1.05    1.44    62.35873    66.22767    35.07268
   286  H   1.0    0.05    1.06    1.44    64.54916    64.88170    33.33813
   287  H   1.0    0.04    1.05    1.44    62.35679    66.62332    31.99687
   288  H   1.0    0.04    1.05    1.44    57.97138    64.75633    34.85865
   289  H   1.0    0.04    1.05    1.44    57.95936    65.08631    31.77482
   290  H   1.0    0.04    1.04    1.43    57.21801    62.35637    33.04819
   291  N   5.0   -0.21    3.36    2.00    73.05878    60.82084    33.31155
   292  C   4.0    0.04    4.37    4.33    74.22062    63.18671    32.72106
   293  C   4.0    0.15    3.46    3.10    74.79135    64.61150    35.11684
   294  O   6.0   -0.30    1.23    1.80    76.11597    66.48968    35.11675
   295  C   4.0   -0.06    4.25    4.09    72.65595    64.75138    31.01533
   296  H   1.0    0.12    1.09    1.44    71.53237    61.00345    34.17452
   297  H   1.0    0.06    1.11    1.45    75.88247    62.81172    31.78449
   298  H   1.0    0.05    1.04    1.43    73.53627    66.39341    30.56007
   299  H   1.0    0.06    1.04    1.43    72.26509    63.81659    29.38509
   300  H   1.0    0.06    1.05    1.44    70.99047    65.18018    31.86138
   301  N   5.0   -0.15    3.58    2.14    73.68690    63.72484    37.18087
   302  C   4.0    0.03    4.40    4.38    73.93466    64.67873    39.69438
   303  C   4.0    0.09    3.26    3.04    76.07831    63.34107    41.05273
   304  O   6.0   -0.28    1.15    1.80    76.25908    63.43297    43.34599
   305  C   4.0   -0.03    4.48    4.51    71.58591    64.29994    41.22358
   306  C   4.0   -0.01    3.65    3.20    69.30509    65.71299    40.43830
   307  C   4.0   -0.03    3.60    3.17    69.08602    68.28147    40.74916
   308  C   4.0   -0.03    3.61    3.17    67.17371    64.52310    39.53535
   309  C   4.0   -0.04    3.51    3.12    66.93547    69.51221    40.22359
   310  C   4.0   -0.04    3.52    3.12    65.05275    65.75482    39.03210
   311  C   4.0   -0.05    3.51    3.12    64.89935    68.26721    39.36603
   312  H   1.0    0.09    1.15    1.45    72.64440    62.30839    37.11184
   313  H   1.0    0.06    1.11    1.44    74.27474    66.58440    39.53455
   314  H   1.0    0.05    1.09    1.44    71.18885    62.41099    41.21736
   315  H   1.0    0.07    1.09    1.44    71.96551    64.70436    43.07735
   316  H   1.0    0.05    1.08    1.44    70.63029    69.20014    41.39399
   317  H   1.0    0.06    1.08    1.44    67.28622    62.63638    39.27321
   318  H   1.0    0.05    1.08    1.44    66.83099    71.41075    40.47340
   319  H   1.0    0.05    1.08    1.44    63.52429    64.79869    38.38725
   320  H   1.0    0.04    1.07    1.44    63.26830    69.19098    38.97087
   321  N   5.0   -0.22    3.23    1.96    89.60005    77.43279    38.26366
   322  C   4.0    0.03    4.50    4.54    87.47929    78.30615    39.72335
   323  C   4.0    0.15    3.51    3.12    85.40671    79.43839    38.10787
   324  O   6.0   -0.31    1.24    1.80    83.26259    78.60979    38.21252
   325  C   4.0   -0.02    4.39    4.36    88.15741    80.08315    41.88844
   326  C   4.0   -0.07    4.31    4.21    85.96444    81.69498    42.59263
   327  C   4.0   -0.08    4.24    4.07    89.09577    78.64204    44.11188
   328  H   1.0    0.10    1.06    1.44    91.16204    77.90356    38.92481
   329  H   1.0    0.05    1.12    1.45    86.74427    76.68745    40.50735
   330  H   1.0    0.05    1.11    1.45    89.57307    81.25392    41.25493
   331  H   1.0    0.05    1.04    1.43    86.41919    82.92469    43.99400
   332  H   1.0    0.05    1.06    1.44    85.33021    82.72271    41.09799
   333  H   1.0    0.06    1.04    1.44    84.51082    80.60650    43.21264
   334  H   1.0    0.05    1.04    1.43    89.59531    79.81342    45.54952
   335  H   1.0    0.05    1.04    1.43    87.73100    77.46128    44.76437
   336  H   1.0    0.05    1.04    1.43    90.62968    77.57740    43.66670
   337  N   5.0   -0.15    3.54    2.11    86.01479    81.35227    36.61012
   338  C   4.0    0.03    4.53    4.58    84.25203    82.59859    34.95652
   339  C   4.0    0.16    3.56    3.14    83.97481    81.33519    32.37041
   340  O   6.0   -0.30    1.37    1.80    82.02238    81.48012    31.10673
   341  C   4.0   -0.02    4.36    4.31    84.78852    85.38900    34.67304
   342  C   4.0    0.26    3.16    3.03    87.11883    85.98041    33.12770
   343  O   6.0   -0.27    1.20    1.80    89.13807    84.98749    33.77961
   344  O   6.0   -0.25    1.17    1.80    86.88684    87.43032    31.27614
   345  H   1.0    0.10    1.12    1.45    87.64389    82.01129    36.51171
   346  H   1.0    0.05    1.15    1.45    82.53065    82.38852    35.82980
   347  H   1.0    0.07    1.07    1.44    83.27246    86.29271    33.88591
   348  H   1.0    0.06    1.07    1.44    84.97839    86.20162    36.41583
   349  N   5.0   -0.14    3.68    2.24    85.93925    80.11401    31.56042
   350  C   4.0    0.04    4.54    4.59    86.08941    78.93634    29.14523
   351  C   4.0    0.18    3.56    3.14    83.77838    77.23685    29.18147
   352  O   6.0   -0.27    1.22    1.80    82.30782    77.08638    27.43977
   353  C   4.0   -0.03    4.37    4.33    88.57962    77.59869    28.77887
   354  C   4.0    0.26    3.13    3.03    89.54940    77.39841    26.10065
   355  O   6.0   -0.25    1.17    1.80    91.63383    76.33693    25.75183
   356  O   6.0   -0.25    1.20    1.80    88.18303    78.24867    24.38601
   357  H   1.0    0.09    1.13    1.45    87.39677    79.88100    32.52462
   358  H   1.0    0.08    1.11    1.45    85.99333    80.15518    27.62741
   359  H   1.0    0.06    1.08    1.44    89.92970    78.47314    29.85226
   360  H   1.0    0.06    1.08    1.44    88.45104    75.82658    29.52966
   361  N   5.0   -0.15    3.56    2.12    83.45200    75.95314    31.32762
   362  C   4.0    0.04    4.36    4.30    81.30307    74.42735    31.99740
   363  C   4.0    0.16    3.39    3.08    78.71097    75.72643    32.57274
   364  O   6.0   -0.31    1.32    1.80    76.73617    74.77784    31.82835
   365  C   4.0   -0.07    4.19    3.98    81.98543    72.49055    33.94140
   366  H   1.0    0.09    1.13    1.45    84.68042    75.96884    32.58590
   367  H   1.0    0.06    1.13    1.45    80.88342    73.59722    30.29611
   368  H   1.0    0.06    1.04    1.43    80.48022    71.38570    34.39381
   369  H   1.0    0.05    1.04    1.43    83.38899    71.33175    33.32252
   370  H   1.0    0.06    1.04    1.43    82.59839    73.33864    35.55083
   371  N   5.0   -0.15    3.51    2.09    78.78012    77.88041    33.99291
   372  C   4.0    0.05    4.43    4.43    76.43724    79.07133    34.84264
   373  C   4.0    0.14    3.54    3.13    74.84392    79.66623    32.63542
   374  O   6.0   -0.28    1.13    1.80    72.24113    79.00673    32.99516
   375  C   4.0    0.04    4.25    4.10    77.46049    81.72774    36.17976
   376  O   6.0   -0.26    2.07    1.83    74.98805    82.86789    37.07026
   377  C   4.0   -0.07    4.30    4.20    78.59293    83.37387    34.27822
   378  H   1.0    0.11    1.13    1.45    80.15136    78.65723    34.49044
   379  H   1.0    0.06    1.12    1.45    75.82541    78.25435    36.26988
   380  H   1.0    0.06    1.09    1.44    78.35747    81.24090    37.65012
   381  H   1.0    0.13    1.06    1.44    75.52028    84.24264    37.92910
   382  H   1.0    0.07    1.05    1.44    79.10112    85.05860    35.22799
   383  H   1.0    0.07    1.17    1.46    80.11663    82.59239    33.68368
   384  H   1.0    0.06    1.07    1.44    77.56206    83.75098    32.89894
   385  N   5.0   -0.17    3.63    2.19    75.66359    80.25624    30.41489
   386  C   4.0    0.03    4.58    4.65    74.16682    80.39472    28.14323
   387  C   4.0    0.13    3.70    3.24    73.66731    77.89149    27.06906
   388  O   6.0   -0.30    1.26    1.80    71.24354    77.62471    25.96062
   389  C   4.0   -0.03    4.47    4.49    76.13275    81.43819    26.12465
   390  C   4.0   -0.08    4.22    4.04    74.38252    81.55682    23.57665
   391  C   4.0   -0.07    4.23    4.07    77.07250    84.01475    26.72998
   392  H   1.0    0.11    1.19    1.46    77.19492    80.59102    30.35789
   393  H   1.0    0.06    1.18    1.46    73.14575    81.57331    28.55804
   394  H   1.0    0.06    1.17    1.46    77.22681    80.34040    25.83441
   395  H   1.0    0.05    1.04    1.43    75.65855    82.04658    22.21753
   396  H   1.0    0.06    1.06    1.44    73.95906    79.81967    23.10150
   397  H   1.0    0.06    1.05    1.44    73.00362    82.49754    23.73734
   398  H   1.0    0.06    1.07    1.44    77.92858    84.72402    25.32367
   399  H   1.0    0.05    1.06    1.44    75.66870    85.20802    26.85659
   400  H   1.0    0.06    1.08    1.44    77.92780    83.96802    28.21715
   401  N   5.0   -0.14    3.69    2.26    75.10931    76.07516    27.34801
   402  C   4.0    0.04    4.50    4.54    74.77218    73.61007    26.34099
   403  C   4.0    0.18    3.63    3.19    72.24939    72.76415    27.31926
   404  O   6.0   -0.29    1.25    1.80    70.80327    71.53737    26.03619
   405  C   4.0   -0.07    4.26    4.11    76.80913    71.84998    27.06641
   406  H   1.0    0.11    1.17    1.46    76.59919    76.22972    28.28319
   407  H   1.0    0.06    1.11    1.45    74.77969    73.65997    24.39917
   408  H   1.0    0.05    1.04    1.43    76.54681    70.11434    26.28968
   409  H   1.0    0.06    1.04    1.43    78.52571    72.49382    26.49474
   410  H   1.0    0.07    1.05    1.44    76.85954    71.64166    28.97155
   411  N   5.0   -0.16    3.66    2.22    71.77636    73.44226    29.75588
   412  C   4.0    0.03    4.55    4.60    69.18475    72.54356    30.61538
   413  C   4.0    0.13    3.83    3.38    67.61463    74.57841    29.75346
   414  O   6.0   -0.27    1.81    1.81    66.15433    73.75922    27.47954
   415  C   4.0   -0.03    4.72    4.78    69.12941    73.30993    33.70421
   416  C   4.0   -0.05    4.36    4.31    71.36643    72.45408    34.90963
   417  C   4.0   -0.10    4.33    4.26    66.70397    72.04240    34.48375
   418  C   4.0   -0.08    4.24    4.08    71.48857    73.77585    37.47070
   419  H   1.0    0.13    1.14    1.45    72.73846    74.26845    30.59791
   420  H   1.0    0.05    1.16    1.45    69.31785    71.01696    30.66083
   421  H   1.0    0.05    1.27    1.48    68.72806    75.02413    33.58697
   422  H   1.0    0.05    1.15    1.45    71.36990    70.87399    35.29775
   423  H   1.0    0.07    1.13    1.45    72.86231    72.86053    34.07344
   424  H   1.0    0.04    1.10    1.44    66.61980    72.38359    36.15563
   425  H   1.0    0.04    1.07    1.44    65.26805    72.56601    33.63068
   426  H   1.0    0.04    1.06    1.44    66.90662    70.20935    34.15689
   427  H   1.0    0.05    1.06    1.44    72.87798    73.40553    38.44336
   428  H   1.0    0.05    1.05    1.44    71.50788    75.67501    37.31044
   429  H   1.0    0.04    1.05    1.44    69.90284    73.54071    38.45853
   430  N   5.0   -0.16    3.61    2.17    67.09966    76.63244    30.77586
   431  C   4.0    0.04    4.55    4.61    65.39373    78.58426    29.66209
   432  C   4.0    0.17    3.64    3.19    64.58802    77.98140    27.14965
   433  O   6.0   -0.30    1.25    1.80    62.24895    78.24762    26.79744
   434  C   4.0   -0.05    4.40    4.38    66.96978    81.14722    29.80797
   435  C   4.0   -0.05    4.27    4.14    65.22477    83.38234    28.83871
   436  C   4.0   -0.00    4.34    4.27    62.99187    83.86623    30.54976
   437  N   5.0   -0.18    3.38    2.01    63.27328    85.59924    32.59943
   438  C   4.0    0.14    3.63    3.19    64.88132    84.61110    34.67969
   439  N   5.0   -0.27    3.44    2.04    66.01242    82.86705    34.68016
   440  N   5.0   -0.35    3.23    1.96    64.67141    86.69765    36.56245
   441  H   1.0    0.09    1.26    1.48    68.13841    76.81361    32.08278
   442  H   1.0    0.04    1.10    1.44    64.13676    78.83433    31.14641
   443  H   1.0    0.05    1.16    1.46    67.41870    81.51909    31.51899
   444  H   1.0    0.06    1.08    1.44    68.40616    80.97352    28.77720
   445  H   1.0    0.05    1.06    1.44    66.48490    84.90330    28.83756
   446  H   1.0    0.05    1.08    1.44    64.90603    83.17166    27.12020
   447  H   1.0    0.04    1.06    1.44    61.65197    84.63283    29.23406
   448  H   1.0    0.04    1.10    1.44    62.33051    82.22284    30.97742
   449  H   1.0    0.12    1.13    1.45    62.46267    86.77283    32.76685
   450  H   1.0    0.10    1.34    1.51    65.88821    81.96397    33.36617
   451  H   1.0    0.11    1.18    1.46    66.95815    82.24052    35.70867
   452  H   1.0    0.17    1.14    1.45    64.24750    87.71186    36.92133
   453  H   1.0    0.14    1.23    1.47    65.54177    86.21550    37.54753
   454  N   5.0   -0.15    3.80    2.43    66.32546    77.07735    25.73256
   455  C   4.0    0.04    4.26    4.12    65.17163    76.53352    22.76252
   456  C   4.0    0.14    3.55    3.14    64.04039    74.27857    23.11616
   457  O   6.0   -0.27    1.07    1.80    61.37798    74.12680    21.74368
   458  C   4.0    0.00    4.09    3.78    67.93260    76.04410    21.43134
   459  O   6.0   -0.24    1.98    1.82    66.65836    75.02259    18.86492
   460  H   1.0    0.15    1.20    1.47    67.69688    77.03589    25.83169
   461  H   1.0    0.06    1.15    1.45    64.55988    77.85114    22.41007
   462  H   1.0    0.06    1.09    1.44    68.36449    77.48550    20.89937
   463  H   1.0    0.07    1.07    1.44    68.82387    74.88274    22.17855
   464  H   1.0    0.14    1.06    1.44    68.12179    74.58313    18.11877
   465  N   5.0   -0.17    3.64    2.20    64.89841    72.06856    24.09550
   466  C   4.0    0.04    4.31    4.22    63.33565    69.63046    23.95330
   467  C   4.0    0.12    3.46    3.10    61.19196    69.73542    25.45475
   468  O   6.0   -0.29    1.14    1.80    59.01670    68.41946    24.37199
   469  C   4.0   -0.08    4.20    3.99    65.40360    67.73550    25.21515
   470  H   1.0    0.16    1.29    1.49    66.04841    72.21616    24.79510
   471  H   1.0    0.06    1.17    1.46    63.46815    69.19671    22.43396
   472  H   1.0    0.04    1.02    1.43    64.25798    66.01347    25.02089
   473  H   1.0    0.06    1.05    1.44    66.77791    67.48992    24.14111
   474  H   1.0    0.06    1.05    1.44    65.79100    68.04966    26.80668
   475  N   5.0   -0.17    3.53    2.10    60.65986    71.39619    27.38792
   476  C   4.0    0.04    4.47    4.50    57.99444    71.58746    28.31880
   477  C   4.0    0.12    3.53    3.13    56.54535    73.00622    26.53852
   478  O   6.0   -0.30    1.13    1.80    53.87334    72.15924    26.38799
   479  C   4.0   -0.04    4.43    4.43    58.45083    73.55200    30.71306
   480  C   4.0   -0.06    4.31    4.22    59.60521    72.15801    32.88213
   481  C   4.0   -0.09    4.23    4.06    55.59372    74.30947    31.52735
   482  C   4.0   -0.09    4.18    3.96    60.36568    73.88899    35.03401
   483  H   1.0    0.12    1.15    1.45    61.80102    72.19554    27.88111
   484  H   1.0    0.05    1.16    1.45    57.73530    70.19604    29.10615
   485  H   1.0    0.06    1.16    1.45    58.99569    74.88965    30.20035
   486  H   1.0    0.04    1.14    1.45    58.82229    71.00290    33.52094
   487  H   1.0    0.04    1.12    1.45    61.18357    71.44506    32.27537
   488  H   1.0    0.04    1.06    1.44    55.76939    75.30161    32.95486
   489  H   1.0    0.05    1.06    1.44    54.72855    75.13690    30.26430
   490  H   1.0    0.05    1.04    1.43    54.64782    72.73621    31.94026
   491  H   1.0    0.04    1.06    1.44    61.30506    73.23652    36.26977
   492  H   1.0    0.04    1.04    1.43    61.45146    75.38483    34.42503
   493  H   1.0    0.04    1.05    1.44    58.87689    74.84584    35.67592
   494  N   5.0   -0.14    3.50    2.08    57.35035    74.38792    24.80217
   495  C   4.0    0.05    4.45    4.47    56.01885    75.55014    22.72938
   496  C   4.0    0.16    3.42    3.08    55.00456    73.63956    20.72173
   497  O   6.0   -0.29    1.35    1.80    52.91847    73.90850    19.79099
   498  C   4.0   -0.02    4.39    4.36    57.36661    77.86990    21.65911
   499  C   4.0    0.17    3.28    3.05    55.89081    79.33480    19.68757
   500  O   6.0   -0.27    1.25    1.80    53.72582    79.97331    20.16958
   501  N   5.0   -0.19    3.28    1.98    56.98321    79.81352    17.68823
   502  H   1.0    0.12    1.17    1.46    59.05180    74.84438    24.85782
   503  H   1.0    0.06    1.14    1.45    54.37035    76.24490    23.47373
   504  H   1.0    0.06    1.07    1.44    57.85036    79.06713    23.10379
   505  H   1.0    0.07    1.09    1.44    59.04950    77.32031    20.89719
   506  H   1.0    0.12    1.07    1.44    56.22243    80.70935    16.33331
   507  H   1.0    0.10    1.07    1.44    58.66314    79.32712    17.29488
   508  N   5.0   -0.13    3.48    2.06    56.45567    71.70432    20.08451
   509  C   4.0    0.05    4.51    4.55    55.78377    69.66709    18.37494
   510  C   4.0    0.16    3.50    3.12    53.59981    67.95897    19.12727
   511  O   6.0   -0.26    1.23    1.80    51.90061    67.41720    17.68404
   512  C   4.0   -0.03    4.50    4.54    57.93241    67.87605    17.94990
   513  C   4.0    0.17    3.27    3.05    60.09420    68.84098    16.34423
   514  O   6.0   -0.26    1.27    1.80    59.95384    70.95331    15.45298
   515  N   5.0   -0.20    3.27    1.97    61.91398    67.39773    16.03151
   516  H   1.0    0.12    1.12    1.45    58.09056    71.53244    20.71057
   517  H   1.0    0.08    1.11    1.45    55.24751    70.66889    16.80134
   518  H   1.0    0.06    1.08    1.44    58.61422    67.33455    19.67888
   519  H   1.0    0.05    1.09    1.44    57.25116    66.23833    17.17275
   520  H   1.0    0.11    1.07    1.44    63.35160    67.82714    15.05436
   521  H   1.0    0.09    1.07    1.44    62.03988    65.74743    16.71491
   522  N   5.0   -0.16    3.60    2.16    53.79511    66.95647    21.40568
   523  C   4.0    0.04    4.48    4.51    51.97867    65.28952    22.48865
   524  C   4.0    0.16    3.51    3.12    49.59588    66.75151    23.13498
   525  O   6.0   -0.28    1.26    1.80    47.64285    65.67288    23.71052
   526  C   4.0   -0.05    4.47    4.49    52.98451    63.71587    24.68508
   527  C   4.0   -0.02    4.35    4.29    51.46570    63.52149    27.08194
   528  C   4.0   -0.08    4.24    4.07    52.14914    61.26129    28.59802
   529  C   4.0   -0.07    4.27    4.15    51.74738    65.87455    28.55551
   530  H   1.0    0.10    1.12    1.45    55.14204    67.31203    22.48053
   531  H   1.0    0.07    1.11    1.45    51.49059    63.97516    21.14338
   532  H   1.0    0.05    1.08    1.44    53.34822    61.92390    24.05526
   533  H   1.0    0.05    1.09    1.44    54.71850    64.41950    25.16360
   534  H   1.0    0.07    1.13    1.45    49.59948    63.31506    26.58845
   535  H   1.0    0.05    1.04    1.43    51.07974    61.13422    30.18829
   536  H   1.0    0.05    1.04    1.43    51.90108    59.64086    27.59936
   537  H   1.0    0.04    1.04    1.43    53.98891    61.34658    29.13173
   538  H   1.0    0.04    1.05    1.44    50.70040    65.82922    30.16342
   539  H   1.0    0.04    1.05    1.44    53.58263    66.12950    29.05639
   540  H   1.0    0.06    1.05    1.44    51.19915    67.41094    27.54139
   541  N   5.0   -0.14    3.57    2.13    49.74797    69.24980    23.08888
   542  C   4.0    0.04    4.52    4.56    47.67436    70.85367    23.76486
   543  C   4.0    0.10    3.31    3.06    46.09605    71.35658    21.44433
   544  O   6.0   -0.26    1.13    1.80    43.79427    71.34187    21.53956
   545  C   4.0   -0.03    4.48    4.51    48.37171    73.36898    25.00976
   546  C   4.0   -0.04    4.39    4.36    46.05816    74.92336    25.54693
   547  C   4.0   -0.05    4.46    4.48    50.12109    74.80457    23.43412
   548  C   4.0   -0.08    4.18    3.96    46.52152    77.42245    26.58465
   549  H   1.0    0.11    1.13    1.45    51.19311    70.12801    22.60073
   550  H   1.0    0.07    1.12    1.45    46.64714    69.86479    25.08823
   551  H   1.0    0.05    1.11    1.45    49.28005    72.98732    26.68454
   552  H   1.0    0.06    1.10    1.44    45.05272    75.09388    23.90195
   553  H   1.0    0.05    1.08    1.44    44.88087    73.94783    26.73214
   554  H   1.0    0.05    1.05    1.44    50.62269    76.46561    24.25419
   555  H   1.0    0.08    1.14    1.45    51.72932    73.81769    23.10236
   556  H   1.0    0.07    1.06    1.44    49.32295    75.20866    21.73678
   557  H   1.0    0.05    1.04    1.43    44.88771    78.39267    26.87800
   558  H   1.0    0.05    1.05    1.44    47.43871    77.30008    28.26644
   559  H   1.0    0.05    1.05    1.44    47.60870    78.46328    25.39373
   560  H   1.0    0.10    1.08    1.44    47.28770    72.03265    38.72785
   561  H   1.0    0.06    1.06    1.44    74.92372    74.88837    55.51483
   562  H   1.0    0.08    1.03    1.43    69.93505    75.68409    56.53408
   563  H   1.0    0.07    1.05    1.44    69.91529    68.80499    50.87380
   564  H   1.0    0.10    1.08    1.44    65.79404    67.01417    55.12593
   565  H   1.0    0.06    1.05    1.44    62.30770    65.13837    46.60123
   566  H   1.0    0.11    1.08    1.44    54.80043    61.87063    46.54337
   567  H   1.0    0.07    1.05    1.44    55.20869    56.06818    43.70136
   568  H   1.0    0.10    1.08    1.44    65.57231    53.92809    25.11852
   569  H   1.0    0.05    1.05    1.44    65.13263    59.31945    33.31662
   570  H   1.0    0.12    1.08    1.44    72.74219    59.96930    31.87377
   571  H   1.0    0.07    1.05    1.44    77.36315    62.36993    40.06423
   572  H   1.0    0.10    1.08    1.44    89.57659    75.73385    38.18872
   573  H   1.0    0.08    1.05    1.44    46.93590    71.71042    19.78889

  Z AO/shell   Hii/eV     exponent
  1     Wed Apr 25 08:07:45 CEST 2018   EN: 2.200 GM2: 0.406  GM3: 0.0800  RAES: 1.40
     1s    -10.707211    1.230000
  6     Wed Apr 25 08:07:45 CEST 2018   EN: 2.550 GM2: 0.538  GM3: 0.1500  RAES: 3.00
     2s    -13.970922    2.096432
     2p    -10.063292    1.800000
  7     Wed Apr 25 08:07:45 CEST 2018   EN: 3.040 GM2: 0.461  GM3:-0.0640  RAES: 1.90
     2s    -16.686243    2.339881
     2p    -12.523956    2.014332
  8     Wed Apr 25 08:07:45 CEST 2018   EN: 3.440 GM2: 0.452  GM3:-0.0517  RAES: 1.80
     2s    -20.229985    2.439742
     2p    -15.503117    2.137023
 16     Tue Apr 24 11:44:34 CEST 2018   EN: 2.580 GM2: 0.340  GM3:-0.0502  RAES: 3.10
     3s    -20.029654    1.981333
     3p    -11.377694    2.025643
     3d     -0.420282    1.702555
 no old-style atom pair restraining (fixing) potential

molecular fragmentation (1/2 indicates fragments):
111111111111111111111111111111111111111111111111111111111111111111111111
111111111111111111111111111111111111111111111111111111111111111111111111
111111111111111111111111111111222222222222222222222222222222222222222222
222222222222222222222222222222222222222222222222222222222222222222222222
222222222222222222222222222222222222222222222222222222222222222222222222
222222222222222222222222222222222222222222222222222222222222222222222222
222222222222222222222222222222222222222222222222222222222222222222222222
222222222222222222222222222222222222222222222222222222211222222222222
# atoms in fragment 1/2:   176   397
 fragment masses (1/2) :     1308.43     2655.19
CMA distance (Bohr)    :  14.265
constraining FC (au)   :  0.0500
           ------------------------------------------------- 
          |        Self-Consistent Charge Iterations        |
           ------------------------------------------------- 

 Ncao       : 1413
 Nao        : 1412
 Nshell     : 852
 Nel        : 1562
 T(el)      :   500.0
 intcut     :    35.0
 scfconv/Eh :  0.100E-06
   qconv/e  :  0.100E-04
 intneglect :  0.100E-08
 broydamp   :      0.400
 iter      E             dE          RMSdq      gap      omega  full diag
   1   -896.9413856 -0.896941E+03  0.473E+00    2.69       0.0  T
   2   -899.4782923 -0.253691E+01  0.223E+00    1.07       1.0  T
   3   -899.5927368 -0.114445E+00  0.133E+00    1.84       1.0  T
   4   -899.7318543 -0.139117E+00  0.446E-01    1.15       1.0  T
   5   -899.8013014 -0.694471E-01  0.217E-01    1.40       1.0  T
   6   -899.8153727 -0.140713E-01  0.102E-01    1.46       1.0  T
   7   -899.8164569 -0.108422E-02  0.514E-02    1.43       1.0  T
   8   -899.8170469 -0.590062E-03  0.248E-02    1.44       1.0  T
   9   -899.8171484 -0.101409E-03  0.121E-02    1.43       1.0  T
  10   -899.8171694 -0.210548E-04  0.574E-03    1.42       1.0  T
  11   -899.8171755 -0.609285E-05  0.278E-03    1.42       1.5  T
  12   -899.8171765 -0.101745E-05  0.145E-03    1.42       2.9  T
  13   -899.8171769 -0.422172E-06  0.623E-04    1.42       6.7  T
  14   -899.8171770 -0.499631E-07  0.290E-04    1.42      14.4  T
  15   -899.8171770 -0.132596E-07  0.131E-04    1.42      32.0  T
  16   -899.8171770 -0.200168E-08  0.634E-05    1.42      65.9  T
  17   -899.8171770 -0.968726E-09  0.276E-05    1.42     151.5  T
speedup  1.00
cpu  time for SCC   15.76 s
wall time for SCC   15.76 s

   *** convergence criteria satisfied after 17 iterations ***

          eigenvalues
 #    :         769        770        771        772        773        774        775        776
 occ. :        2.000      2.000      2.000      2.000      2.000      2.000      2.000      2.000
 eps  :       -10.259    -10.240    -10.236    -10.197    -10.154    -10.086     -9.966     -9.959
 #    :         777        778        779        780        781        782        783        784
 occ. :        2.000      2.000      2.000      2.000      2.000      0.000      0.000      0.000
 eps  :        -9.932     -9.725     -9.714     -9.623     -9.508     -8.088     -7.825     -7.796
 #    :         785        786        787        788        789        790        791        792
 occ. :        0.000      0.000      0.000      0.000      0.000      0.000      0.000      0.000
 eps  :        -7.693     -7.640     -7.635     -7.611     -7.395     -7.230     -7.184     -7.159


   #   Z            q   n(s)   n(p)   n(d)      C6AA      α(0)
   1   7 N     -0.404  1.288  4.116  0.000    30.487     8.200
   2   6 C      0.025  1.034  2.941  0.000    20.139     6.385
   3   6 C      0.257  1.045  2.699  0.000    22.680     7.799
   4   8 O     -0.479  1.736  4.743  0.000    23.331     6.476
   5   6 C     -0.003  1.025  2.978  0.000    20.615     6.461
   6  16 S     -0.298  1.894  4.370  0.034   153.959    20.884
   7   1 H      0.183  0.817  0.000  0.000     1.199     1.715
   8   1 H      0.069  0.931  0.000  0.000     2.092     2.262
   9   1 H      0.050  0.950  0.000  0.000     2.314     2.379
  10   1 H      0.051  0.949  0.000  0.000     2.313     2.378
  11   1 H      0.174  0.826  0.000  0.000     1.240     1.742
  12   7 N     -0.177  1.215  3.963  0.000    24.840     7.402
  13   6 C      0.008  1.040  2.953  0.000    20.437     6.434
  14   6 C      0.278  1.033  2.690  0.000    22.306     7.735
  15   8 O     -0.471  1.737  4.734  0.000    23.150     6.451
  16   6 C      0.116  1.022  2.862  0.000    18.746     6.176
  17   8 O     -0.493  1.703  4.790  0.000    22.732     6.436
  18   6 C     -0.157  1.000  3.156  0.000    23.563     6.917
  19   1 H      0.227  0.773  0.000  0.000     0.978     1.549
  20   1 H      0.094  0.906  0.000  0.000     1.844     2.124
  21   1 H      0.036  0.964  0.000  0.000     2.501     2.473
  22   1 H      0.348  0.652  0.000  0.000     0.591     1.207
  23   1 H      0.070  0.930  0.000  0.000     2.081     2.256
  24   1 H      0.067  0.933  0.000  0.000     2.114     2.273
  25   1 H      0.068  0.932  0.000  0.000     2.111     2.272
  26   7 N     -0.192  1.215  3.977  0.000    25.162     7.450
  27   6 C      0.018  1.040  2.942  0.000    20.271     6.409
  28   6 C      0.280  1.033  2.687  0.000    22.255     7.725
  29   8 O     -0.498  1.751  4.747  0.000    23.734     6.532
  30   6 C     -0.129  1.033  3.096  0.000    22.940     6.814
  31   6 C      0.290  1.008  2.702  0.000    22.074     7.693
  32   8 O     -0.531  1.749  4.783  0.000    24.484     6.634
  33   7 N     -0.250  1.217  4.033  0.000    26.502     7.646
  34   1 H      0.206  0.794  0.000  0.000     1.078     1.626
  35   1 H      0.095  0.905  0.000  0.000     1.831     2.116
  36   1 H      0.094  0.906  0.000  0.000     1.841     2.122
  37   1 H      0.080  0.920  0.000  0.000     1.980     2.200
  38   1 H      0.252  0.748  0.000  0.000     0.876     1.466
  39   1 H      0.240  0.760  0.000  0.000     0.922     1.504
  40   7 N     -0.165  1.213  3.952  0.000    24.571     7.362
  41   6 C      0.015  1.031  2.954  0.000    20.318     6.417
  42   6 C      0.266  1.038  2.696  0.000    22.508     7.769
  43   8 O     -0.485  1.730  4.756  0.000    23.459     6.494
  44   6 C     -0.148  0.997  3.151  0.000    23.393     6.892
  45   1 H      0.200  0.800  0.000  0.000     1.105     1.647
  46   1 H      0.096  0.904  0.000  0.000     1.821     2.110
  47   1 H      0.094  0.906  0.000  0.000     1.836     2.119
  48   1 H      0.083  0.917  0.000  0.000     1.949     2.183
  49   1 H      0.065  0.935  0.000  0.000     2.146     2.291
  50   7 N     -0.176  1.221  3.955  0.000    24.802     7.397
  51   6 C      0.003  1.039  2.959  0.000    20.522     6.448
  52   6 C      0.264  1.039  2.698  0.000    22.555     7.778
  53   8 O     -0.452  1.714  4.738  0.000    22.755     6.396
  54   6 C     -0.091  1.027  3.064  0.000    22.201     6.703
  55   6 C     -0.018  1.024  2.994  0.000    20.855     6.494
  56   6 C     -0.137  0.996  3.142  0.000    23.156     6.854
  57   6 C     -0.162  1.002  3.160  0.000    23.654     6.926
  58   1 H      0.195  0.805  0.000  0.000     1.134     1.668
  59   1 H      0.111  0.889  0.000  0.000     1.691     2.033
  60   1 H      0.057  0.943  0.000  0.000     2.231     2.335
  61   1 H      0.058  0.942  0.000  0.000     2.219     2.330
  62   1 H      0.051  0.949  0.000  0.000     2.311     2.377
  63   1 H      0.048  0.952  0.000  0.000     2.340     2.392
  64   1 H      0.034  0.966  0.000  0.000     2.524     2.484
  65   1 H      0.052  0.948  0.000  0.000     2.295     2.369
  66   1 H      0.060  0.940  0.000  0.000     2.197     2.318
  67   1 H      0.064  0.936  0.000  0.000     2.157     2.296
  68   1 H      0.063  0.937  0.000  0.000     2.162     2.299
  69   7 N     -0.160  1.206  3.954  0.000    24.457     7.345
  70   6 C     -0.042  1.017  3.026  0.000    21.369     6.588
  71   6 C      0.283  1.029  2.688  0.000    22.210     7.719
  72   8 O     -0.479  1.757  4.722  0.000    23.319     6.474
  73   1 H      0.199  0.801  0.000  0.000     1.111     1.651
  74   1 H      0.100  0.900  0.000  0.000     1.782     2.088
  75   1 H      0.088  0.912  0.000  0.000     1.902     2.157
  76   7 N     -0.189  1.218  3.971  0.000    25.087     7.439
  77   6 C      0.012  1.036  2.953  0.000    20.377     6.426
  78   6 C      0.266  1.037  2.698  0.000    22.518     7.771
  79   8 O     -0.424  1.724  4.699  0.000    22.153     6.311
  80   6 C     -0.108  1.028  3.081  0.000    22.536     6.753
  81   6 C      0.306  1.009  2.686  0.000    21.808     7.646
  82   8 O     -0.563  1.764  4.799  0.000    25.218     6.733
  83   7 N     -0.236  1.208  4.028  0.000    26.173     7.598
  84   1 H      0.218  0.782  0.000  0.000     1.017     1.580
  85   1 H      0.093  0.907  0.000  0.000     1.853     2.128
  86   1 H      0.088  0.912  0.000  0.000     1.895     2.153
  87   1 H      0.078  0.922  0.000  0.000     1.996     2.209
  88   1 H      0.238  0.762  0.000  0.000     0.929     1.510
  89   1 H      0.236  0.764  0.000  0.000     0.941     1.519
  90   7 N     -0.188  1.212  3.976  0.000    25.072     7.437
  91   6 C      0.002  1.043  2.954  0.000    20.533     6.450
  92   6 C      0.264  1.031  2.705  0.000    22.547     7.777
  93   8 O     -0.401  1.715  4.686  0.000    21.699     6.246
  94   6 C     -0.080  1.010  3.069  0.000    21.994     6.672
  95   6 C     -0.116  1.021  3.095  0.000    22.690     6.777
  96   6 C      0.296  1.013  2.691  0.000    21.976     7.676
  97   8 O     -0.554  1.754  4.800  0.000    25.000     6.704
  98   7 N     -0.262  1.219  4.042  0.000    26.783     7.686
  99   1 H      0.206  0.794  0.000  0.000     1.074     1.623
 100   1 H      0.068  0.932  0.000  0.000     2.109     2.271
 101   1 H      0.103  0.897  0.000  0.000     1.756     2.072
 102   1 H      0.074  0.926  0.000  0.000     2.041     2.234
 103   1 H      0.053  0.947  0.000  0.000     2.281     2.362
 104   1 H      0.080  0.920  0.000  0.000     1.982     2.202
 105   1 H      0.232  0.768  0.000  0.000     0.954     1.530
 106   1 H      0.235  0.765  0.000  0.000     0.945     1.523
 107   7 N     -0.199  1.215  3.984  0.000    25.314     7.473
 108   6 C     -0.008  1.036  2.972  0.000    20.698     6.474
 109   6 C      0.260  1.037  2.703  0.000    22.616     7.789
 110   8 O     -0.460  1.722  4.737  0.000    22.909     6.417
 111   6 C     -0.105  1.020  3.085  0.000    22.478     6.745
 112   6 C     -0.010  1.074  2.936  0.000    28.247     8.718
 113   6 C     -0.074  1.056  3.019  0.000    29.854     8.962
 114   6 C     -0.054  1.063  2.991  0.000    29.325     8.883
 115   6 C     -0.044  1.057  2.987  0.000    29.080     8.845
 116   6 C     -0.043  1.061  2.982  0.000    29.072     8.844
 117   6 C     -0.042  1.061  2.982  0.000    29.043     8.840
 118   1 H      0.205  0.795  0.000  0.000     1.079     1.627
 119   1 H      0.130  0.870  0.000  0.000     1.532     1.935
 120   1 H      0.075  0.925  0.000  0.000     2.030     2.228
 121   1 H      0.098  0.902  0.000  0.000     1.804     2.100
 122   1 H      0.040  0.960  0.000  0.000     2.448     2.447
 123   1 H      0.070  0.930  0.000  0.000     2.082     2.256
 124   1 H      0.053  0.947  0.000  0.000     2.287     2.365
 125   1 H      0.071  0.929  0.000  0.000     2.071     2.250
 126   1 H      0.052  0.948  0.000  0.000     2.290     2.366
 127   7 N     -0.187  1.210  3.977  0.000    25.046     7.433
 128   6 C      0.002  1.042  2.956  0.000    20.541     6.450
 129   6 C      0.263  1.043  2.694  0.000    22.567     7.779
 130   8 O     -0.454  1.720  4.734  0.000    22.780     6.399
 131   6 C     -0.102  1.017  3.086  0.000    22.434     6.740
 132   6 C     -0.127  1.026  3.101  0.000    22.908     6.810
 133   6 C      0.293  1.015  2.692  0.000    22.030     7.685
 134   8 O     -0.550  1.761  4.789  0.000    24.910     6.692
 135   7 N     -0.247  1.209  4.038  0.000    26.435     7.636
 136   1 H      0.205  0.795  0.000  0.000     1.080     1.628
 137   1 H      0.095  0.905  0.000  0.000     1.831     2.116
 138   1 H      0.081  0.919  0.000  0.000     1.969     2.194
 139   1 H      0.075  0.925  0.000  0.000     2.031     2.229
 140   1 H      0.085  0.915  0.000  0.000     1.929     2.172
 141   1 H      0.098  0.902  0.000  0.000     1.805     2.101
 142   1 H      0.242  0.758  0.000  0.000     0.916     1.499
 143   1 H      0.203  0.797  0.000  0.000     1.089     1.635
 144   7 N     -0.168  1.212  3.957  0.000    24.645     7.373
 145   6 C     -0.014  1.051  2.964  0.000    20.829     6.497
 146   6 C      0.252  1.044  2.705  0.000    22.774     7.815
 147   8 O     -0.496  1.724  4.772  0.000    23.689     6.526
 148   6 C      0.109  1.021  2.869  0.000    18.850     6.193
 149   8 O     -0.476  1.697  4.779  0.000    22.375     6.386
 150   6 C     -0.155  0.999  3.156  0.000    23.532     6.912
 151   1 H      0.213  0.787  0.000  0.000     1.039     1.597
 152   1 H      0.087  0.913  0.000  0.000     1.911     2.161
 153   1 H      0.052  0.948  0.000  0.000     2.295     2.369
 154   1 H      0.332  0.668  0.000  0.000     0.632     1.248
 155   1 H      0.079  0.921  0.000  0.000     1.993     2.208
 156   1 H      0.066  0.934  0.000  0.000     2.133     2.283
 157   1 H      0.063  0.937  0.000  0.000     2.169     2.303
 158   7 N     -0.143  1.219  3.924  0.000    24.097     7.291
 159   6 C     -0.032  1.042  2.990  0.000    21.155     6.549
 160   6 C      0.204  1.062  2.734  0.000    23.667     7.967
 161   8 O     -0.288  1.716  4.572  0.000    19.575     5.932
 162   6 C     -0.081  1.021  3.060  0.000    22.036     6.681
 163   6 C     -0.119  1.024  3.095  0.000    22.759     6.788
 164   6 C      0.291  1.012  2.697  0.000    22.067     7.692
 165   8 O     -0.485  1.724  4.760  0.000    23.445     6.492
 166   7 N     -0.276  1.221  4.055  0.000    27.135     7.737
 167   1 H      0.226  0.774  0.000  0.000     0.982     1.552
 168   1 H      0.140  0.860  0.000  0.000     1.462     1.891
 169   1 H      0.077  0.923  0.000  0.000     2.008     2.216
 170   1 H      0.079  0.921  0.000  0.000     1.994     2.208
 171   1 H      0.070  0.930  0.000  0.000     2.084     2.257
 172   1 H      0.079  0.921  0.000  0.000     1.991     2.206
 173   1 H      0.220  0.780  0.000  0.000     1.009     1.574
 174   1 H      0.232  0.768  0.000  0.000     0.954     1.530
 175   7 N     -0.447  1.291  4.156  0.000    31.688     8.361
 176   6 C     -0.032  1.133  2.898  0.000    22.249     6.910
 177   6 C      0.270  1.017  2.713  0.000    22.437     7.758
 178   8 O     -0.431  1.738  4.693  0.000    22.316     6.334
 179   6 C     -0.186  1.004  3.183  0.000    24.176     7.005
 180   1 H      0.379  0.621  0.000  0.000     0.513     1.118
 181   1 H      0.155  0.845  0.000  0.000     1.360     1.824
 182   1 H      0.146  0.854  0.000  0.000     1.417     1.861
 183   1 H      0.115  0.885  0.000  0.000     1.654     2.011
 184   1 H      0.118  0.882  0.000  0.000     1.631     1.997
 185   1 H      0.404  0.596  0.000  0.000     0.466     1.066
 186   7 N     -0.141  1.202  3.938  0.000    24.042     7.282
 187   6 C     -0.014  1.031  2.983  0.000    20.822     6.495
 188   6 C      0.198  1.082  2.719  0.000    23.776     7.987
 189   8 O     -0.351  1.758  4.593  0.000    20.723     6.103
 190   6 C     -0.110  1.025  3.085  0.000    22.582     6.763
 191   6 C     -0.110  1.013  3.097  0.000    22.583     6.763
 192   6 C     -0.045  1.018  3.027  0.000    21.430     6.600
 193   7 N     -0.202  1.187  4.015  0.000    25.374     7.481
 194   6 C      0.266  0.968  2.766  0.000    22.510     7.768
 195   7 N     -0.194  1.165  4.029  0.000    25.207     7.457
 196   7 N     -0.251  1.180  4.072  0.000    26.526     7.649
 197   1 H      0.228  0.772  0.000  0.000     0.972     1.544
 198   1 H      0.135  0.865  0.000  0.000     1.499     1.915
 199   1 H      0.083  0.917  0.000  0.000     1.950     2.184
 200   1 H      0.097  0.903  0.000  0.000     1.812     2.105
 201   1 H      0.084  0.916  0.000  0.000     1.942     2.179
 202   1 H      0.085  0.915  0.000  0.000     1.931     2.173
 203   1 H      0.087  0.913  0.000  0.000     1.904     2.158
 204   1 H      0.093  0.907  0.000  0.000     1.849     2.126
 205   1 H      0.214  0.786  0.000  0.000     1.037     1.595
 206   1 H      0.250  0.750  0.000  0.000     0.883     1.472
 207   1 H      0.241  0.759  0.000  0.000     0.918     1.501
 208   1 H      0.240  0.760  0.000  0.000     0.924     1.506
 209   1 H      0.239  0.761  0.000  0.000     0.927     1.508
 210   7 N     -0.406  1.295  4.111  0.000    30.537     8.207
 211   6 C      0.023  1.036  2.941  0.000    20.179     6.394
 212   6 C      0.275  1.039  2.686  0.000    22.352     7.743
 213   8 O     -0.532  1.755  4.776  0.000    24.494     6.636
 214   6 C     -0.019  1.027  2.992  0.000    20.864     6.495
 215   6 C     -0.137  0.995  3.142  0.000    23.159     6.855
 216   6 C     -0.143  0.996  3.146  0.000    23.265     6.870
 217   1 H      0.181  0.819  0.000  0.000     1.209     1.722
 218   1 H      0.037  0.963  0.000  0.000     2.483     2.464
 219   1 H      0.036  0.964  0.000  0.000     2.507     2.476
 220   1 H      0.056  0.944  0.000  0.000     2.245     2.343
 221   1 H      0.038  0.962  0.000  0.000     2.469     2.457
 222   1 H      0.063  0.937  0.000  0.000     2.168     2.302
 223   1 H      0.058  0.942  0.000  0.000     2.221     2.330
 224   1 H      0.063  0.937  0.000  0.000     2.162     2.299
 225   1 H      0.044  0.956  0.000  0.000     2.390     2.417
 226   7 N     -0.169  1.212  3.958  0.000    24.662     7.376
 227   6 C      0.011  1.033  2.956  0.000    20.364     6.421
 228   6 C      0.203  1.084  2.713  0.000    23.695     7.976
 229   8 O     -0.378  1.745  4.633  0.000    21.246     6.180
 230   6 C     -0.021  1.027  2.994  0.000    20.880     6.494
 231   6 C     -0.139  0.995  3.144  0.000    23.185     6.857
 232   6 C     -0.150  0.996  3.154  0.000    23.404     6.889
 233   1 H      0.224  0.776  0.000  0.000     0.992     1.560
 234   1 H      0.098  0.902  0.000  0.000     1.804     2.100
 235   1 H      0.074  0.926  0.000  0.000     2.039     2.233
 236   1 H      0.073  0.927  0.000  0.000     2.053     2.241
 237   1 H      0.046  0.954  0.000  0.000     2.367     2.406
 238   1 H      0.053  0.947  0.000  0.000     2.286     2.364
 239   1 H      0.076  0.924  0.000  0.000     2.019     2.222
 240   1 H      0.049  0.951  0.000  0.000     2.329     2.387
 241   1 H      0.069  0.931  0.000  0.000     2.097     2.265
 242   7 N     -0.408  1.301  4.106  0.000    30.589     8.214
 243   6 C      0.041  1.029  2.930  0.000    19.888     6.350
 244   6 C      0.204  1.083  2.714  0.000    23.669     7.968
 245   8 O     -0.393  1.752  4.641  0.000    21.542     6.223
 246   6 C     -0.088  1.021  3.067  0.000    22.159     6.697
 247   6 C      0.004  1.073  2.923  0.000    27.928     8.669
 248   6 C     -0.049  1.060  2.989  0.000    29.216     8.866
 249   6 C     -0.055  1.060  2.995  0.000    29.356     8.887
 250   6 C     -0.036  1.055  2.981  0.000    28.891     8.816
 251   6 C     -0.043  1.055  2.988  0.000    29.067     8.843
 252   6 C     -0.043  1.057  2.986  0.000    29.071     8.844
 253   1 H      0.178  0.822  0.000  0.000     1.228     1.736
 254   1 H      0.076  0.924  0.000  0.000     2.023     2.224
 255   1 H      0.092  0.908  0.000  0.000     1.856     2.130
 256   1 H      0.048  0.952  0.000  0.000     2.350     2.397
 257   1 H      0.039  0.961  0.000  0.000     2.464     2.455
 258   1 H      0.058  0.942  0.000  0.000     2.218     2.329
 259   1 H      0.026  0.974  0.000  0.000     2.650     2.546
 260   1 H      0.056  0.944  0.000  0.000     2.248     2.345
 261   1 H      0.042  0.958  0.000  0.000     2.419     2.432
 262   7 N     -0.416  1.305  4.111  0.000    30.817     8.245
 263   6 C      0.030  1.029  2.941  0.000    20.070     6.378
 264   6 C      0.279  1.036  2.686  0.000    22.287     7.732
 265   8 O     -0.488  1.738  4.751  0.000    23.530     6.504
 266   6 C     -0.146  1.000  3.146  0.000    23.337     6.883
 267   1 H      0.181  0.819  0.000  0.000     1.208     1.722
 268   1 H      0.043  0.957  0.000  0.000     2.410     2.427
 269   1 H      0.057  0.943  0.000  0.000     2.239     2.340
 270   1 H      0.060  0.940  0.000  0.000     2.193     2.316
 271   1 H      0.056  0.944  0.000  0.000     2.247     2.344
 272   7 N     -0.182  1.216  3.966  0.000    24.944     7.418
 273   6 C      0.020  1.034  2.946  0.000    20.232     6.404
 274   6 C      0.208  1.080  2.713  0.000    23.594     7.955
 275   8 O     -0.335  1.741  4.594  0.000    20.418     6.058
 276   6 C     -0.101  1.025  3.076  0.000    22.404     6.734
 277   6 C     -0.017  1.025  2.992  0.000    20.833     6.491
 278   6 C     -0.148  0.997  3.150  0.000    23.365     6.884
 279   6 C     -0.135  0.997  3.139  0.000    23.112     6.847
 280   1 H      0.212  0.788  0.000  0.000     1.048     1.604
 281   1 H      0.087  0.913  0.000  0.000     1.907     2.160
 282   1 H      0.064  0.936  0.000  0.000     2.156     2.296
 283   1 H      0.059  0.941  0.000  0.000     2.209     2.324
 284   1 H      0.043  0.957  0.000  0.000     2.415     2.430
 285   1 H      0.077  0.923  0.000  0.000     2.007     2.215
 286   1 H      0.041  0.959  0.000  0.000     2.437     2.441
 287   1 H      0.051  0.949  0.000  0.000     2.304     2.373
 288   1 H      0.064  0.936  0.000  0.000     2.147     2.291
 289   1 H      0.045  0.955  0.000  0.000     2.382     2.413
 290   1 H      0.041  0.959  0.000  0.000     2.441     2.443
 291   7 N     -0.416  1.301  4.115  0.000    30.822     8.245
 292   6 C      0.033  1.029  2.938  0.000    20.021     6.371
 293   6 C      0.267  1.042  2.691  0.000    22.491     7.767
 294   8 O     -0.500  1.739  4.761  0.000    23.783     6.538
 295   6 C     -0.133  0.996  3.137  0.000    23.077     6.844
 296   1 H      0.184  0.816  0.000  0.000     1.190     1.709
 297   1 H      0.048  0.952  0.000  0.000     2.340     2.392
 298   1 H      0.047  0.953  0.000  0.000     2.355     2.400
 299   1 H      0.052  0.948  0.000  0.000     2.297     2.370
 300   1 H      0.061  0.939  0.000  0.000     2.191     2.314
 301   7 N     -0.180  1.212  3.967  0.000    24.888     7.409
 302   6 C      0.019  1.039  2.942  0.000    20.263     6.409
 303   6 C      0.197  1.085  2.718  0.000    23.807     7.991
 304   8 O     -0.349  1.744  4.605  0.000    20.683     6.097
 305   6 C     -0.092  1.019  3.073  0.000    22.230     6.708
 306   6 C     -0.000  1.072  2.928  0.000    28.030     8.685
 307   6 C     -0.053  1.061  2.992  0.000    29.301     8.879
 308   6 C     -0.046  1.057  2.989  0.000    29.138     8.855
 309   6 C     -0.043  1.056  2.987  0.000    29.070     8.844
 310   6 C     -0.040  1.054  2.987  0.000    29.003     8.833
 311   6 C     -0.047  1.058  2.989  0.000    29.160     8.858
 312   1 H      0.210  0.790  0.000  0.000     1.056     1.610
 313   1 H      0.126  0.874  0.000  0.000     1.564     1.956
 314   1 H      0.056  0.944  0.000  0.000     2.249     2.345
 315   1 H      0.106  0.894  0.000  0.000     1.731     2.057
 316   1 H      0.066  0.934  0.000  0.000     2.131     2.282
 317   1 H      0.024  0.976  0.000  0.000     2.675     2.557
 318   1 H      0.069  0.931  0.000  0.000     2.091     2.261
 319   1 H      0.041  0.959  0.000  0.000     2.429     2.437
 320   1 H      0.056  0.944  0.000  0.000     2.242     2.341
 321   7 N     -0.431  1.311  4.120  0.000    31.260     8.304
 322   6 C      0.016  1.045  2.939  0.000    20.307     6.416
 323   6 C      0.265  1.048  2.687  0.000    22.525     7.772
 324   8 O     -0.481  1.724  4.757  0.000    23.357     6.480
 325   6 C     -0.026  1.036  2.990  0.000    20.994     6.516
 326   6 C     -0.144  0.998  3.146  0.000    23.301     6.877
 327   6 C     -0.143  0.999  3.144  0.000    23.279     6.874
 328   1 H      0.171  0.829  0.000  0.000     1.269     1.764
 329   1 H      0.072  0.928  0.000  0.000     2.065     2.247
 330   1 H      0.034  0.966  0.000  0.000     2.535     2.490
 331   1 H      0.066  0.934  0.000  0.000     2.129     2.282
 332   1 H      0.027  0.973  0.000  0.000     2.631     2.536
 333   1 H      0.076  0.924  0.000  0.000     2.018     2.221
 334   1 H      0.066  0.934  0.000  0.000     2.134     2.284
 335   1 H      0.073  0.927  0.000  0.000     2.054     2.241
 336   1 H      0.044  0.956  0.000  0.000     2.389     2.417
 337   7 N     -0.196  1.222  3.974  0.000    25.261     7.465
 338   6 C      0.024  1.040  2.936  0.000    20.165     6.393
 339   6 C      0.267  1.041  2.692  0.000    22.496     7.767
 340   8 O     -0.510  1.743  4.767  0.000    24.008     6.569
 341   6 C     -0.106  1.034  3.072  0.000    22.512     6.752
 342   6 C      0.369  1.018  2.614  0.000    20.748     7.455
 343   8 O     -0.652  1.765  4.886  0.000    27.420     7.021
 344   8 O     -0.669  1.787  4.882  0.000    27.877     7.079
 345   1 H      0.201  0.799  0.000  0.000     1.101     1.644
 346   1 H      0.102  0.898  0.000  0.000     1.769     2.080
 347   1 H      0.062  0.938  0.000  0.000     2.170     2.303
 348   1 H      0.067  0.933  0.000  0.000     2.116     2.275
 349   7 N     -0.179  1.224  3.955  0.000    24.872     7.407
 350   6 C      0.035  1.032  2.933  0.000    19.971     6.361
 351   6 C      0.289  1.038  2.673  0.000    22.108     7.701
 352   8 O     -0.485  1.735  4.750  0.000    23.456     6.493
 353   6 C     -0.107  1.038  3.070  0.000    22.536     6.756
 354   6 C      0.373  1.015  2.612  0.000    20.677     7.442
 355   8 O     -0.652  1.774  4.878  0.000    27.441     7.023
 356   8 O     -0.647  1.774  4.873  0.000    27.311     7.007
 357   1 H      0.204  0.796  0.000  0.000     1.088     1.634
 358   1 H      0.067  0.933  0.000  0.000     2.114     2.273
 359   1 H      0.048  0.952  0.000  0.000     2.338     2.391
 360   1 H      0.053  0.947  0.000  0.000     2.283     2.363
 361   7 N     -0.201  1.221  3.980  0.000    25.365     7.480
 362   6 C      0.013  1.041  2.946  0.000    20.362     6.426
 363   6 C      0.260  1.058  2.682  0.000    22.620     7.788
 364   8 O     -0.450  1.734  4.716  0.000    22.702     6.388
 365   6 C     -0.159  1.002  3.157  0.000    23.616     6.925
 366   1 H      0.199  0.801  0.000  0.000     1.109     1.650
 367   1 H      0.084  0.916  0.000  0.000     1.940     2.178
 368   1 H      0.108  0.892  0.000  0.000     1.716     2.048
 369   1 H      0.078  0.922  0.000  0.000     1.998     2.210
 370   1 H      0.088  0.912  0.000  0.000     1.902     2.156
 371   7 N     -0.196  1.218  3.978  0.000    25.248     7.463
 372   6 C      0.008  1.049  2.943  0.000    20.480     6.449
 373   6 C      0.228  1.070  2.702  0.000    23.212     7.890
 374   8 O     -0.569  1.808  4.761  0.000    25.375     6.753
 375   6 C      0.078  1.066  2.856  0.000    19.460     6.315
 376   8 O     -0.489  1.727  4.762  0.000    22.675     6.428
 377   6 C     -0.191  0.985  3.207  0.000    24.297     7.025
 378   1 H      0.205  0.795  0.000  0.000     1.080     1.628
 379   1 H      0.150  0.850  0.000  0.000     1.391     1.844
 380   1 H      0.082  0.918  0.000  0.000     1.955     2.186
 381   1 H      0.328  0.672  0.000  0.000     0.641     1.258
 382   1 H      0.083  0.917  0.000  0.000     1.943     2.180
 383   1 H      0.090  0.910  0.000  0.000     1.883     2.146
 384   1 H      0.080  0.920  0.000  0.000     1.973     2.197
 385   7 N     -0.147  1.191  3.956  0.000    24.186     7.304
 386   6 C      0.005  1.025  2.970  0.000    20.484     6.443
 387   6 C      0.240  1.052  2.708  0.000    22.992     7.855
 388   8 O     -0.616  1.818  4.798  0.000    26.528     6.905
 389   6 C     -0.050  1.037  3.013  0.000    21.430     6.582
 390   6 C     -0.166  0.990  3.176  0.000    23.787     6.956
 391   6 C     -0.169  0.959  3.211  0.000    23.831     6.957
 392   1 H      0.214  0.786  0.000  0.000     1.035     1.593
 393   1 H      0.148  0.852  0.000  0.000     1.402     1.852
 394   1 H      0.068  0.932  0.000  0.000     2.111     2.272
 395   1 H      0.051  0.949  0.000  0.000     2.303     2.373
 396   1 H      0.054  0.946  0.000  0.000     2.265     2.353
 397   1 H      0.099  0.901  0.000  0.000     1.789     2.091
 398   1 H      0.071  0.929  0.000  0.000     2.077     2.253
 399   1 H      0.084  0.916  0.000  0.000     1.934     2.175
 400   1 H      0.069  0.931  0.000  0.000     2.090     2.261
 401   7 N     -0.104  1.200  3.904  0.000    23.286     7.167
 402   6 C      0.021  1.031  2.948  0.000    20.203     6.396
 403   6 C      0.284  1.034  2.682  0.000    22.196     7.717
 404   8 O     -0.451  1.733  4.718  0.000    22.725     6.391
 405   6 C     -0.154  0.997  3.158  0.000    23.510     6.908
 406   1 H      0.219  0.781  0.000  0.000     1.012     1.576
 407   1 H      0.084  0.916  0.000  0.000     1.941     2.178
 408   1 H      0.082  0.918  0.000  0.000     1.954     2.186
 409   1 H      0.060  0.940  0.000  0.000     2.197     2.318
 410   1 H      0.089  0.911  0.000  0.000     1.886     2.148
 411   7 N     -0.217  1.213  4.003  0.000    25.722     7.532
 412   6 C     -0.005  1.037  2.968  0.000    20.684     6.479
 413   6 C      0.219  1.068  2.713  0.000    23.383     7.923
 414   8 O     -0.641  1.871  4.771  0.000    27.077     6.980
 415   6 C     -0.073  1.058  3.015  0.000    21.849     6.645
 416   6 C     -0.111  0.966  3.146  0.000    22.606     6.766
 417   6 C     -0.189  0.965  3.224  0.000    24.229     7.012
 418   6 C     -0.170  0.977  3.193  0.000    23.825     6.952
 419   1 H      0.222  0.778  0.000  0.000     1.001     1.567
 420   1 H      0.138  0.862  0.000  0.000     1.474     1.898
 421   1 H      0.088  0.912  0.000  0.000     1.901     2.156
 422   1 H      0.096  0.904  0.000  0.000     1.819     2.109
 423   1 H      0.068  0.932  0.000  0.000     2.103     2.268
 424   1 H      0.115  0.885  0.000  0.000     1.651     2.009
 425   1 H      0.072  0.928  0.000  0.000     2.063     2.246
 426   1 H      0.062  0.938  0.000  0.000     2.170     2.304
 427   1 H      0.074  0.926  0.000  0.000     2.037     2.232
 428   1 H      0.052  0.948  0.000  0.000     2.290     2.366
 429   1 H      0.075  0.925  0.000  0.000     2.032     2.229
 430   7 N     -0.133  1.219  3.914  0.000    23.890     7.259
 431   6 C     -0.001  1.074  2.927  0.000    20.575     6.454
 432   6 C      0.285  1.002  2.713  0.000    22.167     7.710
 433   8 O     -0.532  1.759  4.773  0.000    24.508     6.637
 434   6 C     -0.153  1.036  3.117  0.000    23.464     6.897
 435   6 C     -0.125  1.026  3.099  0.000    22.892     6.812
 436   6 C     -0.060  1.011  3.049  0.000    21.719     6.646
 437   7 N     -0.200  1.190  4.010  0.000    25.355     7.479
 438   6 C      0.205  1.036  2.760  0.000    23.652     7.966
 439   7 N     -0.123  1.116  4.007  0.000    23.690     7.229
 440   7 N     -0.365  1.100  4.266  0.000    29.418     8.055
 441   1 H      0.264  0.736  0.000  0.000     0.828     1.425
 442   1 H      0.116  0.884  0.000  0.000     1.648     2.008
 443   1 H      0.104  0.896  0.000  0.000     1.744     2.065
 444   1 H      0.099  0.901  0.000  0.000     1.794     2.094
 445   1 H      0.094  0.906  0.000  0.000     1.837     2.120
 446   1 H      0.088  0.912  0.000  0.000     1.893     2.151
 447   1 H      0.102  0.898  0.000  0.000     1.765     2.078
 448   1 H      0.093  0.907  0.000  0.000     1.846     2.124
 449   1 H      0.242  0.758  0.000  0.000     0.915     1.498
 450   1 H      0.279  0.721  0.000  0.000     0.774     1.376
 451   1 H      0.283  0.717  0.000  0.000     0.765     1.370
 452   1 H      0.266  0.734  0.000  0.000     0.823     1.421
 453   1 H      0.249  0.751  0.000  0.000     0.884     1.473
 454   7 N     -0.161  1.238  3.923  0.000    24.480     7.348
 455   6 C      0.034  1.053  2.913  0.000    20.164     6.424
 456   6 C      0.221  1.084  2.695  0.000    23.336     7.908
 457   8 O     -0.661  1.899  4.762  0.000    27.717     7.057
 458   6 C      0.009  1.035  2.956  0.000    20.988     6.625
 459   8 O     -0.546  1.797  4.749  0.000    23.949     6.604
 460   1 H      0.247  0.753  0.000  0.000     0.894     1.481
 461   1 H      0.143  0.857  0.000  0.000     1.441     1.877
 462   1 H      0.129  0.871  0.000  0.000     1.543     1.943
 463   1 H      0.115  0.885  0.000  0.000     1.654     2.011
 464   1 H      0.342  0.658  0.000  0.000     0.606     1.222
 465   7 N     -0.127  1.207  3.920  0.000    23.761     7.240
 466   6 C      0.023  1.026  2.951  0.000    20.217     6.407
 467   6 C      0.230  1.077  2.692  0.000    23.165     7.881
 468   8 O     -0.609  1.853  4.756  0.000    26.345     6.881
 469   6 C     -0.160  1.004  3.156  0.000    23.664     6.936
 470   1 H      0.287  0.713  0.000  0.000     0.753     1.359
 471   1 H      0.135  0.865  0.000  0.000     1.497     1.913
 472   1 H      0.071  0.929  0.000  0.000     2.077     2.254
 473   1 H      0.103  0.897  0.000  0.000     1.760     2.075
 474   1 H      0.114  0.886  0.000  0.000     1.659     2.014
 475   7 N     -0.168  1.205  3.963  0.000    24.633     7.371
 476   6 C      0.020  1.035  2.945  0.000    20.260     6.413
 477   6 C      0.233  1.061  2.706  0.000    23.114     7.873
 478   8 O     -0.653  1.860  4.793  0.000    27.476     7.027
 479   6 C     -0.064  1.047  3.017  0.000    21.704     6.628
 480   6 C     -0.115  0.972  3.143  0.000    22.688     6.779
 481   6 C     -0.160  0.976  3.184  0.000    23.663     6.937
 482   6 C     -0.161  0.973  3.188  0.000    23.659     6.932
 483   1 H      0.237  0.763  0.000  0.000     0.936     1.516
 484   1 H      0.140  0.860  0.000  0.000     1.459     1.889
 485   1 H      0.098  0.902  0.000  0.000     1.806     2.102
 486   1 H      0.107  0.893  0.000  0.000     1.720     2.051
 487   1 H      0.063  0.937  0.000  0.000     2.166     2.301
 488   1 H      0.088  0.912  0.000  0.000     1.893     2.151
 489   1 H      0.048  0.952  0.000  0.000     2.339     2.392
 490   1 H      0.058  0.942  0.000  0.000     2.218     2.329
 491   1 H      0.095  0.905  0.000  0.000     1.827     2.114
 492   1 H      0.042  0.958  0.000  0.000     2.427     2.436
 493   1 H      0.059  0.941  0.000  0.000     2.212     2.326
 494   7 N     -0.097  1.204  3.893  0.000    23.149     7.146
 495   6 C      0.023  1.043  2.934  0.000    20.190     6.398
 496   6 C      0.279  1.040  2.682  0.000    22.284     7.729
 497   8 O     -0.492  1.750  4.742  0.000    23.616     6.516
 498   6 C     -0.127  1.034  3.093  0.000    22.914     6.812
 499   6 C      0.302  1.010  2.688  0.000    21.878     7.659
 500   8 O     -0.534  1.746  4.788  0.000    24.555     6.644
 501   7 N     -0.261  1.220  4.041  0.000    26.777     7.685
 502   1 H      0.237  0.763  0.000  0.000     0.934     1.513
 503   1 H      0.110  0.890  0.000  0.000     1.696     2.036
 504   1 H      0.102  0.898  0.000  0.000     1.766     2.078
 505   1 H      0.089  0.911  0.000  0.000     1.889     2.149
 506   1 H      0.246  0.754  0.000  0.000     0.900     1.486
 507   1 H      0.238  0.762  0.000  0.000     0.930     1.511
 508   7 N     -0.182  1.225  3.956  0.000    24.933     7.416
 509   6 C      0.030  1.034  2.936  0.000    20.065     6.377
 510   6 C      0.276  1.035  2.688  0.000    22.329     7.739
 511   8 O     -0.501  1.749  4.752  0.000    23.796     6.540
 512   6 C     -0.123  1.033  3.090  0.000    22.812     6.793
 513   6 C      0.303  1.008  2.689  0.000    21.863     7.656
 514   8 O     -0.529  1.749  4.780  0.000    24.430     6.627
 515   7 N     -0.266  1.217  4.049  0.000    26.899     7.703
 516   1 H      0.223  0.777  0.000  0.000     0.996     1.564
 517   1 H      0.084  0.916  0.000  0.000     1.939     2.178
 518   1 H      0.095  0.905  0.000  0.000     1.828     2.114
 519   1 H      0.084  0.916  0.000  0.000     1.936     2.176
 520   1 H      0.250  0.750  0.000  0.000     0.883     1.472
 521   1 H      0.244  0.756  0.000  0.000     0.908     1.493
 522   7 N     -0.186  1.221  3.965  0.000    25.040     7.432
 523   6 C      0.018  1.039  2.943  0.000    20.276     6.410
 524   6 C      0.284  1.036  2.680  0.000    22.193     7.715
 525   8 O     -0.501  1.743  4.758  0.000    23.796     6.540
 526   6 C     -0.091  1.029  3.061  0.000    22.207     6.705
 527   6 C     -0.015  1.024  2.991  0.000    20.810     6.487
 528   6 C     -0.136  0.999  3.137  0.000    23.146     6.854
 529   6 C     -0.126  0.995  3.132  0.000    22.937     6.822
 530   1 H      0.223  0.777  0.000  0.000     0.995     1.563
 531   1 H      0.082  0.918  0.000  0.000     1.956     2.187
 532   1 H      0.067  0.933  0.000  0.000     2.124     2.279
 533   1 H      0.074  0.926  0.000  0.000     2.047     2.237
 534   1 H      0.046  0.954  0.000  0.000     2.364     2.404
 535   1 H      0.055  0.945  0.000  0.000     2.255     2.348
 536   1 H      0.045  0.955  0.000  0.000     2.386     2.415
 537   1 H      0.059  0.941  0.000  0.000     2.215     2.327
 538   1 H      0.053  0.947  0.000  0.000     2.288     2.365
 539   1 H      0.057  0.943  0.000  0.000     2.239     2.340
 540   1 H      0.030  0.970  0.000  0.000     2.589     2.516
 541   7 N     -0.179  1.216  3.963  0.000    24.869     7.407
 542   6 C      0.028  1.039  2.932  0.000    20.089     6.380
 543   6 C      0.210  1.082  2.708  0.000    23.548     7.948
 544   8 O     -0.371  1.748  4.623  0.000    21.111     6.160
 545   6 C     -0.013  1.037  2.976  0.000    20.770     6.480
 546   6 C     -0.068  1.010  3.058  0.000    21.772     6.639
 547   6 C     -0.142  0.998  3.144  0.000    23.244     6.867
 548   6 C     -0.130  0.991  3.139  0.000    23.023     6.838
 549   1 H      0.201  0.799  0.000  0.000     1.103     1.645
 550   1 H      0.088  0.912  0.000  0.000     1.902     2.156
 551   1 H      0.069  0.931  0.000  0.000     2.098     2.265
 552   1 H      0.031  0.969  0.000  0.000     2.571     2.507
 553   1 H      0.042  0.958  0.000  0.000     2.427     2.436
 554   1 H      0.057  0.943  0.000  0.000     2.229     2.335
 555   1 H      0.083  0.917  0.000  0.000     1.952     2.185
 556   1 H      0.037  0.963  0.000  0.000     2.487     2.466
 557   1 H      0.058  0.942  0.000  0.000     2.225     2.332
 558   1 H      0.050  0.950  0.000  0.000     2.325     2.384
 559   1 H      0.053  0.947  0.000  0.000     2.282     2.362
 560   1 H      0.194  0.806  0.000  0.000     1.137     1.670
 561   1 H      0.072  0.928  0.000  0.000     2.064     2.246
 562   1 H      0.274  0.726  0.000  0.000     0.794     1.396
 563   1 H      0.081  0.919  0.000  0.000     1.973     2.196
 564   1 H      0.179  0.821  0.000  0.000     1.222     1.732
 565   1 H      0.073  0.927  0.000  0.000     2.055     2.241
 566   1 H      0.190  0.810  0.000  0.000     1.158     1.685
 567   1 H      0.060  0.940  0.000  0.000     2.201     2.320
 568   1 H      0.179  0.821  0.000  0.000     1.218     1.728
 569   1 H      0.070  0.930  0.000  0.000     2.081     2.256
 570   1 H      0.173  0.827  0.000  0.000     1.256     1.755
 571   1 H      0.064  0.936  0.000  0.000     2.147     2.291
 572   1 H      0.187  0.813  0.000  0.000     1.175     1.698
 573   1 H      0.058  0.942  0.000  0.000     2.222     2.331

 Mol. C6AA /au·bohr⁶  :    3025722.554276
 Mol. C8AA /au·bohr⁸  :   67904451.142979
 Mol. α(0) /au        :       2605.419152

 
molecular dipole:
                 x           y           z       tot (Debye)
 q only:       62.282      77.398      88.379
   full:       66.400      78.591      86.914     342.337
molecular quadrupole (traceless):
                xx          xy          yy          xz          yz          zz
 q only:    -2389.848    6817.876    1787.216    9277.872   10182.714     602.632
  q+dip:    -1824.028    7416.921    1720.545    9352.392   10115.644     103.483
   full:    -1828.028    7417.966    1722.273    9350.437   10119.733     105.755
speedup  1.00
cpu  time for grad   19.82 s
wall time for grad   19.82 s

SCC energy    :    -899.8359290
rep           :      18.3450455
ES            :       3.0345809
AES           :      -0.0880871
AXC           :       0.1641227
disp          :      -0.7802707
XB            :       0.0000000
fix           :       0.0000000
Gborn         :       0.0000000
Gsasa         :       0.0000000
Ghb           :       0.0000000
Gshift        :       0.0000000
Gsolv         :      -0.7545812     -473.51
Etot ala COSMO:    -899.8359290
grad norm     :       4.3055448
total E       :    -881.4023571
atomizationE  :     155.8213459    97779.37
(atE without considering molecular charge,
 total energy contains solvation terms)
H-L gap (eV)  :          1.4198

------------------------------------------------------------------------
 * finished run on 2019/03/15 at 00:15:40.002     
------------------------------------------------------------------------
 total:
 * wall-time:     0 d,  0 h,  0 min, 20.943 sec
 *  cpu-time:     0 d,  0 h,  0 min, 20.858 sec
 * ratio c/w:     0.996 speedup
 SCF:
 * wall-time:     0 d,  0 h,  0 min, 20.580 sec
 *  cpu-time:     0 d,  0 h,  0 min, 20.579 sec
 * ratio c/w:     1.000 speedup

