      -----------------------------------------------------------      
     |                   =====================                   |     
     |                           x T B                           |     
     |                   =====================                   |     
     |                         S. Grimme                         |     
     |          Mulliken Center for Theoretical Chemistry        |     
     |                    University of Bonn                     |     
     |                Version 6.1 RC1 (SAW190329)                |     
      -----------------------------------------------------------      

   This program is distributed in the hope that it will be useful,
   but WITHOUT ANY WARRANTY; without even the implied warranty of
   MERCHANTABILITY or FITNESS FOR A PARTICULAR PURPOSE.
   
   FOR NON-COMMERCIAL, ACADEMIA USE ONLY.
   
   Cite this work as:
   S. Grimme, C. Bannwarth, P. Shushkov, J. Comput. Theory Chem., 2017,
   13, 1989-2009. DOI: 10.1021/acs.jctc.7b00118
   C. Bannwarth, S. Ehlert and S. Grimme., J. Comput. Theory Chem., 2019,
   just accepted. DOI: 10.1021/acs.jctc.8b01176
   
   for sTDA-xTB:
   S. Grimme and C. Bannwarth, J. Chem. Phys., 2016, 145, 054103.
   DOI: 10.1063/1.4959605
   
   in the mass-spec context:
   V. Asgeirsson, C. Bauer and S. Grimme, Chem. Sci., 2017, 8, 4879.
   DOI: 10.1039/c7sc00601b
   
   for metadynamics refer to:
   S. Grimme, ChemRxiv, Preprint. DOI: 10.26434/chemrxiv.7660532.v1
   
   with help from (in alphabetical order)
   C. Bannwarth, F. Bohle, G. Brandenburg, E. Caldeweyher, M. Checinski,
   S. Dohm, S. Ehlert, S. Ehrlich, F. März, H. Neugebauer, J. Pisarek,
   P. Pracht, P. Shushkov, and S. Spicher.
   
 * started run on 2019/05/31 at 06:33:52.094     

           -------------------------------------------------
          |                Calculation Setup                |
           -------------------------------------------------

          program call               : /home/lum/qr/xtb-190329/bin/xtb xtb_tmp.xyz --chrg 0 --grad --gfn 2 --etemp 500 --acc 0.1 --gbsa h2o --parallel 2
          hostname                   : cu39
          coordinate file            : xtb_tmp.xyz
          omp threads                :                     2
          number of atoms            :                   161
          number of electrons        :                   434
          charge                     :                     0
          spin                       :                   0.0
          first test random number   :      0.28860549560351


molecular fragmentation (1/2 indicates fragments):
111111111111111111111111111111111111111111111111111111111111111111111111
111111111111111111122222222222222222222222222222222222222222222222222222
22222222222221122
# atoms in fragment 1/2:    93    68
 fragment masses (1/2) :      636.74      456.54
CMA distance (Bohr)    :   9.889
constraining FC (au)   :  0.0500

########################################################################
# WARNING! Please study the warnings concerning your input carefully
#  - XTBPATH is not set, using XTBHOME instead
#  - Process number higher than OMP_NUM_THREADS, I hope you know what you are doing.
########################################################################

           ------------------------------------------------- 
          |                 G F N 2 - x T B                 |
          | Geometry, Frequencies, Noncovalent interactions |
          |            JCTC 2018 parametrisation            |
           ------------------------------------------------- 
 
             k(s)              :                1.8500
             k(p)              :                2.2300
             k(d)              :                2.2300
             k(f)              :                2.0000
             kEN (H0ij)        :               -2.0000
             D4 a1             :                0.5200
             D4 a2             :                5.0000
             D4 s6             :                1.0000
             D4 s8             :                2.7000
             D4 s9             :                5.0000
             alphaj            :                2.0000

  Z AO/shell   Hii/eV     exponent
  1     Wed Apr 25 08:07:45 CEST 2018   EN: 2.200 GM2: 0.406  GM3: 0.0800  RAES: 1.40
     1s    -10.707211    1.230000
  6     Wed Apr 25 08:07:45 CEST 2018   EN: 2.550 GM2: 0.538  GM3: 0.1500  RAES: 3.00
     2s    -13.970922    2.096432
     2p    -10.063292    1.800000
  7     Wed Apr 25 08:07:45 CEST 2018   EN: 3.040 GM2: 0.461  GM3:-0.0640  RAES: 1.90
     2s    -16.686243    2.339881
     2p    -12.523956    2.014332
  8     Wed Apr 25 08:07:45 CEST 2018   EN: 3.440 GM2: 0.452  GM3:-0.0517  RAES: 1.80
     2s    -20.229985    2.439742
     2p    -15.503117    2.137023

 Solvent             : h2o
 Using internal parameter file: .param_gbsa2_h2o
 Gsolv ref. state (COSMO-RS): gsolv [1 M gas/solution]
 temperature (mdtemp)       :    298.150000000000     
 dielectric constant        :    80.2000000000000     
 rho                        :    1.00000000000000     
 mass                       :    18.0000000000000     
 surface tension            :    15.5689454083859     
 probe radius               :   0.975313790000000     
 vdW radii scaling          :    1.00000000000000     
 Gshift (Eh)                :   1.857443126794793E-003
 c1                         :    1.55243817000000     
 soset                      :   0.130326360000000     
 HB correction              :  T
 Number of grid points      :          230

            Z     q(EN)     CN     RAES       Cart. coordinates
     1  N   5.0   -0.70    3.00    1.93    45.13834    25.33377    88.77387
     2  C   4.0    0.09    3.99    3.60    44.32050    27.06650    90.71966
     3  C   4.0    0.28    3.01    3.02    44.84728    25.93318    93.30492
     4  O   6.0   -0.39    1.00    1.80    45.26698    23.68615    93.62717
     5  C   4.0   -0.13    3.99    3.60    41.50249    27.80239    90.44833
     6  C   4.0   -0.02    3.03    3.02    39.71879    26.28694    92.04281
     7  C   4.0   -0.09    3.03    3.02    38.95950    27.22266    94.37793
     8  C   4.0   -0.09    3.03    3.02    38.75121    23.99113    91.23156
     9  C   4.0   -0.07    3.03    3.02    37.30999    25.88539    95.88685
    10  C   4.0   -0.09    3.03    3.02    37.07815    22.64367    92.71970
    11  C   4.0    0.11    3.03    3.02    36.36149    23.57254    95.06899
    12  O   6.0   -0.46    1.99    1.83    34.73023    22.32376    96.61468
    13  H   1.0    0.30    1.00    1.43    45.81479    23.65523    89.39757
    14  H   1.0    0.15    0.99    1.43    45.43608    28.80552    90.53039
    15  H   1.0    0.12    0.99    1.43    41.32732    29.77137    91.01290
    16  H   1.0    0.11    0.99    1.43    41.02522    27.62901    88.45201
    17  H   1.0    0.13    1.00    1.43    39.68193    29.01927    95.02357
    18  H   1.0    0.12    1.00    1.43    39.30372    23.24879    89.41356
    19  H   1.0    0.13    1.00    1.43    36.74020    26.60032    97.70595
    20  H   1.0    0.12    0.99    1.43    36.33540    20.85908    92.06032
    21  H   1.0    0.26    0.99    1.43    34.23280    20.73248    95.87020
    22  N   5.0   -0.49    3.02    1.93    44.68541    27.65584    95.14829
    23  C   4.0    0.07    3.99    3.61    45.16784    27.14230    97.76991
    24  C   4.0    0.26    3.01    3.02    43.81060    29.16386    99.30078
    25  O   6.0   -0.45    1.00    1.80    43.30265    31.24864    98.43075
    26  C   4.0   -0.12    3.98    3.59    48.02098    27.12583    98.36534
    27  C   4.0   -0.09    3.97    3.58    49.32747    29.61627    97.77397
    28  C   4.0    0.31    2.99    3.02    52.25256    29.22425    97.64656
    29  O   6.0   -0.37    1.00    1.80    53.56730    30.56488    99.07118
    30  O   6.0   -0.36    1.00    1.80    53.02371    27.61328    96.10969
    31  H   1.0    0.28    1.00    1.43    44.48581    29.50504    94.69479
    32  H   1.0    0.13    0.99    1.43    44.40904    25.26491    98.20455
    33  H   1.0    0.12    0.99    1.43    48.31979    26.64026   100.34994
    34  H   1.0    0.16    0.99    1.43    48.91256    25.67216    97.19713
    35  H   1.0    0.14    0.99    1.43    48.75301    30.28384    95.90681
    36  H   1.0    0.13    0.99    1.43    48.91019    31.06623    99.18024
    37  N   5.0   -0.50    3.01    1.93    43.13675    28.40120   101.60719
    38  C   4.0    0.07    3.99    3.61    42.03515    30.05310   103.48143
    39  C   4.0    0.26    3.02    3.02    43.83505    30.16345   105.73095
    40  O   6.0   -0.42    1.00    1.80    44.92619    28.26639   106.47589
    41  C   4.0   -0.14    3.98    3.59    39.48306    28.99991   104.40673
    42  C   4.0   -0.17    3.98    3.59    37.69069    31.12597   105.16812
    43  C   4.0   -0.16    3.98    3.59    35.36744    30.10445   106.54624
    44  C   4.0   -0.05    3.98    3.59    33.40143    32.18880   106.85216
    45  N   5.0   -0.73    3.98    2.82    31.33905    31.36523   108.57185
    46  H   1.0    0.25    1.00    1.43    43.82271    26.75096   102.28241
    47  H   1.0    0.14    0.99    1.43    41.81411    31.91025   102.60867
    48  H   1.0    0.12    0.99    1.43    38.66050    27.88370   102.88051
    49  H   1.0    0.13    0.99    1.43    39.83669    27.73136   105.99577
    50  H   1.0    0.12    0.99    1.43    38.69471    32.46210   106.37405
    51  H   1.0    0.10    0.99    1.43    37.11600    32.12738   103.46201
    52  H   1.0    0.11    0.99    1.43    34.59304    28.53073   105.46431
    53  H   1.0    0.11    0.99    1.43    35.96570    29.39253   108.38506
    54  H   1.0    0.13    0.99    1.43    34.25874    33.89222   107.63674
    55  H   1.0    0.11    0.99    1.43    32.59379    32.65433   105.01605
    56  H   1.0    0.26    1.00    1.43    30.08395    32.82921   108.83533
    57  H   1.0    0.24    1.00    1.43    30.40977    29.81982   107.83111
    58  H   1.0    0.25    1.00    1.43    32.08224    30.87246   110.30226
    59  N   5.0   -0.50    3.01    1.93    43.91413    32.39115   106.92638
    60  C   4.0    0.08    4.00    3.62    45.42821    32.66522   109.19158
    61  C   4.0    0.26    3.01    3.02    44.23439    34.80500   110.71840
    62  O   6.0   -0.46    1.00    1.80    43.93760    36.94596   109.91529
    63  C   4.0   -0.07    3.98    3.58    48.27733    33.03440   108.63278
    64  C   4.0   -0.16    3.98    3.59    49.64850    33.71996   111.09238
    65  C   4.0   -0.20    3.98    3.59    48.70854    34.98985   106.56160
    66  C   4.0   -0.23    3.98    3.58    52.48548    33.23621   110.97812
    67  H   1.0    0.28    1.00    1.43    43.31420    33.99942   106.06903
    68  H   1.0    0.13    0.99    1.43    45.24371    30.87368   110.22071
    69  H   1.0    0.13    0.99    1.43    48.97383    31.20515   107.95251
    70  H   1.0    0.12    0.99    1.43    49.29724    35.70848   111.51901
    71  H   1.0    0.12    0.99    1.43    48.86683    32.58999   112.63278
    72  H   1.0    0.11    0.99    1.43    50.71054    35.16787   106.14101
    73  H   1.0    0.13    0.99    1.43    47.77533    34.42996   104.81528
    74  H   1.0    0.12    0.99    1.43    47.98452    36.82086   107.14346
    75  H   1.0    0.11    0.99    1.43    53.36987    33.76849   112.75482
    76  H   1.0    0.11    0.99    1.43    52.85442    31.24128   110.64146
    77  H   1.0    0.11    0.99    1.43    53.36456    34.31823   109.46979
    78  N   5.0   -0.48    3.01    1.93    43.42436    34.06370   113.00260
    79  C   4.0    0.07    3.99    3.60    41.90899    35.62042   114.65437
    80  C   4.0    0.05    3.00    3.02    42.79915    35.33775   117.38067
    81  O   6.0   -0.41    1.00    1.80    42.99755    33.23076   118.34643
    82  C   4.0    0.05    3.98    3.58    39.09647    34.77233   114.50131
    83  O   6.0   -0.47    1.99    1.82    38.77247    32.28391   115.38316
    84  C   4.0   -0.19    3.98    3.59    38.16080    34.84214   111.76355
    85  H   1.0    0.26    1.00    1.43    43.63628    32.25282   113.56458
    86  H   1.0    0.11    0.99    1.43    42.09411    37.58304   114.05408
    87  H   1.0    0.10    0.99    1.43    38.00867    36.09744   115.69009
    88  H   1.0    0.31    0.99    1.43    39.81086    32.01334   116.87047
    89  H   1.0    0.12    0.99    1.43    36.13262    35.13644   111.72236
    90  H   1.0    0.12    0.99    1.43    39.08820    36.34070   110.71326
    91  H   1.0    0.13    0.99    1.43    38.61412    33.03849   110.89195
    92  N   5.0   -0.70    3.00    1.93    39.85214    44.47842   113.12506
    93  C   4.0    0.07    3.98    3.59    39.36894    42.43930   111.35873
    94  C   4.0    0.27    3.00    3.02    40.18402    43.24712   108.70243
    95  O   6.0   -0.41    1.00    1.80    39.77633    45.35747   107.85499
    96  C   4.0   -0.15    3.98    3.59    36.58259    41.55942   111.57746
    97  C   4.0   -0.11    3.98    3.59    35.07940    41.46697   109.10302
    98  C   4.0    0.27    3.00    3.02    32.60139    40.13622   109.70582
    99  O   6.0   -0.44    1.00    1.80    32.29596    37.87302   109.39289
   100  N   5.0   -0.65    3.00    1.93    30.82000    41.61774   110.72412
   101  H   1.0    0.28    1.00    1.43    39.32686    46.26178   112.65481
   102  H   1.0    0.11    0.99    1.43    40.60831    40.89296   111.95001
   103  H   1.0    0.10    0.99    1.43    36.57233    39.67532   112.40887
   104  H   1.0    0.11    0.99    1.43    35.63447    42.82427   112.90394
   105  H   1.0    0.12    0.99    1.43    34.72820    43.36729   108.39242
   106  H   1.0    0.12    0.99    1.43    36.11046    40.38696   107.68142
   107  H   1.0    0.26    1.00    1.43    31.09628    43.47870   111.00116
   108  H   1.0    0.28    1.00    1.43    29.16921    40.84781   111.28319
   109  N   5.0   -0.50    3.01    1.93    41.35540    41.40266   107.42979
   110  C   4.0    0.08    3.99    3.61    42.52444    41.70195   104.97425
   111  C   4.0    0.26    3.02    3.02    41.75986    39.42285   103.35766
   112  O   6.0   -0.45    1.00    1.80    42.14607    37.24320   104.03755
   113  C   4.0   -0.08    3.98    3.59    45.43570    41.70152   105.22250
   114  C   4.0   -0.14    3.98    3.58    46.37070    43.86382   106.90497
   115  C   4.0   -0.21    3.98    3.59    46.64234    41.79171   102.60502
   116  C   4.0   -0.23    3.98    3.58    49.09468    43.48237   107.77564
   117  H   1.0    0.28    1.00    1.43    41.86774    39.77952   108.31464
   118  H   1.0    0.13    0.99    1.43    41.84290    43.46137   104.13545
   119  H   1.0    0.13    0.99    1.43    45.93143    39.91463   106.13735
   120  H   1.0    0.12    0.99    1.43    46.19171    45.64682   105.88486
   121  H   1.0    0.14    0.99    1.43    45.16954    43.98583   108.57915
   122  H   1.0    0.11    0.99    1.43    48.68550    41.84972   102.76714
   123  H   1.0    0.13    0.99    1.43    46.15220    40.11493   101.52434
   124  H   1.0    0.12    0.99    1.43    46.00002    43.44064   101.56306
   125  H   1.0    0.11    0.99    1.43    49.62288    44.95130   109.11380
   126  H   1.0    0.11    0.99    1.43    49.28755    41.66267   108.71766
   127  H   1.0    0.11    0.99    1.43    50.40130    43.54134   106.19252
   128  N   5.0   -0.49    3.01    1.93    40.62912    40.00575   101.17343
   129  C   4.0    0.08    4.00    3.62    40.16003    38.10780    99.26422
   130  C   4.0    0.26    3.01    3.02    41.71273    38.81085    96.92750
   131  O   6.0   -0.41    1.00    1.80    41.76035    40.96294    96.08899
   132  C   4.0   -0.09    3.98    3.58    37.33640    37.82500    98.59782
   133  C   4.0   -0.23    3.98    3.59    36.97351    35.34474    97.16914
   134  C   4.0   -0.21    3.98    3.59    35.73310    37.87155   100.99586
   135  H   1.0    0.25    1.00    1.43    40.45170    41.83908   100.64895
   136  H   1.0    0.14    0.99    1.43    40.85068    36.32345   100.05149
   137  H   1.0    0.13    0.99    1.43    36.78553    39.40501    97.38210
   138  H   1.0    0.10    0.99    1.43    34.98666    35.04675    96.76430
   139  H   1.0    0.12    0.99    1.43    38.01261    35.36151    95.39778
   140  H   1.0    0.11    0.99    1.43    37.66930    33.77123    98.29363
   141  H   1.0    0.10    0.99    1.43    33.75689    37.60249   100.51377
   142  H   1.0    0.11    0.99    1.43    36.33519    36.37575   102.26706
   143  H   1.0    0.13    0.99    1.43    35.93763    39.66742   101.97325
   144  N   5.0   -0.50    3.02    1.93    42.93947    36.84388    95.90292
   145  C   4.0    0.07    3.98    3.59    44.87429    37.04726    93.96673
   146  C   4.0    0.06    3.00    3.02    44.15116    35.09135    91.94059
   147  O   6.0   -0.46    1.00    1.80    44.87028    32.89373    92.12011
   148  C   4.0   -0.08    3.99    3.60    47.43340    36.39591    95.19156
   149  C   4.0    0.28    3.00    3.02    49.72870    37.66266    94.03493
   150  O   6.0   -0.38    1.00    1.80    51.17915    38.92931    95.31116
   151  N   5.0   -0.64    3.00    1.93    50.02167    37.34267    91.53997
   152  H   1.0    0.27    1.00    1.43    42.92865    35.15964    96.81801
   153  H   1.0    0.14    0.99    1.43    44.83742    38.97777    93.22357
   154  H   1.0    0.13    0.99    1.43    47.39721    36.94532    97.17903
   155  H   1.0    0.13    0.99    1.43    47.70604    34.34761    95.11713
   156  H   1.0    0.29    1.00    1.43    51.49238    38.19804    90.66819
   157  H   1.0    0.28    1.00    1.43    48.96458    36.08954    90.58536
   158  H   1.0    0.30    1.00    1.43    43.83009    24.97254    87.74890
   159  H   1.0    0.12    1.00    1.43    43.22706    36.87123   118.39871
   160  H   1.0    0.29    1.00    1.43    39.04025    44.16763   114.58684
   161  H   1.0    0.13    1.00    1.43    43.08869    35.60758    90.46556

           ------------------------------------------------- 
          |        Self-Consistent Charge Iterations        |
           ------------------------------------------------- 

          ...................................................
          :                      SETUP                      :
          :.................................................:
          :  # basis functions                 392          :
          :  # atomic orbitals                 392          :
          :  # shells                          238          :
          :  # electrons                       434          :
          :  max. iterations                   250          :
          :  Hamiltonian                  GFN2-xTB          :
          :  restarted?                      false          :
          :  GBSA solvation                   true          :
          :  PC potential                    false          :
          :  electronic temp.          500.0000000     K    :
          :  accuracy                    0.1000000          :
          :  -> integral cutoff          0.3500000E+02      :
          :  -> integral neglect         0.1000000E-08      :
          :  -> SCF convergence          0.1000000E-06 Eh   :
          :  -> wf. convergence          0.1000000E-04 e    :
          :  Broyden damping             0.4000000          :
          ...................................................

 iter      E             dE          RMSdq      gap      omega  full diag
   1   -248.3930467 -0.248393E+03  0.424E+00    2.54       0.0  T
   2   -249.1088748 -0.715828E+00  0.216E+00    1.49       1.0  T
   3   -249.1327564 -0.238817E-01  0.120E+00    1.73       1.0  T
   4   -249.1402926 -0.753613E-02  0.316E-01    0.78       1.0  T
   5   -249.1484990 -0.820641E-02  0.123E-01    0.99       1.0  T
   6   -249.1487640 -0.265038E-03  0.580E-02    1.04       1.0  T
   7   -249.1488112 -0.472050E-04  0.258E-02    1.08       1.0  T
   8   -249.1488412 -0.299586E-04  0.932E-03    1.10       1.0  T
   9   -249.1488434 -0.224684E-05  0.512E-03    1.09       1.5  T
  10   -249.1488442 -0.740035E-06  0.174E-03    1.09       4.5  T
  11   -249.1488443 -0.761000E-07  0.645E-04    1.09      12.2  T
  12   -249.1488443 -0.114962E-07  0.305E-04    1.09      25.9  T
  13   -249.1488443 -0.307088E-08  0.139E-04    1.09      56.9  T
  14   -249.1488443 -0.568718E-09  0.547E-05    1.09     144.1  T
  15   -249.1488443 -0.140545E-09  0.235E-05    1.09     335.5  T

   *** convergence criteria satisfied after 15 iterations ***

         #    Occupation            Energy/Eh            Energy/eV
      -------------------------------------------------------------
         1        2.0000           -0.7532776             -20.4977
       ...           ...                  ...                  ...
       211        2.0000           -0.3959293             -10.7738
       212        2.0000           -0.3921519             -10.6710
       213        2.0000           -0.3800597             -10.3419
       214        2.0000           -0.3757677             -10.2252
       215        2.0000           -0.3672859              -9.9944
       216        2.0000           -0.3618105              -9.8454
       217        2.0000           -0.3560215              -9.6878 (HOMO)
       218        0.0000           -0.3158439              -8.5945 (LUMO)
       219        0.0000           -0.3108141              -8.4577
       220                         -0.2414816              -6.5710
       221                         -0.2391621              -6.5079
       222                         -0.2349660              -6.3938
       ...                                ...                  ...
       392                          0.6654964              18.1091
      -------------------------------------------------------------
                  HL-Gap            0.0401777 Eh            1.0933 eV
             Fermi-level           -0.3359442 Eh           -9.1415 eV

 SCC (total)                   0 d,  0 h,  0 min,  1.925 sec
 SCC setup                      ...        0 min,  0.035 sec (  1.794%)
 Dispersion                     ...        0 min,  0.023 sec (  1.170%)
 integral evaluation            ...        0 min,  0.157 sec (  8.166%)
 zeroth order Hamiltonian       ...        0 min,  0.005 sec (  0.254%)
 iterations                     ...        0 min,  1.197 sec ( 62.200%)
 molecular gradient             ...        0 min,  0.500 sec ( 25.994%)
 printout                       ...        0 min,  0.008 sec (  0.415%)

         :::::::::::::::::::::::::::::::::::::::::::::::::::::
         ::                     SUMMARY                     ::
         :::::::::::::::::::::::::::::::::::::::::::::::::::::
         :: total energy             -246.151517450032 Eh   ::
         :: total w/o Gsasa/hb       -246.113707958251 Eh   ::
         :: gradient norm               0.317871301309 Eh/α ::
         :: HOMO-LUMO gap               1.093290055706 eV   ::
         ::.................................................::
         :: SCC energy               -249.154359069910 Eh   ::
         :: -> isotropic ES             0.842984636831 Eh   ::
         :: -> anisotropic ES          -0.022121309247 Eh   ::
         :: -> anisotropic XC           0.077293213618 Eh   ::
         :: -> dispersion              -0.188122966558 Eh   ::
         :: -> Gsolv                   -0.255652518322 Eh   ::
         ::    -> Gborn                -0.217843026541 Eh   ::
         ::    -> Gsasa                -0.007372247166 Eh   ::
         ::    -> Ghb                  -0.032294687742 Eh   ::
         ::    -> Gshift                0.001857443127 Eh   ::
         :: repulsion energy            2.989644760089 Eh   ::
         :: add. restraining            0.000000000000 Eh   ::
         :::::::::::::::::::::::::::::::::::::::::::::::::::::

           -------------------------------------------------
          |                Property Printout                |
           -------------------------------------------------

    * Orbital Energies and Occupations

         #    Occupation            Energy/Eh            Energy/eV
      -------------------------------------------------------------
         1        2.0000           -0.7532776             -20.4977
       ...           ...                  ...                  ...
       205        2.0000           -0.4056718             -11.0389
       206        2.0000           -0.4051944             -11.0259
       207        2.0000           -0.4047227             -11.0131
       208        2.0000           -0.4019676             -10.9381
       209        2.0000           -0.4019325             -10.9371
       210        2.0000           -0.4002872             -10.8924
       211        2.0000           -0.3959293             -10.7738
       212        2.0000           -0.3921519             -10.6710
       213        2.0000           -0.3800597             -10.3419
       214        2.0000           -0.3757677             -10.2252
       215        2.0000           -0.3672859              -9.9944
       216        2.0000           -0.3618105              -9.8454
       217        2.0000           -0.3560215              -9.6878 (HOMO)
       218        0.0000           -0.3158439              -8.5945 (LUMO)
       219        0.0000           -0.3108141              -8.4577
       220                         -0.2414816              -6.5710
       221                         -0.2391621              -6.5079
       222                         -0.2349660              -6.3938
       223                         -0.2289311              -6.2295
       224                         -0.2241361              -6.0991
       225                         -0.2234472              -6.0803
       226                         -0.2226999              -6.0600
       227                         -0.2192016              -5.9648
       228                         -0.2149218              -5.8483
       ...                                ...                  ...
       392                          0.6654964              18.1091
      -------------------------------------------------------------
                  HL-Gap            0.0401777 Eh            1.0933 eV
             Fermi-level           -0.3359442 Eh           -9.1415 eV

   #   Z        covCN         q      C6AA      α(0)
   1   7 N      2.636    -0.397    30.281     8.173
   2   6 C      3.791     0.030    20.078     6.381
   3   6 C      2.756     0.279    22.271     7.728
   4   8 O      0.858    -0.505    23.904     6.555
   5   6 C      3.810    -0.078    21.986     6.674
   6   6 C      2.968    -0.005    28.140     8.701
   7   6 C      2.926    -0.046    29.136     8.852
   8   6 C      2.924    -0.039    28.958     8.825
   9   6 C      2.919    -0.063    29.556     8.915
  10   6 C      2.918    -0.076    29.907     8.968
  11   6 C      2.847     0.142    24.902     8.178
  12   8 O      1.659    -0.427    21.385     6.243
  13   1 H      0.860     0.155     1.371     1.834
  14   1 H      0.924     0.047     2.362     2.404
  15   1 H      0.925     0.054     2.271     2.357
  16   1 H      0.925     0.061     2.182     2.310
  17   1 H      0.926     0.036     2.504     2.475
  18   1 H      0.926     0.031     2.574     2.509
  19   1 H      0.926     0.061     2.186     2.312
  20   1 H      0.926     0.040     2.448     2.447
  21   1 H      0.805     0.348     0.593     1.209
  22   7 N      2.699    -0.181    24.921     7.414
  23   6 C      3.797     0.025    20.153     6.392
  24   6 C      2.760     0.272    22.411     7.753
  25   8 O      0.858    -0.480    23.349     6.479
  26   6 C      3.804    -0.045    21.379     6.582
  27   6 C      3.797    -0.083    22.086     6.692
  28   6 C      2.684     0.371    20.715     7.448
  29   8 O      0.856    -0.650    27.384     7.016
  30   8 O      0.856    -0.650    27.388     7.016
  31   1 H      0.860     0.210     1.055     1.609
  32   1 H      0.924     0.062     2.178     2.308
  33   1 H      0.924     0.027     2.628     2.535
  34   1 H      0.924     0.041     2.429     2.437
  35   1 H      0.924     0.019     2.745     2.591
  36   1 H      0.924     0.011     2.872     2.650
  37   7 N      2.696    -0.166    24.583     7.364
  38   6 C      3.797     0.012    20.385     6.429
  39   6 C      2.766     0.273    22.392     7.750
  40   8 O      0.858    -0.494    23.650     6.520
  41   6 C      3.807    -0.078    21.985     6.675
  42   6 C      3.805    -0.077    21.968     6.672
  43   6 C      3.803    -0.096    22.321     6.726
  44   6 C      3.733    -0.054    21.631     6.638
  45   7 N      3.483    -0.143    24.087     7.289
  46   1 H      0.860     0.203     1.090     1.635
  47   1 H      0.924     0.080     1.979     2.200
  48   1 H      0.924     0.071     2.076     2.253
  49   1 H      0.924     0.064     2.150     2.293
  50   1 H      0.924     0.055     2.259     2.350
  51   1 H      0.925     0.062     2.172     2.305
  52   1 H      0.924     0.083     1.944     2.181
  53   1 H      0.924     0.079     1.987     2.204
  54   1 H      0.924     0.124     1.583     1.968
  55   1 H      0.925     0.121     1.605     1.981
  56   1 H      0.859     0.303     0.706     1.316
  57   1 H      0.859     0.300     0.714     1.323
  58   1 H      0.859     0.295     0.729     1.337
  59   7 N      2.693    -0.172    24.714     7.383
  60   6 C      3.805     0.013    20.347     6.422
  61   6 C      2.757     0.274    22.373     7.746
  62   8 O      0.858    -0.458    22.869     6.412
  63   6 C      3.850    -0.016    20.818     6.490
  64   6 C      3.803    -0.062    21.693     6.631
  65   6 C      3.754    -0.102    22.500     6.764
  66   6 C      3.751    -0.108    22.633     6.785
  67   1 H      0.860     0.228     0.974     1.546
  68   1 H      0.924     0.068     2.110     2.272
  69   1 H      0.924     0.037     2.493     2.469
  70   1 H      0.924     0.043     2.411     2.428
  71   1 H      0.924     0.039     2.463     2.454
  72   1 H      0.925     0.035     2.522     2.483
  73   1 H      0.925     0.023     2.691     2.566
  74   1 H      0.925     0.055     2.253     2.347
  75   1 H      0.925     0.049     2.338     2.391
  76   1 H      0.925     0.035     2.523     2.484
  77   1 H      0.925     0.034     2.526     2.485
  78   7 N      2.693    -0.157    24.404     7.337
  79   6 C      3.789     0.007    20.469     6.444
  80   6 C      2.768     0.194    23.860     8.000
  81   8 O      0.856    -0.358    20.851     6.122
  82   6 C      3.726     0.118    18.745     6.182
  83   8 O      1.656    -0.460    22.048     6.339
  84   6 C      3.753    -0.138    23.222     6.872
  85   1 H      0.860     0.213     1.043     1.600
  86   1 H      0.924     0.088     1.901     2.156
  87   1 H      0.923     0.036     2.505     2.475
  88   1 H      0.804     0.326     0.648     1.265
  89   1 H      0.925     0.092     1.861     2.133
  90   1 H      0.925     0.054     2.269     2.356
  91   1 H      0.925     0.080     1.984     2.202
  92   7 N      2.635    -0.395    30.242     8.167
  93   6 C      3.786     0.025    20.173     6.397
  94   6 C      2.751     0.279    22.280     7.729
  95   8 O      0.858    -0.492    23.614     6.515
  96   6 C      3.808    -0.077    21.959     6.671
  97   6 C      3.805    -0.097    22.346     6.730
  98   6 C      2.750     0.283    22.199     7.715
  99   8 O      0.859    -0.475    23.235     6.463
 100   7 N      2.639    -0.287    27.405     7.775
 101   1 H      0.860     0.158     1.348     1.819
 102   1 H      0.924     0.043     2.408     2.427
 103   1 H      0.925     0.061     2.185     2.311
 104   1 H      0.924     0.055     2.259     2.350
 105   1 H      0.925     0.051     2.307     2.375
 106   1 H      0.924     0.057     2.233     2.337
 107   1 H      0.860     0.215     1.035     1.593
 108   1 H      0.860     0.236     0.939     1.518
 109   7 N      2.694    -0.181    24.925     7.415
 110   6 C      3.795     0.016    20.315     6.418
 111   6 C      2.761     0.270    22.435     7.757
 112   8 O      0.858    -0.470    23.138     6.449
 113   6 C      3.855    -0.020    20.902     6.502
 114   6 C      3.802    -0.059    21.630     6.621
 115   6 C      3.755    -0.107    22.600     6.778
 116   6 C      3.751    -0.108    22.626     6.783
 117   1 H      0.860     0.223     0.995     1.563
 118   1 H      0.924     0.060     2.194     2.316
 119   1 H      0.924     0.056     2.249     2.345
 120   1 H      0.924     0.038     2.478     2.461
 121   1 H      0.924     0.041     2.442     2.444
 122   1 H      0.925     0.051     2.313     2.378
 123   1 H      0.925     0.018     2.761     2.599
 124   1 H      0.925     0.041     2.432     2.439
 125   1 H      0.925     0.045     2.388     2.416
 126   1 H      0.925     0.038     2.477     2.461
 127   1 H      0.925     0.035     2.519     2.482
 128   7 N      2.692    -0.160    24.459     7.345
 129   6 C      3.805     0.010    20.407     6.431
 130   6 C      2.754     0.273    22.388     7.748
 131   8 O      0.858    -0.468    23.092     6.443
 132   6 C      3.851    -0.018    20.860     6.496
 133   6 C      3.757    -0.125    22.955     6.831
 134   6 C      3.756    -0.127    22.990     6.837
 135   1 H      0.860     0.204     1.087     1.633
 136   1 H      0.924     0.079     1.987     2.204
 137   1 H      0.924     0.048     2.350     2.397
 138   1 H      0.925     0.073     2.048     2.238
 139   1 H      0.925     0.027     2.622     2.532
 140   1 H      0.925     0.053     2.282     2.362
 141   1 H      0.925     0.073     2.055     2.242
 142   1 H      0.925     0.062     2.174     2.306
 143   1 H      0.925     0.045     2.388     2.417
 144   7 N      2.698    -0.170    24.667     7.376
 145   6 C      3.786     0.026    20.150     6.394
 146   6 C      2.769     0.195    23.843     7.997
 147   8 O      0.856    -0.353    20.757     6.108
 148   6 C      3.809    -0.097    22.347     6.729
 149   6 C      2.742     0.291    22.060     7.690
 150   8 O      0.859    -0.497    23.719     6.530
 151   7 N      2.638    -0.288    27.419     7.777
 152   1 H      0.860     0.219     1.014     1.578
 153   1 H      0.924     0.099     1.792     2.094
 154   1 H      0.924     0.070     2.084     2.258
 155   1 H      0.924     0.075     2.036     2.231
 156   1 H      0.860     0.241     0.921     1.503
 157   1 H      0.861     0.219     1.015     1.578
 158   1 H      0.862     0.188     1.170     1.694
 159   1 H      0.930     0.091     1.867     2.136
 160   1 H      0.862     0.189     1.161     1.688
 161   1 H      0.930     0.103     1.756     2.072

 Mol. C6AA /au·bohr⁶  :     235478.856915
 Mol. C8AA /au·bohr⁸  :    5220439.091710
 Mol. α(0) /au        :        725.841382


Wiberg/Mayer (AO) data.
largest (>0.10) Wiberg bond orders for each atom
          total WBO             WBO to atom ...
     1  N   2.992        C    2 1.024    H   13 0.952    H  158 0.949
     2  C   3.984        N    1 1.024    C    5 0.950    C    3 0.947    H   14 0.946
     3  C   3.937        O    4 1.635    N   22 1.282    C    2 0.947
     4  O   1.950        C    3 1.635    N   22 0.187
     5  C   3.991        C    6 1.014    H   15 0.971    H   16 0.965    C    2 0.950
     6  C   3.989        C    8 1.416    C    7 1.395    C    5 1.014
     7  C   3.991        C    9 1.466    C    6 1.395    H   17 0.967    C   10 0.105
     8  C   3.992        C   10 1.446    C    6 1.416    H   18 0.969    C    9 0.106
     9  C   3.987        C    7 1.466    C   11 1.360    H   19 0.967    C    8 0.106
    10  C   3.987        C    8 1.446    C   11 1.376    H   20 0.966    C    7 0.105
    11  C   3.943        C   10 1.376    C    9 1.360    O   12 1.076
    12  O   2.093        C   11 1.076    H   21 0.859
    13  H   0.976        N    1 0.952
    14  H   0.997        C    2 0.946
    15  H   0.997        C    5 0.971
    16  H   0.995        C    5 0.965
    17  H   0.999        C    7 0.967
    18  H   0.999        C    8 0.969
    19  H   0.996        C    9 0.967
    20  H   0.998        C   10 0.966
    21  H   0.879        O   12 0.859
    22  N   3.456        C    3 1.282    C   23 0.994    H   31 0.908    O    4 0.187
    23  C   3.973        N   22 0.994    C   26 0.956    H   32 0.952    C   24 0.947
    24  C   3.955        O   25 1.619    N   37 1.314    C   23 0.947
    25  O   1.955        C   24 1.619    N   37 0.196
    26  C   3.993        C   27 1.009    H   33 0.976    H   34 0.971    C   23 0.956
    27  C   3.992        C   26 1.009    H   36 0.983    H   35 0.964    C   28 0.908
    28  C   3.932        O   29 1.501    O   30 1.501    C   27 0.908
    29  O   1.791        C   28 1.501    O   30 0.217
    30  O   1.794        C   28 1.501    O   29 0.217
    31  H   0.956        N   22 0.908
    32  H   0.996        C   23 0.952
    33  H   0.999        C   26 0.976
    34  H   0.998        C   26 0.971
    35  H   1.000        C   27 0.964
    36  H   1.000        C   27 0.983
    37  N   3.477        C   24 1.314    C   38 0.973    H   46 0.923    O   25 0.196
    38  C   3.949        N   37 0.973    C   41 0.958    H   47 0.953    C   39 0.938
    39  C   3.948        O   40 1.637    N   59 1.296    C   38 0.938
    40  O   1.957        C   39 1.637    N   59 0.195
    41  C   3.979        C   42 1.006    H   49 0.973    H   48 0.970    C   38 0.958
    42  C   3.989        C   41 1.006    C   43 1.003    H   50 0.972    H   51 0.971
    43  C   3.985        C   44 1.011    C   42 1.003    H   52 0.971    H   53 0.970
    44  C   3.912        C   43 1.011    H   55 0.964    N   45 0.959    H   54 0.958
    45  N   3.666        C   44 0.959    H   58 0.897    H   57 0.896    H   56 0.895
    46  H   0.959        N   37 0.923
    47  H   0.994        C   38 0.953
    48  H   0.994        C   41 0.970
    49  H   0.996        C   41 0.973
    50  H   0.997        C   42 0.972
    51  H   0.996        C   42 0.971
    52  H   0.993        C   43 0.971
    53  H   0.994        C   43 0.970
    54  H   0.985        C   44 0.958
    55  H   0.985        C   44 0.964
    56  H   0.908        N   45 0.895
    57  H   0.910        N   45 0.896
    58  H   0.913        N   45 0.897
    59  N   3.464        C   39 1.296    C   60 0.980    H   67 0.901    O   40 0.195
    60  C   3.965        N   59 0.980    H   68 0.955    C   63 0.952    C   61 0.941
    61  C   3.954        O   62 1.642    N   78 1.291    C   60 0.941
    62  O   1.990        C   61 1.642    N   78 0.201
    63  C   3.990        C   65 1.012    C   64 0.994    H   69 0.965    C   60 0.952
    64  C   3.996        C   66 1.020    C   63 0.994    H   71 0.976    H   70 0.976
    65  C   3.994        C   63 1.012    H   73 0.985    H   72 0.982    H   74 0.974
    66  C   3.995        C   64 1.020    H   76 0.988    H   77 0.986    H   75 0.986
    67  H   0.948        N   59 0.901
    68  H   0.995        C   60 0.955
    69  H   0.998        C   63 0.965
    70  H   0.998        C   64 0.976
    71  H   0.998        C   64 0.976
    72  H   0.998        C   65 0.982
    73  H   0.999        C   65 0.985
    74  H   0.997        C   65 0.974
    75  H   0.997        C   66 0.986
    76  H   0.999        C   66 0.988
    77  H   0.999        C   66 0.986
    78  N   3.476        C   61 1.291    C   79 0.981    H   85 0.920    O   62 0.201
    79  C   3.963        C   80 0.988    N   78 0.981    H   86 0.952    C   82 0.913
    80  C   3.898        O   81 1.882    C   79 0.988    H  159 0.952
    81  O   2.056        C   80 1.882
    82  C   3.953        O   83 1.011    C   84 0.995    H   87 0.956    C   79 0.913
    83  O   1.959        C   82 1.011    H   88 0.854
    84  C   3.982        C   82 0.995    H   90 0.980    H   91 0.978    H   89 0.975
    85  H   0.954        N   78 0.920
    86  H   0.992        C   79 0.952
    87  H   0.998        C   82 0.956
    88  H   0.894        O   83 0.854
    89  H   0.992        C   84 0.975
    90  H   0.997        C   84 0.980
    91  H   0.994        C   84 0.978
    92  N   2.992        C   93 1.021    H  101 0.956    H  160 0.948
    93  C   3.983        N   92 1.021    C   96 0.958    H  102 0.954    C   94 0.942
    94  C   3.941        O   95 1.643    N  109 1.288    C   93 0.942
    95  O   1.957        C   94 1.643    N  109 0.197
    96  C   3.990        C   97 0.989    H  103 0.973    H  104 0.973    C   93 0.958
    97  C   3.994        C   96 0.989    H  106 0.972    H  105 0.972    C   98 0.965
    98  C   3.950        O   99 1.645    N  100 1.308    C   97 0.965
    99  O   1.948        C   98 1.645    N  100 0.199
   100  N   3.398        C   98 1.308    H  107 0.935    H  108 0.923    O   99 0.199
   101  H   0.975        N   92 0.956
   102  H   0.998        C   93 0.954
   103  H   0.996        C   96 0.973
   104  H   0.997        C   96 0.973
   105  H   0.997        C   97 0.972
   106  H   0.997        C   97 0.972
   107  H   0.954        N  100 0.935
   108  H   0.944        N  100 0.923
   109  N   3.464        C   94 1.288    C  110 0.986    H  117 0.899    O   95 0.197
   110  C   3.971        N  109 0.986    H  118 0.958    C  113 0.952    C  111 0.937
   111  C   3.948        O  112 1.632    N  128 1.298    C  110 0.937
   112  O   1.969        C  111 1.632    N  128 0.195
   113  C   3.988        C  115 1.009    C  114 0.996    H  119 0.954    C  110 0.952
   114  C   3.995        C  116 1.018    C  113 0.996    H  120 0.977    H  121 0.974
   115  C   3.995        C  113 1.009    H  124 0.986    H  123 0.984    H  122 0.981
   116  C   3.995        C  114 1.018    H  126 0.986    H  125 0.986    H  127 0.985
   117  H   0.950        N  109 0.899
   118  H   0.996        C  110 0.958
   119  H   0.997        C  113 0.954
   120  H   0.998        C  114 0.977
   121  H   0.998        C  114 0.974
   122  H   0.997        C  115 0.981
   123  H   1.000        C  115 0.984
   124  H   0.998        C  115 0.986
   125  H   0.997        C  116 0.986
   126  H   0.999        C  116 0.986
   127  H   0.999        C  116 0.985
   128  N   3.478        C  111 1.298    C  129 0.981    H  135 0.924    O  112 0.195
   129  C   3.953        N  128 0.981    C  132 0.949    H  136 0.949    C  130 0.932
   130  C   3.942        O  131 1.661    N  144 1.270    C  129 0.932
   131  O   1.982        C  130 1.661    N  144 0.191
   132  C   3.983        C  133 1.008    C  134 1.006    H  137 0.967    C  129 0.949
   133  C   3.991        C  132 1.008    H  139 0.986    H  140 0.984    H  138 0.981
   134  C   3.988        C  132 1.006    H  143 0.985    H  142 0.981    H  141 0.981
   135  H   0.958        N  128 0.924
   136  H   0.994        C  129 0.949
   137  H   0.998        C  132 0.967
   138  H   0.994        C  133 0.981
   139  H   0.999        C  133 0.986
   140  H   0.997        C  133 0.984
   141  H   0.994        C  134 0.981
   142  H   0.996        C  134 0.981
   143  H   0.998        C  134 0.985
   144  N   3.461        C  130 1.270    C  145 0.969    H  152 0.912    O  131 0.191
   145  C   3.968        C  148 0.972    N  144 0.969    C  146 0.964    H  153 0.952
   146  C   3.892        O  147 1.898    C  145 0.964    H  161 0.949
   147  O   2.061        C  146 1.898
   148  C   3.989        C  145 0.972    H  154 0.970    C  149 0.968    H  155 0.946
   149  C   3.946        O  150 1.651    N  151 1.301    C  148 0.968
   150  O   1.953        C  149 1.651    N  151 0.199
   151  N   3.387        C  149 1.301    H  157 0.932    H  156 0.921    O  150 0.199
   152  H   0.952        N  144 0.912
   153  H   0.990        C  145 0.952
   154  H   0.995        C  148 0.970
   155  H   0.994        C  148 0.946
   156  H   0.942        N  151 0.921
   157  H   0.952        N  151 0.932
   158  H   0.964        N    1 0.949
   159  H   0.991        C   80 0.952
   160  H   0.964        N   92 0.948
   161  H   0.989        C  146 0.949
 
molecular dipole:
                 x           y           z       tot (Debye)
 q only:      -24.879       3.698      11.945
   full:      -24.395       3.694      11.812      69.531
molecular quadrupole (traceless):
                xx          xy          yy          xz          yz          zz
 q only:    -3454.338    -918.517      -5.747   -3086.820    1133.548    3460.084
  q+dip:    -3416.959    -903.229      -0.734   -3019.084    1137.887    3417.693
   full:    -3411.034    -902.771      -5.970   -3019.107    1137.379    3417.004


           -------------------------------------------------
          | TOTAL ENERGY             -246.151517450032 Eh   |
          | GRADIENT NORM               0.317871301309 Eh/α |
          | HOMO-LUMO GAP               1.093290055706 eV   |
           -------------------------------------------------

------------------------------------------------------------------------
 * finished run on 2019/05/31 at 06:33:54.336     
------------------------------------------------------------------------
 total:
 * wall-time:     0 d,  0 h,  0 min,  2.241 sec
 *  cpu-time:     0 d,  0 h,  0 min,  4.368 sec
 * ratio c/w:     1.949 speedup
 SCF:
 * wall-time:     0 d,  0 h,  0 min,  1.925 sec
 *  cpu-time:     0 d,  0 h,  0 min,  3.846 sec
 * ratio c/w:     1.998 speedup

