      -----------------------------------------------------------      
     |                   =====================                   |     
     |                           x T B                           |     
     |                   =====================                   |     
     |                         S. Grimme                         |     
     |          Mulliken Center for Theoretical Chemistry        |     
     |                    University of Bonn                     |     
     |                 Version 6.0.1 (SAW181210)                 |     
      -----------------------------------------------------------      

   This program is distributed in the hope that it will be useful,
   but WITHOUT ANY WARRANTY; without even the implied warranty of
   MERCHANTABILITY or FITNESS FOR A PARTICULAR PURPOSE.
   
   FOR NON-COMMERCIAL, ACADEMIA USE ONLY.
   
   Cite this work as:
   S. Grimme, C. Bannwarth, P. Shushkov, J. Comput. Theory Chem., 2017,
   13, 1989-2009.
   C. Bannwarth, S. Ehlert and S. Grimme., ChemRxiv, 2018, preprint.
   http://doi.org/10.26434/chemrxiv.7246238.v1
   
   for sTDA-xTB:
   S. Grimme and C. Bannwarth, J. Chem. Phys., 2016, 145, 054103.
   
   in the mass-spec context:
   V. Asgeirsson, C. Bauer and S. Grimme, Chem. Sci., 2017, 8, 4879.
   
   if GBSA is used:
   P. Shushkov, F. März and S. Grimme, unpublished.
   
   for ANC optimizer:
   S. Grimme, unpublished.
   Rational Function algorithm used in ANCopt:
   F. Eckert, P. Pulay, H.-J. Werner, J. Comput. Chem., 1997, 18, 1473.
   
   with help from (in alphabetical order)
   C. Bannwarth, F. Bohle, G. Brandenburg, E. Caldeweyher, M. Checinski,
   S. Dohm, S. Ehlert, S. Ehrlich, F. März, H. Neugebauer, J. Pisarek,
   P. Pracht, P. Shushkov, and S. Spicher.
   
 * started run on 2019/03/14 at 15:08:19.571     
========================================================================
 # omp threads = 1
========================================================================
number of atoms            : 298
number of electrons        : 798
charge                     : 1
spin                       : .0
first test random number   : .1152
           ------------------------------------------------- 
          |                 G F N 2 - x T B                 |
          | Geometry, Frequencies, Noncovalent interactions |
          |            JCTC 2018 parametrisation            |
           ------------------------------------------------- 
 
      method parameters     
 k(s)        :  1.8500
 k(p)        :  2.2300
 k(d)        :  2.2300
 k(f)        :  2.0000
 kEN (H0ij)  : -2.0000
 D4 a1       :  0.5200
 D4 a2       :  5.0000
 D4 s6       :  1.0000
 D4 s8       :  2.7000
 D4 s9       :  5.0000
 alphaj      :  2.0000

 Solvent             : h2o
 Using internal parameter file: .param_gbsa2_h2o
 Gsolv ref. state (COSMO-RS): gsolv [1 M gas/solution]
 temperature (mdtemp)       :    298.150000000000     
 dielectric constant        :    80.2000000000000     
 rho                        :    1.00000000000000     
 mass                       :    18.0000000000000     
 surface tension            :    15.5689454083859     
 probe radius               :   0.975313790000000     
 vdW radii scaling          :    1.00000000000000     
 Gshift (Eh)                :   1.857443126794793E-003
 c1                         :    1.55243817000000     
 soset                      :   0.130326360000000     
 HB correction              :  T

            Z     q(EN)     CN     RAES       Cart. coordinates
     1  N   5.0   -0.21    3.26    1.97    51.40367    76.99576    39.14541
     2  C   4.0    0.02    4.37    4.32    49.54794    75.57444    37.77829
     3  C   4.0    0.07    3.61    3.17    47.99164    77.10730    35.96882
     4  O   6.0   -0.25    2.28    1.88    46.83314    75.91993    34.10441
     5  C   4.0   -0.04    4.43    4.42    47.62961    74.54040    39.68343
     6  C   4.0   -0.02    3.60    3.16    48.65189    72.32677    41.09433
     7  C   4.0   -0.05    3.48    3.11    48.87212    72.42716    43.69809
     8  C   4.0   -0.05    3.49    3.11    49.11403    70.08206    39.81285
     9  C   4.0   -0.03    3.46    3.10    49.53344    70.30515    45.04231
    10  C   4.0   -0.05    3.46    3.10    49.63241    67.90729    41.15420
    11  C   4.0    0.07    3.51    3.12    49.83569    68.02720    43.78073
    12  O   6.0   -0.24    2.13    1.84    50.09350    65.97384    45.26751
    13  H   1.0    0.09    1.04    1.43    50.75205    77.78452    40.76174
    14  H   1.0    0.04    1.05    1.44    50.50982    74.07151    36.70791
    15  H   1.0    0.04    1.04    1.43    47.14507    76.08196    40.96319
    16  H   1.0    0.04    1.04    1.43    45.91746    73.97685    38.69345
    17  H   1.0    0.05    1.03    1.43    48.40297    74.14730    44.66985
    18  H   1.0    0.05    1.03    1.43    48.86468    69.97726    37.78869
    19  H   1.0    0.07    1.03    1.43    49.65767    70.29984    47.07298
    20  H   1.0    0.05    1.03    1.43    49.72480    66.10783    40.19254
    21  H   1.0    0.12    1.02    1.43    50.70318    64.48401    44.39234
    22  N   5.0   -0.14    3.46    2.05    47.52192    79.49532    36.39572
    23  C   4.0    0.03    4.32    4.23    46.34992    81.25779    34.67612
    24  C   4.0    0.08    3.26    3.05    48.41747    82.22201    32.86440
    25  O   6.0   -0.29    1.14    1.80    48.06403    82.14713    30.56040
    26  C   4.0   -0.03    4.33    4.26    45.26295    83.52367    36.08583
    27  C   4.0   -0.01    3.53    3.13    42.85944    83.09463    37.55913
    28  C   4.0   -0.04    3.46    3.10    41.59672    80.80095    37.69712
    29  C   4.0   -0.03    3.48    3.11    41.84720    85.17507    38.81364
    30  C   4.0   -0.04    3.37    3.07    39.32534    80.61699    38.99659
    31  C   4.0   -0.03    3.37    3.07    39.58373    84.99999    40.10307
    32  C   4.0   -0.03    3.37    3.07    38.30463    82.71678    40.17876
    33  H   1.0    0.07    1.06    1.44    47.91764    80.19887    38.17792
    34  H   1.0    0.06    1.06    1.44    44.91439    80.33530    33.50980
    35  H   1.0    0.05    1.03    1.43    46.71838    84.21181    37.37547
    36  H   1.0    0.05    1.03    1.43    44.91701    84.99863    34.67764
    37  H   1.0    0.05    1.03    1.43    42.35822    79.13211    36.80371
    38  H   1.0    0.06    1.03    1.43    42.85428    86.94994    38.76216
    39  H   1.0    0.06    1.03    1.43    38.36214    78.81650    39.09368
    40  H   1.0    0.06    1.03    1.43    38.83368    86.64484    41.04945
    41  H   1.0    0.06    1.03    1.43    36.55113    82.56201    41.20650
    42  N   5.0   -0.15    3.46    2.05    53.23310    79.29769    30.82443
    43  C   4.0    0.03    4.49    4.52    53.86179    77.58873    28.76187
    44  C   4.0    0.15    3.41    3.08    52.31336    78.09607    26.41181
    45  O   6.0   -0.27    1.22    1.80    53.23407    78.01580    24.29146
    46  C   4.0   -0.03    4.30    4.19    53.42594    74.89684    29.81342
    47  C   4.0   -0.08    3.35    3.06    53.02802    75.24904    32.58799
    48  C   4.0    0.01    4.35    4.29    52.26106    77.90461    32.98328
    49  H   1.0    0.06    1.05    1.44    55.85087    77.81274    28.25336
    50  H   1.0    0.04    1.05    1.44    51.76983    74.09133    28.89149
    51  H   1.0    0.04    1.02    1.43    55.03623    73.67162    29.43083
    52  H   1.0    0.11    1.03    1.43    47.73661    74.44062    33.49851
    53  H   1.0    0.05    1.02    1.43    54.38950    74.47591    33.88119
    54  H   1.0    0.06    1.10    1.44    50.19297    78.09581    32.86941
    55  H   1.0    0.05    1.02    1.43    52.86180    78.73705    34.75648
    56  N   5.0   -0.14    3.49    2.07    49.82108    78.37332    26.84203
    57  C   4.0    0.05    4.25    4.10    48.10855    79.05734    24.82708
    58  C   4.0    0.11    3.21    3.04    48.82610    81.64447    23.71931
    59  O   6.0   -0.25    1.11    1.80    48.87816    82.01387    21.42958
    60  C   4.0   -0.06    4.11    3.83    45.42879    79.01389    25.85886
    61  H   1.0    0.10    1.09    1.44    49.23093    78.84634    28.59372
    62  H   1.0    0.07    1.05    1.44    48.32624    77.68582    23.28719
    63  H   1.0    0.06    1.00    1.43    44.08198    79.46251    24.38045
    64  H   1.0    0.05    1.02    1.43    45.01974    77.12443    26.55504
    65  H   1.0    0.07    1.00    1.43    45.24693    80.34429    27.41404
    66  N   5.0   -0.20    3.21    1.96    57.20102    57.61269    34.39630
    67  C   4.0    0.03    4.30    4.20    55.47366    58.31724    32.39919
    68  C   4.0    0.09    3.25    3.04    56.90396    59.88573    30.44427
    69  O   6.0   -0.32    1.27    1.80    56.74300    59.31904    28.19489
    70  C   4.0   -0.03    4.26    4.12    53.20826    59.82431    33.43640
    71  C   4.0   -0.07    4.13    3.86    51.70298    61.07887    31.31776
    72  C   4.0   -0.07    4.11    3.82    51.45764    58.13713    34.98455
    73  H   1.0    0.09    1.02    1.43    56.89103    58.38790    36.12725
    74  H   1.0    0.05    1.05    1.44    54.82149    56.60249    31.42669
    75  H   1.0    0.04    1.06    1.44    53.99137    61.29808    34.65131
    76  H   1.0    0.04    1.00    1.43    50.19715    62.22222    32.12364
    77  H   1.0    0.05    1.00    1.43    52.87811    62.28238    30.13900
    78  H   1.0    0.04    1.00    1.43    50.84774    59.65422    30.11076
    79  H   1.0    0.04    1.00    1.43    50.13952    59.30707    36.04095
    80  H   1.0    0.04    1.00    1.43    50.39677    56.88194    33.75691
    81  H   1.0    0.05    1.00    1.43    52.54337    57.00450    36.29763
    82  N   5.0   -0.18    3.25    1.97    58.70580    57.64402    23.80766
    83  C   4.0    0.04    4.31    4.23    58.59783    59.67071    21.99196
    84  C   4.0    0.26    3.21    3.04    61.30925    60.20863    20.86619
    85  O   6.0   -0.26    1.16    1.80    61.40556    60.46349    18.53111
    86  C   4.0    0.06    4.28    4.16    57.73383    62.05734    23.38690
    87  O   6.0   -0.26    2.12    1.84    55.19956    61.93778    24.19475
    88  C   4.0   -0.06    4.11    3.82    58.08520    64.44880    21.83757
    89  O   6.0   -0.26    1.18    1.80    63.05268    60.41858    22.41683
    90  H   1.0    0.13    1.08    1.44    58.64673    58.17955    25.65011
    91  H   1.0    0.06    1.04    1.43    57.36655    59.13110    20.41931
    92  H   1.0    0.06    1.05    1.44    59.01752    62.18538    25.02030
    93  H   1.0    0.15    1.07    1.44    55.11752    60.70376    25.55441
    94  H   1.0    0.05    1.00    1.43    57.65718    66.08098    23.00804
    95  H   1.0    0.07    1.02    1.43    60.03838    64.54088    21.22028
    96  H   1.0    0.05    1.00    1.43    56.85173    64.41458    20.20081
    97  N   5.0   -0.11    4.06    3.02    46.76579    67.89816    13.09001
    98  C   4.0   -0.02    4.17    3.94    46.40562    67.29721    15.79374
    99  C   4.0    0.15    3.33    3.06    43.80030    66.00598    15.99915
   100  O   6.0   -0.29    1.27    1.80    42.23397    66.40462    14.37134
   101  H   1.0    0.07    1.02    1.43    47.62219    69.61841    12.81096
   102  H   1.0    0.07    1.02    1.43    47.80502    66.51786    12.19043
   103  H   1.0    0.09    1.07    1.44    44.92376    67.93759    12.34121
   104  H   1.0    0.04    1.01    1.43    47.94523    66.14320    16.52926
   105  H   1.0    0.06    1.02    1.43    46.26818    69.03655    16.90610
   106  N   5.0   -0.15    3.45    2.05    43.55423    64.43375    17.95629
   107  C   4.0    0.03    4.39    4.37    41.13826    63.47656    18.86824
   108  C   4.0    0.14    3.43    3.09    41.29939    63.33317    21.73758
   109  O   6.0   -0.32    1.28    1.80    39.90311    64.51855    23.13436
   110  C   4.0   -0.05    4.28    4.16    40.49025    60.84884    17.82258
   111  C   4.0   -0.04    4.19    3.99    40.18289    60.83220    14.95812
   112  C   4.0   -0.05    4.18    3.95    39.39460    58.20483    14.05428
   113  C   4.0   -0.03    4.13    3.85    39.11965    58.17164    11.18913
   114  N   5.0   -0.12    4.01    2.89    38.27681    55.64014    10.29349
   115  H   1.0    0.07    1.08    1.44    45.06728    64.20073    19.09564
   116  H   1.0    0.07    1.05    1.44    39.67871    64.85087    18.34644
   117  H   1.0    0.04    1.03    1.43    41.97341    59.51825    18.34871
   118  H   1.0    0.04    1.03    1.43    38.73183    60.24538    18.71250
   119  H   1.0    0.06    1.03    1.43    38.77703    62.23337    14.41637
   120  H   1.0    0.06    1.03    1.43    41.96585    61.36856    14.08256
   121  H   1.0    0.04    1.03    1.43    40.82686    56.84866    14.65326
   122  H   1.0    0.04    1.03    1.43    37.60502    57.70652    14.94506
   123  H   1.0    0.05    1.02    1.43    37.73310    59.57954    10.60560
   124  H   1.0    0.05    1.02    1.43    40.92699    58.61994    10.30881
   125  H   1.0    0.07    1.02    1.43    38.08260    55.62779     8.35715
   126  H   1.0    0.06    1.02    1.43    39.57637    54.27922    10.79690
   127  H   1.0    0.06    1.02    1.43    36.56280    55.17813    11.09617
   128  N   5.0   -0.16    3.53    2.10    43.11822    61.77850    22.59932
   129  C   4.0    0.03    4.48    4.50    43.47165    61.28252    25.26156
   130  C   4.0    0.15    3.46    3.10    44.72778    63.50060    26.59429
   131  O   6.0   -0.33    1.41    1.80    44.60582    63.68445    28.89068
   132  C   4.0   -0.02    4.25    4.10    44.87254    58.75525    25.68901
   133  C   4.0   -0.07    4.14    3.87    45.22674    58.23163    28.50284
   134  C   4.0   -0.07    4.12    3.84    43.37879    56.57180    24.52822
   135  H   1.0    0.07    1.07    1.44    44.23481    60.79612    21.40116
   136  H   1.0    0.05    1.06    1.44    41.60335    61.11605    26.15833
   137  H   1.0    0.04    1.05    1.44    46.73832    58.88047    24.80209
   138  H   1.0    0.04    1.00    1.43    46.15361    56.41637    28.75763
   139  H   1.0    0.05    1.01    1.43    46.37221    59.67931    29.39309
   140  H   1.0    0.05    1.00    1.43    43.41438    58.16855    29.46683
   141  H   1.0    0.04    1.00    1.43    44.40125    54.81990    24.84950
   142  H   1.0    0.04    1.00    1.43    41.54416    56.40635    25.43635
   143  H   1.0    0.04    1.00    1.43    43.10895    56.79911    22.50958
   144  N   5.0   -0.14    3.50    2.08    45.86947    65.31069    25.23472
   145  C   4.0    0.03    4.56    4.62    46.71169    67.57508    26.53469
   146  C   4.0    0.15    3.50    3.11    44.38756    69.10479    27.34327
   147  O   6.0   -0.33    1.33    1.80    44.11041    69.83728    29.52537
   148  C   4.0   -0.03    4.35    4.28    48.49925    69.17566    24.92954
   149  C   4.0   -0.05    4.19    3.99    50.95711    67.73689    24.41150
   150  C   4.0   -0.07    4.19    3.98    49.02226    71.59093    26.40343
   151  C   4.0   -0.07    4.02    3.66    52.63813    69.11137    22.52320
   152  H   1.0    0.08    1.06    1.44    46.06590    65.22006    23.34461
   153  H   1.0    0.05    1.06    1.44    47.70405    67.04272    28.27623
   154  H   1.0    0.05    1.05    1.44    47.57258    69.64936    23.14038
   155  H   1.0    0.04    1.03    1.43    51.98157    67.50169    26.18535
   156  H   1.0    0.05    1.03    1.43    50.55414    65.84819    23.69360
   157  H   1.0    0.05    1.00    1.43    50.34340    72.79863    25.40196
   158  H   1.0    0.05    1.01    1.43    47.29953    72.66136    26.72963
   159  H   1.0    0.04    1.01    1.43    49.82194    71.08760    28.23018
   160  H   1.0    0.05    1.00    1.43    54.19118    67.89793    21.95867
   161  H   1.0    0.05    1.00    1.43    51.57339    69.64657    20.85160
   162  H   1.0    0.05    1.00    1.43    53.43666    70.81665    23.34396
   163  N   5.0   -0.13    3.57    2.13    42.65167    69.42397    25.54426
   164  C   4.0    0.04    4.42    4.42    40.34021    70.87200    25.92277
   165  C   4.0    0.16    3.49    3.11    38.82657    69.56662    27.99183
   166  O   6.0   -0.32    1.27    1.80    37.83470    70.68288    29.76729
   167  C   4.0   -0.03    4.26    4.12    38.85970    70.90716    23.44522
   168  C   4.0    0.25    3.12    3.03    40.62094    71.63784    21.14233
   169  O   6.0   -0.29    1.18    1.80    42.33278    73.19536    21.55072
   170  O   6.0   -0.27    1.16    1.80    40.20116    70.48833    19.13686
   171  H   1.0    0.09    1.10    1.44    43.17743    69.26831    23.72054
   172  H   1.0    0.06    1.05    1.44    40.79703    72.80359    26.52376
   173  H   1.0    0.06    1.03    1.43    38.08489    69.03992    23.04986
   174  H   1.0    0.05    1.02    1.43    37.32554    72.27682    23.57009
   175  N   5.0   -0.14    3.53    2.10    38.62298    67.06749    27.70047
   176  C   4.0    0.04    4.47    4.50    37.33196    65.64495    29.63062
   177  C   4.0    0.16    3.48    3.10    38.83881    65.50175    32.07743
   178  O   6.0   -0.33    1.42    1.80    37.65232    65.39933    34.06788
   179  C   4.0   -0.05    4.25    4.10    36.47230    63.02545    28.79425
   180  C   4.0   -0.05    4.19    3.99    34.84788    63.08271    26.40576
   181  C   4.0   -0.05    4.18    3.95    32.55403    64.83520    26.59226
   182  C   4.0   -0.04    4.13    3.86    31.52578    65.37668    23.95312
   183  N   5.0   -0.12    4.01    2.89    29.41028    67.22943    24.05828
   184  H   1.0    0.11    1.10    1.44    39.37632    66.17474    26.17614
   185  H   1.0    0.05    1.08    1.44    35.67306    66.75787    30.19802
   186  H   1.0    0.05    1.03    1.43    38.12734    61.84374    28.46038
   187  H   1.0    0.05    1.05    1.44    35.42947    62.22983    30.38199
   188  H   1.0    0.06    1.04    1.43    36.03726    63.69089    24.83966
   189  H   1.0    0.04    1.03    1.43    34.20432    61.16211    26.04060
   190  H   1.0    0.04    1.02    1.43    31.13906    63.95974    27.80657
   191  H   1.0    0.04    1.03    1.43    33.12250    66.61537    27.45553
   192  H   1.0    0.05    1.02    1.43    33.03420    66.17924    22.79786
   193  H   1.0    0.04    1.02    1.43    30.84829    63.64302    23.07390
   194  H   1.0    0.06    1.02    1.43    28.80951    67.70137    22.26630
   195  H   1.0    0.06    1.02    1.43    27.90770    66.48430    25.04829
   196  H   1.0    0.06    1.02    1.43    29.99879    68.85374    24.95920
   197  N   5.0   -0.13    3.53    2.10    41.34630    65.61225    32.04037
   198  C   4.0    0.04    4.37    4.33    42.69685    65.81678    34.40668
   199  C   4.0    0.16    3.49    3.11    41.88723    68.28129    35.69482
   200  O   6.0   -0.33    1.35    1.80    41.41917    68.30088    37.95707
   201  C   4.0   -0.07    4.11    3.83    45.54103    65.74691    33.99173
   202  H   1.0    0.12    1.15    1.45    42.47065    65.35196    30.50771
   203  H   1.0    0.05    1.05    1.44    42.11916    64.28036    35.68397
   204  H   1.0    0.04    1.00    1.43    46.49666    65.93035    35.79860
   205  H   1.0    0.05    1.00    1.43    46.12988    63.98878    33.10667
   206  H   1.0    0.06    1.01    1.43    46.05212    67.28842    32.73990
   207  N   5.0   -0.14    3.52    2.10    41.67775    70.35164    34.24670
   208  C   4.0    0.04    4.45    4.47    40.81791    72.74335    35.28146
   209  C   4.0    0.16    3.53    3.13    38.31416    72.35814    36.67721
   210  O   6.0   -0.32    1.26    1.80    37.78142    73.48256    38.62150
   211  C   4.0   -0.03    4.15    3.89    40.14535    74.70757    33.26599
   212  S   6.0   -0.03    2.44    3.10    42.64179    75.73160    31.12684
   213  H   1.0    0.11    1.11    1.45    42.22207    70.32103    32.40963
   214  H   1.0    0.05    1.05    1.44    42.19847    73.47630    36.64549
   215  H   1.0    0.07    1.10    1.44    38.70601    73.96402    32.00133
   216  H   1.0    0.05    1.07    1.44    39.47070    76.42713    34.18441
   217  H   1.0    0.07    1.01    1.43    43.31779    73.40605    30.44823
   218  N   5.0   -0.13    3.57    2.13    36.71734    70.82040    35.47844
   219  C   4.0    0.04    4.45    4.47    34.14885    70.52752    36.37007
   220  C   4.0    0.15    3.43    3.09    34.08891    68.75321    38.65247
   221  O   6.0   -0.29    1.22    1.80    32.81447    69.27219    40.51876
   222  C   4.0   -0.03    4.32    4.24    32.50011    69.58480    34.19784
   223  C   4.0   -0.01    3.52    3.12    29.69124    70.04461    34.43269
   224  C   4.0   -0.04    3.48    3.10    28.14188    69.09455    32.52695
   225  C   4.0   -0.03    3.47    3.10    28.57370    71.39507    36.38370
   226  C   4.0   -0.03    3.37    3.07    25.56651    69.52665    32.53856
   227  C   4.0   -0.03    3.38    3.07    25.98623    71.82063    36.40543
   228  C   4.0   -0.03    3.37    3.07    24.47781    70.91082    34.47558
   229  H   1.0    0.11    1.09    1.44    37.20474    70.04366    33.79834
   230  H   1.0    0.06    1.06    1.44    33.52823    72.38957    37.03737
   231  H   1.0    0.05    1.04    1.43    33.17186    70.57182    32.50670
   232  H   1.0    0.05    1.03    1.43    32.84667    67.56055    33.94636
   233  H   1.0    0.05    1.03    1.43    28.98307    67.97633    31.04498
   234  H   1.0    0.06    1.03    1.43    29.69134    72.10656    37.93273
   235  H   1.0    0.06    1.03    1.43    24.38456    68.78059    31.05463
   236  H   1.0    0.06    1.03    1.43    25.14785    72.86542    37.94830
   237  H   1.0    0.06    1.03    1.43    22.46668    71.25704    34.49114
   238  N   5.0   -0.14    3.58    2.14    35.49858    66.69515    38.42235
   239  C   4.0    0.04    4.43    4.43    35.71881    64.73977    40.32010
   240  C   4.0    0.16    3.51    3.12    36.85454    65.89361    42.67925
   241  O   6.0   -0.26    1.27    1.80    35.88812    65.53568    44.75155
   242  C   4.0   -0.03    4.29    4.17    37.33494    62.55384    39.35315
   243  C   4.0   -0.00    3.67    3.22    36.21183    61.17826    37.13079
   244  C   4.0   -0.00    3.62    3.18    37.44589    59.25695    35.91777
   245  C   4.0    0.02    3.86    3.41    33.85706    61.51318    35.82393
   246  N   5.0   -0.12    3.49    2.07    36.04372    58.38497    33.94219
   247  C   4.0    0.04    3.91    3.48    33.85284    59.72870    33.81195
   248  C   4.0   -0.04    3.42    3.08    31.74008    63.08833    36.06280
   249  C   4.0   -0.05    3.41    3.08    31.91491    59.58277    32.03480
   250  C   4.0   -0.04    3.38    3.07    29.82545    62.93541    34.30447
   251  C   4.0   -0.04    3.37    3.07    29.91661    61.22919    32.28957
   252  H   1.0    0.12    1.17    1.46    36.43363    66.36339    36.77981
   253  H   1.0    0.06    1.05    1.44    33.84538    64.04606    40.88153
   254  H   1.0    0.05    1.03    1.43    39.19533    63.30919    38.84860
   255  H   1.0    0.05    1.03    1.43    37.63985    61.21711    40.90413
   256  H   1.0    0.05    1.02    1.43    39.25738    58.43414    36.31823
   257  H   1.0    0.08    1.05    1.44    36.57358    56.97752    32.78227
   258  H   1.0    0.06    1.04    1.43    31.56117    64.41512    37.59862
   259  H   1.0    0.05    1.02    1.43    31.99097    58.24381    30.49598
   260  H   1.0    0.06    1.03    1.43    28.20638    64.16735    34.48730
   261  H   1.0    0.05    1.03    1.43    28.38365    61.17327    30.94440
   262  N   5.0   -0.15    3.57    2.13    38.89793    67.32362    42.42320
   263  C   4.0    0.04    4.60    4.66    39.89443    68.53288    44.65576
   264  C   4.0    0.16    3.52    3.12    38.06230    70.38756    45.80298
   265  O   6.0   -0.26    1.25    1.80    37.96630    70.63302    48.10713
   266  C   4.0   -0.02    4.37    4.32    42.38086    69.88733    44.09089
   267  C   4.0   -0.03    4.26    4.11    42.09569    71.82676    41.96367
   268  C   4.0   -0.06    4.21    4.02    44.27557    67.83270    43.43887
   269  C   4.0   -0.07    4.01    3.64    42.07343    74.56974    42.80885
   270  H   1.0    0.11    1.12    1.45    39.66239    67.72041    40.71102
   271  H   1.0    0.07    1.06    1.44    40.23244    67.09411    46.11736
   272  H   1.0    0.05    1.06    1.44    42.98702    70.85693    45.81314
   273  H   1.0    0.05    1.04    1.43    43.63424    71.56232    40.62964
   274  H   1.0    0.07    1.07    1.44    40.37681    71.46608    40.91886
   275  H   1.0    0.05    1.09    1.44    45.79850    68.65754    42.38353
   276  H   1.0    0.06    1.00    1.43    45.00585    66.97408    45.15246
   277  H   1.0    0.05    1.01    1.43    43.43159    66.39043    42.25224
   278  H   1.0    0.05    1.00    1.43    41.84186    75.78419    41.16587
   279  H   1.0    0.05    1.00    1.43    40.53158    74.95290    44.10714
   280  H   1.0    0.04    1.00    1.43    43.84782    75.02152    43.72871
   281  N   5.0   -0.13    3.49    2.07    36.69287    71.81731    44.24986
   282  C   4.0    0.05    4.28    4.15    34.95643    73.63644    45.32123
   283  C   4.0    0.11    3.24    3.04    32.82132    72.20297    46.64887
   284  O   6.0   -0.25    1.11    1.80    32.00974    72.90904    48.70299
   285  C   4.0   -0.06    4.10    3.80    33.93094    75.40320    43.30404
   286  H   1.0    0.10    1.07    1.44    36.87442    71.73332    42.35345
   287  H   1.0    0.07    1.05    1.44    35.94725    74.71690    46.79307
   288  H   1.0    0.06    1.00    1.43    32.60820    76.72942    44.14425
   289  H   1.0    0.05    1.00    1.43    35.47470    76.44800    42.44280
   290  H   1.0    0.06    1.00    1.43    32.97087    74.31889    41.84943
   291  H   1.0    0.10    1.08    1.44    52.69680    75.97734    39.57343
   292  H   1.0    0.06    1.04    1.43    50.03754    82.90485    33.55733
   293  H   1.0    0.09    1.12    1.45    54.61553    80.18252    31.26999
   294  H   1.0    0.07    1.04    1.44    49.26508    83.07670    24.87131
   295  H   1.0    0.10    1.07    1.44    57.14141    55.92925    34.63085
   296  H   1.0    0.06    1.04    1.43    57.95630    61.35447    30.99785
   297  H   1.0    0.10    1.07    1.44    57.38547    56.59850    23.57065
   298  H   1.0    0.08    1.05    1.44    32.06892    70.66871    45.84203

  Z AO/shell   Hii/eV     exponent
  1     Wed Apr 25 08:07:45 CEST 2018   EN: 2.200 GM2: 0.406  GM3: 0.0800  RAES: 1.40
     1s    -10.707211    1.230000
  6     Wed Apr 25 08:07:45 CEST 2018   EN: 2.550 GM2: 0.538  GM3: 0.1500  RAES: 3.00
     2s    -13.970922    2.096432
     2p    -10.063292    1.800000
  7     Wed Apr 25 08:07:45 CEST 2018   EN: 3.040 GM2: 0.461  GM3:-0.0640  RAES: 1.90
     2s    -16.686243    2.339881
     2p    -12.523956    2.014332
  8     Wed Apr 25 08:07:45 CEST 2018   EN: 3.440 GM2: 0.452  GM3:-0.0517  RAES: 1.80
     2s    -20.229985    2.439742
     2p    -15.503117    2.137023
 16     Tue Apr 24 11:44:34 CEST 2018   EN: 2.580 GM2: 0.340  GM3:-0.0502  RAES: 3.10
     3s    -20.029654    1.981333
     3p    -11.377694    2.025643
     3d     -0.420282    1.702555
 no old-style atom pair restraining (fixing) potential

molecular fragmentation (1/2 indicates fragments):
111111111111111111111111111111111111111112222222222122222222222222222222
222222222222222222222222222222222222222222222222222222222222222222222222
222222222222222222222222222222222222222222222222222222222222222222222222
222222222222222222222222222222222222222222222222222222222222222222222222
2211222222
# atoms in fragment 1/2:    44   254
 fragment masses (1/2) :      313.38     1725.12
CMA distance (Bohr)    :  13.661
constraining FC (au)   :  0.0500
           ------------------------------------------------- 
          |        Self-Consistent Charge Iterations        |
           ------------------------------------------------- 

 Ncao       : 736
 Nao        : 735
 Nshell     : 443
 Nel        : 798
 T(el)      :   500.0
 intcut     :    35.0
 scfconv/Eh :  0.100E-06
   qconv/e  :  0.100E-04
 intneglect :  0.100E-08
 broydamp   :      0.400
 iter      E             dE          RMSdq      gap      omega  full diag
   1   -453.0173488 -0.453017E+03  0.448E+00    1.32       0.0  T
   2   -453.3223552 -0.305006E+00  0.261E+00    0.24       1.0  T
   3   -453.7191973 -0.396842E+00  0.187E+00    1.42       1.0  T
   4   -454.0931647 -0.373967E+00  0.864E-01    0.65       1.0  T
   5   -453.3745042  0.718660E+00  0.156E+00    0.32       1.0  T
   6   -454.0890735 -0.714569E+00  0.633E-01    0.17       1.0  T
   7   -454.1247999 -0.357264E-01  0.599E-01    0.66       1.0  T
   8   -453.9711572  0.153643E+00  0.888E-01    0.11       1.0  T
   9   -454.1406521 -0.169495E+00  0.523E-01    0.63       1.0  T
  10   -454.1691404 -0.284884E-01  0.410E-01    0.37       1.0  T
  11   -454.2012941 -0.321536E-01  0.224E-01    0.17       1.0  T
  12   -454.2041167 -0.282260E-02  0.210E-01    0.22       1.0  T
  13   -454.2047148 -0.598094E-03  0.201E-01    0.21       1.0  T
  14   -454.2127993 -0.808458E-02  0.116E-01    0.15       1.0  T
  15   -454.2134886 -0.689313E-03  0.103E-01    0.14       1.0  T
  16   -454.2157791 -0.229042E-02  0.591E-02    0.14       1.0  T
  17   -454.2164964 -0.717333E-03  0.330E-02    0.14       1.0  T
  18   -454.2168046 -0.308173E-03  0.129E-02    0.13       1.0  T
  19   -454.2168578 -0.532678E-04  0.316E-03    0.13       1.8  T
  20   -454.2168534  0.440252E-05  0.449E-03    0.13       1.3  T
  21   -454.2168571 -0.362997E-05  0.316E-03    0.13       1.8  T
  22   -454.2168600 -0.297711E-05  0.923E-04    0.13       6.3  T
  23   -454.2168602 -0.197549E-06  0.446E-04    0.13      13.0  T
  24   -454.2168603 -0.522480E-07  0.184E-04    0.13      31.5  T
  25   -454.2168603 -0.374195E-08  0.155E-04    0.13      37.5  T
  26   -454.2168603 -0.746860E-08  0.457E-05    0.13     126.6  T
  27   -454.2168603 -0.683883E-09  0.899E-06    0.13     644.1  T
speedup  1.00
cpu  time for SCC    6.00 s
wall time for SCC    6.01 s

   *** convergence criteria satisfied after 27 iterations ***

          eigenvalues
 #    :         387        388        389        390        391        392        393        394
 occ. :        2.000      2.000      2.000      2.000      2.000      2.000      2.000      2.000
 eps  :       -10.535    -10.401    -10.328    -10.249    -10.178    -10.095    -10.051     -9.991
 #    :         395        396        397        398        399        400        401        402
 occ. :        2.000      2.000      2.000      2.000      1.537      0.269      0.119      0.044
 eps  :        -9.907     -9.779     -9.498     -8.821     -7.835     -7.703     -7.664     -7.620
 #    :         403        404        405        406        407        408        409        410
 occ. :        0.031      0.000      0.000      0.000      0.000      0.000      0.000      0.000
 eps  :        -7.605     -7.261     -7.050     -6.945     -6.741     -6.604     -6.522     -6.462


   #   Z            q   n(s)   n(p)   n(d)      C6AA      α(0)
   1   7 N     -0.378  1.310  4.068  0.000    29.775     8.104
   2   6 C      0.027  1.054  2.919  0.000    20.128     6.389
   3   6 C      0.197  1.048  2.755  0.000    23.805     7.990
   4   8 O     -0.331  1.677  4.654  0.000    19.559     5.970
   5   6 C     -0.079  1.061  3.018  0.000    21.977     6.670
   6   6 C     -0.002  1.071  2.931  0.000    28.080     8.692
   7   6 C     -0.040  1.080  2.959  0.000    28.982     8.829
   8   6 C     -0.047  1.081  2.967  0.000    29.179     8.858
   9   6 C     -0.057  1.075  2.982  0.000    29.426     8.896
  10   6 C     -0.076  1.079  2.997  0.000    29.900     8.967
  11   6 C      0.149  1.045  2.806  0.000    24.756     8.155
  12   8 O     -0.436  1.715  4.721  0.000    21.555     6.268
  13   1 H      0.171  0.829  0.000  0.000     1.268     1.764
  14   1 H      0.081  0.919  0.000  0.000     1.964     2.192
  15   1 H      0.063  0.937  0.000  0.000     2.166     2.302
  16   1 H      0.057  0.943  0.000  0.000     2.231     2.336
  17   1 H      0.045  0.955  0.000  0.000     2.386     2.416
  18   1 H      0.049  0.951  0.000  0.000     2.331     2.387
  19   1 H      0.046  0.954  0.000  0.000     2.372     2.408
  20   1 H      0.047  0.953  0.000  0.000     2.357     2.401
  21   1 H      0.350  0.650  0.000  0.000     0.588     1.204
  22   7 N     -0.095  1.221  3.873  0.000    23.092     7.137
  23   6 C      0.010  1.065  2.925  0.000    20.420     6.436
  24   6 C      0.171  1.077  2.752  0.000    24.308     8.075
  25   8 O     -0.407  1.760  4.647  0.000    21.820     6.263
  26   6 C     -0.085  1.056  3.029  0.000    22.105     6.692
  27   6 C      0.013  1.079  2.908  0.000    27.727     8.637
  28   6 C     -0.044  1.077  2.967  0.000    29.091     8.845
  29   6 C     -0.043  1.081  2.962  0.000    29.059     8.840
  30   6 C     -0.032  1.081  2.951  0.000    28.803     8.801
  31   6 C     -0.031  1.081  2.950  0.000    28.774     8.796
  32   6 C     -0.035  1.080  2.955  0.000    28.864     8.810
  33   1 H      0.241  0.759  0.000  0.000     0.921     1.503
  34   1 H      0.109  0.891  0.000  0.000     1.701     2.040
  35   1 H      0.078  0.922  0.000  0.000     1.995     2.209
  36   1 H      0.081  0.919  0.000  0.000     1.972     2.196
  37   1 H      0.040  0.960  0.000  0.000     2.443     2.444
  38   1 H      0.041  0.959  0.000  0.000     2.433     2.439
  39   1 H      0.033  0.967  0.000  0.000     2.547     2.496
  40   1 H      0.035  0.965  0.000  0.000     2.514     2.479
  41   1 H      0.031  0.969  0.000  0.000     2.570     2.507
  42   7 N     -0.313  1.313  4.000  0.000    28.053     7.866
  43   6 C      0.033  1.061  2.906  0.000    20.005     6.366
  44   6 C      0.270  1.048  2.682  0.000    22.437     7.757
  45   8 O     -0.529  1.760  4.769  0.000    24.426     6.626
  46   6 C     -0.057  1.057  3.000  0.000    21.570     6.609
  47   6 C     -0.175  1.098  3.077  0.000    32.561     9.357
  48   6 C      0.010  1.051  2.939  0.000    20.446     6.444
  49   1 H     -0.000  1.000  0.000  0.000     3.062     2.736
  50   1 H      0.035  0.965  0.000  0.000     2.521     2.483
  51   1 H      0.006  0.994  0.000  0.000     2.960     2.691
  52   1 H      0.364  0.636  0.000  0.000     0.556     1.171
  53   1 H     -0.019  1.019  0.000  0.000     3.411     2.888
  54   1 H      0.029  0.971  0.000  0.000     2.606     2.524
  55   1 H      0.028  0.972  0.000  0.000     2.619     2.531
  56   7 N     -0.178  1.258  3.920  0.000    24.847     7.403
  57   6 C      0.037  1.055  2.908  0.000    19.954     6.361
  58   6 C      0.202  1.087  2.711  0.000    23.697     7.972
  59   8 O     -0.391  1.759  4.631  0.000    21.495     6.216
  60   6 C     -0.126  1.043  3.084  0.000    22.978     6.834
  61   1 H      0.226  0.774  0.000  0.000     0.983     1.553
  62   1 H      0.077  0.923  0.000  0.000     2.015     2.220
  63   1 H      0.066  0.934  0.000  0.000     2.133     2.284
  64   1 H      0.074  0.926  0.000  0.000     2.042     2.235
  65   1 H      0.083  0.917  0.000  0.000     1.945     2.181
  66   7 N     -0.400  1.326  4.074  0.000    30.379     8.186
  67   6 C      0.039  1.060  2.902  0.000    19.939     6.360
  68   6 C      0.185  1.082  2.733  0.000    24.029     8.028
  69   8 O     -0.426  1.752  4.675  0.000    22.212     6.319
  70   6 C     -0.020  1.065  2.955  0.000    20.891     6.501
  71   6 C     -0.114  1.039  3.074  0.000    22.729     6.798
  72   6 C     -0.118  1.040  3.078  0.000    22.806     6.809
  73   1 H      0.166  0.834  0.000  0.000     1.299     1.785
  74   1 H      0.046  0.954  0.000  0.000     2.373     2.409
  75   1 H      0.038  0.962  0.000  0.000     2.478     2.462
  76   1 H      0.055  0.945  0.000  0.000     2.259     2.350
  77   1 H      0.026  0.974  0.000  0.000     2.639     2.540
  78   1 H      0.050  0.950  0.000  0.000     2.317     2.380
  79   1 H      0.055  0.945  0.000  0.000     2.261     2.351
  80   1 H      0.052  0.948  0.000  0.000     2.289     2.366
  81   1 H      0.040  0.960  0.000  0.000     2.445     2.445
  82   7 N     -0.431  1.342  4.088  0.000    31.239     8.301
  83   6 C      0.016  1.074  2.909  0.000    20.324     6.423
  84   6 C      0.366  1.030  2.604  0.000    20.791     7.462
  85   8 O     -0.652  1.768  4.884  0.000    27.443     7.024
  86   6 C      0.130  1.043  2.827  0.000    18.556     6.149
  87   8 O     -0.476  1.706  4.770  0.000    22.390     6.388
  88   6 C     -0.106  1.039  3.067  0.000    22.586     6.777
  89   8 O     -0.648  1.774  4.874  0.000    27.318     7.008
  90   1 H      0.174  0.826  0.000  0.000     1.247     1.749
  91   1 H     -0.003  1.003  0.000  0.000     3.117     2.761
  92   1 H     -0.012  1.012  0.000  0.000     3.270     2.828
  93   1 H      0.324  0.676  0.000  0.000     0.654     1.270
  94   1 H      0.051  0.949  0.000  0.000     2.310     2.377
  95   1 H      0.012  0.988  0.000  0.000     2.855     2.642
  96   1 H      0.054  0.946  0.000  0.000     2.265     2.353
  97   7 N     -0.152  1.227  3.925  0.000    24.275     7.318
  98   6 C     -0.081  1.060  3.021  0.000    22.134     6.715
  99   6 C      0.274  1.028  2.698  0.000    22.365     7.744
 100   8 O     -0.421  1.737  4.684  0.000    22.103     6.303
 101   1 H      0.300  0.700  0.000  0.000     0.714     1.324
 102   1 H      0.312  0.688  0.000  0.000     0.679     1.291
 103   1 H      0.315  0.685  0.000  0.000     0.669     1.282
 104   1 H      0.130  0.870  0.000  0.000     1.534     1.937
 105   1 H      0.122  0.878  0.000  0.000     1.601     1.979
 106   7 N     -0.163  1.234  3.929  0.000    24.537     7.357
 107   6 C      0.003  1.068  2.929  0.000    20.532     6.453
 108   6 C      0.263  1.045  2.692  0.000    22.566     7.779
 109   8 O     -0.455  1.734  4.721  0.000    22.805     6.403
 110   6 C     -0.088  1.060  3.028  0.000    22.172     6.703
 111   6 C     -0.078  1.050  3.028  0.000    21.994     6.677
 112   6 C     -0.098  1.055  3.042  0.000    22.361     6.732
 113   6 C     -0.052  1.059  2.993  0.000    21.597     6.633
 114   7 N     -0.148  1.229  3.919  0.000    24.188     7.305
 115   1 H      0.188  0.812  0.000  0.000     1.167     1.693
 116   1 H      0.107  0.893  0.000  0.000     1.720     2.051
 117   1 H      0.065  0.935  0.000  0.000     2.144     2.290
 118   1 H      0.085  0.915  0.000  0.000     1.926     2.170
 119   1 H      0.071  0.929  0.000  0.000     2.074     2.252
 120   1 H      0.063  0.937  0.000  0.000     2.167     2.302
 121   1 H      0.078  0.922  0.000  0.000     2.000     2.212
 122   1 H      0.084  0.916  0.000  0.000     1.942     2.179
 123   1 H      0.120  0.880  0.000  0.000     1.615     1.987
 124   1 H      0.117  0.883  0.000  0.000     1.642     2.004
 125   1 H      0.297  0.703  0.000  0.000     0.721     1.331
 126   1 H      0.295  0.705  0.000  0.000     0.728     1.336
 127   1 H      0.298  0.702  0.000  0.000     0.719     1.328
 128   7 N     -0.183  1.242  3.941  0.000    24.964     7.421
 129   6 C      0.007  1.067  2.927  0.000    20.472     6.443
 130   6 C      0.264  1.046  2.690  0.000    22.540     7.775
 131   8 O     -0.462  1.736  4.726  0.000    22.967     6.425
 132   6 C     -0.019  1.063  2.956  0.000    20.882     6.500
 133   6 C     -0.120  1.038  3.081  0.000    22.846     6.815
 134   6 C     -0.132  1.044  3.088  0.000    23.092     6.851
 135   1 H      0.220  0.780  0.000  0.000     1.008     1.573
 136   1 H      0.101  0.899  0.000  0.000     1.779     2.086
 137   1 H      0.046  0.954  0.000  0.000     2.373     2.409
 138   1 H      0.046  0.954  0.000  0.000     2.365     2.405
 139   1 H      0.044  0.956  0.000  0.000     2.394     2.419
 140   1 H      0.056  0.944  0.000  0.000     2.251     2.346
 141   1 H      0.056  0.944  0.000  0.000     2.251     2.346
 142   1 H      0.065  0.935  0.000  0.000     2.137     2.286
 143   1 H      0.063  0.937  0.000  0.000     2.163     2.300
 144   7 N     -0.176  1.239  3.936  0.000    24.803     7.397
 145   6 C      0.011  1.067  2.922  0.000    20.380     6.425
 146   6 C      0.275  1.045  2.680  0.000    22.351     7.742
 147   8 O     -0.482  1.733  4.749  0.000    23.388     6.484
 148   6 C     -0.023  1.065  2.958  0.000    20.947     6.509
 149   6 C     -0.065  1.051  3.014  0.000    21.743     6.638
 150   6 C     -0.108  1.037  3.071  0.000    22.614     6.779
 151   6 C     -0.113  1.035  3.078  0.000    22.715     6.796
 152   1 H      0.196  0.804  0.000  0.000     1.126     1.663
 153   1 H      0.090  0.910  0.000  0.000     1.875     2.142
 154   1 H      0.045  0.955  0.000  0.000     2.383     2.414
 155   1 H      0.040  0.960  0.000  0.000     2.445     2.445
 156   1 H      0.056  0.944  0.000  0.000     2.250     2.346
 157   1 H      0.046  0.954  0.000  0.000     2.366     2.405
 158   1 H      0.037  0.963  0.000  0.000     2.490     2.468
 159   1 H      0.051  0.949  0.000  0.000     2.307     2.375
 160   1 H      0.044  0.956  0.000  0.000     2.396     2.421
 161   1 H      0.049  0.951  0.000  0.000     2.330     2.387
 162   1 H      0.027  0.973  0.000  0.000     2.633     2.537
 163   7 N     -0.172  1.252  3.921  0.000    24.724     7.385
 164   6 C      0.035  1.058  2.907  0.000    19.998     6.368
 165   6 C      0.270  1.043  2.687  0.000    22.447     7.760
 166   8 O     -0.502  1.744  4.758  0.000    23.835     6.546
 167   6 C     -0.117  1.077  3.039  0.000    22.731     6.788
 168   6 C      0.367  1.022  2.611  0.000    20.778     7.459
 169   8 O     -0.637  1.782  4.855  0.000    27.040     6.972
 170   8 O     -0.615  1.761  4.854  0.000    26.485     6.900
 171   1 H      0.200  0.800  0.000  0.000     1.104     1.646
 172   1 H      0.057  0.943  0.000  0.000     2.231     2.336
 173   1 H      0.067  0.933  0.000  0.000     2.124     2.279
 174   1 H      0.045  0.955  0.000  0.000     2.384     2.415
 175   7 N     -0.183  1.246  3.937  0.000    24.956     7.419
 176   6 C      0.014  1.059  2.926  0.000    20.329     6.418
 177   6 C      0.265  1.044  2.690  0.000    22.523     7.772
 178   8 O     -0.499  1.738  4.761  0.000    23.761     6.536
 179   6 C     -0.080  1.052  3.028  0.000    22.026     6.681
 180   6 C     -0.088  1.054  3.034  0.000    22.184     6.705
 181   6 C     -0.097  1.052  3.045  0.000    22.350     6.731
 182   6 C     -0.054  1.061  2.993  0.000    21.642     6.640
 183   7 N     -0.145  1.228  3.917  0.000    24.137     7.297
 184   1 H      0.235  0.765  0.000  0.000     0.944     1.522
 185   1 H      0.085  0.915  0.000  0.000     1.923     2.169
 186   1 H      0.052  0.948  0.000  0.000     2.290     2.366
 187   1 H      0.073  0.927  0.000  0.000     2.055     2.242
 188   1 H      0.079  0.921  0.000  0.000     1.992     2.207
 189   1 H      0.083  0.917  0.000  0.000     1.944     2.180
 190   1 H      0.082  0.918  0.000  0.000     1.962     2.191
 191   1 H      0.057  0.943  0.000  0.000     2.234     2.338
 192   1 H      0.115  0.885  0.000  0.000     1.654     2.011
 193   1 H      0.135  0.865  0.000  0.000     1.498     1.914
 194   1 H      0.305  0.695  0.000  0.000     0.698     1.309
 195   1 H      0.298  0.702  0.000  0.000     0.721     1.330
 196   1 H      0.286  0.714  0.000  0.000     0.757     1.363
 197   7 N     -0.191  1.254  3.937  0.000    25.136     7.446
 198   6 C      0.031  1.058  2.912  0.000    20.056     6.376
 199   6 C      0.275  1.046  2.679  0.000    22.347     7.741
 200   8 O     -0.487  1.739  4.748  0.000    23.497     6.499
 201   6 C     -0.131  1.041  3.090  0.000    23.064     6.847
 202   1 H      0.241  0.759  0.000  0.000     0.917     1.500
 203   1 H      0.067  0.933  0.000  0.000     2.117     2.276
 204   1 H      0.059  0.941  0.000  0.000     2.213     2.326
 205   1 H      0.082  0.918  0.000  0.000     1.960     2.189
 206   1 H      0.070  0.930  0.000  0.000     2.090     2.261
 207   7 N     -0.192  1.246  3.945  0.000    25.155     7.449
 208   6 C      0.029  1.059  2.912  0.000    20.082     6.379
 209   6 C      0.277  1.039  2.684  0.000    22.315     7.737
 210   8 O     -0.485  1.744  4.741  0.000    23.458     6.494
 211   6 C     -0.024  1.067  2.957  0.000    20.999     6.523
 212  16 S     -0.291  1.932  4.317  0.042   153.649    20.863
 213   1 H      0.233  0.767  0.000  0.000     0.953     1.529
 214   1 H      0.068  0.932  0.000  0.000     2.107     2.270
 215   1 H      0.085  0.915  0.000  0.000     1.932     2.174
 216   1 H      0.067  0.933  0.000  0.000     2.122     2.278
 217   1 H      0.183  0.817  0.000  0.000     1.191     1.707
 218   7 N     -0.189  1.250  3.940  0.000    25.109     7.442
 219   6 C      0.028  1.059  2.913  0.000    20.105     6.384
 220   6 C      0.278  1.037  2.685  0.000    22.296     7.732
 221   8 O     -0.527  1.761  4.766  0.000    24.398     6.622
 222   6 C     -0.083  1.057  3.026  0.000    22.077     6.688
 223   6 C      0.011  1.081  2.908  0.000    27.764     8.643
 224   6 C     -0.048  1.080  2.968  0.000    29.194     8.861
 225   6 C     -0.037  1.078  2.959  0.000    28.920     8.819
 226   6 C     -0.038  1.081  2.957  0.000    28.949     8.823
 227   6 C     -0.031  1.080  2.950  0.000    28.762     8.795
 228   6 C     -0.037  1.080  2.957  0.000    28.916     8.818
 229   1 H      0.218  0.782  0.000  0.000     1.020     1.582
 230   1 H      0.065  0.935  0.000  0.000     2.144     2.290
 231   1 H      0.082  0.918  0.000  0.000     1.961     2.190
 232   1 H      0.073  0.927  0.000  0.000     2.056     2.243
 233   1 H      0.068  0.932  0.000  0.000     2.112     2.273
 234   1 H      0.013  0.987  0.000  0.000     2.836     2.634
 235   1 H      0.065  0.935  0.000  0.000     2.143     2.289
 236   1 H      0.018  0.982  0.000  0.000     2.770     2.603
 237   1 H      0.035  0.965  0.000  0.000     2.522     2.484
 238   7 N     -0.200  1.255  3.945  0.000    25.345     7.477
 239   6 C      0.038  1.053  2.909  0.000    19.937     6.358
 240   6 C      0.278  1.039  2.683  0.000    22.295     7.733
 241   8 O     -0.535  1.762  4.773  0.000    24.566     6.645
 242   6 C     -0.064  1.051  3.013  0.000    21.721     6.634
 243   6 C     -0.029  1.068  2.961  0.000    28.679     8.783
 244   6 C     -0.014  1.067  2.947  0.000    28.316     8.728
 245   6 C     -0.016  1.075  2.941  0.000    28.272     8.713
 246   7 N     -0.109  1.223  3.886  0.000    23.389     7.183
 247   6 C      0.042  1.063  2.895  0.000    26.954     8.510
 248   6 C     -0.039  1.077  2.962  0.000    28.969     8.826
 249   6 C     -0.061  1.073  2.988  0.000    29.526     8.910
 250   6 C     -0.048  1.076  2.972  0.000    29.196     8.861
 251   6 C     -0.046  1.077  2.969  0.000    29.144     8.853
 252   1 H      0.257  0.743  0.000  0.000     0.857     1.450
 253   1 H      0.055  0.945  0.000  0.000     2.254     2.348
 254   1 H      0.050  0.950  0.000  0.000     2.324     2.384
 255   1 H      0.043  0.957  0.000  0.000     2.408     2.427
 256   1 H      0.040  0.960  0.000  0.000     2.453     2.449
 257   1 H      0.209  0.791  0.000  0.000     1.063     1.615
 258   1 H     -0.004  1.004  0.000  0.000     3.133     2.768
 259   1 H      0.061  0.939  0.000  0.000     2.185     2.312
 260   1 H      0.026  0.974  0.000  0.000     2.639     2.540
 261   1 H      0.057  0.943  0.000  0.000     2.237     2.339
 262   7 N     -0.201  1.253  3.948  0.000    25.363     7.480
 263   6 C      0.035  1.055  2.910  0.000    19.968     6.359
 264   6 C      0.285  1.039  2.676  0.000    22.180     7.713
 265   8 O     -0.526  1.756  4.770  0.000    24.369     6.619
 266   6 C     -0.021  1.063  2.958  0.000    20.905     6.502
 267   6 C     -0.078  1.051  3.027  0.000    21.988     6.676
 268   6 C     -0.132  1.042  3.091  0.000    23.085     6.848
 269   6 C     -0.111  1.038  3.072  0.000    22.676     6.791
 270   1 H      0.241  0.759  0.000  0.000     0.918     1.501
 271   1 H      0.056  0.944  0.000  0.000     2.241     2.341
 272   1 H      0.039  0.961  0.000  0.000     2.467     2.456
 273   1 H      0.053  0.947  0.000  0.000     2.280     2.361
 274   1 H      0.054  0.946  0.000  0.000     2.274     2.358
 275   1 H      0.070  0.930  0.000  0.000     2.085     2.258
 276   1 H      0.039  0.961  0.000  0.000     2.463     2.454
 277   1 H      0.047  0.953  0.000  0.000     2.363     2.404
 278   1 H      0.052  0.948  0.000  0.000     2.301     2.372
 279   1 H      0.024  0.976  0.000  0.000     2.673     2.557
 280   1 H      0.043  0.957  0.000  0.000     2.411     2.428
 281   7 N     -0.175  1.241  3.933  0.000    24.777     7.393
 282   6 C      0.043  1.053  2.904  0.000    19.857     6.345
 283   6 C      0.208  1.082  2.711  0.000    23.598     7.956
 284   8 O     -0.388  1.755  4.633  0.000    21.450     6.209
 285   6 C     -0.120  1.039  3.080  0.000    22.845     6.815
 286   1 H      0.212  0.788  0.000  0.000     1.047     1.603
 287   1 H      0.075  0.925  0.000  0.000     2.029     2.228
 288   1 H      0.070  0.930  0.000  0.000     2.081     2.256
 289   1 H      0.084  0.916  0.000  0.000     1.943     2.180
 290   1 H      0.063  0.937  0.000  0.000     2.160     2.298
 291   1 H      0.188  0.812  0.000  0.000     1.168     1.693
 292   1 H      0.065  0.935  0.000  0.000     2.136     2.286
 293   1 H      0.161  0.839  0.000  0.000     1.325     1.803
 294   1 H      0.065  0.935  0.000  0.000     2.141     2.288
 295   1 H      0.184  0.816  0.000  0.000     1.194     1.711
 296   1 H      0.043  0.957  0.000  0.000     2.411     2.428
 297   1 H      0.182  0.818  0.000  0.000     1.200     1.716
 298   1 H      0.058  0.942  0.000  0.000     2.226     2.333

 Mol. C6AA /au·bohr⁶  :     848262.434650
 Mol. C8AA /au·bohr⁸  :   19353640.247619
 Mol. α(0) /au        :       1395.725119

 
molecular dipole:
                 x           y           z       tot (Debye)
 q only:       13.933      53.025      -1.232
   full:       15.603      52.601      -0.736     139.473
molecular quadrupole (traceless):
                xx          xy          yy          xz          yz          zz
 q only:    -1934.064     789.874    3534.052    -683.574    -368.050   -1599.987
  q+dip:    -1768.100     933.092    3399.202    -563.901    -336.961   -1631.103
   full:    -1767.821     933.223    3401.672    -563.825    -343.107   -1633.851
speedup  1.00
cpu  time for grad    6.98 s
wall time for grad    6.98 s

SCC energy    :    -454.2309672
rep           :       5.8067733
ES            :       1.5424499
AES           :      -0.0647585
AXC           :       0.1673168
disp          :      -0.4061833
XB            :       0.0000000
fix           :       0.0000000
Gborn         :       0.0000000
Gsasa         :       0.0000000
Ghb           :       0.0000000
Gshift        :       0.0000000
Gsolv         :      -0.5757368     -361.28
Etot ala COSMO:    -454.2309672
grad norm     :       0.4407615
total E       :    -448.3872006
atomizationE  :      84.2237059    52851.17
(atE without considering molecular charge,
 total energy contains solvation terms)
H-L gap (eV)  :          0.1319

------------------------------------------------------------------------
 * finished run on 2019/03/14 at 15:08:27.243     
------------------------------------------------------------------------
 total:
 * wall-time:     0 d,  0 h,  0 min,  7.671 sec
 *  cpu-time:     0 d,  0 h,  0 min,  7.452 sec
 * ratio c/w:     0.971 speedup
 SCF:
 * wall-time:     0 d,  0 h,  0 min,  7.357 sec
 *  cpu-time:     0 d,  0 h,  0 min,  7.352 sec
 * ratio c/w:     0.999 speedup

