      -----------------------------------------------------------      
     |                   =====================                   |     
     |                           x T B                           |     
     |                   =====================                   |     
     |                         S. Grimme                         |     
     |          Mulliken Center for Theoretical Chemistry        |     
     |                    University of Bonn                     |     
     |                 Version 6.0.1 (SAW181210)                 |     
      -----------------------------------------------------------      

   This program is distributed in the hope that it will be useful,
   but WITHOUT ANY WARRANTY; without even the implied warranty of
   MERCHANTABILITY or FITNESS FOR A PARTICULAR PURPOSE.
   
   FOR NON-COMMERCIAL, ACADEMIA USE ONLY.
   
   Cite this work as:
   S. Grimme, C. Bannwarth, P. Shushkov, J. Comput. Theory Chem., 2017,
   13, 1989-2009.
   C. Bannwarth, S. Ehlert and S. Grimme., ChemRxiv, 2018, preprint.
   http://doi.org/10.26434/chemrxiv.7246238.v1
   
   for sTDA-xTB:
   S. Grimme and C. Bannwarth, J. Chem. Phys., 2016, 145, 054103.
   
   in the mass-spec context:
   V. Asgeirsson, C. Bauer and S. Grimme, Chem. Sci., 2017, 8, 4879.
   
   if GBSA is used:
   P. Shushkov, F. März and S. Grimme, unpublished.
   
   for ANC optimizer:
   S. Grimme, unpublished.
   Rational Function algorithm used in ANCopt:
   F. Eckert, P. Pulay, H.-J. Werner, J. Comput. Chem., 1997, 18, 1473.
   
   with help from (in alphabetical order)
   C. Bannwarth, F. Bohle, G. Brandenburg, E. Caldeweyher, M. Checinski,
   S. Dohm, S. Ehlert, S. Ehrlich, F. März, H. Neugebauer, J. Pisarek,
   P. Pracht, P. Shushkov, and S. Spicher.
   
 * started run on 2019/03/07 at 11:37:46.286     
========================================================================
 # omp threads = 1
========================================================================
number of atoms            : 545
number of electrons        : 1432
charge                     : -2
spin                       : .0
first test random number   : .2555
           ------------------------------------------------- 
          |                 G F N 2 - x T B                 |
          | Geometry, Frequencies, Noncovalent interactions |
          |            JCTC 2018 parametrisation            |
           ------------------------------------------------- 
 
      method parameters     
 k(s)        :  1.8500
 k(p)        :  2.2300
 k(d)        :  2.2300
 k(f)        :  2.0000
 kEN (H0ij)  : -2.0000
 D4 a1       :  0.5200
 D4 a2       :  5.0000
 D4 s6       :  1.0000
 D4 s8       :  2.7000
 D4 s9       :  5.0000
 alphaj      :  2.0000

 Solvent             : h2o
 Using internal parameter file: .param_gbsa2_h2o
 Gsolv ref. state (COSMO-RS): gsolv [1 M gas/solution]
 temperature (mdtemp)       :    298.150000000000     
 dielectric constant        :    80.2000000000000     
 rho                        :    1.00000000000000     
 mass                       :    18.0000000000000     
 surface tension            :    15.5689454083859     
 probe radius               :   0.975313790000000     
 vdW radii scaling          :    1.00000000000000     
 Gshift (Eh)                :   1.857443126794793E-003
 c1                         :    1.55243817000000     
 soset                      :   0.130326360000000     
 HB correction              :  T

            Z     q(EN)     CN     RAES       Cart. coordinates
     1  N   5.0   -0.23    3.24    1.96   337.24238   125.68189   171.18838
     2  C   4.0    0.03    4.37    4.33   339.41746   126.27905   172.78520
     3  C   4.0    0.08    3.22    3.04   341.95536   126.03149   171.38869
     4  O   6.0   -0.28    1.13    1.80   342.32197   124.27594   169.99219
     5  C   4.0   -0.03    4.37    4.34   339.44958   124.58018   175.17949
     6  C   4.0   -0.09    4.28    4.15   341.58686   125.46269   176.82733
     7  C   4.0   -0.10    4.22    4.04   336.94003   124.80506   176.64024
     8  H   1.0    0.10    1.08    1.44   336.71704   124.14744   171.30744
     9  H   1.0    0.03    1.13    1.45   339.22471   128.03649   173.26897
    10  H   1.0    0.05    1.12    1.45   339.66690   122.82463   174.69572
    11  H   1.0    0.04    1.06    1.44   341.65489   124.43467   178.34289
    12  H   1.0    0.05    1.07    1.44   343.16856   125.30962   175.91270
    13  H   1.0    0.04    1.06    1.44   341.31852   127.21635   177.29031
    14  H   1.0    0.04    1.05    1.44   336.99861   123.73170   178.12557
    15  H   1.0    0.04    1.05    1.44   336.68491   126.54550   177.15425
    16  H   1.0    0.04    1.05    1.44   335.55486   124.27972   175.56121
    17  N   5.0   -0.22    3.24    1.97   350.44968   128.02326   172.50552
    18  C   4.0    0.03    4.26    4.11   352.32995   128.73002   174.42737
    19  C   4.0    0.08    3.20    3.04   354.84707   129.62764   173.28031
    20  O   6.0   -0.28    1.13    1.80   355.45556   129.02482   171.11468
    21  C   4.0   -0.05    4.32    4.24   352.85152   126.46046   176.20750
    22  C   4.0    0.25    3.14    3.03   353.83796   124.12098   174.77508
    23  O   6.0   -0.31    1.19    1.80   356.02248   123.41989   175.22862
    24  O   6.0   -0.29    1.19    1.80   352.39610   123.04384   173.23118
    25  H   1.0    0.13    1.08    1.44   351.05628   127.35997   171.15248
    26  H   1.0    0.04    1.12    1.45   351.61375   130.13598   175.36090
    27  H   1.0    0.04    1.09    1.44   354.07795   126.95557   177.47550
    28  H   1.0    0.04    1.08    1.44   351.30950   126.02015   177.09567
    29  N   5.0   -0.25    3.21    1.96   373.15284   122.15755   201.13676
    30  C   4.0    0.02    4.25    4.11   370.68486   121.58875   202.27249
    31  C   4.0    0.06    3.20    3.04   370.73778   119.78028   204.51748
    32  O   6.0   -0.30    1.15    1.80   369.38851   117.89055   204.55905
    33  C   4.0   -0.04    4.48    4.51   368.90474   120.50782   200.21457
    34  C   4.0   -0.03    4.33    4.25   368.44932   121.83819   197.70691
    35  C   4.0   -0.09    4.25    4.10   366.82982   120.23570   196.03639
    36  C   4.0   -0.10    4.24    4.09   367.33249   124.44601   198.09052
    37  H   1.0    0.09    1.07    1.44   373.40040   123.73737   200.84574
    38  H   1.0    0.03    1.13    1.45   370.08204   123.18368   202.94523
    39  H   1.0    0.05    1.10    1.44   369.52646   118.83164   199.81206
    40  H   1.0    0.05    1.11    1.45   367.26257   120.29617   201.00070
    41  H   1.0    0.04    1.14    1.45   370.06503   122.07630   196.87354
    42  H   1.0    0.04    1.06    1.44   366.55014   121.09931   194.44335
    43  H   1.0    0.05    1.06    1.44   367.66697   118.63511   195.72459
    44  H   1.0    0.04    1.06    1.44   365.21789   119.93146   196.85653
    45  H   1.0    0.03    1.06    1.44   367.06604   125.24348   196.46158
    46  H   1.0    0.04    1.06    1.44   365.73000   124.30239   198.96925
    47  H   1.0    0.04    1.06    1.44   368.48522   125.46457   199.08641
    48  N   5.0   -0.23    3.20    1.95   363.61162   120.41334   207.45222
    49  C   4.0    0.03    4.20    4.00   361.96000   119.38344   205.47368
    50  C   4.0    0.08    3.17    3.03   362.16787   116.48460   205.12975
    51  O   6.0   -0.32    1.13    1.80   360.37263   115.12399   205.72691
    52  C   4.0   -0.09    4.18    3.97   362.46078   120.71947   202.92822
    53  H   1.0    0.11    1.08    1.44   364.04248   121.96291   207.21790
    54  H   1.0    0.05    1.13    1.45   360.24791   119.71414   206.04060
    55  H   1.0    0.04    1.05    1.44   361.35718   120.02027   201.64321
    56  H   1.0    0.05    1.05    1.44   362.13196   122.51471   203.10397
    57  H   1.0    0.05    1.06    1.44   364.20877   120.46436   202.43689
    58  N   5.0   -0.24    3.24    1.97   357.56827   110.10299   206.77948
    59  C   4.0    0.03    4.29    4.17   356.98624   108.35500   204.76881
    60  C   4.0    0.07    3.19    3.03   357.64197   105.61867   205.43400
    61  O   6.0   -0.31    1.15    1.80   356.14531   103.86501   204.93133
    62  C   4.0   -0.05    4.47    4.49   358.24102   109.21860   202.27438
    63  C   4.0   -0.03    4.37    4.33   357.72890   111.86989   201.35786
    64  C   4.0   -0.09    4.25    4.09   359.39753   112.51995   199.15066
    65  C   4.0   -0.09    4.27    4.14   355.00770   112.23082   200.82307
    66  H   1.0    0.12    1.10    1.44   358.59818   111.28029   206.33918
    67  H   1.0    0.04    1.13    1.45   355.16832   108.37578   204.53071
    68  H   1.0    0.05    1.10    1.44   360.05515   109.03341   202.46524
    69  H   1.0    0.04    1.10    1.44   357.71945   108.05831   200.95346
    70  H   1.0    0.06    1.16    1.45   358.15598   113.05097   202.69390
    71  H   1.0    0.04    1.06    1.44   359.03659   114.22826   198.59319
    72  H   1.0    0.04    1.06    1.44   361.15497   112.40090   199.65711
    73  H   1.0    0.04    1.06    1.44   359.07817   111.35021   197.77683
    74  H   1.0    0.04    1.06    1.44   354.72046   113.94481   200.23725
    75  H   1.0    0.04    1.06    1.44   354.47668   111.04597   199.52860
    76  H   1.0    0.04    1.06    1.44   354.04016   111.93792   202.35185
    77  N   5.0   -0.22    3.28    1.98   354.93589    99.93438   201.50148
    78  C   4.0    0.03    4.38    4.35   355.30627   100.88680   198.95035
    79  C   4.0    0.08    3.28    3.05   357.86685    99.92493   198.04139
    80  O   6.0   -0.28    1.13    1.80   359.80949   100.36146   199.28861
    81  C   4.0   -0.02    4.42    4.42   355.32328   103.77241   198.87098
    82  C   4.0   -0.08    4.26    4.12   356.20578   104.73239   196.31985
    83  C   4.0   -0.09    4.22    4.04   352.76270   104.90058   199.56262
    84  H   1.0    0.13    1.11    1.45   355.23824   101.03231   202.66177
    85  H   1.0    0.03    1.12    1.45   353.92866   100.30854   197.88832
    86  H   1.0    0.06    1.14    1.45   356.51948   104.32988   200.14277
    87  H   1.0    0.04    1.06    1.44   356.19822   106.56543   196.31985
    88  H   1.0    0.07    1.06    1.44   357.90465   104.12768   195.99293
    89  H   1.0    0.04    1.06    1.44   355.07762   104.11823   195.01216
    90  H   1.0    0.04    1.06    1.44   352.85908   106.72983   199.48892
    91  H   1.0    0.04    1.06    1.44   351.49281   104.30720   198.37965
    92  H   1.0    0.05    1.06    1.44   352.30350   104.38279   201.25959
    93  N   5.0   -0.22    3.16    1.95   359.69233   100.52019   191.64845
    94  C   4.0   -0.00    4.25    4.10   360.44633   102.26819   189.66990
    95  C   4.0    0.15    3.37    3.07   362.00346   104.46594   190.59776
    96  O   6.0   -0.29    1.23    1.80   361.54237   105.61678   192.57252
    97  H   1.0    0.09    1.08    1.44   358.08795   100.31232   191.79396
    98  H   1.0    0.04    1.10    1.44   361.40442   101.35356   188.40379
    99  H   1.0    0.04    1.09    1.44   358.94400   102.91259   188.84220
   100  N   5.0   -0.15    3.52    2.09   364.04437   105.02341   189.18613
   101  C   4.0    0.04    4.52    4.56   365.69599   107.12667   189.80785
   102  C   4.0    0.16    3.47    3.10   364.10862   109.58899   189.61132
   103  O   6.0   -0.29    1.26    1.80   362.42865   109.70804   188.07309
   104  C   4.0    0.04    4.35    4.28   367.86728   107.23817   187.86899
   105  O   6.0   -0.29    2.14    1.85   369.05592   104.78530   187.68191
   106  C   4.0   -0.09    4.22    4.04   369.79669   109.15435   188.67402
   107  H   1.0    0.09    1.14    1.45   364.48656   104.19193   187.86144
   108  H   1.0    0.05    1.12    1.45   366.39330   106.93203   191.49160
   109  H   1.0    0.05    1.11    1.45   367.18320   107.72005   186.23816
   110  H   1.0    0.13    1.08    1.44   370.23700   104.84766   186.62367
   111  H   1.0    0.04    1.06    1.44   371.15351   109.21104   187.44381
   112  H   1.0    0.05    1.06    1.44   369.00868   110.80597   188.78929
   113  H   1.0    0.05    1.06    1.44   370.47699   108.68759   190.31052
   114  N   5.0   -0.16    3.49    2.07   364.77569   111.52785   191.09665
   115  C   4.0    0.04    4.48    4.51   363.42076   113.88811   191.07397
   116  C   4.0    0.15    3.46    3.10   364.80026   116.02350   189.77195
   117  O   6.0   -0.30    1.23    1.80   367.13218   116.03673   189.58865
   118  C   4.0   -0.09    4.25    4.09   362.76313   114.61944   193.75549
   119  H   1.0    0.09    1.13    1.45   366.02669   111.48438   192.13222
   120  H   1.0    0.07    1.16    1.46   361.90520   113.61221   190.08186
   121  H   1.0    0.04    1.06    1.44   361.85039   116.20870   193.74982
   122  H   1.0    0.04    1.06    1.44   361.71433   113.31553   194.50571
   123  H   1.0    0.04    1.06    1.44   364.30137   114.80274   194.73437
   124  N   5.0   -0.15    3.52    2.09   363.32249   117.80741   188.86677
   125  C   4.0    0.04    4.46    4.48   364.36562   120.08453   187.67435
   126  C   4.0    0.14    3.42    3.08   362.68565   122.39188   188.14301
   127  O   6.0   -0.30    1.29    1.80   360.41798   122.14433   188.47749
   128  C   4.0    0.03    4.25    4.10   364.84561   119.70847   184.86055
   129  O   6.0   -0.26    2.10    1.84   363.02958   118.09842   183.73994
   130  H   1.0    0.13    1.15    1.45   361.69922   117.75449   188.91401
   131  H   1.0    0.04    1.14    1.45   365.98889   120.40011   188.46615
   132  H   1.0    0.04    1.08    1.44   364.82293   121.33552   184.01584
   133  H   1.0    0.04    1.07    1.44   366.51991   119.00171   184.61678
   134  H   1.0    0.14    1.08    1.44   363.34895   117.93591   182.19415
   135  N   5.0   -0.17    3.49    2.07   363.85161   124.63310   188.23749
   136  C   4.0    0.03    4.57    4.63   362.49479   126.99525   188.74583
   137  C   4.0    0.15    3.50    3.11   361.65008   128.08185   186.25895
   138  O   6.0   -0.31    1.25    1.80   363.20911   128.58073   184.61678
   139  C   4.0   -0.03    4.40    4.38   364.16153   128.93033   190.17824
   140  C   4.0   -0.09    4.24    4.07   362.76124   131.38320   190.67902
   141  C   4.0   -0.10    4.25    4.10   365.12718   127.79272   192.60465
   142  H   1.0    0.09    1.13    1.45   365.44843   124.82396   188.00883
   143  H   1.0    0.05    1.13    1.45   361.05482   126.63432   189.82108
   144  H   1.0    0.05    1.13    1.45   365.59205   129.33851   189.10866
   145  H   1.0    0.03    1.06    1.44   363.86106   132.54349   191.57475
   146  H   1.0    0.05    1.06    1.44   362.25102   132.13342   189.08598
   147  H   1.0    0.04    1.06    1.44   361.27403   131.04305   191.69569
   148  H   1.0    0.03    1.06    1.44   366.16653   129.01915   193.48526
   149  H   1.0    0.04    1.06    1.44   363.70988   127.32218   193.66667
   150  H   1.0    0.04    1.06    1.44   366.12684   126.30361   192.22670
   151  N   5.0   -0.16    3.52    2.09   359.17454   128.40877   185.96037
   152  C   4.0    0.04    4.49    4.52   358.19944   129.45757   183.60199
   153  C   4.0    0.06    3.25    3.04   356.27759   131.51737   184.11222
   154  O   6.0   -0.30    1.18    1.80   354.92833   131.40965   186.03974
   155  C   4.0   -0.02    4.39    4.36   356.98813   127.40721   181.90313
   156  C   4.0   -0.08    4.24    4.09   358.92132   125.43434   181.20582
   157  C   4.0   -0.08    4.26    4.12   354.72991   126.19212   183.23917
   158  H   1.0    0.12    1.14    1.45   358.04827   128.04405   187.07531
   159  H   1.0    0.05    1.14    1.45   359.63752   130.16810   182.71382
   160  H   1.0    0.04    1.13    1.45   356.38720   128.20090   180.36489
   161  H   1.0    0.05    1.06    1.44   358.14086   124.16066   180.14191
   162  H   1.0    0.05    1.06    1.44   360.30271   126.22613   180.29686
   163  H   1.0    0.06    1.06    1.44   359.56572   124.64443   182.72894
   164  H   1.0    0.04    1.05    1.44   353.99102   124.91277   182.15257
   165  H   1.0    0.07    1.07    1.44   355.28927   125.41544   184.80197
   166  H   1.0    0.06    1.07    1.44   353.47513   127.47524   183.60955
   167  N   5.0   -0.22    3.27    1.97   349.74670   134.75258   181.94092
   168  C   4.0    0.03    4.36    4.30   347.53950   133.95133   180.50662
   169  C   4.0    0.07    3.19    3.03   346.47558   135.86563   178.60367
   170  O   6.0   -0.29    1.12    1.80   346.84219   138.15597   178.84366
   171  C   4.0   -0.06    4.44    4.44   345.44757   133.11230   182.33021
   172  C   4.0   -0.05    4.13    3.86   346.17134   131.11863   184.28985
   173  S   6.0   -0.06    2.80    3.11   348.40688   128.82829   183.01429
   174  C   4.0   -0.08    3.97    3.57   346.40188   127.15966   180.72394
   175  H   1.0    0.11    1.08    1.44   349.43300   135.32516   183.42814
   176  H   1.0    0.04    1.15    1.45   348.13854   132.56428   179.46916
   177  H   1.0    0.05    1.09    1.44   344.83152   134.59384   183.21838
   178  H   1.0    0.03    1.10    1.44   344.04918   132.46223   181.33999
   179  H   1.0    0.05    1.13    1.45   346.90644   131.93878   185.75439
   180  H   1.0    0.04    1.13    1.45   344.66334   130.24747   184.86244
   181  H   1.0    0.04    1.09    1.44   347.38265   125.85575   179.88868
   182  H   1.0    0.04    1.09    1.44   344.98459   126.39243   181.59699
   183  H   1.0    0.04    1.09    1.44   345.77827   128.34830   179.47672
   184  N   5.0   -0.22    3.26    1.97   350.94479   136.80293   191.50861
   185  C   4.0    0.03    4.38    4.34   352.91388   134.85462   191.32719
   186  C   4.0    0.15    3.43    3.09   351.59674   132.28271   191.68057
   187  O   6.0   -0.29    1.23    1.80   349.59174   132.11452   192.92023
   188  C   4.0   -0.06    4.44    4.45   354.93967   135.27414   193.37755
   189  C   4.0   -0.03    4.29    4.19   356.49302   137.71000   193.15456
   190  C   4.0   -0.10    4.20    4.00   358.55282   137.79504   195.22003
   191  C   4.0   -0.09    4.25    4.11   357.72323   137.73079   190.56752
   192  H   1.0    0.11    1.08    1.44   350.68022   137.31505   193.02795
   193  H   1.0    0.05    1.12    1.45   353.76426   134.92265   189.70392
   194  H   1.0    0.05    1.09    1.44   354.11386   135.26280   195.01405
   195  H   1.0    0.04    1.09    1.44   356.09240   133.84929   193.34920
   196  H   1.0    0.04    1.12    1.45   355.40454   139.16887   193.36999
   197  H   1.0    0.03    1.05    1.44   359.52036   139.34461   195.05751
   198  H   1.0    0.04    1.05    1.44   357.76292   137.74023   196.87354
   199  H   1.0    0.04    1.05    1.44   359.67154   136.35507   195.02917
   200  H   1.0    0.04    1.06    1.44   358.72101   139.25768   190.37666
   201  H   1.0    0.04    1.06    1.44   358.81171   136.26625   190.39556
   202  H   1.0    0.04    1.06    1.44   356.42688   137.68354   189.27306
   203  N   5.0   -0.17    3.49    2.07   352.74191   130.34196   190.59587
   204  C   4.0    0.04    4.46    4.48   351.69123   127.79461   190.71492
   205  C   4.0    0.15    3.46    3.10   353.74725   125.78016   190.57508
   206  O   6.0   -0.31    1.28    1.80   355.27793   125.72914   188.83464
   207  C   4.0   -0.07    4.30    4.20   349.79583   127.39776   188.61355
   208  H   1.0    0.12    1.15    1.45   354.14031   130.45534   189.77384
   209  H   1.0    0.07    1.15    1.45   350.84841   127.62642   192.33442
   210  H   1.0    0.05    1.06    1.44   349.11553   125.69890   188.71748
   211  H   1.0    0.05    1.06    1.44   348.43334   128.61286   188.78173
   212  H   1.0    0.06    1.11    1.45   350.62164   127.62642   186.99405
   213  N   5.0   -0.17    3.52    2.09   353.71512   124.12287   192.45347
   214  C   4.0    0.04    4.62    4.68   355.57083   122.08952   192.51583
   215  C   4.0    0.16    3.49    3.11   354.63164   119.98626   190.76594
   216  O   6.0   -0.31    1.29    1.80   352.91010   118.59731   191.40845
   217  C   4.0   -0.03    4.43    4.42   355.89776   121.06340   195.23137
   218  C   4.0   -0.09    4.27    4.14   357.84417   118.98093   195.14255
   219  C   4.0   -0.09    4.27    4.13   356.68766   123.17612   196.94535
   220  H   1.0    0.11    1.14    1.45   352.65877   124.13610   193.68746
   221  H   1.0    0.06    1.13    1.45   357.20167   122.71502   191.96025
   222  H   1.0    0.05    1.13    1.45   354.32739   120.38499   195.88899
   223  H   1.0    0.04    1.06    1.44   358.08795   118.29873   196.82630
   224  H   1.0    0.05    1.06    1.44   357.26592   117.64867   194.02383
   225  H   1.0    0.04    1.06    1.44   359.43154   119.65367   194.52083
   226  H   1.0    0.04    1.06    1.44   356.89364   122.53550   198.64988
   227  H   1.0    0.04    1.06    1.44   358.27692   123.87721   196.35953
   228  H   1.0    0.04    1.06    1.44   355.40454   124.48381   196.93590
   229  N   5.0   -0.15    3.52    2.09   355.71067   119.89744   188.51150
   230  C   4.0    0.04    4.49    4.53   355.02848   118.03795   186.60099
   231  C   4.0    0.16    3.48    3.11   356.32106   115.55107   187.16224
   232  O   6.0   -0.30    1.27    1.80   358.55282   115.45848   187.92758
   233  C   4.0   -0.05    4.40    4.38   355.81650   118.99604   183.97994
   234  C   4.0   -0.05    4.33    4.26   355.09651   117.24427   181.79920
   235  C   4.0   -0.05    4.35    4.28   355.94689   118.33275   179.34633
   236  C   4.0   -0.03    4.31    4.21   355.55572   116.52428   177.18637
   237  N   5.0   -0.16    4.13    3.24   356.45523   117.58064   174.76186
   238  H   1.0    0.13    1.16    1.46   356.87475   120.92734   188.03907
   239  H   1.0    0.07    1.14    1.45   353.21246   117.78473   186.62556
   240  H   1.0    0.04    1.09    1.44   355.04927   120.63633   183.69648
   241  H   1.0    0.06    1.09    1.44   357.63253   119.24360   183.96293
   242  H   1.0    0.06    1.10    1.44   355.85996   115.59643   182.04675
   243  H   1.0    0.06    1.09    1.44   353.28049   116.99671   181.77463
   244  H   1.0    0.05    1.10    1.44   355.02848   119.88421   179.01563
   245  H   1.0    0.05    1.10    1.44   357.72323   118.77495   179.45782
   246  H   1.0    0.06    1.09    1.44   356.44200   114.95770   177.53408
   247  H   1.0    0.06    1.09    1.44   353.77371   116.11421   177.05031
   248  H   1.0    0.08    1.09    1.44   355.50091   116.99482   173.50708
   249  H   1.0    0.10    1.11    1.44   356.35318   119.25871   174.80721
   250  H   1.0    0.07    1.09    1.44   358.05393   117.12521   174.50863
   251  N   5.0   -0.16    3.55    2.11   354.95856   113.49127   186.78618
   252  C   4.0    0.04    4.62    4.68   355.94689   110.97416   187.26995
   253  C   4.0    0.15    3.58    3.15   354.91510   109.38679   185.14401
   254  O   6.0   -0.31    1.35    1.80   352.74380   108.47405   185.20070
   255  C   4.0   -0.01    4.45    4.47   355.03604   109.91213   189.78140
   256  C   4.0   -0.08    4.28    4.15   355.68989   107.14179   190.00250
   257  C   4.0   -0.08    4.26    4.11   356.15098   111.38801   191.94891
   258  H   1.0    0.12    1.17    1.46   353.42789   113.51017   186.24005
   259  H   1.0    0.07    1.14    1.45   357.77803   110.99305   187.35688
   260  H   1.0    0.06    1.14    1.45   353.21057   110.07276   189.85132
   261  H   1.0    0.05    1.06    1.44   355.09462   106.49929   191.61254
   262  H   1.0    0.06    1.07    1.44   354.88675   106.21394   188.64189
   263  H   1.0    0.06    1.06    1.44   357.50780   106.93203   189.89478
   264  H   1.0    0.04    1.06    1.44   355.55383   110.69070   193.53628
   265  H   1.0    0.06    1.06    1.44   357.98024   111.28218   191.88466
   266  H   1.0    0.06    1.06    1.44   355.63698   113.14356   191.82230
   267  N   5.0   -0.16    3.42    2.03   356.47223   108.91436   183.23728
   268  C   4.0    0.01    4.37    4.32   355.67099   107.44226   181.08488
   269  C   4.0    0.16    3.40    3.08   353.66032   108.93703   179.64680
   270  O   6.0   -0.29    1.21    1.80   354.24047   110.25795   177.80620
   271  H   1.0    0.10    1.13    1.45   358.00858   109.43781   183.16358
   272  H   1.0    0.05    1.09    1.44   357.09773   107.08132   179.99262
   273  H   1.0    0.05    1.09    1.44   354.99447   105.82843   181.63290
   274  N   5.0   -0.15    3.57    2.13   351.33974   108.73861   180.57087
   275  C   4.0    0.04    4.52    4.56   349.20246   110.08032   179.46349
   276  C   4.0    0.16    3.47    3.10   347.66233   111.45604   181.44960
   277  O   6.0   -0.28    1.25    1.80   346.31874   113.21726   180.85055
   278  C   4.0   -0.03    4.38    4.34   347.48092   108.27941   178.03486
   279  C   4.0    0.25    3.14    3.03   348.29917   107.84477   175.31555
   280  O   6.0   -0.28    1.17    1.80   348.97380   105.65836   174.68249
   281  O   6.0   -0.27    1.18    1.80   348.28594   109.70615   173.87179
   282  H   1.0    0.11    1.16    1.46   350.95612   107.82209   181.85778
   283  H   1.0    0.08    1.14    1.45   349.90544   111.31242   178.30131
   284  H   1.0    0.06    1.10    1.44   347.43556   106.67125   178.91169
   285  H   1.0    0.06    1.10    1.44   345.77261   108.94459   178.04809
   286  N   5.0   -0.14    3.55    2.11   347.95713   110.72471   183.82498
   287  C   4.0    0.04    4.51    4.56   346.50393   111.90390   185.85266
   288  C   4.0    0.16    3.44    3.09   347.58863   114.43424   186.67469
   289  O   6.0   -0.30    1.27    1.80   349.89410   114.80274   186.67280
   290  C   4.0   -0.04    4.35    4.28   346.32252   110.12756   188.16001
   291  C   4.0    0.25    3.14    3.03   345.42490   107.45927   187.47215
   292  O   6.0   -0.28    1.17    1.80   343.93012   107.13612   185.66368
   293  O   6.0   -0.28    1.17    1.80   346.27716   105.70749   188.81197
   294  H   1.0    0.12    1.16    1.45   348.97947   109.55686   184.30686
   295  H   1.0    0.06    1.14    1.45   344.82963   112.21382   185.17236
   296  H   1.0    0.06    1.09    1.44   347.96469   110.01984   188.96693
   297  H   1.0    0.04    1.10    1.44   345.16978   110.85132   189.38644
   298  N   5.0   -0.16    3.50    2.08   345.88410   116.18980   187.23783
   299  C   4.0    0.04    4.52    4.56   346.59086   118.69936   188.09576
   300  C   4.0    0.15    3.45    3.10   345.61954   119.21525   190.74705
   301  O   6.0   -0.32    1.29    1.80   343.34620   118.96770   191.24594
   302  C   4.0   -0.04    4.43    4.43   345.51371   120.67790   186.31564
   303  C   4.0   -0.01    3.59    3.16   346.35653   120.40767   183.60766
   304  C   4.0   -0.04    3.50    3.11   344.75215   119.36076   181.77652
   305  C   4.0   -0.05    3.50    3.11   348.77538   121.11443   182.88012
   306  C   4.0   -0.03    3.44    3.09   345.51749   119.06029   179.26318
   307  C   4.0   -0.05    3.47    3.10   349.57662   120.83286   180.39513
   308  C   4.0    0.07    3.48    3.10   347.93634   119.82185   178.56587
   309  O   6.0   -0.25    2.13    1.84   348.76404   119.55918   176.09789
   310  H   1.0    0.10    1.13    1.45   344.27972   115.95358   187.13011
   311  H   1.0    0.06    1.14    1.45   348.42200   118.78439   188.11277
   312  H   1.0    0.05    1.10    1.44   343.68446   120.59286   186.37611
   313  H   1.0    0.04    1.10    1.44   345.99370   122.34086   186.92035
   314  H   1.0    0.06    1.10    1.44   343.13644   118.85242   182.24517
   315  H   1.0    0.05    1.10    1.44   349.87709   121.78717   184.07443
   316  H   1.0    0.07    1.09    1.44   344.42523   118.36110   178.07644
   317  H   1.0    0.05    1.09    1.44   351.20368   121.31474   179.93970
   318  H   1.0    0.16    1.10    1.44   349.77316   120.73270   175.75018
   319  N   5.0   -0.16    3.51    2.09   347.33541   119.97492   192.40812
   320  C   4.0    0.04    4.52    4.56   346.66078   120.64388   194.99515
   321  C   4.0    0.15    3.47    3.10   346.87998   123.48225   195.36932
   322  O   6.0   -0.32    1.28    1.80   348.60342   124.66711   194.37532
   323  C   4.0   -0.04    4.42    4.42   348.41066   119.36265   196.89244
   324  C   4.0   -0.01    3.62    3.18   348.50137   116.53940   196.63543
   325  C   4.0   -0.04    3.53    3.13   350.14543   115.38100   194.91578
   326  C   4.0   -0.05    3.52    3.12   346.88565   114.99738   198.06974
   327  C   4.0   -0.04    3.48    3.11   350.17189   112.81664   194.63421
   328  C   4.0   -0.06    3.50    3.11   346.93668   112.42547   197.80895
   329  C   4.0    0.06    3.53    3.13   348.55428   111.32942   196.08930
   330  O   6.0   -0.28    2.15    1.85   348.54672   108.76129   195.76805
   331  H   1.0    0.11    1.14    1.45   348.91900   120.11854   192.07175
   332  H   1.0    0.06    1.14    1.45   344.93735   120.08453   195.27294
   333  H   1.0    0.05    1.10    1.44   350.10386   120.03350   196.69024
   334  H   1.0    0.05    1.10    1.44   347.86453   119.78973   198.58941
   335  H   1.0    0.08    1.12    1.45   351.23202   116.37121   193.95391
   336  H   1.0    0.06    1.10    1.44   345.76883   115.73249   199.20924
   337  H   1.0    0.06    1.10    1.44   351.26226   112.06642   193.47770
   338  H   1.0    0.05    1.10    1.44   345.88221   111.42013   198.78972
   339  H   1.0    0.14    1.11    1.44   347.49226   108.10555   196.75827
   340  N   5.0   -0.16    3.47    2.06   345.10742   124.53294   196.81874
   341  C   4.0    0.04    4.46    4.48   345.16411   127.28249   197.24015
   342  C   4.0    0.16    3.46    3.10   347.09163   127.92311   199.26782
   343  O   6.0   -0.28    1.23    1.80   346.75526   127.38454   201.53549
   344  C   4.0    0.04    4.23    4.06   342.50149   128.25192   197.93368
   345  O   6.0   -0.25    2.09    1.84   341.48671   126.98391   200.08985
   346  H   1.0    0.13    1.14    1.45   343.89800   123.73359   197.55195
   347  H   1.0    0.05    1.14    1.45   345.67434   128.12531   195.69435
   348  H   1.0    0.05    1.07    1.44   342.57708   130.05283   198.26627
   349  H   1.0    0.04    1.07    1.44   341.37710   128.01759   196.50504
   350  H   1.0    0.17    1.10    1.44   340.25650   127.80784   200.65866
   351  N   5.0   -0.15    3.49    2.07   349.16655   129.06261   198.45713
   352  C   4.0    0.04    4.34    4.28   351.13187   129.80150   200.24859
   353  C   4.0    0.07    3.23    3.04   351.23769   132.63042   200.53772
   354  O   6.0   -0.28    1.14    1.80   350.07173   134.02692   199.08074
   355  C   4.0   -0.09    4.19    3.97   353.75481   128.79238   199.40766
   356  H   1.0    0.12    1.13    1.45   349.47836   129.42355   196.90377
   357  H   1.0    0.05    1.14    1.45   350.70668   129.05883   201.86997
   358  H   1.0    0.04    1.05    1.44   355.02659   129.30639   200.62465
   359  H   1.0    0.04    1.05    1.44   353.70379   126.96313   199.31318
   360  H   1.0    0.05    1.05    1.44   354.17433   129.47835   197.75982
   361  N   5.0   -0.24    3.25    1.97   365.15741   132.54916   205.36597
   362  C   4.0    0.02    4.36    4.31   362.72534   132.01437   204.14520
   363  C   4.0    0.07    3.26    3.04   361.34017   129.99425   205.63053
   364  O   6.0   -0.31    1.13    1.80   362.31338   127.89476   206.02737
   365  C   4.0   -0.03    4.44    4.44   363.07872   131.22635   201.34841
   366  C   4.0   -0.06    4.29    4.17   360.56349   130.59707   200.14843
   367  C   4.0   -0.09    4.29    4.17   364.92498   129.04750   201.11030
   368  C   4.0   -0.10    4.10    3.80   360.82616   129.56717   197.33841
   369  H   1.0    0.10    1.08    1.44   366.13440   131.25847   205.52093
   370  H   1.0    0.03    1.12    1.45   361.71811   133.54504   204.13954
   371  H   1.0    0.03    1.13    1.45   363.79303   132.65120   200.44323
   372  H   1.0    0.04    1.09    1.44   359.70555   129.34040   201.17267
   373  H   1.0    0.03    1.08    1.44   359.50713   132.09562   200.14277
   374  H   1.0    0.03    1.07    1.44   365.11017   128.59396   199.34341
   375  H   1.0    0.04    1.06    1.44   366.55392   129.54827   201.78683
   376  H   1.0    0.06    1.06    1.44   364.29381   127.60563   202.04761
   377  H   1.0    0.04    1.05    1.44   359.16320   129.19489   196.66567
   378  H   1.0    0.04    1.05    1.44   361.63685   130.83707   196.29528
   379  H   1.0    0.04    1.05    1.44   361.83906   128.04027   197.33841
   380  N   5.0   -0.22    3.24    1.97   354.34818   125.98236   206.96468
   381  C   4.0    0.03    4.32    4.23   351.87264   125.26426   205.93666
   382  C   4.0    0.08    3.22    3.04   349.77505   126.08252   207.76025
   383  O   6.0   -0.29    1.13    1.80   350.18323   126.16944   210.04493
   384  C   4.0   -0.03    4.37    4.33   351.67233   122.34275   205.47179
   385  C   4.0   -0.06    4.28    4.16   353.90221   121.38277   203.88442
   386  C   4.0   -0.08    4.20    4.01   349.04939   121.65678   204.30016
   387  C   4.0   -0.09    4.14    3.89   353.45812   118.77872   202.68823
   388  H   1.0    0.10    1.08    1.44   355.21746   124.74081   207.55238
   389  H   1.0    0.04    1.12    1.45   351.67989   126.11464   204.32473
   390  H   1.0    0.05    1.12    1.45   351.77815   121.47725   207.08373
   391  H   1.0    0.04    1.09    1.44   354.25181   122.59597   202.55595
   392  H   1.0    0.04    1.09    1.44   355.39509   121.30340   204.94456
   393  H   1.0    0.04    1.05    1.44   348.95679   119.84642   204.02426
   394  H   1.0    0.05    1.05    1.44   347.71335   122.16889   205.44723
   395  H   1.0    0.06    1.05    1.44   348.84719   122.52794   202.69956
   396  H   1.0    0.04    1.05    1.44   354.93400   118.29118   201.71691
   397  H   1.0    0.04    1.05    1.44   353.15954   117.54284   204.00725
   398  H   1.0    0.04    1.06    1.44   351.99925   118.85431   201.58274
   399  N   5.0   -0.22    3.30    1.98   342.26716   113.99961   209.68966
   400  C   4.0    0.02    4.41    4.40   343.21959   115.97248   208.03048
   401  C   4.0    0.16    3.45    3.09   341.04262   116.84176   206.35996
   402  O   6.0   -0.29    1.26    1.80   339.04329   115.64178   206.29193
   403  C   4.0   -0.06    4.45    4.46   345.44001   114.91801   206.52248
   404  C   4.0   -0.03    4.33    4.25   347.59241   113.77473   208.15898
   405  C   4.0   -0.09    4.21    4.03   349.66544   112.58987   206.57161
   406  C   4.0   -0.09    4.25    4.11   348.64121   115.79863   209.85029
   407  H   1.0    0.10    1.09    1.44   342.51094   112.49728   209.12085
   408  H   1.0    0.04    1.13    1.45   343.83942   117.42568   208.96023
   409  H   1.0    0.04    1.09    1.44   344.81640   113.62544   205.38109
   410  H   1.0    0.04    1.09    1.44   346.13732   116.25783   205.48502
   411  H   1.0    0.04    1.13    1.45   346.88565   112.41980   209.17188
   412  H   1.0    0.04    1.06    1.44   350.96179   111.90390   207.67143
   413  H   1.0    0.04    1.06    1.44   348.95868   111.24250   205.54738
   414  H   1.0    0.04    1.06    1.44   350.40243   113.86355   205.47935
   415  H   1.0    0.04    1.06    1.44   349.98669   115.09943   210.88019
   416  H   1.0    0.04    1.06    1.44   349.30261   117.16868   208.82795
   417  H   1.0    0.04    1.06    1.44   347.31084   116.43735   210.93688
   418  N   5.0   -0.16    3.46    2.05   341.48860   118.89211   204.97668
   419  C   4.0    0.05    4.51    4.56   339.47226   119.87666   203.30428
   420  C   4.0    0.16    3.42    3.08   340.28673   119.90878   200.53772
   421  O   6.0   -0.30    1.27    1.80   341.98748   121.29962   199.84986
   422  C   4.0   -0.02    4.41    4.40   338.71070   122.57140   204.07151
   423  C   4.0    0.16    3.32    3.06   337.79607   122.75849   206.74169
   424  O   6.0   -0.28    1.25    1.80   337.05341   120.89711   207.87174
   425  N   5.0   -0.24    3.24    1.96   337.92646   125.01860   207.82072
   426  H   1.0    0.09    1.12    1.45   342.88321   119.72737   204.96157
   427  H   1.0    0.07    1.14    1.45   338.04363   118.74282   203.49136
   428  H   1.0    0.06    1.10    1.44   340.14878   123.68634   203.85041
   429  H   1.0    0.06    1.09    1.44   337.39356   123.16667   202.94334
   430  H   1.0    0.12    1.09    1.44   337.47671   125.20568   209.37219
   431  H   1.0    0.11    1.09    1.44   338.45937   126.29605   206.96846
   432  N   5.0   -0.15    3.50    2.08   339.07164   118.32519   198.99948
   433  C   4.0    0.04    4.47    4.50   339.55163   118.14756   196.26883
   434  C   4.0    0.16    3.45    3.10   337.92079   120.07697   194.86287
   435  O   6.0   -0.30    1.28    1.80   336.24083   121.26749   195.97214
   436  C   4.0   -0.06    4.41    4.39   339.01495   115.47926   195.31452
   437  C   4.0   -0.05    4.40    4.38   339.58942   115.09754   192.52717
   438  C   4.0   -0.05    4.33    4.25   338.46315   112.67680   191.48782
   439  C   4.0   -0.04    4.35    4.29   339.54785   110.41102   192.81819
   440  N   5.0   -0.16    4.20    3.44   342.29362   110.39968   192.76716
   441  H   1.0    0.12    1.16    1.45   337.92079   117.30096   199.51916
   442  H   1.0    0.06    1.13    1.45   341.31852   118.51794   195.95135
   443  H   1.0    0.04    1.09    1.44   340.00705   114.28874   196.29339
   444  H   1.0    0.05    1.10    1.44   337.24994   115.08431   195.61687
   445  H   1.0    0.06    1.13    1.45   338.93936   116.52239   191.57475
   446  H   1.0    0.06    1.10    1.44   341.40545   115.07297   192.28339
   447  H   1.0    0.04    1.09    1.44   336.64145   112.70326   191.69191
   448  H   1.0    0.05    1.09    1.44   338.79952   112.55964   189.68880
   449  H   1.0    0.04    1.09    1.44   338.97148   110.39212   194.55862
   450  H   1.0    0.04    1.09    1.44   338.91857   108.88223   192.02828
   451  H   1.0    0.08    1.09    1.44   342.83786   108.93892   192.13411
   452  H   1.0    0.07    1.12    1.45   342.84164   111.66580   191.80718
   453  H   1.0    0.07    1.09    1.44   342.88510   110.58676   194.32997
   454  N   5.0   -0.16    3.57    2.13   338.46126   120.41334   192.44024
   455  C   4.0    0.03    4.40    4.38   337.01373   122.10842   190.82642
   456  C   4.0    0.07    3.22    3.04   335.39990   120.48515   189.06708
   457  O   6.0   -0.30    1.13    1.80   336.28051   118.54062   188.10143
   458  C   4.0   -0.05    4.44    4.45   338.73716   123.87154   189.30141
   459  C   4.0   -0.03    4.32    4.24   340.16012   125.86898   190.86421
   460  C   4.0   -0.09    4.21    4.02   341.94213   127.34674   189.12188
   461  C   4.0   -0.09    4.26    4.12   338.35543   127.53571   192.22292
   462  H   1.0    0.12    1.17    1.46   339.68580   119.66123   191.68057
   463  H   1.0    0.05    1.13    1.45   335.95359   123.18557   191.86388
   464  H   1.0    0.05    1.09    1.44   339.96548   122.85108   188.40001
   465  H   1.0    0.04    1.09    1.44   337.72426   124.73136   188.03907
   466  H   1.0    0.05    1.13    1.45   341.17679   125.04884   192.15111
   467  H   1.0    0.05    1.05    1.44   342.84353   128.60908   190.09698
   468  H   1.0    0.04    1.05    1.44   343.14400   126.19401   188.35654
   469  H   1.0    0.04    1.06    1.44   340.96703   128.17255   187.80852
   470  H   1.0    0.04    1.06    1.44   339.28518   128.78104   193.19613
   471  H   1.0    0.04    1.06    1.44   337.27829   128.38987   191.00972
   472  H   1.0    0.05    1.06    1.44   337.32175   126.52660   193.35109
   473  N   5.0   -0.23    3.27    1.97   330.07843   126.22613   195.81529
   474  C   4.0    0.03    4.42    4.42   331.69604   124.79939   197.48392
   475  C   4.0    0.16    3.45    3.09   330.30142   122.52227   198.47414
   476  O   6.0   -0.30    1.23    1.80   328.39469   122.77361   199.78561
   477  C   4.0   -0.04    4.42    4.41   332.64468   126.49826   199.64199
   478  C   4.0   -0.04    4.32    4.23   334.14134   128.73191   198.80106
   479  C   4.0    0.24    3.16    3.03   335.28085   130.13220   201.01771
   480  O   6.0   -0.29    1.17    1.80   333.90135   130.89565   202.81106
   481  O   6.0   -0.30    1.22    1.80   337.60521   130.41755   200.99314
   482  H   1.0    0.10    1.08    1.44   329.42081   127.57351   196.44079
   483  H   1.0    0.06    1.14    1.45   333.16057   124.20224   196.55795
   484  H   1.0    0.06    1.10    1.44   331.20093   127.08596   200.60764
   485  H   1.0    0.06    1.10    1.44   333.67458   125.49103   200.77582
   486  H   1.0    0.05    1.10    1.44   335.47549   128.18389   197.67100
   487  H   1.0    0.04    1.10    1.44   333.06420   129.86764   197.84675
   488  N   5.0   -0.15    3.55    2.11   331.20282   120.29806   197.70124
   489  C   4.0    0.03    4.57    4.63   330.10867   117.90000   198.47603
   490  C   4.0    0.15    3.50    3.11   331.94170   116.72081   200.32040
   491  O   6.0   -0.30    1.31    1.80   334.21126   117.09876   200.12198
   492  C   4.0   -0.03    4.36    4.31   329.62490   116.09909   196.19513
   493  C   4.0   -0.09    4.20    4.00   327.80320   117.35765   194.29595
   494  C   4.0   -0.08    4.25    4.09   332.08154   115.32620   194.94602
   495  H   1.0    0.12    1.15    1.45   332.47838   120.14878   196.70346
   496  H   1.0    0.05    1.13    1.45   328.46839   118.18346   199.24326
   497  H   1.0    0.04    1.13    1.45   328.83499   114.56653   196.81685
   498  H   1.0    0.04    1.05    1.44   327.51218   116.22570   192.88433
   499  H   1.0    0.04    1.05    1.44   326.20827   117.72048   195.12554
   500  H   1.0    0.05    1.05    1.44   328.54208   118.92045   193.68368
   501  H   1.0    0.04    1.06    1.44   331.72627   114.20937   193.53628
   502  H   1.0    0.05    1.06    1.44   332.95459   116.81908   194.33753
   503  H   1.0    0.05    1.06    1.44   333.13979   114.45503   196.16300
   504  N   5.0   -0.16    3.56    2.13   330.88723   115.28651   202.08918
   505  C   4.0    0.04    4.52    4.56   332.35177   114.05819   204.02048
   506  C   4.0    0.06    3.32    3.06   331.45982   111.33509   204.16599
   507  O   6.0   -0.31    1.15    1.80   329.19404   110.80408   203.78427
   508  C   4.0   -0.02    4.44    4.45   331.86800   115.30163   206.57350
   509  C   4.0   -0.08    4.29    4.18   329.09010   115.11644   207.27270
   510  C   4.0   -0.08    4.26    4.11   333.52340   114.13945   208.57283
   511  H   1.0    0.10    1.14    1.45   329.28853   115.00683   202.18745
   512  H   1.0    0.06    1.13    1.45   334.13756   114.17346   203.62364
   513  H   1.0    0.06    1.13    1.45   332.29508   117.07986   206.45445
   514  H   1.0    0.04    1.06    1.44   328.81420   115.91579   208.89976
   515  H   1.0    0.05    1.06    1.44   328.08099   115.96303   205.99903
   516  H   1.0    0.06    1.07    1.44   328.59878   113.35332   207.36719
   517  H   1.0    0.05    1.06    1.44   333.19459   114.94825   210.18477
   518  H   1.0    0.04    1.06    1.44   333.15868   112.34799   208.70322
   519  H   1.0    0.07    1.06    1.44   335.28463   114.37188   208.12119
   520  H   1.0    0.08    1.08    1.44   335.93535   126.68461   171.61121
   521  H   1.0    0.05    1.04    1.44   343.30353   127.33138   171.64127
   522  H   1.0    0.11    1.08    1.44   349.37029   126.88323   173.15958
   523  H   1.0    0.05    1.04    1.43   356.01335   130.71471   174.29477
   524  H   1.0    0.09    1.08    1.44   374.39129   121.64125   202.18187
   525  H   1.0    0.04    1.04    1.44   371.88128   120.12520   205.98189
   526  H   1.0    0.10    1.08    1.44   362.81494   120.33785   208.95295
   527  H   1.0    0.06    1.04    1.43   363.75047   115.72751   204.42743
   528  H   1.0    0.09    1.08    1.44   356.13756   110.85287   207.31173
   529  H   1.0    0.05    1.04    1.43   359.28375   105.21945   206.28032
   530  H   1.0    0.09    1.08    1.44   353.32229    99.43144   201.69102
   531  H   1.0    0.05    1.04    1.43   357.98925    98.93765   196.43473
   532  H   1.0    0.09    1.08    1.44   360.36034    98.98749   191.33675
   533  H   1.0    0.04    1.04    1.43   356.09404   132.95870   182.90394
   534  H   1.0    0.10    1.09    1.44   350.80219   133.43426   182.14222
   535  H   1.0    0.04    1.04    1.43   345.45912   135.26570   177.12788
   536  H   1.0    0.09    1.07    1.44   351.39967   138.15746   190.58617
   537  H   1.0    0.05    1.05    1.44   352.26335   133.40066   201.92546
   538  H   1.0    0.08    1.08    1.44   366.00852   133.70502   204.45373
   539  H   1.0    0.05    1.04    1.43   359.61134   130.33998   206.31074
   540  H   1.0    0.09    1.08    1.44   355.28254   126.70607   205.74165
   541  H   1.0    0.06    1.04    1.43   348.06976   126.54711   207.09151
   542  H   1.0    0.09    1.08    1.44   343.04440   114.10284   211.19890
   543  H   1.0    0.04    1.04    1.43   333.61857   120.98819   188.68647
   544  H   1.0    0.09    1.08    1.44   330.96593   126.72350   194.45238
   545  H   1.0    0.05    1.04    1.43   332.68978   109.95822   204.56911

  Z AO/shell   Hii/eV     exponent
  1     Wed Apr 25 08:07:45 CEST 2018   EN: 2.200 GM2: 0.406  GM3: 0.0800  RAES: 1.40
     1s    -10.707211    1.230000
  6     Wed Apr 25 08:07:45 CEST 2018   EN: 2.550 GM2: 0.538  GM3: 0.1500  RAES: 3.00
     2s    -13.970922    2.096432
     2p    -10.063292    1.800000
  7     Wed Apr 25 08:07:45 CEST 2018   EN: 3.040 GM2: 0.461  GM3:-0.0640  RAES: 1.90
     2s    -16.686243    2.339881
     2p    -12.523956    2.014332
  8     Wed Apr 25 08:07:45 CEST 2018   EN: 3.440 GM2: 0.452  GM3:-0.0517  RAES: 1.80
     2s    -20.229985    2.439742
     2p    -15.503117    2.137023
 16     Tue Apr 24 11:44:34 CEST 2018   EN: 2.580 GM2: 0.340  GM3:-0.0502  RAES: 3.10
     3s    -20.029654    1.981333
     3p    -11.377694    2.025643
     3d     -0.420282    1.702555
 no old-style atom pair restraining (fixing) potential

molecular fragmentation (1/2 indicates fragments):
111111111111111122222222222222222222222222222222222222222222222222222222
222222222222222222222222222222222222222222222222222222222222222222222222
222222222222222222222222222222222222222222222222222222222222222222222222
222222222222222222222222222222222222222222222222222222222222222222222222
222222222222222222222222222222222222222222222222222222222222222222222222
222222222222222222222222222222222222222222222222222222222222222222222222
222222222222222222222222222222222222222222222222222222222222222222222222
22222222222222211222222222222222222222222
# atoms in fragment 1/2:    18   527
 fragment masses (1/2) :      101.15     3484.27
CMA distance (Bohr)    :  23.214
constraining FC (au)   :  0.0500
           ------------------------------------------------- 
          |        Self-Consistent Charge Iterations        |
           ------------------------------------------------- 

 Ncao       : 1301
 Nao        : 1300
 Nshell     : 796
 Nel        : 1432
 T(el)      :   500.0
 intcut     :    35.0
 scfconv/Eh :  0.100E-06
   qconv/e  :  0.100E-04
 intneglect :  0.100E-08
 broydamp   :      0.400
 iter      E             dE          RMSdq      gap      omega  full diag
   1   -820.5475451 -0.820548E+03  0.455E+00    3.10       0.0  T
   2   -822.6218404 -0.207430E+01  0.212E+00    1.51       1.0  T
   3   -822.7507240 -0.128884E+00  0.127E+00    1.83       1.0  T
   4   -822.8830440 -0.132320E+00  0.246E-01    1.18       1.0  T
   5   -822.8922038 -0.915985E-02  0.117E-01    1.34       1.0  T
   6   -822.8933130 -0.110921E-02  0.517E-02    1.33       1.0  T
   7   -822.8936021 -0.289108E-03  0.197E-02    1.32       1.0  T
   8   -822.8936370 -0.348460E-04  0.106E-02    1.31       1.0  T
   9   -822.8936532 -0.162002E-04  0.476E-03    1.31       1.0  T
  10   -822.8936558 -0.264674E-05  0.208E-03    1.30       2.1  T
  11   -822.8936563 -0.477227E-06  0.942E-04    1.30       4.5  T
  12   -822.8936564 -0.759483E-07  0.467E-04    1.30       9.2  T
  13   -822.8936564 -0.268547E-07  0.208E-04    1.30      20.6  T
  14   -822.8936564 -0.419197E-08  0.909E-05    1.30      47.1  T
  15   -822.8936564 -0.824798E-09  0.376E-05    1.30     113.8  T
speedup  1.00
cpu  time for SCC   12.20 s
wall time for SCC   12.20 s

   *** convergence criteria satisfied after 15 iterations ***

          eigenvalues
 #    :         704        705        706        707        708        709        710        711
 occ. :        2.000      2.000      2.000      2.000      2.000      2.000      2.000      2.000
 eps  :        -9.985     -9.934     -9.901     -9.899     -9.895     -9.791     -9.787     -9.760
 #    :         712        713        714        715        716        717        718        719
 occ. :        2.000      2.000      2.000      2.000      2.000      0.000      0.000      0.000
 eps  :        -9.724     -9.710     -9.678     -9.661     -9.566     -8.262     -8.117     -8.032
 #    :         720        721        722        723        724        725        726        727
 occ. :        0.000      0.000      0.000      0.000      0.000      0.000      0.000      0.000
 eps  :        -8.016     -7.833     -7.786     -7.768     -7.687     -7.660     -7.536     -7.501


   #   Z            q   n(s)   n(p)   n(d)      C6AA      α(0)
   1   7 N     -0.413  1.286  4.128  0.000    30.751     8.236
   2   6 C      0.017  1.042  2.941  0.000    20.295     6.416
   3   6 C      0.203  1.084  2.713  0.000    23.688     7.971
   4   8 O     -0.371  1.754  4.618  0.000    21.114     6.161
   5   6 C     -0.027  1.040  2.987  0.000    21.021     6.521
   6   6 C     -0.151  0.975  3.176  0.000    23.441     6.898
   7   6 C     -0.152  0.980  3.172  0.000    23.477     6.905
   8   1 H      0.180  0.820  0.000  0.000     1.211     1.724
   9   1 H      0.071  0.929  0.000  0.000     2.078     2.254
  10   1 H      0.046  0.954  0.000  0.000     2.366     2.405
  11   1 H      0.063  0.937  0.000  0.000     2.164     2.300
  12   1 H      0.037  0.963  0.000  0.000     2.482     2.464
  13   1 H      0.066  0.934  0.000  0.000     2.124     2.279
  14   1 H      0.062  0.938  0.000  0.000     2.170     2.303
  15   1 H      0.064  0.936  0.000  0.000     2.156     2.296
  16   1 H      0.056  0.944  0.000  0.000     2.245     2.343
  17   7 N     -0.402  1.274  4.127  0.000    30.424     8.192
  18   6 C      0.033  1.041  2.926  0.000    20.032     6.375
  19   6 C      0.194  1.090  2.716  0.000    23.863     8.000
  20   8 O     -0.393  1.766  4.628  0.000    21.549     6.224
  21   6 C     -0.116  1.021  3.095  0.000    22.711     6.783
  22   6 C      0.363  1.022  2.614  0.000    20.836     7.470
  23   8 O     -0.627  1.756  4.871  0.000    26.792     6.940
  24   8 O     -0.655  1.782  4.872  0.000    27.498     7.031
  25   1 H      0.175  0.825  0.000  0.000     1.242     1.745
  26   1 H      0.082  0.918  0.000  0.000     1.961     2.190
  27   1 H      0.056  0.944  0.000  0.000     2.240     2.340
  28   1 H      0.053  0.947  0.000  0.000     2.279     2.360
  29   7 N     -0.406  1.293  4.113  0.000    30.545     8.208
  30   6 C      0.023  1.036  2.941  0.000    20.210     6.403
  31   6 C      0.188  1.087  2.725  0.000    23.969     8.018
  32   8 O     -0.379  1.764  4.615  0.000    21.260     6.182
  33   6 C     -0.103  1.012  3.092  0.000    22.454     6.743
  34   6 C     -0.029  1.027  3.002  0.000    21.052     6.525
  35   6 C     -0.153  0.976  3.178  0.000    23.487     6.905
  36   6 C     -0.164  0.980  3.184  0.000    23.713     6.939
  37   1 H      0.194  0.806  0.000  0.000     1.138     1.671
  38   1 H      0.083  0.917  0.000  0.000     1.950     2.184
  39   1 H      0.067  0.933  0.000  0.000     2.122     2.278
  40   1 H      0.066  0.934  0.000  0.000     2.125     2.280
  41   1 H      0.057  0.943  0.000  0.000     2.236     2.338
  42   1 H      0.051  0.949  0.000  0.000     2.304     2.373
  43   1 H      0.046  0.954  0.000  0.000     2.365     2.404
  44   1 H      0.058  0.942  0.000  0.000     2.222     2.331
  45   1 H      0.058  0.942  0.000  0.000     2.219     2.329
  46   1 H      0.060  0.940  0.000  0.000     2.199     2.319
  47   1 H      0.054  0.946  0.000  0.000     2.272     2.357
  48   7 N     -0.418  1.282  4.137  0.000    30.893     8.255
  49   6 C      0.031  1.036  2.933  0.000    20.073     6.382
  50   6 C      0.194  1.099  2.707  0.000    23.855     7.998
  51   8 O     -0.371  1.758  4.614  0.000    21.120     6.161
  52   6 C     -0.157  0.982  3.175  0.000    23.579     6.921
  53   1 H      0.191  0.809  0.000  0.000     1.150     1.680
  54   1 H      0.058  0.942  0.000  0.000     2.221     2.331
  55   1 H      0.070  0.930  0.000  0.000     2.088     2.260
  56   1 H      0.079  0.921  0.000  0.000     1.993     2.208
  57   1 H      0.075  0.925  0.000  0.000     2.028     2.227
  58   7 N     -0.416  1.279  4.137  0.000    30.816     8.244
  59   6 C      0.030  1.031  2.939  0.000    20.085     6.383
  60   6 C      0.191  1.100  2.709  0.000    23.921     8.010
  61   8 O     -0.395  1.767  4.628  0.000    21.572     6.227
  62   6 C     -0.094  1.011  3.083  0.000    22.269     6.715
  63   6 C     -0.023  1.020  3.003  0.000    20.938     6.507
  64   6 C     -0.156  0.977  3.178  0.000    23.537     6.912
  65   6 C     -0.152  0.973  3.179  0.000    23.458     6.900
  66   1 H      0.198  0.802  0.000  0.000     1.114     1.653
  67   1 H      0.072  0.928  0.000  0.000     2.058     2.243
  68   1 H      0.055  0.945  0.000  0.000     2.260     2.351
  69   1 H      0.057  0.943  0.000  0.000     2.237     2.339
  70   1 H      0.063  0.937  0.000  0.000     2.164     2.300
  71   1 H      0.062  0.938  0.000  0.000     2.175     2.306
  72   1 H      0.053  0.947  0.000  0.000     2.282     2.362
  73   1 H      0.050  0.950  0.000  0.000     2.315     2.379
  74   1 H      0.060  0.940  0.000  0.000     2.202     2.320
  75   1 H      0.047  0.953  0.000  0.000     2.358     2.401
  76   1 H      0.054  0.946  0.000  0.000     2.271     2.357
  77   7 N     -0.415  1.289  4.126  0.000    30.799     8.242
  78   6 C      0.027  1.032  2.941  0.000    20.131     6.389
  79   6 C      0.200  1.093  2.708  0.000    23.751     7.982
  80   8 O     -0.383  1.767  4.616  0.000    21.337     6.193
  81   6 C     -0.025  1.035  2.990  0.000    20.979     6.514
  82   6 C     -0.150  0.977  3.173  0.000    23.423     6.896
  83   6 C     -0.151  0.977  3.174  0.000    23.452     6.901
  84   1 H      0.197  0.803  0.000  0.000     1.119     1.657
  85   1 H      0.056  0.944  0.000  0.000     2.243     2.342
  86   1 H      0.053  0.947  0.000  0.000     2.276     2.359
  87   1 H      0.062  0.938  0.000  0.000     2.170     2.304
  88   1 H      0.055  0.945  0.000  0.000     2.261     2.351
  89   1 H      0.047  0.953  0.000  0.000     2.358     2.401
  90   1 H      0.064  0.936  0.000  0.000     2.153     2.294
  91   1 H      0.054  0.946  0.000  0.000     2.266     2.354
  92   1 H      0.059  0.941  0.000  0.000     2.207     2.323
  93   7 N     -0.406  1.273  4.133  0.000    30.538     8.207
  94   6 C     -0.026  0.996  3.030  0.000    21.104     6.552
  95   6 C      0.266  1.048  2.686  0.000    22.502     7.768
  96   8 O     -0.483  1.750  4.734  0.000    23.420     6.488
  97   1 H      0.179  0.821  0.000  0.000     1.218     1.729
  98   1 H      0.058  0.942  0.000  0.000     2.222     2.331
  99   1 H      0.066  0.934  0.000  0.000     2.126     2.280
 100   7 N     -0.188  1.208  3.980  0.000    25.078     7.438
 101   6 C      0.003  1.046  2.951  0.000    20.532     6.452
 102   6 C      0.274  1.044  2.682  0.000    22.361     7.743
 103   8 O     -0.480  1.737  4.743  0.000    23.346     6.478
 104   6 C      0.104  1.025  2.871  0.000    18.959     6.215
 105   8 O     -0.511  1.691  4.820  0.000    23.139     6.494
 106   6 C     -0.172  0.980  3.193  0.000    23.892     6.965
 107   1 H      0.218  0.782  0.000  0.000     1.020     1.582
 108   1 H      0.089  0.911  0.000  0.000     1.889     2.149
 109   1 H      0.050  0.950  0.000  0.000     2.321     2.382
 110   1 H      0.346  0.654  0.000  0.000     0.596     1.212
 111   1 H      0.082  0.918  0.000  0.000     1.959     2.189
 112   1 H      0.069  0.931  0.000  0.000     2.095     2.263
 113   1 H      0.079  0.921  0.000  0.000     1.986     2.204
 114   7 N     -0.184  1.205  3.979  0.000    24.977     7.423
 115   6 C      0.007  1.029  2.964  0.000    20.456     6.438
 116   6 C      0.269  1.039  2.692  0.000    22.461     7.761
 117   8 O     -0.505  1.747  4.757  0.000    23.890     6.553
 118   6 C     -0.169  0.982  3.187  0.000    23.809     6.952
 119   1 H      0.221  0.779  0.000  0.000     1.003     1.568
 120   1 H      0.104  0.896  0.000  0.000     1.750     2.069
 121   1 H      0.084  0.916  0.000  0.000     1.933     2.174
 122   1 H      0.084  0.916  0.000  0.000     1.940     2.178
 123   1 H      0.083  0.917  0.000  0.000     1.946     2.181
 124   7 N     -0.158  1.200  3.958  0.000    24.414     7.338
 125   6 C      0.001  1.037  2.962  0.000    20.558     6.455
 126   6 C      0.262  1.042  2.695  0.000    22.578     7.781
 127   8 O     -0.465  1.734  4.731  0.000    23.019     6.433
 128   6 C      0.061  0.991  2.947  0.000    19.728     6.357
 129   8 O     -0.496  1.679  4.817  0.000    22.801     6.446
 130   1 H      0.231  0.769  0.000  0.000     0.960     1.535
 131   1 H      0.096  0.904  0.000  0.000     1.820     2.109
 132   1 H      0.058  0.942  0.000  0.000     2.222     2.331
 133   1 H      0.066  0.934  0.000  0.000     2.132     2.283
 134   1 H      0.345  0.655  0.000  0.000     0.600     1.216
 135   7 N     -0.180  1.206  3.974  0.000    24.897     7.411
 136   6 C     -0.000  1.043  2.958  0.000    20.587     6.459
 137   6 C      0.271  1.038  2.691  0.000    22.419     7.754
 138   8 O     -0.497  1.749  4.748  0.000    23.715     6.529
 139   6 C     -0.035  1.037  2.998  0.000    21.155     6.541
 140   6 C     -0.154  0.976  3.178  0.000    23.510     6.909
 141   6 C     -0.163  0.979  3.184  0.000    23.683     6.934
 142   1 H      0.218  0.782  0.000  0.000     1.020     1.582
 143   1 H      0.090  0.910  0.000  0.000     1.879     2.144
 144   1 H      0.067  0.933  0.000  0.000     2.115     2.274
 145   1 H      0.078  0.922  0.000  0.000     1.994     2.208
 146   1 H      0.045  0.955  0.000  0.000     2.384     2.414
 147   1 H      0.062  0.938  0.000  0.000     2.173     2.305
 148   1 H      0.078  0.922  0.000  0.000     2.003     2.213
 149   1 H      0.072  0.928  0.000  0.000     2.066     2.248
 150   1 H      0.058  0.942  0.000  0.000     2.222     2.331
 151   7 N     -0.170  1.206  3.964  0.000    24.678     7.378
 152   6 C      0.009  1.040  2.950  0.000    20.417     6.433
 153   6 C      0.184  1.091  2.725  0.000    24.043     8.030
 154   8 O     -0.362  1.757  4.605  0.000    20.937     6.135
 155   6 C     -0.020  1.038  2.982  0.000    20.895     6.501
 156   6 C     -0.150  0.975  3.175  0.000    23.430     6.897
 157   6 C     -0.162  0.979  3.182  0.000    23.667     6.933
 158   1 H      0.229  0.771  0.000  0.000     0.969     1.542
 159   1 H      0.105  0.895  0.000  0.000     1.743     2.065
 160   1 H      0.052  0.948  0.000  0.000     2.295     2.369
 161   1 H      0.069  0.931  0.000  0.000     2.096     2.264
 162   1 H      0.062  0.938  0.000  0.000     2.180     2.309
 163   1 H      0.062  0.938  0.000  0.000     2.175     2.306
 164   1 H      0.053  0.947  0.000  0.000     2.288     2.365
 165   1 H      0.089  0.911  0.000  0.000     1.886     2.147
 166   1 H      0.060  0.940  0.000  0.000     2.193     2.316
 167   7 N     -0.398  1.269  4.129  0.000    30.311     8.177
 168   6 C      0.031  1.030  2.939  0.000    20.066     6.380
 169   6 C      0.187  1.094  2.719  0.000    23.999     8.023
 170   8 O     -0.373  1.764  4.609  0.000    21.150     6.166
 171   6 C     -0.088  1.008  3.079  0.000    22.138     6.693
 172   6 C     -0.032  1.022  3.009  0.000    21.142     6.546
 173  16 S     -0.213  1.921  4.246  0.046   150.131    20.622
 174   6 C     -0.089  0.995  3.094  0.000    22.254     6.726
 175   1 H      0.186  0.814  0.000  0.000     1.181     1.702
 176   1 H      0.076  0.924  0.000  0.000     2.022     2.224
 177   1 H      0.066  0.934  0.000  0.000     2.130     2.282
 178   1 H      0.062  0.938  0.000  0.000     2.173     2.305
 179   1 H      0.071  0.929  0.000  0.000     2.077     2.253
 180   1 H      0.070  0.930  0.000  0.000     2.086     2.259
 181   1 H      0.057  0.943  0.000  0.000     2.228     2.334
 182   1 H      0.069  0.931  0.000  0.000     2.093     2.262
 183   1 H      0.067  0.933  0.000  0.000     2.122     2.278
 184   7 N     -0.418  1.292  4.126  0.000    30.869     8.252
 185   6 C      0.017  1.041  2.942  0.000    20.303     6.417
 186   6 C      0.261  1.052  2.686  0.000    22.597     7.784
 187   8 O     -0.516  1.766  4.750  0.000    24.139     6.587
 188   6 C     -0.096  1.013  3.084  0.000    22.322     6.724
 189   6 C     -0.025  1.034  2.990  0.000    20.976     6.514
 190   6 C     -0.155  0.982  3.173  0.000    23.535     6.914
 191   6 C     -0.152  0.976  3.176  0.000    23.473     6.903
 192   1 H      0.179  0.821  0.000  0.000     1.219     1.730
 193   1 H      0.064  0.936  0.000  0.000     2.153     2.294
 194   1 H      0.046  0.954  0.000  0.000     2.374     2.409
 195   1 H      0.054  0.946  0.000  0.000     2.271     2.357
 196   1 H      0.041  0.959  0.000  0.000     2.434     2.439
 197   1 H      0.058  0.942  0.000  0.000     2.216     2.328
 198   1 H      0.050  0.950  0.000  0.000     2.316     2.380
 199   1 H      0.062  0.938  0.000  0.000     2.169     2.303
 200   1 H      0.056  0.944  0.000  0.000     2.246     2.343
 201   1 H      0.057  0.943  0.000  0.000     2.235     2.338
 202   1 H      0.045  0.955  0.000  0.000     2.387     2.416
 203   7 N     -0.181  1.209  3.972  0.000    24.921     7.414
 204   6 C      0.007  1.035  2.958  0.000    20.454     6.438
 205   6 C      0.257  1.043  2.700  0.000    22.669     7.797
 206   8 O     -0.477  1.737  4.740  0.000    23.274     6.468
 207   6 C     -0.151  0.978  3.172  0.000    23.438     6.898
 208   1 H      0.224  0.776  0.000  0.000     0.992     1.560
 209   1 H      0.090  0.910  0.000  0.000     1.874     2.141
 210   1 H      0.062  0.938  0.000  0.000     2.171     2.304
 211   1 H      0.071  0.929  0.000  0.000     2.078     2.254
 212   1 H      0.086  0.914  0.000  0.000     1.916     2.164
 213   7 N     -0.177  1.210  3.967  0.000    24.840     7.402
 214   6 C     -0.007  1.048  2.958  0.000    20.682     6.473
 215   6 C      0.268  1.041  2.690  0.000    22.468     7.762
 216   8 O     -0.493  1.735  4.758  0.000    23.633     6.518
 217   6 C     -0.035  1.033  3.002  0.000    21.153     6.541
 218   6 C     -0.154  0.976  3.178  0.000    23.499     6.906
 219   6 C     -0.167  0.979  3.189  0.000    23.779     6.948
 220   1 H      0.221  0.779  0.000  0.000     1.004     1.569
 221   1 H      0.098  0.902  0.000  0.000     1.800     2.098
 222   1 H      0.065  0.935  0.000  0.000     2.136     2.285
 223   1 H      0.073  0.927  0.000  0.000     2.052     2.240
 224   1 H      0.051  0.949  0.000  0.000     2.311     2.377
 225   1 H      0.061  0.939  0.000  0.000     2.187     2.312
 226   1 H      0.077  0.923  0.000  0.000     2.010     2.217
 227   1 H      0.074  0.926  0.000  0.000     2.045     2.236
 228   1 H      0.056  0.944  0.000  0.000     2.250     2.346
 229   7 N     -0.173  1.211  3.962  0.000    24.755     7.389
 230   6 C      0.009  1.035  2.956  0.000    20.421     6.433
 231   6 C      0.268  1.043  2.688  0.000    22.471     7.763
 232   8 O     -0.488  1.745  4.744  0.000    23.525     6.503
 233   6 C     -0.105  1.013  3.091  0.000    22.477     6.747
 234   6 C     -0.088  0.997  3.091  0.000    22.162     6.700
 235   6 C     -0.102  1.000  3.102  0.000    22.424     6.739
 236   6 C     -0.057  1.007  3.050  0.000    21.675     6.641
 237   7 N     -0.138  1.144  3.995  0.000    23.983     7.273
 238   1 H      0.240  0.760  0.000  0.000     0.922     1.504
 239   1 H      0.088  0.912  0.000  0.000     1.895     2.152
 240   1 H      0.084  0.916  0.000  0.000     1.936     2.175
 241   1 H      0.090  0.910  0.000  0.000     1.876     2.142
 242   1 H      0.054  0.946  0.000  0.000     2.266     2.354
 243   1 H      0.053  0.947  0.000  0.000     2.281     2.361
 244   1 H      0.076  0.924  0.000  0.000     2.019     2.222
 245   1 H      0.097  0.903  0.000  0.000     1.812     2.105
 246   1 H      0.124  0.876  0.000  0.000     1.577     1.964
 247   1 H      0.102  0.898  0.000  0.000     1.769     2.080
 248   1 H      0.283  0.717  0.000  0.000     0.765     1.370
 249   1 H      0.284  0.716  0.000  0.000     0.762     1.367
 250   1 H      0.300  0.700  0.000  0.000     0.713     1.322
 251   7 N     -0.177  1.210  3.967  0.000    24.831     7.401
 252   6 C      0.008  1.037  2.955  0.000    20.440     6.435
 253   6 C      0.264  1.047  2.689  0.000    22.546     7.777
 254   8 O     -0.515  1.759  4.756  0.000    24.123     6.585
 255   6 C     -0.016  1.026  2.990  0.000    20.823     6.489
 256   6 C     -0.150  0.974  3.176  0.000    23.421     6.895
 257   6 C     -0.150  0.976  3.174  0.000    23.417     6.895
 258   1 H      0.214  0.786  0.000  0.000     1.035     1.593
 259   1 H      0.103  0.897  0.000  0.000     1.761     2.075
 260   1 H      0.054  0.946  0.000  0.000     2.268     2.355
 261   1 H      0.074  0.926  0.000  0.000     2.038     2.232
 262   1 H      0.039  0.961  0.000  0.000     2.461     2.453
 263   1 H      0.055  0.945  0.000  0.000     2.256     2.348
 264   1 H      0.071  0.929  0.000  0.000     2.078     2.254
 265   1 H      0.061  0.939  0.000  0.000     2.181     2.309
 266   1 H      0.059  0.941  0.000  0.000     2.205     2.322
 267   7 N     -0.178  1.208  3.969  0.000    24.845     7.403
 268   6 C     -0.046  1.007  3.039  0.000    21.441     6.601
 269   6 C      0.272  1.039  2.688  0.000    22.395     7.749
 270   8 O     -0.491  1.749  4.742  0.000    23.580     6.511
 271   1 H      0.238  0.762  0.000  0.000     0.932     1.512
 272   1 H      0.113  0.887  0.000  0.000     1.672     2.022
 273   1 H      0.089  0.911  0.000  0.000     1.887     2.148
 274   7 N     -0.198  1.220  3.978  0.000    25.300     7.470
 275   6 C      0.029  1.034  2.937  0.000    20.085     6.380
 276   6 C      0.273  1.037  2.690  0.000    22.386     7.748
 277   8 O     -0.492  1.737  4.755  0.000    23.610     6.515
 278   6 C     -0.107  1.014  3.093  0.000    22.533     6.755
 279   6 C      0.371  1.020  2.609  0.000    20.703     7.446
 280   8 O     -0.655  1.775  4.881  0.000    27.516     7.033
 281   8 O     -0.641  1.770  4.871  0.000    27.148     6.986
 282   1 H      0.223  0.777  0.000  0.000     0.994     1.562
 283   1 H      0.088  0.912  0.000  0.000     1.896     2.153
 284   1 H      0.044  0.956  0.000  0.000     2.392     2.419
 285   1 H      0.051  0.949  0.000  0.000     2.308     2.376
 286   7 N     -0.186  1.206  3.980  0.000    25.031     7.431
 287   6 C      0.024  1.034  2.943  0.000    20.170     6.394
 288   6 C      0.262  1.045  2.692  0.000    22.577     7.781
 289   8 O     -0.487  1.743  4.744  0.000    23.489     6.498
 290   6 C     -0.130  1.026  3.104  0.000    22.983     6.823
 291   6 C      0.365  1.017  2.617  0.000    20.809     7.465
 292   8 O     -0.647  1.786  4.862  0.000    27.315     7.007
 293   8 O     -0.633  1.774  4.859  0.000    26.940     6.959
 294   1 H      0.216  0.784  0.000  0.000     1.028     1.588
 295   1 H      0.081  0.919  0.000  0.000     1.971     2.195
 296   1 H      0.071  0.929  0.000  0.000     2.073     2.252
 297   1 H      0.066  0.934  0.000  0.000     2.129     2.282
 298   7 N     -0.175  1.203  3.972  0.000    24.786     7.394
 299   6 C      0.009  1.036  2.954  0.000    20.415     6.432
 300   6 C      0.252  1.045  2.703  0.000    22.765     7.814
 301   8 O     -0.485  1.733  4.752  0.000    23.459     6.494
 302   6 C     -0.096  1.007  3.090  0.000    22.316     6.722
 303   6 C     -0.011  1.080  2.930  0.000    28.277     8.722
 304   6 C     -0.058  1.064  2.994  0.000    29.438     8.898
 305   6 C     -0.061  1.058  3.003  0.000    29.511     8.909
 306   6 C     -0.066  1.058  3.007  0.000    29.632     8.926
 307   6 C     -0.090  1.054  3.037  0.000    30.271     9.022
 308   6 C      0.135  1.054  2.811  0.000    25.040     8.201
 309   8 O     -0.459  1.684  4.775  0.000    22.018     6.335
 310   1 H      0.221  0.779  0.000  0.000     1.006     1.571
 311   1 H      0.092  0.908  0.000  0.000     1.855     2.130
 312   1 H      0.084  0.916  0.000  0.000     1.940     2.178
 313   1 H      0.082  0.918  0.000  0.000     1.954     2.186
 314   1 H      0.075  0.925  0.000  0.000     2.029     2.227
 315   1 H      0.080  0.920  0.000  0.000     1.981     2.201
 316   1 H      0.065  0.935  0.000  0.000     2.144     2.290
 317   1 H      0.065  0.935  0.000  0.000     2.140     2.287
 318   1 H      0.324  0.676  0.000  0.000     0.652     1.268
 319   7 N     -0.158  1.206  3.952  0.000    24.418     7.339
 320   6 C      0.007  1.039  2.954  0.000    20.458     6.439
 321   6 C      0.262  1.041  2.697  0.000    22.578     7.782
 322   8 O     -0.482  1.732  4.751  0.000    23.398     6.485
 323   6 C     -0.096  1.006  3.090  0.000    22.318     6.722
 324   6 C     -0.018  1.083  2.936  0.000    28.462     8.751
 325   6 C     -0.061  1.068  2.993  0.000    29.521     8.910
 326   6 C     -0.064  1.058  3.006  0.000    29.584     8.920
 327   6 C     -0.075  1.052  3.024  0.000    29.884     8.965
 328   6 C     -0.106  1.047  3.059  0.000    30.665     9.081
 329   6 C      0.127  1.049  2.824  0.000    25.217     8.231
 330   8 O     -0.446  1.686  4.760  0.000    21.753     6.296
 331   1 H      0.226  0.774  0.000  0.000     0.981     1.552
 332   1 H      0.091  0.909  0.000  0.000     1.870     2.138
 333   1 H      0.081  0.919  0.000  0.000     1.967     2.193
 334   1 H      0.080  0.920  0.000  0.000     1.977     2.198
 335   1 H      0.097  0.903  0.000  0.000     1.816     2.107
 336   1 H      0.071  0.929  0.000  0.000     2.079     2.255
 337   1 H      0.070  0.930  0.000  0.000     2.087     2.259
 338   1 H      0.081  0.919  0.000  0.000     1.964     2.191
 339   1 H      0.345  0.655  0.000  0.000     0.599     1.215
 340   7 N     -0.172  1.215  3.958  0.000    24.731     7.386
 341   6 C      0.011  1.040  2.949  0.000    20.393     6.429
 342   6 C      0.268  1.041  2.691  0.000    22.468     7.762
 343   8 O     -0.488  1.755  4.733  0.000    23.518     6.502
 344   6 C      0.071  0.992  2.937  0.000    19.582     6.335
 345   8 O     -0.472  1.659  4.813  0.000    22.303     6.375
 346   1 H      0.235  0.765  0.000  0.000     0.945     1.523
 347   1 H      0.089  0.911  0.000  0.000     1.884     2.146
 348   1 H      0.049  0.951  0.000  0.000     2.328     2.386
 349   1 H      0.060  0.940  0.000  0.000     2.203     2.321
 350   1 H      0.308  0.692  0.000  0.000     0.696     1.310
 351   7 N     -0.160  1.201  3.959  0.000    24.471     7.347
 352   6 C      0.014  1.035  2.951  0.000    20.346     6.422
 353   6 C      0.190  1.084  2.727  0.000    23.941     8.013
 354   8 O     -0.371  1.769  4.601  0.000    21.106     6.160
 355   6 C     -0.161  0.985  3.176  0.000    23.664     6.933
 356   1 H      0.221  0.779  0.000  0.000     1.004     1.570
 357   1 H      0.113  0.887  0.000  0.000     1.674     2.023
 358   1 H      0.098  0.902  0.000  0.000     1.801     2.099
 359   1 H      0.094  0.906  0.000  0.000     1.839     2.121
 360   1 H      0.081  0.919  0.000  0.000     1.970     2.195
 361   7 N     -0.415  1.294  4.121  0.000    30.794     8.242
 362   6 C      0.022  1.036  2.942  0.000    20.212     6.403
 363   6 C      0.197  1.089  2.714  0.000    23.801     7.990
 364   8 O     -0.377  1.761  4.617  0.000    21.237     6.179
 365   6 C     -0.037  1.042  2.995  0.000    21.201     6.548
 366   6 C     -0.096  1.011  3.085  0.000    22.324     6.726
 367   6 C     -0.154  0.976  3.178  0.000    23.511     6.909
 368   6 C     -0.160  0.985  3.174  0.000    23.647     6.933
 369   1 H      0.187  0.813  0.000  0.000     1.176     1.699
 370   1 H      0.064  0.936  0.000  0.000     2.156     2.296
 371   1 H      0.063  0.937  0.000  0.000     2.166     2.301
 372   1 H      0.043  0.957  0.000  0.000     2.409     2.427
 373   1 H      0.048  0.952  0.000  0.000     2.341     2.392
 374   1 H      0.075  0.925  0.000  0.000     2.035     2.230
 375   1 H      0.051  0.949  0.000  0.000     2.305     2.374
 376   1 H      0.062  0.938  0.000  0.000     2.174     2.306
 377   1 H      0.051  0.949  0.000  0.000     2.301     2.372
 378   1 H      0.063  0.937  0.000  0.000     2.164     2.300
 379   1 H      0.068  0.932  0.000  0.000     2.111     2.272
 380   7 N     -0.405  1.286  4.119  0.000    30.502     8.202
 381   6 C      0.020  1.043  2.937  0.000    20.251     6.410
 382   6 C      0.197  1.089  2.714  0.000    23.797     7.989
 383   8 O     -0.375  1.759  4.616  0.000    21.188     6.171
 384   6 C     -0.038  1.052  2.987  0.000    21.224     6.553
 385   6 C     -0.087  1.005  3.082  0.000    22.154     6.700
 386   6 C     -0.150  0.980  3.171  0.000    23.446     6.902
 387   6 C     -0.152  0.978  3.174  0.000    23.481     6.907
 388   1 H      0.189  0.811  0.000  0.000     1.165     1.690
 389   1 H      0.065  0.935  0.000  0.000     2.136     2.285
 390   1 H      0.056  0.944  0.000  0.000     2.244     2.342
 391   1 H      0.056  0.944  0.000  0.000     2.240     2.340
 392   1 H      0.055  0.945  0.000  0.000     2.257     2.349
 393   1 H      0.070  0.930  0.000  0.000     2.086     2.259
 394   1 H      0.035  0.965  0.000  0.000     2.511     2.478
 395   1 H      0.055  0.945  0.000  0.000     2.256     2.348
 396   1 H      0.062  0.938  0.000  0.000     2.176     2.307
 397   1 H      0.057  0.943  0.000  0.000     2.239     2.340
 398   1 H      0.059  0.941  0.000  0.000     2.214     2.327
 399   7 N     -0.411  1.286  4.125  0.000    30.680     8.226
 400   6 C      0.022  1.031  2.947  0.000    20.209     6.402
 401   6 C      0.269  1.048  2.684  0.000    22.466     7.762
 402   8 O     -0.474  1.748  4.726  0.000    23.227     6.462
 403   6 C     -0.101  1.014  3.087  0.000    22.409     6.737
 404   6 C     -0.024  1.031  2.994  0.000    20.973     6.513
 405   6 C     -0.150  0.977  3.174  0.000    23.439     6.899
 406   6 C     -0.149  0.973  3.175  0.000    23.401     6.892
 407   1 H      0.191  0.809  0.000  0.000     1.155     1.683
 408   1 H      0.053  0.947  0.000  0.000     2.281     2.361
 409   1 H      0.056  0.944  0.000  0.000     2.251     2.346
 410   1 H      0.051  0.949  0.000  0.000     2.307     2.375
 411   1 H      0.048  0.952  0.000  0.000     2.342     2.393
 412   1 H      0.053  0.947  0.000  0.000     2.277     2.359
 413   1 H      0.055  0.945  0.000  0.000     2.257     2.349
 414   1 H      0.057  0.943  0.000  0.000     2.229     2.334
 415   1 H      0.056  0.944  0.000  0.000     2.246     2.343
 416   1 H      0.054  0.946  0.000  0.000     2.274     2.358
 417   1 H      0.043  0.957  0.000  0.000     2.415     2.430
 418   7 N     -0.197  1.210  3.986  0.000    25.268     7.466
 419   6 C      0.020  1.038  2.942  0.000    20.244     6.406
 420   6 C      0.267  1.042  2.692  0.000    22.497     7.767
 421   8 O     -0.479  1.733  4.746  0.000    23.335     6.477
 422   6 C     -0.110  1.007  3.103  0.000    22.590     6.763
 423   6 C      0.289  1.030  2.681  0.000    22.109     7.699
 424   8 O     -0.482  1.741  4.742  0.000    23.396     6.485
 425   7 N     -0.313  1.198  4.115  0.000    28.058     7.867
 426   1 H      0.205  0.795  0.000  0.000     1.079     1.627
 427   1 H      0.098  0.902  0.000  0.000     1.798     2.097
 428   1 H      0.090  0.910  0.000  0.000     1.881     2.145
 429   1 H      0.069  0.931  0.000  0.000     2.095     2.263
 430   1 H      0.245  0.755  0.000  0.000     0.901     1.487
 431   1 H      0.218  0.782  0.000  0.000     1.018     1.580
 432   7 N     -0.174  1.210  3.965  0.000    24.775     7.393
 433   6 C      0.005  1.039  2.956  0.000    20.506     6.448
 434   6 C      0.268  1.044  2.689  0.000    22.479     7.764
 435   8 O     -0.512  1.761  4.751  0.000    24.048     6.575
 436   6 C     -0.121  1.013  3.108  0.000    22.805     6.796
 437   6 C     -0.125  1.010  3.115  0.000    22.889     6.809
 438   6 C     -0.122  1.009  3.113  0.000    22.815     6.798
 439   6 C     -0.083  1.008  3.075  0.000    22.159     6.714
 440   7 N     -0.106  1.126  3.980  0.000    23.315     7.172
 441   1 H      0.235  0.765  0.000  0.000     0.945     1.523
 442   1 H      0.096  0.904  0.000  0.000     1.821     2.110
 443   1 H      0.093  0.907  0.000  0.000     1.848     2.126
 444   1 H      0.089  0.911  0.000  0.000     1.886     2.148
 445   1 H      0.093  0.907  0.000  0.000     1.854     2.129
 446   1 H      0.073  0.927  0.000  0.000     2.049     2.238
 447   1 H      0.113  0.887  0.000  0.000     1.670     2.021
 448   1 H      0.093  0.907  0.000  0.000     1.847     2.125
 449   1 H      0.144  0.856  0.000  0.000     1.436     1.874
 450   1 H      0.134  0.866  0.000  0.000     1.507     1.919
 451   1 H      0.271  0.729  0.000  0.000     0.805     1.405
 452   1 H      0.257  0.743  0.000  0.000     0.858     1.451
 453   1 H      0.284  0.716  0.000  0.000     0.763     1.368
 454   7 N     -0.177  1.208  3.969  0.000    24.830     7.401
 455   6 C      0.011  1.036  2.952  0.000    20.388     6.429
 456   6 C      0.186  1.092  2.722  0.000    24.013     8.025
 457   8 O     -0.350  1.758  4.592  0.000    20.708     6.101
 458   6 C     -0.101  1.017  3.084  0.000    22.418     6.738
 459   6 C     -0.027  1.029  2.998  0.000    21.014     6.519
 460   6 C     -0.155  0.979  3.176  0.000    23.543     6.914
 461   6 C     -0.146  0.971  3.175  0.000    23.350     6.885
 462   1 H      0.244  0.756  0.000  0.000     0.906     1.491
 463   1 H      0.094  0.906  0.000  0.000     1.839     2.121
 464   1 H      0.079  0.921  0.000  0.000     1.988     2.205
 465   1 H      0.083  0.917  0.000  0.000     1.951     2.184
 466   1 H      0.047  0.953  0.000  0.000     2.357     2.401
 467   1 H      0.057  0.943  0.000  0.000     2.228     2.334
 468   1 H      0.059  0.941  0.000  0.000     2.209     2.324
 469   1 H      0.065  0.935  0.000  0.000     2.146     2.290
 470   1 H      0.044  0.956  0.000  0.000     2.394     2.419
 471   1 H      0.063  0.937  0.000  0.000     2.158     2.297
 472   1 H      0.041  0.959  0.000  0.000     2.429     2.437
 473   7 N     -0.413  1.273  4.139  0.000    30.733     8.233
 474   6 C      0.024  1.031  2.945  0.000    20.172     6.395
 475   6 C      0.269  1.047  2.684  0.000    22.458     7.761
 476   8 O     -0.517  1.753  4.763  0.000    24.159     6.590
 477   6 C     -0.057  0.996  3.061  0.000    21.577     6.610
 478   6 C     -0.103  1.006  3.097  0.000    22.441     6.742
 479   6 C      0.366  1.025  2.608  0.000    20.787     7.462
 480   8 O     -0.675  1.786  4.889  0.000    28.039     7.099
 481   8 O     -0.649  1.763  4.886  0.000    27.354     7.012
 482   1 H      0.178  0.822  0.000  0.000     1.224     1.733
 483   1 H      0.060  0.940  0.000  0.000     2.195     2.317
 484   1 H      0.041  0.959  0.000  0.000     2.432     2.438
 485   1 H      0.017  0.983  0.000  0.000     2.786     2.610
 486   1 H      0.039  0.961  0.000  0.000     2.466     2.456
 487   1 H      0.038  0.962  0.000  0.000     2.470     2.457
 488   7 N     -0.175  1.207  3.968  0.000    24.795     7.395
 489   6 C      0.002  1.040  2.958  0.000    20.539     6.452
 490   6 C      0.267  1.040  2.694  0.000    22.498     7.768
 491   8 O     -0.486  1.736  4.750  0.000    23.474     6.496
 492   6 C     -0.038  1.045  2.993  0.000    21.213     6.551
 493   6 C     -0.157  0.981  3.176  0.000    23.582     6.921
 494   6 C     -0.156  0.975  3.180  0.000    23.554     6.916
 495   1 H      0.225  0.775  0.000  0.000     0.987     1.556
 496   1 H      0.080  0.920  0.000  0.000     1.980     2.200
 497   1 H      0.070  0.930  0.000  0.000     2.081     2.256
 498   1 H      0.077  0.923  0.000  0.000     2.005     2.214
 499   1 H      0.057  0.943  0.000  0.000     2.234     2.337
 500   1 H      0.057  0.943  0.000  0.000     2.239     2.340
 501   1 H      0.078  0.922  0.000  0.000     2.000     2.211
 502   1 H      0.053  0.947  0.000  0.000     2.278     2.360
 503   1 H      0.061  0.939  0.000  0.000     2.185     2.312
 504   7 N     -0.178  1.202  3.975  0.000    24.843     7.403
 505   6 C      0.016  1.036  2.949  0.000    20.307     6.414
 506   6 C      0.193  1.090  2.717  0.000    23.881     8.004
 507   8 O     -0.370  1.766  4.605  0.000    21.099     6.158
 508   6 C     -0.020  1.033  2.987  0.000    20.895     6.500
 509   6 C     -0.155  0.976  3.179  0.000    23.526     6.911
 510   6 C     -0.163  0.978  3.185  0.000    23.687     6.935
 511   1 H      0.219  0.781  0.000  0.000     1.012     1.576
 512   1 H      0.106  0.894  0.000  0.000     1.731     2.057
 513   1 H      0.061  0.939  0.000  0.000     2.181     2.309
 514   1 H      0.064  0.936  0.000  0.000     2.153     2.295
 515   1 H      0.054  0.946  0.000  0.000     2.274     2.358
 516   1 H      0.066  0.934  0.000  0.000     2.132     2.283
 517   1 H      0.067  0.933  0.000  0.000     2.114     2.274
 518   1 H      0.061  0.939  0.000  0.000     2.188     2.313
 519   1 H      0.082  0.918  0.000  0.000     1.963     2.191
 520   1 H      0.190  0.810  0.000  0.000     1.161     1.687
 521   1 H      0.060  0.940  0.000  0.000     2.202     2.320
 522   1 H      0.177  0.823  0.000  0.000     1.233     1.739
 523   1 H      0.073  0.927  0.000  0.000     2.047     2.237
 524   1 H      0.171  0.829  0.000  0.000     1.267     1.763
 525   1 H      0.059  0.941  0.000  0.000     2.210     2.325
 526   1 H      0.172  0.828  0.000  0.000     1.257     1.756
 527   1 H      0.076  0.924  0.000  0.000     2.023     2.224
 528   1 H      0.177  0.823  0.000  0.000     1.233     1.739
 529   1 H      0.069  0.931  0.000  0.000     2.101     2.267
 530   1 H      0.184  0.816  0.000  0.000     1.191     1.709
 531   1 H      0.063  0.937  0.000  0.000     2.168     2.302
 532   1 H      0.184  0.816  0.000  0.000     1.189     1.708
 533   1 H      0.082  0.918  0.000  0.000     1.959     2.189
 534   1 H      0.177  0.823  0.000  0.000     1.232     1.739
 535   1 H      0.072  0.928  0.000  0.000     2.066     2.247
 536   1 H      0.177  0.823  0.000  0.000     1.232     1.738
 537   1 H      0.094  0.906  0.000  0.000     1.842     2.122
 538   1 H      0.187  0.813  0.000  0.000     1.174     1.697
 539   1 H      0.060  0.940  0.000  0.000     2.200     2.319
 540   1 H      0.177  0.823  0.000  0.000     1.233     1.739
 541   1 H      0.055  0.945  0.000  0.000     2.254     2.348
 542   1 H      0.176  0.824  0.000  0.000     1.239     1.743
 543   1 H      0.088  0.912  0.000  0.000     1.900     2.156
 544   1 H      0.184  0.816  0.000  0.000     1.190     1.709
 545   1 H      0.089  0.911  0.000  0.000     1.883     2.146

 Mol. C6AA /au·bohr⁶  :    2601495.204602
 Mol. C8AA /au·bohr⁸  :   57717460.368539
 Mol. α(0) /au        :       2408.229104

 
molecular dipole:
                 x           y           z       tot (Debye)
 q only:     -680.391    -234.298    -371.123
   full:     -680.567    -233.031    -372.123    2058.623
molecular quadrupole (traceless):
                xx          xy          yy          xz          yz          zz
 q only:  -182728.522 -119150.353  122606.027 -188998.757  -65500.334   60122.495
  q+dip:  -182807.852 -118532.350  123182.258 -189585.422  -65263.294   59625.594
   full:  -182811.913 -118533.930  123182.546 -189583.189  -65264.807   59629.367
speedup  1.00
cpu  time for grad   15.87 s
wall time for grad   15.87 s

SCC energy    :    -822.9097792
rep           :      17.7332824
ES            :       2.5960987
AES           :      -0.0323142
AXC           :       0.1372139
disp          :      -0.6884702
XB            :       0.0000000
fix           :       0.0000000
Gborn         :       0.0000000
Gsasa         :       0.0000000
Ghb           :       0.0000000
Gshift        :       0.0000000
Gsolv         :      -0.6127020     -384.48
Etot ala COSMO:    -822.9097792
grad norm     :       2.9160131
total E       :    -805.0960372
atomizationE  :     145.3286649    91195.11
(atE without considering molecular charge,
 total energy contains solvation terms)
H-L gap (eV)  :          1.3041

------------------------------------------------------------------------
 * finished run on 2019/03/07 at 11:38:03.279     
------------------------------------------------------------------------
 total:
 * wall-time:     0 d,  0 h,  0 min, 16.992 sec
 *  cpu-time:     0 d,  0 h,  0 min, 16.794 sec
 * ratio c/w:     0.988 speedup
 SCF:
 * wall-time:     0 d,  0 h,  0 min, 16.533 sec
 *  cpu-time:     0 d,  0 h,  0 min, 16.532 sec
 * ratio c/w:     1.000 speedup

