      -----------------------------------------------------------      
     |                   =====================                   |     
     |                           x T B                           |     
     |                   =====================                   |     
     |                         S. Grimme                         |     
     |          Mulliken Center for Theoretical Chemistry        |     
     |                    University of Bonn                     |     
     |                 Version 6.0.1 (SAW181210)                 |     
      -----------------------------------------------------------      

   This program is distributed in the hope that it will be useful,
   but WITHOUT ANY WARRANTY; without even the implied warranty of
   MERCHANTABILITY or FITNESS FOR A PARTICULAR PURPOSE.
   
   FOR NON-COMMERCIAL, ACADEMIA USE ONLY.
   
   Cite this work as:
   S. Grimme, C. Bannwarth, P. Shushkov, J. Comput. Theory Chem., 2017,
   13, 1989-2009.
   C. Bannwarth, S. Ehlert and S. Grimme., ChemRxiv, 2018, preprint.
   http://doi.org/10.26434/chemrxiv.7246238.v1
   
   for sTDA-xTB:
   S. Grimme and C. Bannwarth, J. Chem. Phys., 2016, 145, 054103.
   
   in the mass-spec context:
   V. Asgeirsson, C. Bauer and S. Grimme, Chem. Sci., 2017, 8, 4879.
   
   if GBSA is used:
   P. Shushkov, F. März and S. Grimme, unpublished.
   
   for ANC optimizer:
   S. Grimme, unpublished.
   Rational Function algorithm used in ANCopt:
   F. Eckert, P. Pulay, H.-J. Werner, J. Comput. Chem., 1997, 18, 1473.
   
   with help from (in alphabetical order)
   C. Bannwarth, F. Bohle, G. Brandenburg, E. Caldeweyher, M. Checinski,
   S. Dohm, S. Ehlert, S. Ehrlich, F. März, H. Neugebauer, J. Pisarek,
   P. Pracht, P. Shushkov, and S. Spicher.
   
 * started run on 2019/02/13 at 00:19:01.940     
========================================================================
 # omp threads = 16
========================================================================
number of atoms            : 47
number of electrons        : 130
charge                     : -1
spin                       : .0
first test random number   : .9536

########################################################################
# WARNING! Please study the warnings concerning your input carefully
#  - Process number higher than OMP_NUM_THREADS, I hope you know what you are doing.
########################################################################

           ------------------------------------------------- 
          |                 G F N 2 - x T B                 |
          | Geometry, Frequencies, Noncovalent interactions |
          |            JCTC 2018 parametrisation            |
           ------------------------------------------------- 
 
      method parameters     
 k(s)        :  1.8500
 k(p)        :  2.2300
 k(d)        :  2.2300
 k(f)        :  2.0000
 kEN (H0ij)  : -2.0000
 D4 a1       :  0.5200
 D4 a2       :  5.0000
 D4 s6       :  1.0000
 D4 s8       :  2.7000
 D4 s9       :  5.0000
 alphaj      :  2.0000

 Solvent             : h2o
 Using internal parameter file: .param_gbsa2_h2o
 Gsolv ref. state (COSMO-RS): gsolv [1 M gas/solution]
 temperature (mdtemp)       :    298.150000000000     
 dielectric constant        :    80.2000000000000     
 rho                        :    1.00000000000000     
 mass                       :    18.0000000000000     
 surface tension            :    15.5689454083859     
 probe radius               :   0.975313790000000     
 vdW radii scaling          :    1.00000000000000     
 Gshift (Eh)                :   1.857443126794793E-003
 c1                         :    1.55243817000000     
 soset                      :   0.130326360000000     
 HB correction              :  T

            Z     q(EN)     CN     RAES       Cart. coordinates
     1  N   5.0   -0.16    3.44    2.04   310.37631   104.81707   224.03202
     2  C   4.0    0.02    4.49    4.52   312.12799   103.29589   222.56215
     3  C   4.0    0.14    3.41    3.08   311.69746   103.46812   219.72378
     4  O   6.0   -0.33    1.22    1.80   313.46872   103.57515   218.23041
     5  C   4.0   -0.06    4.35    4.29   311.72506   100.59422   223.52346
     6  C   4.0   -0.06    4.26    4.12   309.02980   100.62089   224.54444
     7  C   4.0   -0.02    4.28    4.15   308.78180   103.27007   225.65029
     8  H   1.0    0.03    1.05    1.44   314.06938   103.92708   222.90303
     9  H   1.0    0.03    1.02    1.43   312.01837    99.21211   222.03017
    10  H   1.0    0.01    1.03    1.43   313.07769   100.24270   225.03593
    11  H   1.0    0.04    1.02    1.43   307.66992   100.37075   223.01701
    12  H   1.0    0.01    1.02    1.43   308.72302    99.17308   225.96727
    13  H   1.0    0.03    1.02    1.43   306.82866   103.92971   225.61342
    14  H   1.0    0.01    1.02    1.43   309.49087   103.33064   227.59500
    15  N   5.0   -0.14    3.53    2.10   309.29124   103.22632   218.99694
    16  C   4.0    0.03    4.43    4.44   308.60183   103.32609   216.36234
    17  C   4.0    0.16    3.43    3.09   308.83244   106.02742   215.34773
    18  O   6.0   -0.30    1.23    1.80   308.50630   107.89649   216.66396
    19  C   4.0   -0.05    4.26    4.13   305.88423   102.40335   216.02464
    20  C   4.0    0.25    3.14    3.03   304.02140   104.09075   217.58615
    21  O   6.0   -0.33    1.21    1.80   304.22976   103.97418   219.93222
    22  O   6.0   -0.32    1.16    1.80   302.47005   105.36592   216.36147
    23  H   1.0    0.11    1.11    1.44   307.84142   103.57840   220.21627
    24  H   1.0    0.04    1.05    1.44   309.92895   102.11312   215.32021
    25  H   1.0    0.04    1.02    1.43   305.33713   102.48010   214.03981
    26  H   1.0    0.03    1.02    1.43   305.72840   100.46819   216.72113
    27  N   5.0   -0.14    3.50    2.08   309.42146   106.14837   212.88869
    28  C   4.0    0.03    4.30    4.19   309.63385   108.47574   211.46164
    29  C   4.0    0.05    3.23    3.04   309.65538   107.71433   208.67744
    30  O   6.0   -0.33    1.16    1.80   310.21685   105.56654   208.03016
    31  C   4.0   -0.05    4.34    4.28   312.08097   109.86866   212.21367
    32  C   4.0   -0.03    4.16    3.91   312.38295   112.57152   211.22258
    33  C   4.0   -0.09    4.10    3.81   310.22620   114.28061   212.09870
    34  C   4.0   -0.10    4.11    3.83   314.89782   113.62103   212.18756
    35  H   1.0    0.09    1.09    1.44   309.74968   104.57618   211.84754
    36  H   1.0    0.04    1.05    1.44   307.98749   109.65320   211.89202
    37  H   1.0    0.05    1.04    1.43   312.09635   109.91719   214.27757
    38  H   1.0    0.04    1.03    1.43   313.68147   108.72480   211.59287
    39  H   1.0    0.02    1.05    1.44   312.46567   112.53872   209.15496
    40  H   1.0    0.01    1.00    1.43   310.64642   116.23390   211.62930
    41  H   1.0    0.02    1.00    1.43   308.43123   113.78052   211.22987
    42  H   1.0    0.03    1.00    1.43   310.00371   114.13588   214.13767
    43  H   1.0    0.01    1.00    1.43   315.17721   115.54908   211.54059
    44  H   1.0    0.02    1.00    1.43   314.93933   113.63307   214.24336
    45  H   1.0    0.02    1.00    1.43   316.46380   112.48226   211.50319
    46  H   1.0    0.07    1.12    1.45   311.24439   105.96034   224.94414
    47  H   1.0    0.03    1.04    1.44   309.20564   108.98003   207.34824

  Z AO/shell   Hii/eV     exponent
  1     Wed Apr 25 08:07:45 CEST 2018   EN: 2.200 GM2: 0.406  GM3: 0.0800  RAES: 1.40
     1s    -10.707211    1.230000
  6     Wed Apr 25 08:07:45 CEST 2018   EN: 2.550 GM2: 0.538  GM3: 0.1500  RAES: 3.00
     2s    -13.970922    2.096432
     2p    -10.063292    1.800000
  7     Wed Apr 25 08:07:45 CEST 2018   EN: 3.040 GM2: 0.461  GM3:-0.0640  RAES: 1.90
     2s    -16.686243    2.339881
     2p    -12.523956    2.014332
  8     Wed Apr 25 08:07:45 CEST 2018   EN: 3.440 GM2: 0.452  GM3:-0.0517  RAES: 1.80
     2s    -20.229985    2.439742
     2p    -15.503117    2.137023
 no old-style atom pair restraining (fixing) potential
           ------------------------------------------------- 
          |        Self-Consistent Charge Iterations        |
           ------------------------------------------------- 

 Ncao       : 116
 Nao        : 116
 Nshell     : 70
 Nel        : 130
 T(el)      :   500.0
 intcut     :    35.0
 scfconv/Eh :  0.100E-06
   qconv/e  :  0.100E-04
 intneglect :  0.100E-08
 broydamp   :      0.400
 iter      E             dE          RMSdq      gap      omega  full diag
   1    -74.4361684 -0.744362E+02  0.485E+00    3.76       0.0  T
   2    -74.6588461 -0.222678E+00  0.219E+00    1.75       1.0  T
   3    -74.6723591 -0.135130E-01  0.130E+00    1.81       1.0  T
   4    -74.6826821 -0.103230E-01  0.236E-01    1.21       1.0  T
   5    -74.6833489 -0.666863E-03  0.118E-01    1.37       1.0  T
   6    -74.6833984 -0.495167E-04  0.438E-02    1.37       1.0  T
   7    -74.6834208 -0.223549E-04  0.157E-02    1.38       1.0  T
   8    -74.6834221 -0.129121E-05  0.636E-03    1.37       2.3  T
   9    -74.6834225 -0.385362E-06  0.247E-03    1.37       5.9  T
  10    -74.6834225 -0.248983E-07  0.748E-04    1.37      19.5  T
  11    -74.6834225 -0.504708E-08  0.277E-04    1.37      52.7  T
  12    -74.6834225 -0.397335E-09  0.108E-04    1.37     135.2  T
  13    -74.6834225 -0.639062E-10  0.433E-05    1.37     336.9  T
  14    -74.6834225 -0.141824E-10  0.151E-05    1.37     964.1  T
speedup 15.56
cpu  time for SCC    0.89 s
wall time for SCC    0.06 s

   *** convergence criteria satisfied after 14 iterations ***

          eigenvalues
 #    :          53         54         55         56         57         58         59         60
 occ. :        2.000      2.000      2.000      2.000      2.000      2.000      2.000      2.000
 eps  :       -12.046    -11.898    -11.822    -11.774    -11.592    -11.506    -11.144    -10.938
 #    :          61         62         63         64         65         66         67         68
 occ. :        2.000      2.000      2.000      2.000      2.000      0.000      0.000      0.000
 eps  :       -10.751    -10.589    -10.342     -9.793     -9.443     -8.071     -5.924     -5.761
 #    :          69         70         71         72         73         74         75         76
 occ. :        0.000      0.000      0.000      0.000      0.000      0.000      0.000      0.000
 eps  :        -4.649     -0.506      0.601      0.802      1.492      1.852      1.887      2.259


   #   Z            q   n(s)   n(p)   n(d)      C6AA      α(0)
   1   7 N     -0.310  1.306  4.003  0.000    27.962     7.854
   2   6 C      0.029  1.062  2.909  0.000    20.070     6.376
   3   6 C      0.274  1.047  2.679  0.000    22.365     7.744
   4   8 O     -0.523  1.749  4.774  0.000    24.306     6.610
   5   6 C     -0.061  1.055  3.006  0.000    21.642     6.619
   6   6 C     -0.064  1.051  3.013  0.000    21.706     6.629
   7   6 C      0.016  1.046  2.938  0.000    20.339     6.428
   8   1 H      0.032  0.968  0.000  0.000     2.564     2.504
   9   1 H      0.035  0.965  0.000  0.000     2.510     2.478
  10   1 H      0.057  0.943  0.000  0.000     2.240     2.340
  11   1 H      0.037  0.963  0.000  0.000     2.483     2.464
  12   1 H      0.055  0.945  0.000  0.000     2.258     2.350
  13   1 H      0.034  0.966  0.000  0.000     2.532     2.488
  14   1 H      0.026  0.974  0.000  0.000     2.637     2.539
  15   7 N     -0.181  1.254  3.927  0.000    24.917     7.414
  16   6 C      0.038  1.058  2.904  0.000    19.939     6.358
  17   6 C      0.282  1.043  2.675  0.000    22.225     7.720
  18   8 O     -0.499  1.751  4.748  0.000    23.772     6.537
  19   6 C     -0.101  1.071  3.031  0.000    22.434     6.743
  20   6 C      0.376  1.022  2.603  0.000    20.638     7.434
  21   8 O     -0.622  1.766  4.856  0.000    26.665     6.923
  22   8 O     -0.640  1.773  4.867  0.000    27.122     6.982
  23   1 H      0.224  0.776  0.000  0.000     0.990     1.559
  24   1 H      0.048  0.952  0.000  0.000     2.346     2.395
  25   1 H      0.030  0.970  0.000  0.000     2.589     2.516
  26   1 H      0.042  0.958  0.000  0.000     2.424     2.435
  27   7 N     -0.184  1.242  3.942  0.000    24.994     7.425
  28   6 C      0.032  1.059  2.909  0.000    20.050     6.378
  29   6 C      0.199  1.085  2.715  0.000    23.757     7.983
  30   8 O     -0.361  1.753  4.608  0.000    20.912     6.131
  31   6 C     -0.063  1.059  3.004  0.000    21.702     6.631
  32   6 C     -0.013  1.058  2.955  0.000    20.766     6.482
  33   6 C     -0.117  1.040  3.076  0.000    22.791     6.807
  34   6 C     -0.117  1.043  3.075  0.000    22.799     6.807
  35   1 H      0.211  0.789  0.000  0.000     1.052     1.607
  36   1 H      0.082  0.918  0.000  0.000     1.961     2.190
  37   1 H      0.061  0.939  0.000  0.000     2.185     2.311
  38   1 H      0.053  0.947  0.000  0.000     2.284     2.364
  39   1 H      0.043  0.957  0.000  0.000     2.414     2.430
  40   1 H      0.058  0.942  0.000  0.000     2.224     2.332
  41   1 H      0.033  0.967  0.000  0.000     2.546     2.495
  42   1 H      0.039  0.961  0.000  0.000     2.462     2.454
  43   1 H      0.056  0.944  0.000  0.000     2.242     2.341
  44   1 H      0.040  0.960  0.000  0.000     2.442     2.444
  45   1 H      0.043  0.957  0.000  0.000     2.404     2.425
  46   1 H      0.177  0.823  0.000  0.000     1.232     1.738
  47   1 H      0.093  0.907  0.000  0.000     1.850     2.127

 Mol. C6AA /au·bohr⁶  :      20923.705906
 Mol. C8AA /au·bohr⁸  :     460687.860227
 Mol. α(0) /au        :        214.341984

 
molecular dipole:
                 x           y           z       tot (Debye)
 q only:     -304.804    -104.575    -218.160
   full:     -304.831    -104.868    -218.017     989.184
molecular quadrupole (traceless):
                xx          xy          yy          xz          yz          zz
 q only:   -63669.502  -47799.623   59329.450  -99744.144  -34241.844    4340.052
  q+dip:   -63688.292  -47940.831   59242.540  -99681.495  -34313.446    4445.753
   full:   -63687.141  -47939.517   59243.350  -99681.744  -34313.576    4443.791
speedup 15.58
cpu  time for grad    0.98 s
wall time for grad    0.06 s

SCC energy    :     -74.6832690
rep           :       0.8589069
ES            :       0.3513957
AES           :      -0.0003292
AXC           :       0.0214940
disp          :      -0.0462727
XB            :       0.0000000
fix           :       0.0000000
Gborn         :       0.0000000
Gsasa         :       0.0000000
Ghb           :       0.0000000
Gshift        :       0.0000000
Gsolv         :      -0.1250593      -78.48
Etot ala COSMO:     -74.6832690
grad norm     :       0.2178218
total E       :     -73.8237158
atomizationE  :      13.6159443     8544.13
(atE without considering molecular charge,
 total energy contains solvation terms)
H-L gap (eV)  :          1.3729

------------------------------------------------------------------------
 * finished run on 2019/02/13 at 00:19:02.068     
------------------------------------------------------------------------
 total:
 * wall-time:     0 d,  0 h,  0 min,  0.127 sec
 *  cpu-time:     0 d,  0 h,  0 min,  1.821 sec
 * ratio c/w:    14.374 speedup
 SCF:
 * wall-time:     0 d,  0 h,  0 min,  0.070 sec
 *  cpu-time:     0 d,  0 h,  0 min,  1.089 sec
 * ratio c/w:    15.623 speedup

