      -----------------------------------------------------------      
     |                   =====================                   |     
     |                           x T B                           |     
     |                   =====================                   |     
     |                         S. Grimme                         |     
     |          Mulliken Center for Theoretical Chemistry        |     
     |                    University of Bonn                     |     
     |                Version 6.1 RC1 (SAW190329)                |     
      -----------------------------------------------------------      

   This program is distributed in the hope that it will be useful,
   but WITHOUT ANY WARRANTY; without even the implied warranty of
   MERCHANTABILITY or FITNESS FOR A PARTICULAR PURPOSE.
   
   FOR NON-COMMERCIAL, ACADEMIA USE ONLY.
   
   Cite this work as:
   S. Grimme, C. Bannwarth, P. Shushkov, J. Comput. Theory Chem., 2017,
   13, 1989-2009. DOI: 10.1021/acs.jctc.7b00118
   C. Bannwarth, S. Ehlert and S. Grimme., J. Comput. Theory Chem., 2019,
   just accepted. DOI: 10.1021/acs.jctc.8b01176
   
   for sTDA-xTB:
   S. Grimme and C. Bannwarth, J. Chem. Phys., 2016, 145, 054103.
   DOI: 10.1063/1.4959605
   
   in the mass-spec context:
   V. Asgeirsson, C. Bauer and S. Grimme, Chem. Sci., 2017, 8, 4879.
   DOI: 10.1039/c7sc00601b
   
   for metadynamics refer to:
   S. Grimme, ChemRxiv, Preprint. DOI: 10.26434/chemrxiv.7660532.v1
   
   with help from (in alphabetical order)
   C. Bannwarth, F. Bohle, G. Brandenburg, E. Caldeweyher, M. Checinski,
   S. Dohm, S. Ehlert, S. Ehrlich, F. März, H. Neugebauer, J. Pisarek,
   P. Pracht, P. Shushkov, and S. Spicher.
   
 * started run on 2019/05/31 at 05:35:09.816     

           -------------------------------------------------
          |                Calculation Setup                |
           -------------------------------------------------

          program call               : /home/lum/install/xtb/xtb-190329/bin/xtb xtb_tmp.xyz --chrg -2 --grad --gfn 2 --etemp 500 --acc 0.1 --gbsa h2o --parallel 2
          hostname                   : cpu02
          coordinate file            : xtb_tmp.xyz
          omp threads                :                     2
          number of atoms            :                   449
          number of electrons        :                  1184
          charge                     :                    -2
          spin                       :                   0.0
          first test random number   :      0.98751091814527


molecular fragmentation (1/2 indicates fragments):
111111122222222222222222222222222222222222222222222222222222222222222222
222222222222222222222222222222222222222222222222222222222222222222222222
222222222222222222222222222222222222222222222222222222222222222222222222
222222222222222222222222222222222222222222222222222222222222222222222222
222222222222222222222222222222222222222222222222222222222222222222222222
222222222222222222222222222222222222222222222222222222222222222221122222
22222222222222222
# atoms in fragment 1/2:     9   440
 fragment masses (1/2) :       59.07     2889.50
CMA distance (Bohr)    :  13.074
constraining FC (au)   :  0.0500

########################################################################
# WARNING! Please study the warnings concerning your input carefully
#  - XTBPATH is not set, using XTBHOME instead
#  - Process number higher than OMP_NUM_THREADS, I hope you know what you are doing.
########################################################################

           ------------------------------------------------- 
          |                 G F N 2 - x T B                 |
          | Geometry, Frequencies, Noncovalent interactions |
          |            JCTC 2018 parametrisation            |
           ------------------------------------------------- 
 
             k(s)              :                1.8500
             k(p)              :                2.2300
             k(d)              :                2.2300
             k(f)              :                2.0000
             kEN (H0ij)        :               -2.0000
             D4 a1             :                0.5200
             D4 a2             :                5.0000
             D4 s6             :                1.0000
             D4 s8             :                2.7000
             D4 s9             :                5.0000
             alphaj            :                2.0000

  Z AO/shell   Hii/eV     exponent
  1     Wed Apr 25 08:07:45 CEST 2018   EN: 2.200 GM2: 0.406  GM3: 0.0800  RAES: 1.40
     1s    -10.707211    1.230000
  6     Wed Apr 25 08:07:45 CEST 2018   EN: 2.550 GM2: 0.538  GM3: 0.1500  RAES: 3.00
     2s    -13.970922    2.096432
     2p    -10.063292    1.800000
  7     Wed Apr 25 08:07:45 CEST 2018   EN: 3.040 GM2: 0.461  GM3:-0.0640  RAES: 1.90
     2s    -16.686243    2.339881
     2p    -12.523956    2.014332
  8     Wed Apr 25 08:07:45 CEST 2018   EN: 3.440 GM2: 0.452  GM3:-0.0517  RAES: 1.80
     2s    -20.229985    2.439742
     2p    -15.503117    2.137023

 Solvent             : h2o
 Using internal parameter file: .param_gbsa2_h2o
 Gsolv ref. state (COSMO-RS): gsolv [1 M gas/solution]
 temperature (mdtemp)       :    298.150000000000     
 dielectric constant        :    80.2000000000000     
 rho                        :    1.00000000000000     
 mass                       :    18.0000000000000     
 surface tension            :    15.5689454083859     
 probe radius               :   0.975313790000000     
 vdW radii scaling          :    1.00000000000000     
 Gshift (Eh)                :   1.857443126794793E-003
 c1                         :    1.55243817000000     
 soset                      :   0.130326360000000     
 HB correction              :  T
 Number of grid points      :          230

            Z     q(EN)     CN     RAES       Cart. coordinates
     1  N   5.0   -0.73    3.00    1.92   258.89102   123.56117   242.38416
     2  C   4.0   -0.01    3.98    3.58   258.76619   122.15656   240.04635
     3  C   4.0    0.06    3.00    3.02   258.32990   123.89918   237.78015
     4  O   6.0   -0.48    1.00    1.80   259.73006   123.85957   235.93034
     5  H   1.0    0.24    1.00    1.43   257.80844   122.96650   243.85249
     6  H   1.0    0.10    0.99    1.43   260.52887   121.12284   239.71518
     7  H   1.0    0.10    0.99    1.43   257.18359   120.84601   240.18753
     8  N   5.0   -0.70    3.00    1.93   264.15451   127.51818   236.73988
     9  C   4.0    0.07    3.99    3.60   266.07631   125.98605   235.53447
    10  C   4.0    0.29    3.02    3.02   265.56350   126.04722   232.70191
    11  O   6.0   -0.49    1.00    1.80   267.20555   126.67416   231.17374
    12  C   4.0   -0.08    3.98    3.59   266.07128   123.25853   236.53579
    13  C   4.0   -0.17    3.98    3.59   267.13334   123.21279   239.22928
    14  C   4.0   -0.23    3.98    3.59   267.61668   121.56246   234.78139
    15  C   4.0   -0.25    3.98    3.58   266.75381   120.69791   240.57979
    16  H   1.0    0.26    1.00    1.43   263.22589   126.80278   238.25592
    17  H   1.0    0.10    0.99    1.43   267.94408   126.84006   235.85525
    18  H   1.0    0.13    0.99    1.43   264.10586   122.61543   236.56236
    19  H   1.0    0.09    0.99    1.43   269.14465   123.64893   239.15694
    20  H   1.0    0.10    0.99    1.43   266.21837   124.68891   240.33983
    21  H   1.0    0.09    0.99    1.43   267.66536   119.64987   235.51989
    22  H   1.0    0.11    0.99    1.43   266.79670   121.50607   232.89857
    23  H   1.0    0.10    0.99    1.43   269.54216   122.26065   234.62119
    24  H   1.0    0.09    0.99    1.43   267.42171   120.86026   242.51551
    25  H   1.0    0.09    0.99    1.43   264.75920   120.20318   240.63175
    26  H   1.0    0.09    0.99    1.43   267.78805   119.18263   239.66142
    27  N   5.0   -0.49    3.01    1.93   263.26393   125.30910   232.02169
    28  C   4.0    0.06    3.99    3.60   262.49701   125.30507   229.39227
    29  C   4.0    0.09    3.00    3.02   263.14997   127.85186   228.19452
    30  O   6.0   -0.42    1.00    1.80   264.60112   127.97575   226.38984
    31  C   4.0   -0.22    3.98    3.59   259.69744   124.73058   229.13390
    32  H   1.0    0.29    1.00    1.43   261.93826   124.91893   233.35135
    33  H   1.0    0.12    0.99    1.43   263.62707   123.88452   228.37676
    34  H   1.0    0.11    0.99    1.43   259.09575   125.05134   227.19478
    35  H   1.0    0.10    0.99    1.43   259.31431   122.78170   229.65158
    36  H   1.0    0.12    0.99    1.43   258.62052   125.97289   230.36212
    37  N   5.0   -0.70    3.00    1.93   270.11483   129.23111   227.31909
    38  C   4.0    0.09    3.98    3.58   271.17814   127.50357   225.48885
    39  C   4.0    0.07    3.00    3.02   270.43859   128.35354   222.83255
    40  O   6.0   -0.43    1.00    1.80   271.98487   128.43276   221.11130
    41  C   4.0    0.05    3.98    3.58   270.28118   124.77407   226.02158
    42  O   6.0   -0.52    1.99    1.83   270.94605   124.01127   228.47591
    43  C   4.0   -0.20    3.98    3.59   271.50484   122.93140   224.17623
    44  H   1.0    0.33    1.00    1.43   268.79732   128.56476   228.53466
    45  H   1.0    0.12    0.99    1.43   273.24773   127.57702   225.61687
    46  H   1.0    0.13    0.99    1.43   268.21107   124.75097   225.79824
    47  H   1.0    0.30    0.99    1.43   269.90510   124.90468   229.68845
    48  H   1.0    0.10    0.99    1.43   270.77875   121.04539   224.52710
    49  H   1.0    0.11    0.99    1.43   271.10695   123.47705   222.24075
    50  H   1.0    0.12    0.99    1.43   273.53395   122.91567   224.48441
    51  N   5.0   -0.69    3.00    1.93   282.06765   121.72708   242.76758
    52  C   4.0    0.07    3.98    3.59   281.65434   119.63224   241.04549
    53  C   4.0    0.06    3.00    3.02   282.02704   120.57511   238.33318
    54  O   6.0   -0.44    1.00    1.80   280.82191   122.36505   237.48731
    55  C   4.0   -0.09    3.98    3.59   278.97836   118.56969   241.41507
    56  C   4.0   -0.24    3.98    3.59   278.39447   116.60115   239.38607
    57  C   4.0   -0.24    3.98    3.59   278.70752   117.41539   244.04593
    58  H   1.0    0.25    1.00    1.43   280.51859   122.42194   243.65527
    59  H   1.0    0.09    0.99    1.43   283.05937   118.17101   241.47506
    60  H   1.0    0.12    0.99    1.43   277.65449   120.14792   241.23520
    61  H   1.0    0.09    0.99    1.43   276.49779   115.86419   239.65857
    62  H   1.0    0.10    0.99    1.43   278.49499   117.42215   237.50390
    63  H   1.0    0.10    0.99    1.43   279.71490   115.02987   239.49579
    64  H   1.0    0.09    0.99    1.43   276.78448   116.74540   244.31222
    65  H   1.0    0.09    0.99    1.43   279.98287   115.81919   244.27163
    66  H   1.0    0.09    0.99    1.43   279.10845   118.79264   245.51781
    67  N   5.0   -0.72    3.00    1.93   280.79766   120.41408   232.17477
    68  C   4.0    0.07    3.98    3.59   278.51958   119.64683   230.87002
    69  C   4.0    0.07    3.00    3.02   278.92568   118.67770   228.17487
    70  O   6.0   -0.43    1.00    1.80   277.35490   117.28628   227.21161
    71  C   4.0   -0.08    3.98    3.58   276.57313   121.82185   230.86790
    72  C   4.0   -0.23    3.98    3.59   275.58408   122.30567   233.53623
    73  C   4.0   -0.21    3.98    3.59   277.67418   124.23682   229.73884
    74  H   1.0    0.28    1.00    1.43   280.65309   122.00374   233.23007
    75  H   1.0    0.10    0.99    1.43   277.68360   118.02841   231.87421
    76  H   1.0    0.13    0.99    1.43   274.98489   121.21701   229.69044
    77  H   1.0    0.10    0.99    1.43   274.27012   123.88104   233.48422
    78  H   1.0    0.09    0.99    1.43   274.59930   120.64876   234.24516
    79  H   1.0    0.13    0.99    1.43   277.10948   122.77318   234.83214
    80  H   1.0    0.10    0.99    1.43   276.22944   125.69528   229.72940
    81  H   1.0    0.11    0.99    1.43   279.28345   124.91803   230.82118
    82  H   1.0    0.11    0.99    1.43   278.28672   123.92619   227.80366
    83  N   5.0   -0.70    3.00    1.93   284.48428   110.81159   227.27807
    84  C   4.0    0.07    3.99    3.60   283.86881   108.15827   227.12676
    85  C   4.0    0.29    3.01    3.02   281.02141   107.78554   226.90498
    86  O   6.0   -0.40    1.00    1.80   279.49848   109.21490   227.89637
    87  C   4.0   -0.15    3.98    3.59   284.80632   106.66790   229.45506
    88  C   4.0   -0.10    3.98    3.59   283.71580   107.68635   231.93530
    89  C   4.0    0.27    3.00    3.02   284.06687   105.78124   234.05789
    90  O   6.0   -0.42    1.00    1.80   285.60555   106.06780   235.75670
    91  N   5.0   -0.65    3.00    1.93   282.53855   103.76889   233.91429
    92  H   1.0    0.29    1.00    1.43   283.16384   111.95959   228.04262
    93  H   1.0    0.11    0.99    1.43   284.81335   107.39720   225.44850
    94  H   1.0    0.12    0.99    1.43   284.24606   104.70052   229.19998
    95  H   1.0    0.10    0.99    1.43   286.86444   106.76179   229.50537
    96  H   1.0    0.11    0.99    1.43   284.65992   109.43929   232.45862
    97  H   1.0    0.14    0.99    1.43   281.70058   108.05024   231.70299
    98  H   1.0    0.31    1.00    1.43   281.24990   103.56778   232.51989
    99  H   1.0    0.28    1.00    1.43   282.69714   102.38298   235.20855
   100  N   5.0   -0.48    3.01    1.93   280.37011   105.66904   225.69135
   101  C   4.0    0.09    4.00    3.62   277.78636   104.78171   225.68499
   102  C   4.0    0.28    3.01    3.02   277.01538   104.24013   228.41560
   103  O   6.0   -0.44    1.00    1.80   278.51115   103.39557   229.96663
   104  C   4.0   -0.10    3.98    3.59   277.54250   102.38353   224.10715
   105  C   4.0    0.30    2.99    3.02   277.96090   102.87832   221.22534
   106  O   6.0   -0.48    1.00    1.80   276.77554   101.44047   219.76833
   107  O   6.0   -0.42    1.00    1.80   279.39786   104.61386   220.59238
   108  H   1.0    0.24    1.00    1.43   281.64144   104.65143   224.70575
   109  H   1.0    0.16    0.99    1.43   276.54125   106.25544   224.93993
   110  H   1.0    0.12    0.99    1.43   278.93484   100.98958   224.72818
   111  H   1.0    0.12    0.99    1.43   275.66923   101.56328   224.35699
   112  N   5.0   -0.49    3.01    1.93   274.59235   104.71897   228.94269
   113  C   4.0    0.09    3.99    3.61   273.44148   104.05748   231.33143
   114  C   4.0    0.28    3.01    3.02   270.56545   104.25066   231.04379
   115  O   6.0   -0.45    1.00    1.80   269.62213   105.56594   229.38764
   116  C   4.0   -0.10    3.99    3.60   274.36241   105.78436   233.48561
   117  C   4.0    0.26    3.00    3.02   274.10882   104.52501   236.06136
   118  O   6.0   -0.42    1.00    1.80   273.00883   102.51393   236.38574
   119  N   5.0   -0.66    3.00    1.93   275.20287   105.78361   237.95559
   120  H   1.0    0.29    1.00    1.43   273.45094   105.53737   227.63480
   121  H   1.0    0.15    0.99    1.43   273.95802   102.10467   231.79921
   122  H   1.0    0.14    0.99    1.43   276.35369   106.20458   233.14694
   123  H   1.0    0.10    0.99    1.43   273.30665   107.55605   233.46947
   124  H   1.0    0.28    1.00    1.43   275.13132   105.04511   239.71126
   125  H   1.0    0.25    1.00    1.43   276.13494   107.41438   237.66566
   126  N   5.0   -0.47    3.01    1.93   269.27898   102.95301   232.77176
   127  C   4.0    0.09    3.99    3.61   266.54955   102.80330   232.91121
   128  C   4.0    0.27    3.01    3.02   265.84942   103.31858   235.67208
   129  O   6.0   -0.42    1.00    1.80   265.76682   101.66217   237.28636
   130  C   4.0    0.05    3.98    3.58   265.61585   100.19017   232.01052
   131  O   6.0   -0.45    1.99    1.82   266.50575    99.67246   229.56210
   132  C   4.0   -0.20    3.98    3.59   262.74057   100.05921   232.14655
   133  H   1.0    0.29    1.00    1.43   270.27731   102.00254   234.11907
   134  H   1.0    0.16    0.99    1.43   265.75768   104.26160   231.67430
   135  H   1.0    0.14    0.99    1.43   266.45315    98.74336   233.23830
   136  H   1.0    0.31    0.99    1.43   265.53362   100.68950   228.37202
   137  H   1.0    0.12    0.99    1.43   262.09396    98.20428   231.55337
   138  H   1.0    0.13    0.99    1.43   262.06278   100.41068   234.05415
   139  H   1.0    0.14    0.99    1.43   261.93226   101.45880   230.86857
   140  N   5.0   -0.48    3.01    1.93   265.58774   105.77424   236.18822
   141  C   4.0    0.07    3.99    3.61   265.02468   106.67775   238.71509
   142  C   4.0    0.28    3.01    3.02   262.29428   105.94882   239.34784
   143  O   6.0   -0.46    1.00    1.80   260.54023   106.73840   238.05275
   144  C   4.0   -0.14    3.99    3.60   265.25978   109.55705   238.83023
   145  C   4.0   -0.11    3.98    3.58   267.96911   110.56585   238.97587
   146  C   4.0   -0.21    3.98    3.59   269.59125   109.65213   236.77290
   147  C   4.0   -0.25    3.99    3.60   267.88063   113.45186   239.00841
   148  H   1.0    0.29    1.00    1.43   265.29854   106.99552   234.73968
   149  H   1.0    0.12    0.99    1.43   266.32325   105.73913   240.02334
   150  H   1.0    0.12    0.99    1.43   264.32043   110.31991   237.15770
   151  H   1.0    0.10    0.99    1.43   264.21228   110.20225   240.48549
   152  H   1.0    0.10    0.99    1.43   268.81766   109.89502   240.73815
   153  H   1.0    0.09    0.99    1.43   271.42892   110.56697   236.83710
   154  H   1.0    0.14    0.99    1.43   269.86141   107.61684   236.84799
   155  H   1.0    0.12    0.99    1.43   268.69801   110.10816   234.97627
   156  H   1.0    0.09    0.99    1.43   269.77279   114.21906   239.21501
   157  H   1.0    0.09    0.99    1.43   267.08309   114.13860   237.24222
   158  H   1.0    0.08    0.99    1.43   266.71973   114.12115   240.56370
   159  N   5.0   -0.48    3.01    1.93   261.96645   104.53757   241.41644
   160  C   4.0    0.09    3.99    3.61   259.51260   103.59660   242.19739
   161  C   4.0    0.27    3.01    3.02   258.50669   105.37662   244.24042
   162  O   6.0   -0.45    1.00    1.80   259.19884   105.21650   246.44886
   163  C   4.0    0.04    3.98    3.58   259.83385   100.89878   243.24768
   164  O   6.0   -0.48    1.99    1.82   261.71580   100.86351   245.12378
   165  C   4.0   -0.18    3.98    3.59   260.56415    99.06578   241.14941
   166  H   1.0    0.26    1.00    1.43   263.45073   103.73872   242.32221
   167  H   1.0    0.16    0.99    1.43   258.23374   103.58109   240.57355
   168  H   1.0    0.11    0.99    1.43   257.99571   100.31550   244.04381
   169  H   1.0    0.29    0.99    1.43   261.24523   102.10188   246.40921
   170  H   1.0    0.11    0.99    1.43   260.84131    97.19186   241.93653
   171  H   1.0    0.13    0.99    1.43   259.07070    98.98974   239.73897
   172  H   1.0    0.15    0.99    1.43   262.30686    99.66519   240.23750
   173  N   5.0   -0.48    3.01    1.93   256.95397   107.19625   243.44244
   174  C   4.0    0.08    3.99    3.61   256.12089   109.21103   245.11111
   175  C   4.0    0.05    3.00    3.02   253.58012   108.49399   246.29503
   176  O   6.0   -0.50    1.00    1.80   251.59247   108.52890   245.10916
   177  C   4.0   -0.07    3.98    3.59   255.84076   111.73593   243.70222
   178  C   4.0   -0.15    3.98    3.58   258.23475   112.42879   242.22458
   179  C   4.0   -0.24    3.98    3.59   255.06049   113.79472   245.57302
   180  C   4.0   -0.24    3.98    3.58   260.56000   112.95374   243.84037
   181  H   1.0    0.29    1.00    1.43   256.26014   107.20671   241.65852
   182  H   1.0    0.12    0.99    1.43   257.54473   109.36028   246.60560
   183  H   1.0    0.15    0.99    1.43   254.32701   111.47683   242.31784
   184  H   1.0    0.14    0.99    1.43   258.64585   110.90406   240.89345
   185  H   1.0    0.09    0.99    1.43   257.81843   114.11148   241.10805
   186  H   1.0    0.09    0.99    1.43   254.94560   115.60746   244.61426
   187  H   1.0    0.11    0.99    1.43   253.22484   113.36205   246.38924
   188  H   1.0    0.09    0.99    1.43   256.42389   113.94849   247.10068
   189  H   1.0    0.09    0.99    1.43   262.13263   113.46441   242.62067
   190  H   1.0    0.09    0.99    1.43   260.22061   114.51821   245.12414
   191  H   1.0    0.11    0.99    1.43   261.10321   111.29334   244.92376
   192  N   5.0   -0.73    3.00    1.93   247.31978   109.15863   249.26881
   193  C   4.0    0.07    3.98    3.59   245.39654   111.09059   249.19608
   194  C   4.0    0.06    3.00    3.02   243.03381   110.44930   250.73080
   195  O   6.0   -0.43    1.00    1.80   241.69725   112.14343   251.55348
   196  C   4.0   -0.09    3.98    3.58   244.59571   111.81299   246.47848
   197  C   4.0   -0.23    3.98    3.59   246.86796   112.84291   245.03780
   198  C   4.0   -0.21    3.98    3.59   243.38304   109.61720   245.05446
   199  H   1.0    0.26    1.00    1.43   246.88418   107.44366   248.54303
   200  H   1.0    0.12    0.99    1.43   246.22856   112.77338   250.07497
   201  H   1.0    0.11    0.99    1.43   243.18422   113.31211   246.68892
   202  H   1.0    0.09    0.99    1.43   246.29218   113.43384   243.16000
   203  H   1.0    0.09    0.99    1.43   247.67847   114.44734   246.03350
   204  H   1.0    0.13    0.99    1.43   248.31244   111.39121   244.85311
   205  H   1.0    0.10    0.99    1.43   242.76108   110.25520   243.20438
   206  H   1.0    0.12    0.99    1.43   244.71783   108.07903   244.77537
   207  H   1.0    0.11    0.99    1.43   241.75369   108.88583   246.07087
   208  N   5.0   -0.71    3.00    1.93   246.40515   102.23721   244.30480
   209  C   4.0    0.10    3.98    3.59   248.44100   103.86882   243.53563
   210  C   4.0    0.29    3.01    3.02   247.86988   104.92661   240.90077
   211  O   6.0   -0.39    1.00    1.80   246.47426   103.82976   239.42679
   212  C   4.0    0.05    3.98    3.58   251.00498   102.42594   243.38340
   213  O   6.0   -0.44    1.99    1.82   251.10989   100.98018   241.14631
   214  C   4.0   -0.21    3.98    3.58   251.34743   100.67685   245.66366
   215  H   1.0    0.29    1.00    1.43   246.04153   100.76392   243.13227
   216  H   1.0    0.12    0.99    1.43   248.62610   105.40228   244.90483
   217  H   1.0    0.13    0.99    1.43   252.50414   103.86397   243.37809
   218  H   1.0    0.32    0.99    1.43   252.53397   101.53891   240.08498
   219  H   1.0    0.11    0.99    1.43   253.29565   100.03231   245.74411
   220  H   1.0    0.09    0.99    1.43   250.87561   101.60472   247.43339
   221  H   1.0    0.11    0.99    1.43   250.13280    99.03557   245.43036
   222  N   5.0   -0.50    3.01    1.93   248.97998   107.15172   240.39378
   223  C   4.0    0.07    4.00    3.62   249.38801   107.97898   237.81753
   224  C   4.0    0.28    3.02    3.02   252.24080   107.91660   237.42594
   225  O   6.0   -0.45    1.00    1.80   253.67985   108.71912   239.04847
   226  C   4.0   -0.08    3.98    3.58   248.23391   110.61439   237.37284
   227  C   4.0   -0.16    3.98    3.59   245.35329   110.32573   237.33166
   228  C   4.0   -0.22    3.98    3.59   249.26467   111.76978   234.94155
   229  C   4.0   -0.24    3.98    3.58   243.93875   112.82536   237.48961
   230  H   1.0    0.29    1.00    1.43   250.24118   107.85106   241.65787
   231  H   1.0    0.13    0.99    1.43   248.48582   106.59007   236.57632
   232  H   1.0    0.12    0.99    1.43   248.78540   111.81256   238.96288
   233  H   1.0    0.10    0.99    1.43   244.82052   109.31495   235.61575
   234  H   1.0    0.13    0.99    1.43   244.80896   109.13486   238.92574
   235  H   1.0    0.11    0.99    1.43   248.39518   113.59691   234.59795
   236  H   1.0    0.12    0.99    1.43   251.29849   112.04134   235.07811
   237  H   1.0    0.10    0.99    1.43   248.91569   110.52292   233.34455
   238  H   1.0    0.10    0.99    1.43   241.91680   112.47342   237.42116
   239  H   1.0    0.09    0.99    1.43   244.37226   113.77795   239.25533
   240  H   1.0    0.11    0.99    1.43   244.43529   114.07661   235.94121
   241  N   5.0   -0.48    3.01    1.93   253.03659   106.91708   235.24575
   242  C   4.0    0.09    4.00    3.62   255.69077   106.49934   234.79613
   243  C   4.0    0.27    3.01    3.02   256.62537   108.29524   232.74549
   244  O   6.0   -0.42    1.00    1.80   255.29267   108.94558   230.97211
   245  C   4.0   -0.08    3.98    3.58   256.24883   103.76307   234.10354
   246  C   4.0    0.31    2.99    3.02   255.67286   101.88910   236.31132
   247  O   6.0   -0.45    1.00    1.80   254.92164   102.82364   238.35177
   248  O   6.0   -0.42    1.00    1.80   256.02963    99.61746   235.87169
   249  H   1.0    0.24    1.00    1.43   251.80866   106.22267   233.96874
   250  H   1.0    0.17    0.99    1.43   256.65223   106.93373   236.57264
   251  H   1.0    0.13    0.99    1.43   255.16601   103.15969   232.45151
   252  H   1.0    0.12    0.99    1.43   258.24976   103.54693   233.63867
   253  N   5.0   -0.50    3.01    1.93   258.95303   109.18431   233.18503
   254  C   4.0    0.08    4.00    3.61   260.23259   110.89437   231.48463
   255  C   4.0    0.28    3.02    3.02   262.57889   109.59662   230.44864
   256  O   6.0   -0.46    1.00    1.80   264.11872   108.61411   231.88555
   257  C   4.0   -0.08    3.98    3.59   261.08036   113.36185   232.81101
   258  C   4.0   -0.15    3.98    3.59   259.09249   114.23057   234.72662
   259  C   4.0   -0.24    3.98    3.59   261.63312   115.35575   230.80028
   260  C   4.0   -0.25    3.98    3.59   259.86678   116.63797   236.10467
   261  H   1.0    0.28    1.00    1.43   259.95810   108.43243   234.63293
   262  H   1.0    0.13    0.99    1.43   258.89682   111.30558   229.96081
   263  H   1.0    0.11    0.99    1.43   262.83278   112.93803   233.83106
   264  H   1.0    0.11    0.99    1.43   257.29298   114.49147   233.75420
   265  H   1.0    0.12    0.99    1.43   258.81685   112.71985   236.10469
   266  H   1.0    0.09    0.99    1.43   262.49546   117.01359   231.64359
   267  H   1.0    0.12    0.99    1.43   262.92504   114.61037   229.38415
   268  H   1.0    0.09    0.99    1.43   259.89261   115.90811   229.85654
   269  H   1.0    0.09    0.99    1.43   258.54487   116.99669   237.63051
   270  H   1.0    0.09    0.99    1.43   261.74820   116.41224   236.89670
   271  H   1.0    0.11    0.99    1.43   259.86429   118.25569   234.84294
   272  N   5.0   -0.48    3.01    1.93   262.95647   109.78966   227.96449
   273  C   4.0    0.08    4.00    3.63   265.09468   108.59588   226.74550
   274  C   4.0    0.27    3.01    3.02   266.90416   110.65105   225.80463
   275  O   6.0   -0.44    1.00    1.80   266.19973   112.43115   224.50504
   276  C   4.0   -0.09    3.98    3.58   264.23513   106.87885   224.59707
   277  C   4.0    0.33    3.00    3.02   262.40304   104.89610   225.79039
   278  O   6.0   -0.37    1.00    1.80   260.15584   105.54969   226.04260
   279  O   6.0   -0.44    1.00    1.80   263.36238   102.85458   226.47290
   280  H   1.0    0.25    1.00    1.43   261.51300   110.28905   226.82578
   281  H   1.0    0.17    0.99    1.43   266.05227   107.44330   228.17030
   282  H   1.0    0.13    0.99    1.43   263.25427   107.96376   223.14023
   283  H   1.0    0.12    0.99    1.43   265.86820   105.91699   223.79565
   284  N   5.0   -0.49    3.01    1.93   269.26409   110.34173   226.62769
   285  C   4.0    0.07    3.99    3.60   271.37523   111.91336   225.88122
   286  C   4.0    0.27    3.01    3.02   273.09608   110.29811   224.21517
   287  O   6.0   -0.45    1.00    1.80   273.05099   107.98294   224.37377
   288  C   4.0   -0.12    3.99    3.60   272.80572   112.84446   228.22366
   289  C   4.0   -0.09    3.98    3.58   271.08791   114.17324   230.14658
   290  C   4.0   -0.24    3.99    3.60   272.62731   114.81666   232.49792
   291  C   4.0   -0.22    3.98    3.59   269.91543   116.56772   229.04575
   292  H   1.0    0.29    1.00    1.43   269.70889   108.71644   227.54162
   293  H   1.0    0.13    0.99    1.43   270.60940   113.49206   224.79078
   294  H   1.0    0.13    0.99    1.43   273.69517   111.20569   229.11427
   295  H   1.0    0.14    0.99    1.43   274.30367   114.12998   227.62877
   296  H   1.0    0.13    0.99    1.43   269.56333   112.86847   230.66943
   297  H   1.0    0.09    0.99    1.43   271.42149   115.64343   233.93827
   298  H   1.0    0.09    0.99    1.43   273.52021   113.13002   233.25764
   299  H   1.0    0.10    0.99    1.43   274.09156   116.16454   231.99520
   300  H   1.0    0.09    0.99    1.43   268.89162   117.59117   230.50150
   301  H   1.0    0.11    0.99    1.43   271.38013   117.79971   228.29811
   302  H   1.0    0.11    0.99    1.43   268.59206   116.11076   227.54182
   303  N   5.0   -0.48    3.01    1.93   274.55008   111.55059   222.57962
   304  C   4.0    0.08    3.99    3.60   276.20690   110.33334   220.77993
   305  C   4.0    0.07    3.00    3.02   278.73833   111.70837   220.64485
   306  O   6.0   -0.39    1.00    1.80   278.91714   113.98167   221.01411
   307  C   4.0   -0.14    3.99    3.60   275.06328   110.39904   218.10278
   308  C   4.0   -0.16    3.98    3.58   272.69921   108.76572   217.82172
   309  C   4.0   -0.13    3.98    3.59   273.21872   106.03194   218.57789
   310  C   4.0   -0.06    3.98    3.58   271.41205   104.15381   217.35919
   311  N   5.0   -0.72    3.98    2.81   271.90014   101.61301   218.45306
   312  H   1.0    0.26    1.00    1.43   274.65764   113.45653   222.64491
   313  H   1.0    0.14    0.99    1.43   276.51321   108.38491   221.37704
   314  H   1.0    0.12    0.99    1.43   274.62598   112.36133   217.64296
   315  H   1.0    0.10    0.99    1.43   276.50397   109.73218   216.78637
   316  H   1.0    0.13    0.99    1.43   271.16503   109.53146   218.96973
   317  H   1.0    0.10    0.99    1.43   272.12567   108.82184   215.84684
   318  H   1.0    0.14    0.99    1.43   275.13868   105.54366   218.00902
   319  H   1.0    0.15    0.99    1.43   273.09259   105.86435   220.62875
   320  H   1.0    0.11    0.99    1.43   269.45039   104.69488   217.69589
   321  H   1.0    0.11    0.99    1.43   271.75633   104.08374   215.32967
   322  H   1.0    0.24    1.00    1.43   271.23891   100.19297   217.31413
   323  H   1.0    0.31    0.99    1.43   273.88887   101.39639   218.76045
   324  H   1.0    0.25    1.00    1.43   271.06736   101.46572   220.19627
   325  N   5.0   -0.71    3.00    1.93   256.62906   116.15037   215.16336
   326  C   4.0    0.08    3.99    3.60   256.10198   114.68248   217.41214
   327  C   4.0    0.28    3.01    3.02   255.90664   116.41188   219.70256
   328  O   6.0   -0.47    1.00    1.80   254.19114   116.22359   221.25227
   329  C   4.0   -0.10    3.98    3.59   258.18072   112.75424   217.87440
   330  C   4.0    0.31    2.99    3.02   258.35751   110.75165   215.67842
   331  O   6.0   -0.40    1.00    1.80   256.36500   110.25840   214.54100
   332  O   6.0   -0.40    1.00    1.80   260.49171   109.84395   215.31394
   333  H   1.0    0.27    1.00    1.43   258.27952   115.79968   214.27737
   334  H   1.0    0.13    0.99    1.43   254.29838   113.68504   217.16608
   335  H   1.0    0.12    0.99    1.43   260.01943   113.66504   218.06293
   336  H   1.0    0.12    0.99    1.43   257.79606   111.70058   219.60998
   337  N   5.0   -0.49    3.01    1.93   257.78025   118.07990   219.90851
   338  C   4.0    0.06    3.99    3.60   258.03451   119.74647   222.06482
   339  C   4.0    0.07    3.00    3.02   255.74447   121.50518   222.22573
   340  O   6.0   -0.44    1.00    1.80   254.61793   121.87110   224.21946
   341  C   4.0   -0.15    3.99    3.60   260.48801   121.24501   221.86253
   342  C   4.0   -0.10    3.98    3.58   262.86506   119.58871   221.99625
   343  C   4.0   -0.23    3.98    3.59   265.18177   121.17986   221.34737
   344  C   4.0   -0.22    3.98    3.59   263.18823   118.37841   224.59226
   345  H   1.0    0.24    1.00    1.43   259.12940   118.14446   218.55886
   346  H   1.0    0.12    0.99    1.43   258.00868   118.60175   223.79645
   347  H   1.0    0.10    0.99    1.43   260.45353   122.24652   220.05899
   348  H   1.0    0.11    0.99    1.43   260.52352   122.66315   223.36066
   349  H   1.0    0.12    0.99    1.43   262.70291   118.07305   220.59138
   350  H   1.0    0.10    0.99    1.43   266.87527   120.02252   221.41211
   351  H   1.0    0.10    0.99    1.43   264.99910   121.97463   219.46256
   352  H   1.0    0.11    0.99    1.43   265.38091   122.72532   222.68721
   353  H   1.0    0.12    0.99    1.43   264.79556   117.09911   224.59221
   354  H   1.0    0.09    0.99    1.43   263.46852   119.82212   226.02768
   355  H   1.0    0.10    0.99    1.43   261.53924   117.26565   225.10411
   356  N   5.0   -0.70    3.00    1.93   250.14278   118.00784   224.48004
   357  C   4.0    0.08    3.98    3.59   250.39593   117.68608   227.18556
   358  C   4.0    0.07    3.00    3.02   249.34581   119.99320   228.56835
   359  O   6.0   -0.48    1.00    1.80   247.80870   119.72708   230.28297
   360  C   4.0   -0.08    3.98    3.59   253.15642   117.19202   227.92503
   361  C   4.0   -0.22    3.98    3.59   253.52237   117.52736   230.76355
   362  C   4.0   -0.21    3.98    3.59   253.94924   114.53537   227.12447
   363  H   1.0    0.33    1.00    1.43   251.71298   117.79853   223.40759
   364  H   1.0    0.11    0.99    1.43   249.23485   116.07509   227.79777
   365  H   1.0    0.15    0.99    1.43   254.32301   118.58104   226.93072
   366  H   1.0    0.09    0.99    1.43   255.47828   117.14544   231.25609
   367  H   1.0    0.11    0.99    1.43   253.08049   119.44660   231.33849
   368  H   1.0    0.11    0.99    1.43   252.32210   116.22845   231.81123
   369  H   1.0    0.10    0.99    1.43   255.95534   114.25002   227.48085
   370  H   1.0    0.12    0.99    1.43   252.93594   113.10182   228.19314
   371  H   1.0    0.14    0.99    1.43   253.63647   114.23617   225.11730
   372  N   5.0   -0.70    3.00    1.93   242.51216   119.76587   228.64323
   373  C   4.0    0.07    3.98    3.59   241.59425   117.69722   230.17710
   374  C   4.0    0.28    3.01    3.02   241.68251   118.39782   232.98434
   375  O   6.0   -0.48    1.00    1.80   239.95530   117.77976   234.40678
   376  C   4.0   -0.14    3.98    3.59   243.07643   115.27417   229.64027
   377  C   4.0   -0.16    3.98    3.59   241.57671   112.95699   230.50194
   378  C   4.0   -0.05    3.98    3.59   243.10067   110.51063   230.24569
   379  N   5.0   -0.48    3.02    1.93   243.69678   109.89506   227.63815
   380  C   4.0    0.36    3.00    3.02   242.14753   108.79857   225.98762
   381  N   5.0   -0.66    3.02    1.93   242.96705   108.36138   223.64625
   382  N   5.0   -0.66    3.02    1.93   239.79944   108.16718   226.60339
   383  H   1.0    0.28    1.00    1.43   244.12584   119.52359   227.63502
   384  H   1.0    0.11    0.99    1.43   239.59117   117.39739   229.71386
   385  H   1.0    0.11    0.99    1.43   243.42635   115.19464   227.60991
   386  H   1.0    0.12    0.99    1.43   244.90063   115.38075   230.59863
   387  H   1.0    0.11    0.99    1.43   241.04946   113.18738   232.47929
   388  H   1.0    0.11    0.99    1.43   239.85124   112.83812   229.38391
   389  H   1.0    0.10    0.99    1.43   244.89006   110.71699   231.24588
   390  H   1.0    0.10    0.99    1.43   242.07361   108.94137   231.10725
   391  H   1.0    0.23    1.00    1.43   245.41874   110.42227   227.01408
   392  H   1.0    0.26    1.00    1.43   244.77223   108.70628   223.15694
   393  H   1.0    0.25    1.00    1.43   241.86735   107.45910   222.38173
   394  H   1.0    0.25    1.00    1.43   239.12618   108.44958   228.36043
   395  H   1.0    0.25    1.00    1.43   238.69374   107.25423   225.35038
   396  N   5.0   -0.48    3.01    1.93   243.69779   119.68882   233.75656
   397  C   4.0    0.07    4.00    3.61   243.78743   120.65603   236.31474
   398  C   4.0    0.07    3.00    3.02   241.61411   122.51418   236.73527
   399  O   6.0   -0.42    1.00    1.80   240.31739   122.41845   238.65079
   400  C   4.0   -0.13    3.99    3.60   246.27783   121.99832   236.91742
   401  C   4.0   -0.03    3.03    3.02   248.44502   120.26084   237.53990
   402  C   4.0   -0.09    3.04    3.02   250.73934   120.51952   236.29811
   403  C   4.0   -0.10    3.03    3.02   248.24852   118.47130   239.45414
   404  C   4.0   -0.11    3.03    3.02   252.79198   119.03133   236.94075
   405  C   4.0   -0.11    3.03    3.02   250.28825   116.96336   240.08611
   406  C   4.0   -0.11    3.03    3.02   252.56409   117.23491   238.82567
   407  H   1.0    0.30    1.00    1.43   245.12631   120.11407   232.55213
   408  H   1.0    0.13    0.99    1.43   243.47050   119.07820   237.62337
   409  H   1.0    0.11    0.99    1.43   246.76717   123.20107   235.31653
   410  H   1.0    0.11    0.99    1.43   245.94062   123.21161   238.55778
   411  H   1.0    0.12    1.00    1.43   250.92405   121.89461   234.80133
   412  H   1.0    0.10    1.00    1.43   246.48935   118.25438   240.46517
   413  H   1.0    0.10    1.00    1.43   254.56801   119.27278   235.96487
   414  H   1.0    0.10    1.00    1.43   250.12343   115.57519   241.57146
   415  H   1.0    0.10    0.99    1.43   254.14266   116.02694   239.29226
   416  N   5.0   -0.69    3.00    1.93   236.02110   118.65386   237.95793
   417  C   4.0    0.07    3.98    3.58   236.13898   117.54934   240.47021
   418  C   4.0    0.09    3.00    3.02   235.27632   119.49208   242.43379
   419  O   6.0   -0.42    1.00    1.80   233.57985   119.00915   243.93631
   420  C   4.0   -0.21    3.98    3.59   238.81691   116.65831   241.02408
   421  H   1.0    0.33    1.00    1.43   237.59629   118.51813   236.85794
   422  H   1.0    0.12    0.99    1.43   234.80855   115.96129   240.58585
   423  H   1.0    0.10    0.99    1.43   238.89731   115.81510   242.89450
   424  H   1.0    0.10    0.99    1.43   239.36863   115.25777   239.63034
   425  H   1.0    0.13    0.99    1.43   240.11298   118.24896   240.95086
   426  H   1.0    0.28    1.00    1.43   260.48564   123.53933   242.97515
   427  H   1.0    0.13    1.00    1.43   256.87667   125.10715   237.78309
   428  H   1.0    0.28    1.00    1.43   264.85170   128.96330   237.30391
   429  H   1.0    0.13    1.00    1.43   262.39200   129.44095   228.88106
   430  H   1.0    0.29    1.00    1.43   271.35462   129.84218   228.31008
   431  H   1.0    0.15    1.00    1.43   268.65606   128.86223   222.46526
   432  H   1.0    0.27    1.00    1.43   283.13323   121.24514   244.00242
   433  H   1.0    0.11    1.00    1.43   283.27993   119.72618   237.20152
   434  H   1.0    0.29    1.00    1.43   281.28645   119.17943   233.23746
   435  H   1.0    0.14    1.00    1.43   280.47064   119.18381   227.21154
   436  H   1.0    0.29    1.00    1.43   285.87874   111.01756   228.22971
   437  H   1.0    0.12    1.00    1.43   253.49719   107.96982   248.10871
   438  H   1.0    0.31    1.00    1.43   248.68191   109.68033   248.39417
   439  H   1.0    0.13    1.00    1.43   242.58273   108.64415   251.06099
   440  H   1.0    0.28    1.00    1.43   246.76098   101.56364   245.82541
   441  H   1.0    0.14    1.00    1.43   280.31539   110.74737   220.24431
   442  H   1.0    0.31    1.00    1.43   255.41600   115.86956   214.00483
   443  H   1.0    0.14    1.00    1.43   255.12599   122.39517   220.67767
   444  H   1.0    0.29    1.00    1.43   249.03469   116.86875   223.87407
   445  H   1.0    0.14    1.00    1.43   249.91135   121.72795   228.07652
   446  H   1.0    0.29    1.00    1.43   241.33873   120.17623   227.48253
   447  H   1.0    0.14    1.00    1.43   241.23358   123.83274   235.43617
   448  H   1.0    0.29    1.00    1.43   234.78153   117.90505   237.06614
   449  H   1.0    0.15    1.00    1.43   236.10008   121.19123   242.50706

           ------------------------------------------------- 
          |        Self-Consistent Charge Iterations        |
           ------------------------------------------------- 

          ...................................................
          :                      SETUP                      :
          :.................................................:
          :  # basis functions                1067          :
          :  # atomic orbitals                1067          :
          :  # shells                          655          :
          :  # electrons                      1184          :
          :  max. iterations                   250          :
          :  Hamiltonian                  GFN2-xTB          :
          :  restarted?                      false          :
          :  GBSA solvation                   true          :
          :  PC potential                    false          :
          :  electronic temp.          500.0000000     K    :
          :  accuracy                    0.1000000          :
          :  -> integral cutoff          0.3500000E+02      :
          :  -> integral neglect         0.1000000E-08      :
          :  -> SCF convergence          0.1000000E-06 Eh   :
          :  -> wf. convergence          0.1000000E-04 e    :
          :  Broyden damping             0.4000000          :
          ...................................................

 iter      E             dE          RMSdq      gap      omega  full diag
   1   -677.0204954 -0.677020E+03  0.418E+00    1.92       0.0  T
   2   -678.6945232 -0.167403E+01  0.212E+00    1.59       1.0  T
   3   -678.7652029 -0.706797E-01  0.118E+00    1.61       1.0  T
   4   -678.8079932 -0.427902E-01  0.278E-01    0.94       1.0  T
   5   -678.8241808 -0.161876E-01  0.115E-01    1.04       1.0  T
   6   -678.8248508 -0.670039E-03  0.506E-02    1.01       1.0  T
   7   -678.8249668 -0.116004E-03  0.234E-02    1.01       1.0  T
   8   -678.8250209 -0.540357E-04  0.101E-02    0.99       1.0  T
   9   -678.8250302 -0.936479E-05  0.501E-03    0.99       1.0  T
  10   -678.8250326 -0.237103E-05  0.218E-03    0.98       2.2  T
  11   -678.8250330 -0.365139E-06  0.881E-04    0.98       5.4  T
  12   -678.8250331 -0.726233E-07  0.414E-04    0.98      11.4  T
  13   -678.8250331 -0.226205E-07  0.188E-04    0.98      25.1  T
  14   -678.8250331 -0.309001E-08  0.826E-05    0.98      57.2  T
  15   -678.8250331 -0.100283E-08  0.344E-05    0.98     137.1  T

   *** convergence criteria satisfied after 15 iterations ***

         #    Occupation            Energy/Eh            Energy/eV
      -------------------------------------------------------------
         1        2.0000           -0.7479565             -20.3529
       ...           ...                  ...                  ...
       586        2.0000           -0.3639897              -9.9047
       587        2.0000           -0.3630185              -9.8782
       588        2.0000           -0.3618085              -9.8453
       589        2.0000           -0.3589169              -9.7666
       590        2.0000           -0.3582929              -9.7496
       591        2.0000           -0.3535765              -9.6213
       592        2.0000           -0.3448429              -9.3837 (HOMO)
       593        0.0000           -0.3087087              -8.4004 (LUMO)
       594                         -0.2913719              -7.9286
       595                         -0.2900697              -7.8932
       596                         -0.2846806              -7.7466
       597                         -0.2843791              -7.7383
       ...                                ...                  ...
      1067                          0.6724976              18.2996
      -------------------------------------------------------------
                  HL-Gap            0.0361341 Eh            0.9833 eV
             Fermi-level           -0.3267723 Eh           -8.8919 eV

 SCC (total)                   0 d,  0 h,  0 min,  7.013 sec
 SCC setup                      ...        0 min,  0.088 sec (  1.256%)
 Dispersion                     ...        0 min,  0.081 sec (  1.153%)
 integral evaluation            ...        0 min,  0.223 sec (  3.182%)
 zeroth order Hamiltonian       ...        0 min,  0.004 sec (  0.063%)
 iterations                     ...        0 min,  5.460 sec ( 77.859%)
 molecular gradient             ...        0 min,  1.115 sec ( 15.899%)
 printout                       ...        0 min,  0.041 sec (  0.586%)

         :::::::::::::::::::::::::::::::::::::::::::::::::::::
         ::                     SUMMARY                     ::
         :::::::::::::::::::::::::::::::::::::::::::::::::::::
         :: total energy             -670.506695316519 Eh   ::
         :: total w/o Gsasa/hb       -670.428129149062 Eh   ::
         :: gradient norm               0.768348989289 Eh/α ::
         :: HOMO-LUMO gap               0.983260011833 eV   ::
         ::.................................................::
         :: SCC energy               -678.843122326864 Eh   ::
         :: -> isotropic ES             2.250132533358 Eh   ::
         :: -> anisotropic ES          -0.095202185625 Eh   ::
         :: -> anisotropic XC           0.231819845831 Eh   ::
         :: -> dispersion              -0.554382081794 Eh   ::
         :: -> Gsolv                   -0.613228811064 Eh   ::
         ::    -> Gborn                -0.534662643607 Eh   ::
         ::    -> Gsasa                -0.019946689997 Eh   ::
         ::    -> Ghb                  -0.060476920587 Eh   ::
         ::    -> Gshift                0.001857443127 Eh   ::
         :: repulsion energy            8.284142615819 Eh   ::
         :: add. restraining            0.000000000000 Eh   ::
         :::::::::::::::::::::::::::::::::::::::::::::::::::::

           -------------------------------------------------
          |                Property Printout                |
           -------------------------------------------------

    * Orbital Energies and Occupations

         #    Occupation            Energy/Eh            Energy/eV
      -------------------------------------------------------------
         1        2.0000           -0.7479565             -20.3529
       ...           ...                  ...                  ...
       580        2.0000           -0.3758347             -10.2270
       581        2.0000           -0.3712454             -10.1021
       582        2.0000           -0.3689377             -10.0393
       583        2.0000           -0.3679148             -10.0115
       584        2.0000           -0.3660738              -9.9614
       585        2.0000           -0.3658213              -9.9545
       586        2.0000           -0.3639897              -9.9047
       587        2.0000           -0.3630185              -9.8782
       588        2.0000           -0.3618085              -9.8453
       589        2.0000           -0.3589169              -9.7666
       590        2.0000           -0.3582929              -9.7496
       591        2.0000           -0.3535765              -9.6213
       592        2.0000           -0.3448429              -9.3837 (HOMO)
       593        0.0000           -0.3087087              -8.4004 (LUMO)
       594                         -0.2913719              -7.9286
       595                         -0.2900697              -7.8932
       596                         -0.2846806              -7.7466
       597                         -0.2843791              -7.7383
       598                         -0.2818182              -7.6687
       599                         -0.2811557              -7.6506
       600                         -0.2761555              -7.5146
       601                         -0.2758204              -7.5055
       602                         -0.2756964              -7.5021
       603                         -0.2744195              -7.4673
       ...                                ...                  ...
      1067                          0.6724976              18.2996
      -------------------------------------------------------------
                  HL-Gap            0.0361341 Eh            0.9833 eV
             Fermi-level           -0.3267723 Eh           -8.8919 eV

   #   Z        covCN         q      C6AA      α(0)
   1   7 N      2.632    -0.382    29.881     8.119
   2   6 C      3.731    -0.006    20.775     6.506
   3   6 C      2.762     0.197    23.802     7.990
   4   8 O      0.856    -0.361    20.917     6.132
   5   1 H      0.860     0.173     1.254     1.754
   6   1 H      0.924     0.055     2.253     2.348
   7   1 H      0.925     0.075     2.028     2.227
   8   7 N      2.638    -0.393    30.165     8.157
   9   6 C      3.793     0.032    20.050     6.377
  10   6 C      2.763     0.273    22.382     7.748
  11   8 O      0.858    -0.521    24.250     6.602
  12   6 C      3.853    -0.031    21.085     6.531
  13   6 C      3.805    -0.060    21.651     6.624
  14   6 C      3.756    -0.111    22.681     6.790
  15   6 C      3.751    -0.113    22.715     6.797
  16   1 H      0.860     0.162     1.323     1.802
  17   1 H      0.923     0.029     2.598     2.521
  18   1 H      0.924     0.057     2.234     2.337
  19   1 H      0.925     0.038     2.477     2.461
  20   1 H      0.924     0.037     2.486     2.466
  21   1 H      0.925     0.047     2.361     2.403
  22   1 H      0.925     0.025     2.655     2.548
  23   1 H      0.925     0.042     2.421     2.433
  24   1 H      0.925     0.046     2.375     2.410
  25   1 H      0.925     0.037     2.489     2.467
  26   1 H      0.925     0.041     2.436     2.441
  27   7 N      2.692    -0.170    24.687     7.379
  28   6 C      3.794     0.036    19.972     6.364
  29   6 C      2.767     0.204    23.672     7.968
  30   8 O      0.856    -0.360    20.905     6.130
  31   6 C      3.756    -0.132    23.091     6.851
  32   1 H      0.860     0.250     0.884     1.473
  33   1 H      0.923     0.063     2.170     2.304
  34   1 H      0.925     0.062     2.176     2.307
  35   1 H      0.925     0.076     2.020     2.223
  36   1 H      0.925     0.085     1.930     2.173
  37   7 N      2.637    -0.397    30.289     8.174
  38   6 C      3.782     0.030    20.085     6.384
  39   6 C      2.766     0.199    23.754     7.982
  40   8 O      0.856    -0.385    21.383     6.200
  41   6 C      3.726     0.125    18.641     6.164
  42   8 O      1.656    -0.463    22.109     6.347
  43   6 C      3.754    -0.118    22.824     6.812
  44   1 H      0.860     0.182     1.201     1.716
  45   1 H      0.923     0.048     2.345     2.395
  46   1 H      0.923     0.022     2.711     2.575
  47   1 H      0.804     0.321     0.660     1.276
  48   1 H      0.925     0.052     2.299     2.371
  49   1 H      0.925     0.040     2.450     2.448
  50   1 H      0.925     0.053     2.277     2.360
  51   7 N      2.637    -0.385    29.961     8.129
  52   6 C      3.786     0.038    19.958     6.363
  53   6 C      2.766     0.201    23.717     7.976
  54   8 O      0.856    -0.363    20.953     6.137
  55   6 C      3.853    -0.015    20.809     6.488
  56   6 C      3.756    -0.116    22.782     6.805
  57   6 C      3.756    -0.117    22.795     6.808
  58   1 H      0.860     0.167     1.293     1.781
  59   1 H      0.924     0.039     2.465     2.455
  60   1 H      0.924     0.050     2.319     2.381
  61   1 H      0.925     0.052     2.294     2.369
  62   1 H      0.925     0.026     2.643     2.542
  63   1 H      0.925     0.042     2.418     2.432
  64   1 H      0.925     0.051     2.302     2.373
  65   1 H      0.925     0.044     2.397     2.421
  66   1 H      0.925     0.046     2.371     2.408
  67   7 N      2.633    -0.388    30.036     8.140
  68   6 C      3.784     0.041    19.900     6.354
  69   6 C      2.763     0.198    23.773     7.985
  70   8 O      0.856    -0.390    21.477     6.213
  71   6 C      3.852    -0.008    20.686     6.469
  72   6 C      3.755    -0.114    22.731     6.798
  73   6 C      3.755    -0.113    22.715     6.796
  74   1 H      0.860     0.180     1.215     1.727
  75   1 H      0.923     0.034     2.532     2.488
  76   1 H      0.924     0.043     2.414     2.430
  77   1 H      0.925     0.050     2.321     2.382
  78   1 H      0.925     0.040     2.445     2.445
  79   1 H      0.925     0.056     2.249     2.345
  80   1 H      0.925     0.049     2.327     2.386
  81   1 H      0.925     0.056     2.251     2.346
  82   1 H      0.925     0.029     2.599     2.521
  83   7 N      2.635    -0.388    30.035     8.139
  84   6 C      3.788     0.029    20.096     6.385
  85   6 C      2.761     0.276    22.334     7.739
  86   8 O      0.858    -0.501    23.801     6.541
  87   6 C      3.806    -0.068    21.797     6.646
  88   6 C      3.807    -0.090    22.214     6.710
  89   6 C      2.744     0.290    22.089     7.696
  90   8 O      0.859    -0.503    23.841     6.546
  91   7 N      2.639    -0.290    27.489     7.787
  92   1 H      0.860     0.157     1.353     1.822
  93   1 H      0.924     0.045     2.386     2.415
  94   1 H      0.924     0.041     2.435     2.440
  95   1 H      0.924     0.061     2.185     2.312
  96   1 H      0.925     0.065     2.147     2.291
  97   1 H      0.924     0.051     2.308     2.376
  98   1 H      0.860     0.222     0.999     1.566
  99   1 H      0.860     0.227     0.977     1.548
 100   7 N      2.696    -0.175    24.789     7.395
 101   6 C      3.800     0.034    19.999     6.367
 102   6 C      2.759     0.275    22.350     7.742
 103   8 O      0.858    -0.487    23.496     6.499
 104   6 C      3.803    -0.105    22.508     6.754
 105   6 C      2.683     0.370    20.725     7.450
 106   8 O      0.858    -0.601    26.152     6.856
 107   8 O      0.856    -0.590    25.881     6.821
 108   1 H      0.860     0.205     1.082     1.629
 109   1 H      0.924     0.063     2.164     2.300
 110   1 H      0.924     0.045     2.386     2.416
 111   1 H      0.925     0.037     2.492     2.469
 112   7 N      2.692    -0.179    24.870     7.407
 113   6 C      3.797     0.031    20.050     6.376
 114   6 C      2.754     0.278    22.288     7.731
 115   8 O      0.858    -0.489    23.549     6.506
 116   6 C      3.808    -0.104    22.476     6.749
 117   6 C      2.743     0.288    22.127     7.702
 118   8 O      0.859    -0.498    23.744     6.533
 119   7 N      2.639    -0.274    27.099     7.731
 120   1 H      0.860     0.211     1.051     1.606
 121   1 H      0.924     0.075     2.034     2.230
 122   1 H      0.924     0.095     1.830     2.116
 123   1 H      0.924     0.078     2.004     2.214
 124   1 H      0.860     0.254     0.868     1.459
 125   1 H      0.860     0.241     0.918     1.501
 126   7 N      2.695    -0.177    24.843     7.403
 127   6 C      3.796     0.021    20.235     6.405
 128   6 C      2.759     0.267    22.497     7.767
 129   8 O      0.858    -0.493    23.639     6.519
 130   6 C      3.726     0.122    18.691     6.173
 131   8 O      1.655    -0.472    22.298     6.375
 132   6 C      3.753    -0.106    22.582     6.777
 133   1 H      0.860     0.230     0.963     1.537
 134   1 H      0.924     0.051     2.308     2.376
 135   1 H      0.924     0.053     2.283     2.363
 136   1 H      0.804     0.324     0.654     1.270
 137   1 H      0.925     0.060     2.195     2.317
 138   1 H      0.925     0.025     2.665     2.553
 139   1 H      0.924     0.026     2.641     2.541
 140   7 N      2.694    -0.183    24.958     7.420
 141   6 C      3.795     0.028    20.113     6.386
 142   6 C      2.758     0.277    22.312     7.735
 143   8 O      0.858    -0.502    23.822     6.544
 144   6 C      3.812    -0.071    21.839     6.652
 145   6 C      3.849    -0.017    20.839     6.493
 146   6 C      3.755    -0.115    22.749     6.801
 147   6 C      3.758    -0.119    22.823     6.811
 148   1 H      0.860     0.230     0.965     1.539
 149   1 H      0.924     0.066     2.130     2.282
 150   1 H      0.924     0.055     2.255     2.348
 151   1 H      0.924     0.066     2.133     2.284
 152   1 H      0.924     0.053     2.278     2.361
 153   1 H      0.925     0.058     2.219     2.330
 154   1 H      0.925     0.018     2.765     2.600
 155   1 H      0.925     0.030     2.581     2.512
 156   1 H      0.925     0.061     2.193     2.316
 157   1 H      0.925     0.041     2.432     2.439
 158   1 H      0.925     0.056     2.246     2.343
 159   7 N      2.693    -0.177    24.825     7.400
 160   6 C      3.796     0.017    20.286     6.414
 161   6 C      2.759     0.266    22.520     7.771
 162   8 O      0.859    -0.473    23.196     6.457
 163   6 C      3.728     0.130    18.566     6.152
 164   8 O      1.655    -0.476    22.378     6.386
 165   6 C      3.753    -0.115    22.755     6.802
 166   1 H      0.860     0.227     0.979     1.550
 167   1 H      0.924     0.056     2.249     2.345
 168   1 H      0.923     0.009     2.912     2.669
 169   1 H      0.803     0.350     0.588     1.205
 170   1 H      0.925     0.070     2.091     2.261
 171   1 H      0.925     0.028     2.610     2.526
 172   1 H      0.925     0.050     2.324     2.384
 173   7 N      2.690    -0.156    24.369     7.332
 174   6 C      3.796     0.025    20.151     6.392
 175   6 C      2.767     0.200    23.741     7.980
 176   8 O      0.856    -0.357    20.833     6.120
 177   6 C      3.854    -0.023    20.941     6.508
 178   6 C      3.802    -0.059    21.634     6.622
 179   6 C      3.755    -0.124    22.925     6.827
 180   6 C      3.751    -0.115    22.762     6.804
 181   1 H      0.860     0.207     1.071     1.621
 182   1 H      0.924     0.091     1.872     2.140
 183   1 H      0.924     0.067     2.121     2.277
 184   1 H      0.924     0.017     2.773     2.604
 185   1 H      0.924     0.054     2.275     2.359
 186   1 H      0.925     0.072     2.065     2.247
 187   1 H      0.925     0.042     2.420     2.433
 188   1 H      0.925     0.060     2.198     2.318
 189   1 H      0.925     0.042     2.421     2.433
 190   1 H      0.925     0.067     2.120     2.277
 191   1 H      0.925     0.026     2.638     2.540
 192   7 N      2.633    -0.380    29.833     8.112
 193   6 C      3.784     0.029    20.095     6.385
 194   6 C      2.765     0.203    23.690     7.971
 195   8 O      0.856    -0.384    21.366     6.197
 196   6 C      3.852    -0.016    20.823     6.490
 197   6 C      3.756    -0.114    22.742     6.800
 198   6 C      3.754    -0.112    22.690     6.792
 199   1 H      0.860     0.148     1.414     1.863
 200   1 H      0.924     0.074     2.040     2.234
 201   1 H      0.924     0.041     2.437     2.441
 202   1 H      0.925     0.052     2.289     2.366
 203   1 H      0.925     0.047     2.359     2.402
 204   1 H      0.925     0.045     2.388     2.416
 205   1 H      0.925     0.051     2.307     2.375
 206   1 H      0.925     0.037     2.491     2.468
 207   1 H      0.925     0.033     2.544     2.494
 208   7 N      2.636    -0.377    29.733     8.098
 209   6 C      3.785     0.022    20.220     6.405
 210   6 C      2.759     0.284    22.194     7.715
 211   8 O      0.858    -0.481    23.378     6.483
 212   6 C      3.725     0.133    18.520     6.145
 213   8 O      1.653    -0.508    23.075     6.485
 214   6 C      3.752    -0.119    22.845     6.816
 215   1 H      0.860     0.160     1.333     1.808
 216   1 H      0.924     0.049     2.330     2.387
 217   1 H      0.923    -0.023     3.498     2.925
 218   1 H      0.802     0.302     0.714     1.327
 219   1 H      0.925     0.034     2.524     2.484
 220   1 H      0.925     0.058     2.220     2.330
 221   1 H      0.925     0.062     2.177     2.307
 222   7 N      2.696    -0.191    25.146     7.448
 223   6 C      3.803     0.028    20.105     6.384
 224   6 C      2.766     0.281    22.245     7.724
 225   8 O      0.859    -0.476    23.260     6.466
 226   6 C      3.853    -0.023    20.947     6.510
 227   6 C      3.806    -0.065    21.746     6.639
 228   6 C      3.754    -0.110    22.661     6.788
 229   6 C      3.752    -0.108    22.623     6.783
 230   1 H      0.860     0.214     1.038     1.596
 231   1 H      0.924     0.050     2.321     2.383
 232   1 H      0.924     0.063     2.167     2.302
 233   1 H      0.924     0.043     2.411     2.428
 234   1 H      0.924     0.043     2.403     2.424
 235   1 H      0.925     0.073     2.056     2.242
 236   1 H      0.925     0.023     2.690     2.565
 237   1 H      0.925     0.034     2.535     2.490
 238   1 H      0.925     0.049     2.337     2.391
 239   1 H      0.925     0.044     2.399     2.422
 240   1 H      0.925     0.049     2.333     2.389
 241   7 N      2.691    -0.173    24.742     7.388
 242   6 C      3.804     0.039    19.913     6.353
 243   6 C      2.757     0.270    22.436     7.757
 244   8 O      0.858    -0.487    23.496     6.499
 245   6 C      3.801    -0.080    22.035     6.683
 246   6 C      2.683     0.375    20.645     7.436
 247   8 O      0.856    -0.611    26.395     6.888
 248   8 O      0.856    -0.618    26.573     6.911
 249   1 H      0.860     0.191     1.151     1.681
 250   1 H      0.924     0.088     1.896     2.153
 251   1 H      0.924     0.018     2.763     2.599
 252   1 H      0.924     0.004     2.997     2.707
 253   7 N      2.693    -0.184    24.976     7.422
 254   6 C      3.799     0.034    19.998     6.367
 255   6 C      2.763     0.277    22.308     7.735
 256   8 O      0.859    -0.502    23.837     6.546
 257   6 C      3.854    -0.015    20.803     6.487
 258   6 C      3.802    -0.059    21.630     6.621
 259   6 C      3.755    -0.116    22.767     6.803
 260   6 C      3.752    -0.115    22.752     6.802
 261   1 H      0.860     0.206     1.076     1.625
 262   1 H      0.924     0.053     2.287     2.365
 263   1 H      0.924     0.039     2.468     2.457
 264   1 H      0.924     0.038     2.472     2.458
 265   1 H      0.924     0.032     2.564     2.504
 266   1 H      0.925     0.081     1.964     2.192
 267   1 H      0.925     0.024     2.681     2.560
 268   1 H      0.925     0.045     2.381     2.413
 269   1 H      0.925     0.057     2.234     2.337
 270   1 H      0.925     0.051     2.311     2.377
 271   1 H      0.925     0.059     2.216     2.328
 272   7 N      2.692    -0.172    24.727     7.385
 273   6 C      3.806     0.042    19.866     6.345
 274   6 C      2.754     0.269    22.450     7.759
 275   8 O      0.858    -0.490    23.560     6.508
 276   6 C      3.801    -0.091    22.228     6.712
 277   6 C      2.688     0.375    20.650     7.437
 278   8 O      0.856    -0.645    27.247     6.998
 279   8 O      0.856    -0.631    26.881     6.951
 280   1 H      0.860     0.194     1.136     1.670
 281   1 H      0.924     0.066     2.127     2.281
 282   1 H      0.924     0.020     2.728     2.583
 283   1 H      0.925     0.032     2.551     2.498
 284   7 N      2.696    -0.170    24.675     7.378
 285   6 C      3.794     0.023    20.195     6.399
 286   6 C      2.758     0.271    22.429     7.755
 287   8 O      0.858    -0.498    23.732     6.531
 288   6 C      3.810    -0.073    21.889     6.660
 289   6 C      3.849    -0.004    20.623     6.459
 290   6 C      3.758    -0.115    22.744     6.799
 291   6 C      3.756    -0.113    22.713     6.795
 292   1 H      0.860     0.217     1.022     1.584
 293   1 H      0.924     0.075     2.034     2.230
 294   1 H      0.924     0.038     2.478     2.462
 295   1 H      0.924     0.076     2.025     2.225
 296   1 H      0.924     0.015     2.809     2.621
 297   1 H      0.925     0.057     2.231     2.336
 298   1 H      0.925     0.034     2.528     2.487
 299   1 H      0.925     0.050     2.314     2.379
 300   1 H      0.925     0.055     2.262     2.352
 301   1 H      0.925     0.051     2.312     2.378
 302   1 H      0.925     0.025     2.660     2.551
 303   7 N      2.689    -0.158    24.412     7.338
 304   6 C      3.790     0.028    20.119     6.388
 305   6 C      2.770     0.199    23.757     7.983
 306   8 O      0.856    -0.350    20.705     6.101
 307   6 C      3.809    -0.072    21.874     6.658
 308   6 C      3.802    -0.066    21.771     6.643
 309   6 C      3.805    -0.084    22.097     6.692
 310   6 C      3.731    -0.035    21.296     6.587
 311   7 N      3.481    -0.170    24.673     7.377
 312   1 H      0.860     0.217     1.022     1.584
 313   1 H      0.924     0.088     1.902     2.157
 314   1 H      0.924     0.071     2.076     2.253
 315   1 H      0.924     0.075     2.026     2.226
 316   1 H      0.924     0.038     2.481     2.463
 317   1 H      0.925     0.073     2.057     2.243
 318   1 H      0.924     0.077     2.015     2.220
 319   1 H      0.924     0.054     2.269     2.355
 320   1 H      0.924     0.088     1.900     2.155
 321   1 H      0.925     0.118     1.630     1.996
 322   1 H      0.859     0.294     0.732     1.340
 323   1 H      0.855     0.311     0.683     1.295
 324   1 H      0.859     0.261     0.842     1.437
 325   7 N      2.637    -0.387    30.018     8.137
 326   6 C      3.790     0.048    19.779     6.334
 327   6 C      2.760     0.265    22.528     7.773
 328   8 O      0.858    -0.496    23.698     6.527
 329   6 C      3.803    -0.086    22.132     6.698
 330   6 C      2.681     0.376    20.636     7.434
 331   8 O      0.856    -0.631    26.903     6.954
 332   8 O      0.856    -0.647    27.306     7.006
 333   1 H      0.860     0.149     1.406     1.858
 334   1 H      0.923     0.031     2.568     2.506
 335   1 H      0.924     0.016     2.795     2.614
 336   1 H      0.924    -0.005     3.155     2.778
 337   7 N      2.693    -0.166    24.591     7.365
 338   6 C      3.792     0.032    20.051     6.377
 339   6 C      2.766     0.198    23.779     7.986
 340   8 O      0.856    -0.336    20.442     6.062
 341   6 C      3.810    -0.079    22.000     6.676
 342   6 C      3.849    -0.007    20.661     6.465
 343   6 C      3.757    -0.117    22.794     6.807
 344   6 C      3.756    -0.110    22.656     6.787
 345   1 H      0.860     0.207     1.070     1.620
 346   1 H      0.923     0.076     2.020     2.222
 347   1 H      0.924     0.068     2.110     2.272
 348   1 H      0.924     0.074     2.039     2.233
 349   1 H      0.924     0.020     2.727     2.583
 350   1 H      0.925     0.043     2.412     2.429
 351   1 H      0.925     0.046     2.374     2.410
 352   1 H      0.925     0.052     2.301     2.372
 353   1 H      0.925     0.039     2.459     2.452
 354   1 H      0.925     0.052     2.293     2.368
 355   1 H      0.925     0.025     2.656     2.548
 356   7 N      2.635    -0.392    30.147     8.155
 357   6 C      3.787     0.039    19.925     6.358
 358   6 C      2.766     0.198    23.783     7.987
 359   8 O      0.856    -0.353    20.755     6.108
 360   6 C      3.853    -0.016    20.823     6.490
 361   6 C      3.757    -0.113    22.717     6.796
 362   6 C      3.756    -0.097    22.402     6.748
 363   1 H      0.860     0.167     1.294     1.782
 364   1 H      0.923     0.039     2.458     2.452
 365   1 H      0.924     0.057     2.240     2.341
 366   1 H      0.925     0.040     2.450     2.448
 367   1 H      0.925     0.053     2.282     2.362
 368   1 H      0.925     0.041     2.432     2.439
 369   1 H      0.925     0.007     2.931     2.677
 370   1 H      0.925     0.036     2.505     2.475
 371   1 H      0.925     0.037     2.483     2.464
 372   7 N      2.635    -0.392    30.157     8.156
 373   6 C      3.787     0.028    20.121     6.389
 374   6 C      2.761     0.265    22.538     7.775
 375   8 O      0.859    -0.502    23.820     6.544
 376   6 C      3.805    -0.076    21.957     6.671
 377   6 C      3.803    -0.085    22.113     6.695
 378   6 C      3.738    -0.023    21.068     6.550
 379   7 N      2.699    -0.141    24.044     7.283
 380   6 C      2.736     0.234    23.091     7.867
 381   7 N      2.655    -0.261    26.767     7.684
 382   7 N      2.651    -0.240    26.279     7.613
 383   1 H      0.860     0.152     1.388     1.846
 384   1 H      0.923     0.049     2.327     2.386
 385   1 H      0.924     0.052     2.293     2.368
 386   1 H      0.924     0.047     2.358     2.401
 387   1 H      0.925     0.072     2.069     2.249
 388   1 H      0.925     0.072     2.064     2.247
 389   1 H      0.924     0.075     2.030     2.228
 390   1 H      0.924     0.081     1.966     2.193
 391   1 H      0.860     0.214     1.037     1.595
 392   1 H      0.860     0.234     0.948     1.525
 393   1 H      0.860     0.258     0.852     1.446
 394   1 H      0.860     0.251     0.880     1.470
 395   1 H      0.860     0.260     0.846     1.441
 396   7 N      2.689    -0.172    24.731     7.386
 397   6 C      3.798     0.029    20.093     6.382
 398   6 C      2.768     0.201    23.719     7.976
 399   8 O      0.856    -0.355    20.805     6.115
 400   6 C      3.812    -0.080    22.023     6.680
 401   6 C      2.967     0.017    27.636     8.623
 402   6 C      2.927    -0.039    28.974     8.827
 403   6 C      2.925    -0.040    28.983     8.829
 404   6 C      2.919    -0.037    28.916     8.818
 405   6 C      2.919    -0.033    28.820     8.804
 406   6 C      2.921    -0.036    28.901     8.816
 407   1 H      0.860     0.241     0.919     1.501
 408   1 H      0.924     0.087     1.910     2.162
 409   1 H      0.924     0.076     2.025     2.226
 410   1 H      0.924     0.075     2.027     2.227
 411   1 H      0.926     0.042     2.429     2.437
 412   1 H      0.926     0.043     2.404     2.425
 413   1 H      0.926     0.036     2.504     2.474
 414   1 H      0.926     0.038     2.470     2.458
 415   1 H      0.926     0.024     2.673     2.557
 416   7 N      2.636    -0.404    30.475     8.199
 417   6 C      3.781     0.050    19.764     6.333
 418   6 C      2.766     0.204    23.668     7.967
 419   8 O      0.856    -0.394    21.554     6.225
 420   6 C      3.757    -0.118    22.805     6.809
 421   1 H      0.860     0.190     1.158     1.686
 422   1 H      0.923     0.032     2.553     2.499
 423   1 H      0.925     0.040     2.448     2.446
 424   1 H      0.925     0.064     2.153     2.295
 425   1 H      0.925     0.065     2.141     2.288
 426   1 H      0.862     0.182     1.202     1.717
 427   1 H      0.930     0.087     1.912     2.162
 428   1 H      0.862     0.182     1.203     1.718
 429   1 H      0.930     0.079     1.984     2.202
 430   1 H      0.862     0.183     1.197     1.714
 431   1 H      0.930     0.076     2.024     2.225
 432   1 H      0.862     0.186     1.181     1.703
 433   1 H      0.930     0.060     2.199     2.319
 434   1 H      0.862     0.165     1.304     1.789
 435   1 H      0.930     0.069     2.095     2.263
 436   1 H      0.862     0.194     1.137     1.670
 437   1 H      0.930     0.088     1.896     2.153
 438   1 H      0.862     0.179     1.217     1.728
 439   1 H      0.930     0.068     2.112     2.272
 440   1 H      0.862     0.190     1.160     1.687
 441   1 H      0.930     0.083     1.952     2.185
 442   1 H      0.862     0.186     1.182     1.703
 443   1 H      0.930     0.081     1.965     2.192
 444   1 H      0.862     0.178     1.227     1.735
 445   1 H      0.930     0.080     1.974     2.197
 446   1 H      0.862     0.185     1.187     1.706
 447   1 H      0.930     0.075     2.032     2.229
 448   1 H      0.862     0.175     1.244     1.747
 449   1 H      0.930     0.073     2.048     2.238

 Mol. C6AA /au·bohr⁶  :    1761881.530799
 Mol. C8AA /au·bohr⁸  :   38422725.810798
 Mol. α(0) /au        :       1978.726047


Wiberg/Mayer (AO) data.
largest (>0.10) Wiberg bond orders for each atom
          total WBO             WBO to atom ...
     1  N   2.994        C    2 1.020    H    5 0.956    H  426 0.956
     2  C   3.986        N    1 1.020    C    3 0.991    H    6 0.965    H    7 0.940
     3  C   3.888        O    4 1.882    C    2 0.991    H  427 0.953
     4  O   2.061        C    3 1.882
     5  H   0.970        N    1 0.956
     6  H   0.997        C    2 0.965
     7  H   0.994        C    2 0.940
     8  N   2.995        C    9 1.011    H  428 0.957    H   16 0.950
     9  C   3.984        N    8 1.011    C   12 0.965    H   17 0.963    C   10 0.940
    10  C   3.939        O   11 1.567    N   27 1.337    C    9 0.940
    11  O   1.941        C   10 1.567    N   27 0.189
    12  C   3.991        C   14 1.009    C   13 0.996    C    9 0.965    H   18 0.958
    13  C   3.996        C   15 1.019    C   12 0.996    H   19 0.977    H   20 0.973
    14  C   3.995        C   12 1.009    H   23 0.985    H   22 0.983    H   21 0.981
    15  C   3.994        C   13 1.019    H   24 0.986    H   26 0.984    H   25 0.984
    16  H   0.974        N    8 0.950
    17  H   0.999        C    9 0.963
    18  H   0.997        C   12 0.958
    19  H   0.998        C   13 0.977
    20  H   0.999        C   13 0.973
    21  H   0.998        C   14 0.981
    22  H   0.999        C   14 0.983
    23  H   0.998        C   14 0.985
    24  H   0.997        C   15 0.986
    25  H   0.999        C   15 0.984
    26  H   0.998        C   15 0.984
    27  N   3.485        C   10 1.337    C   28 0.975    H   32 0.877    O   11 0.189
    28  C   3.971        C   31 0.990    N   27 0.975    C   29 0.967    H   33 0.951
    29  C   3.900        O   30 1.902    C   28 0.967    H  429 0.953
    30  O   2.046        C   29 1.902
    31  C   3.982        C   28 0.990    H   34 0.980    H   36 0.979    H   35 0.978
    32  H   0.937        N   27 0.877
    33  H   0.996        C   28 0.951
    34  H   0.996        C   31 0.980
    35  H   0.994        C   31 0.978
    36  H   0.993        C   31 0.979
    37  N   2.998        C   38 1.016    H  430 0.955    H   44 0.924
    38  C   3.987        N   37 1.016    C   39 0.983    H   45 0.960    C   41 0.928
    39  C   3.892        O   40 1.881    C   38 0.983    H  431 0.953
    40  O   2.024        C   39 1.881
    41  C   3.961        C   43 1.005    O   42 1.004    H   46 0.957    C   38 0.928
    42  O   1.964        C   41 1.004    H   47 0.849
    43  C   3.994        C   41 1.005    H   50 0.984    H   49 0.984    H   48 0.983
    44  H   0.967        N   37 0.924
    45  H   0.997        C   38 0.960
    46  H   0.999        C   41 0.957
    47  H   0.897        O   42 0.849
    48  H   0.997        C   43 0.983
    49  H   0.998        C   43 0.984
    50  H   0.997        C   43 0.984
    51  N   3.001        C   52 1.008    H  432 0.955    H   58 0.952
    52  C   3.985        N   51 1.008    C   53 0.971    H   59 0.967    C   55 0.954
    53  C   3.896        O   54 1.894    C   52 0.971    H  433 0.955
    54  O   2.046        C   53 1.894
    55  C   3.992        C   57 1.009    C   56 1.008    H   60 0.964    C   52 0.954
    56  C   3.995        C   55 1.008    H   63 0.986    H   61 0.985    H   62 0.982
    57  C   3.994        C   55 1.009    H   65 0.986    H   64 0.983    H   66 0.982
    58  H   0.972        N   51 0.952
    59  H   0.998        C   52 0.967
    60  H   0.997        C   55 0.964
    61  H   0.997        C   56 0.985
    62  H   0.999        C   56 0.982
    63  H   0.998        C   56 0.986
    64  H   0.997        C   57 0.983
    65  H   0.998        C   57 0.986
    66  H   0.998        C   57 0.982
    67  N   2.996        C   68 1.024    H  434 0.960    H   74 0.934
    68  C   3.986        N   67 1.024    C   69 0.984    C   71 0.940    H   75 0.939
    69  C   3.891        O   70 1.876    C   68 0.984    H  435 0.953
    70  O   2.032        C   69 1.876
    71  C   3.989        C   73 1.010    C   72 1.007    H   76 0.965    C   68 0.940
    72  C   3.994        C   71 1.007    H   78 0.985    H   77 0.982    H   79 0.976
    73  C   3.995        C   71 1.010    H   82 0.987    H   80 0.983    H   81 0.981
    74  H   0.968        N   67 0.934
    75  H   0.999        C   68 0.939
    76  H   0.998        C   71 0.965
    77  H   0.997        C   72 0.982
    78  H   0.998        C   72 0.985
    79  H   0.997        C   72 0.976
    80  H   0.998        C   73 0.983
    81  H   0.997        C   73 0.981
    82  H   0.999        C   73 0.987
    83  N   2.993        C   84 1.027    H   92 0.955    H  436 0.948
    84  C   3.988        N   83 1.027    C   87 0.959    H   93 0.954    C   85 0.949
    85  C   3.941        O   86 1.626    N  100 1.293    C   84 0.949
    86  O   1.947        C   85 1.626    N  100 0.192
    87  C   3.994        C   88 0.993    H   94 0.974    H   95 0.973    C   84 0.959
    88  C   3.995        C   87 0.993    H   96 0.975    C   89 0.966    H   97 0.962
    89  C   3.945        O   90 1.638    N   91 1.314    C   88 0.966
    90  O   1.937        C   89 1.638    N   91 0.201
    91  N   3.402        C   89 1.314    H   99 0.927    H   98 0.914    O   90 0.201
    92  H   0.975        N   83 0.955
    93  H   0.997        C   84 0.954
    94  H   0.998        C   87 0.974
    95  H   0.996        C   87 0.973
    96  H   0.996        C   88 0.975
    97  H   0.997        C   88 0.962
    98  H   0.951        N   91 0.914
    99  H   0.948        N   91 0.927
   100  N   3.467        C   85 1.293    C  101 0.984    H  108 0.923    O   86 0.192
   101  C   3.969        N  100 0.984    C  104 0.980    C  102 0.937    H  109 0.934
   102  C   3.945        O  103 1.614    N  112 1.304    C  101 0.937
   103  O   1.945        C  102 1.614    N  112 0.190
   104  C   3.977        C  101 0.980    H  111 0.974    H  110 0.963    C  105 0.904
   105  C   3.940        O  107 1.555    O  106 1.440    C  104 0.904
   106  O   1.846        C  105 1.440    O  107 0.208
   107  O   1.862        C  105 1.555    O  106 0.208
   108  H   0.958        N  100 0.923
   109  H   0.996        C  101 0.934
   110  H   0.998        C  104 0.963
   111  H   0.998        C  104 0.974
   112  N   3.469        C  102 1.304    C  113 0.990    H  120 0.903    O  103 0.190
   113  C   3.969        N  112 0.990    C  116 0.968    H  121 0.947    C  114 0.941
   114  C   3.946        O  115 1.602    N  126 1.324    C  113 0.941
   115  O   1.978        C  114 1.602    N  126 0.195
   116  C   3.989        C  117 0.968    C  113 0.968    H  123 0.954    H  122 0.952
   117  C   3.950        O  118 1.617    N  119 1.335    C  116 0.968
   118  O   1.972        C  117 1.617    N  119 0.199
   119  N   3.410        C  117 1.335    H  125 0.924    H  124 0.914    O  118 0.199
   120  H   0.955        N  112 0.903
   121  H   0.994        C  113 0.947
   122  H   0.991        C  116 0.952
   123  H   0.994        C  116 0.954
   124  H   0.935        N  119 0.914
   125  H   0.942        N  119 0.924
   126  N   3.487        C  114 1.324    C  127 0.980    H  133 0.882    O  115 0.195
   127  C   3.967        N  126 0.980    H  134 0.953    C  130 0.952    C  128 0.931
   128  C   3.955        O  129 1.627    N  140 1.319    C  127 0.931
   129  O   1.944        C  128 1.627    N  140 0.202
   130  C   3.960        O  131 1.005    C  132 1.000    H  135 0.960    C  127 0.952
   131  O   1.951        C  130 1.005    H  136 0.854
   132  C   3.994        C  130 1.000    H  138 0.984    H  137 0.983    H  139 0.983
   133  H   0.947        N  126 0.882
   134  H   0.997        C  127 0.953
   135  H   0.997        C  130 0.960
   136  H   0.895        O  131 0.854
   137  H   0.995        C  132 0.983
   138  H   0.999        C  132 0.984
   139  H   0.999        C  132 0.983
   140  N   3.473        C  128 1.319    C  141 0.969    H  148 0.881    O  129 0.202
   141  C   3.955        C  144 0.977    N  140 0.969    H  149 0.956    C  142 0.930
   142  C   3.941        O  143 1.611    N  159 1.310    C  141 0.930
   143  O   1.959        C  142 1.611    N  159 0.191
   144  C   3.980        C  145 0.992    C  141 0.977    H  151 0.966    H  150 0.965
   145  C   3.990        C  146 1.009    C  147 1.006    C  144 0.992    H  152 0.967
   146  C   3.995        C  145 1.009    H  155 0.984    H  154 0.984    H  153 0.981
   147  C   3.992        C  145 1.006    H  157 0.986    H  158 0.984    H  156 0.984
   148  H   0.947        N  140 0.881
   149  H   0.995        C  141 0.956
   150  H   0.997        C  144 0.965
   151  H   0.995        C  144 0.966
   152  H   0.997        C  145 0.967
   153  H   0.996        C  146 0.981
   154  H   1.000        C  146 0.984
   155  H   0.999        C  146 0.984
   156  H   0.996        C  147 0.984
   157  H   0.998        C  147 0.986
   158  H   0.997        C  147 0.984
   159  N   3.474        C  142 1.310    C  160 0.973    H  166 0.909    O  143 0.191
   160  C   3.963        N  159 0.973    C  163 0.958    H  167 0.947    C  161 0.932
   161  C   3.957        O  162 1.611    N  173 1.329    C  160 0.932
   162  O   1.963        C  161 1.611    N  173 0.201
   163  C   3.966        O  164 1.007    C  165 1.005    C  160 0.958    H  168 0.958
   164  O   1.943        C  163 1.007    H  169 0.837
   165  C   3.991        C  163 1.005    H  171 0.984    H  172 0.982    H  170 0.982
   166  H   0.948        N  159 0.909
   167  H   0.997        C  160 0.947
   168  H   0.999        C  163 0.958
   169  H   0.877        O  164 0.837
   170  H   0.995        C  165 0.982
   171  H   0.999        C  165 0.984
   172  H   0.997        C  165 0.982
   173  N   3.506        C  161 1.329    C  174 0.958    H  181 0.909    O  162 0.201
   174  C   3.945        C  175 0.964    N  173 0.958    C  177 0.956    H  182 0.953
   175  C   3.888        O  176 1.878    C  174 0.964    H  437 0.952
   176  O   2.068        C  175 1.878
   177  C   3.979        C  179 1.006    C  178 0.994    H  183 0.957    C  174 0.956
   178  C   3.995        C  180 1.020    C  177 0.994    H  184 0.974    H  185 0.968
   179  C   3.990        C  177 1.006    H  188 0.982    H  187 0.982    H  186 0.982
   180  C   3.994        C  178 1.020    H  191 0.987    H  190 0.982    H  189 0.982
   181  H   0.957        N  173 0.909
   182  H   0.992        C  174 0.953
   183  H   0.996        C  177 0.957
   184  H   1.000        C  178 0.974
   185  H   0.997        C  178 0.968
   186  H   0.994        C  179 0.982
   187  H   0.998        C  179 0.982
   188  H   0.996        C  179 0.982
   189  H   0.998        C  180 0.982
   190  H   0.995        C  180 0.982
   191  H   0.999        C  180 0.987
   192  N   3.003        C  193 1.026    H  199 0.955    H  438 0.946
   193  C   3.983        N  192 1.026    C  194 0.992    H  200 0.943    C  196 0.927
   194  C   3.898        O  195 1.880    C  193 0.992    H  439 0.954
   195  O   2.028        C  194 1.880
   196  C   3.993        C  198 1.010    C  197 1.008    H  201 0.967    C  193 0.927
   197  C   3.994        C  196 1.008    H  203 0.985    H  202 0.976    H  204 0.974
   198  C   3.995        C  196 1.010    H  207 0.985    H  205 0.982    H  206 0.982
   199  H   0.978        N  192 0.955
   200  H   0.994        C  193 0.943
   201  H   0.998        C  196 0.967
   202  H   0.997        C  197 0.976
   203  H   0.998        C  197 0.985
   204  H   0.998        C  197 0.974
   205  H   0.997        C  198 0.982
   206  H   0.999        C  198 0.982
   207  H   0.999        C  198 0.985
   208  N   3.003        C  209 1.034    H  215 0.956    H  440 0.947
   209  C   3.989        N  208 1.034    H  216 0.948    C  210 0.943    C  212 0.932
   210  C   3.943        O  211 1.658    N  222 1.274    C  209 0.943
   211  O   1.963        C  210 1.658    N  222 0.185
   212  C   3.949        C  214 0.996    O  213 0.988    H  217 0.966    C  209 0.932
   213  O   1.926        C  212 0.988    H  218 0.832
   214  C   3.993        C  212 0.996    H  219 0.985    H  220 0.983    H  221 0.982
   215  H   0.974        N  208 0.956
   216  H   0.998        C  209 0.948
   217  H   0.999        C  212 0.966
   218  H   0.908        O  213 0.832
   219  H   0.998        C  214 0.985
   220  H   0.997        C  214 0.983
   221  H   0.996        C  214 0.982
   222  N   3.432        C  210 1.274    C  223 0.978    H  230 0.897    O  211 0.185
   223  C   3.962        N  222 0.978    H  231 0.956    C  226 0.952    C  224 0.940
   224  C   3.935        O  225 1.621    N  241 1.290    C  223 0.940
   225  O   1.964        C  224 1.621    N  241 0.187
   226  C   3.981        C  228 1.009    C  227 0.993    H  232 0.961    C  223 0.952
   227  C   3.992        C  229 1.019    C  226 0.993    H  233 0.973    H  234 0.973
   228  C   3.993        C  226 1.009    H  236 0.984    H  237 0.984    H  235 0.978
   229  C   3.993        C  227 1.019    H  240 0.982    H  239 0.982    H  238 0.982
   230  H   0.954        N  222 0.897
   231  H   0.997        C  223 0.956
   232  H   0.996        C  226 0.961
   233  H   0.998        C  227 0.973
   234  H   0.998        C  227 0.973
   235  H   0.994        C  228 0.978
   236  H   0.999        C  228 0.984
   237  H   0.999        C  228 0.984
   238  H   0.997        C  229 0.982
   239  H   0.998        C  229 0.982
   240  H   0.998        C  229 0.982
   241  N   3.471        C  224 1.290    C  242 0.989    H  249 0.930    O  225 0.187
   242  C   3.967        N  241 0.989    C  245 0.980    H  250 0.938    C  243 0.935
   243  C   3.948        O  244 1.635    N  253 1.295    C  242 0.935
   244  O   1.946        C  243 1.635    N  253 0.195
   245  C   3.981        C  242 0.980    H  251 0.969    H  252 0.964    C  246 0.907
   246  C   3.936        O  248 1.537    O  247 1.455    C  245 0.907
   247  O   1.841        C  246 1.455    O  248 0.211
   248  O   1.831        C  246 1.537    O  247 0.211
   249  H   0.963        N  241 0.930
   250  H   0.992        C  242 0.938
   251  H   1.000        C  245 0.969
   252  H   0.999        C  245 0.964
   253  N   3.465        C  243 1.295    C  254 0.979    H  261 0.905    O  244 0.195
   254  C   3.955        N  253 0.979    H  262 0.956    C  255 0.945    C  257 0.941
   255  C   3.937        O  256 1.588    N  272 1.313    C  254 0.945
   256  O   1.946        C  255 1.588    N  272 0.185
   257  C   3.979        C  259 1.009    C  258 0.992    H  263 0.963    C  254 0.941
   258  C   3.990        C  260 1.016    C  257 0.992    H  265 0.974    H  264 0.970
   259  C   3.991        C  257 1.009    H  267 0.985    H  268 0.982    H  266 0.978
   260  C   3.990        C  258 1.016    H  270 0.986    H  271 0.984    H  269 0.979
   261  H   0.957        N  253 0.905
   262  H   0.997        C  254 0.956
   263  H   0.998        C  257 0.963
   264  H   0.998        C  258 0.970
   265  H   0.999        C  258 0.974
   266  H   0.993        C  259 0.978
   267  H   0.999        C  259 0.985
   268  H   0.998        C  259 0.982
   269  H   0.996        C  260 0.979
   270  H   0.997        C  260 0.986
   271  H   0.996        C  260 0.984
   272  N   3.479        C  255 1.313    C  273 0.974    H  280 0.927    O  256 0.185
   273  C   3.958        N  272 0.974    C  276 0.972    H  281 0.946    C  274 0.925
   274  C   3.956        O  275 1.622    N  284 1.324    C  273 0.925
   275  O   1.943        C  274 1.622    N  284 0.205
   276  C   3.987        H  283 0.977    H  282 0.977    C  273 0.972    C  277 0.907
   277  C   3.934        O  278 1.508    O  279 1.489    C  276 0.907
   278  O   1.802        C  277 1.508    O  279 0.216
   279  O   1.812        C  277 1.489    O  278 0.216
   280  H   0.962        N  272 0.927
   281  H   0.996        C  273 0.946
   282  H   0.999        C  276 0.977
   283  H   0.998        C  276 0.977
   284  N   3.487        C  274 1.324    C  285 0.977    H  292 0.894    O  275 0.205
   285  C   3.958        N  284 0.977    C  288 0.966    H  293 0.950    C  286 0.939
   286  C   3.949        O  287 1.598    N  303 1.321    C  285 0.939
   287  O   1.954        C  286 1.598    N  303 0.192
   288  C   3.982        C  289 0.991    H  294 0.974    C  285 0.966    H  295 0.964
   289  C   3.993        C  291 1.010    C  290 1.007    C  288 0.991    H  296 0.968
   290  C   3.993        C  289 1.007    H  298 0.985    H  297 0.984    H  299 0.978
   291  C   3.994        C  289 1.010    H  302 0.984    H  301 0.984    H  300 0.983
   292  H   0.953        N  284 0.894
   293  H   0.994        C  285 0.950
   294  H   0.999        C  288 0.974
   295  H   0.994        C  288 0.964
   296  H   0.999        C  289 0.968
   297  H   0.996        C  290 0.984
   298  H   0.999        C  290 0.985
   299  H   0.997        C  290 0.978
   300  H   0.997        C  291 0.983
   301  H   0.997        C  291 0.984
   302  H   0.999        C  291 0.984
   303  N   3.487        C  286 1.321    C  304 0.983    H  312 0.918    O  287 0.192
   304  C   3.962        C  305 0.984    N  303 0.983    C  307 0.943    H  313 0.939
   305  C   3.906        O  306 1.904    C  304 0.984    H  441 0.953
   306  O   2.052        C  305 1.904
   307  C   3.983        C  308 1.005    H  314 0.972    H  315 0.969    C  304 0.943
   308  C   3.994        C  307 1.005    C  309 1.004    H  316 0.979    H  317 0.969
   309  C   3.988        C  310 1.009    C  308 1.004    H  318 0.967    H  319 0.967
   310  C   3.924        C  309 1.009    H  320 0.971    H  321 0.965    N  311 0.961
   311  N   3.641        C  310 0.961    H  324 0.918    H  322 0.901    H  323 0.790
   312  H   0.953        N  303 0.918
   313  H   0.992        C  304 0.939
   314  H   0.994        C  307 0.972
   315  H   0.994        C  307 0.969
   316  H   0.999        C  308 0.979
   317  H   0.995        C  308 0.969
   318  H   0.994        C  309 0.967
   319  H   0.997        C  309 0.967
   320  H   0.992        C  310 0.971
   321  H   0.986        C  310 0.965
   322  H   0.913        N  311 0.901
   323  H   0.903        N  311 0.790
   324  H   0.932        N  311 0.918
   325  N   2.991        C  326 1.011    H  333 0.959    H  442 0.955
   326  C   3.984        N  325 1.011    C  329 0.981    H  334 0.963    C  327 0.941
   327  C   3.949        O  328 1.603    N  337 1.311    C  326 0.941
   328  O   1.943        C  327 1.603    N  337 0.191
   329  C   3.982        C  326 0.981    H  335 0.975    H  336 0.966    C  330 0.892
   330  C   3.934        O  331 1.512    O  332 1.505    C  329 0.892
   331  O   1.809        C  330 1.512    O  332 0.218
   332  O   1.800        C  330 1.505    O  331 0.218
   333  H   0.978        N  325 0.959
   334  H   0.999        C  326 0.963
   335  H   1.000        C  329 0.975
   336  H   1.000        C  329 0.966
   337  N   3.477        C  327 1.311    C  338 0.970    H  345 0.918    O  328 0.191
   338  C   3.960        C  339 0.971    N  337 0.970    C  341 0.970    H  346 0.943
   339  C   3.907        O  340 1.906    C  338 0.971    H  443 0.953
   340  O   2.056        C  339 1.906
   341  C   3.983        C  342 0.990    H  347 0.970    C  338 0.970    H  348 0.968
   342  C   3.995        C  344 1.010    C  343 1.006    C  341 0.990    H  349 0.965
   343  C   3.992        C  342 1.006    H  351 0.986    H  350 0.984    H  352 0.983
   344  C   3.994        C  342 1.010    H  354 0.983    H  353 0.983    H  355 0.980
   345  H   0.957        N  337 0.918
   346  H   0.994        C  338 0.943
   347  H   0.995        C  341 0.970
   348  H   0.994        C  341 0.968
   349  H   0.999        C  342 0.965
   350  H   0.997        C  343 0.984
   351  H   0.998        C  343 0.986
   352  H   0.997        C  343 0.983
   353  H   0.998        C  344 0.983
   354  H   0.997        C  344 0.983
   355  H   0.999        C  344 0.980
   356  N   2.999        C  357 1.012    H  444 0.956    H  363 0.931
   357  C   3.986        N  356 1.012    C  358 0.978    H  364 0.959    C  360 0.951
   358  C   3.894        O  359 1.874    C  357 0.978    H  445 0.953
   359  O   2.057        C  358 1.874
   360  C   3.991        C  362 1.008    C  361 1.008    H  365 0.956    C  357 0.951
   361  C   3.995        C  360 1.008    H  368 0.985    H  366 0.978    H  367 0.977
   362  C   3.994        C  360 1.008    H  370 0.985    H  369 0.981    H  371 0.979
   363  H   0.972        N  356 0.931
   364  H   0.998        C  357 0.959
   365  H   0.997        C  360 0.956
   366  H   0.998        C  361 0.978
   367  H   0.997        C  361 0.977
   368  H   0.998        C  361 0.985
   369  H   0.998        C  362 0.981
   370  H   0.999        C  362 0.985
   371  H   0.999        C  362 0.979
   372  N   2.996        C  373 1.015    H  446 0.955    H  383 0.954
   373  C   3.984        N  372 1.015    C  376 0.976    H  384 0.961    C  374 0.938
   374  C   3.944        O  375 1.600    N  396 1.323    C  373 0.938
   375  O   1.951        C  374 1.600    N  396 0.196
   376  C   3.993        C  377 1.008    C  373 0.976    H  386 0.973    H  385 0.971
   377  C   3.989        C  376 1.008    C  378 0.995    H  388 0.971    H  387 0.968
   378  C   3.952        C  377 0.995    N  379 0.982    H  389 0.965    H  390 0.961
   379  N   3.472        C  380 1.310    C  378 0.982    H  391 0.926    N  382 0.102
   380  C   3.977        N  382 1.331    N  379 1.310    N  381 1.306
   381  N   3.384        C  380 1.306    H  392 0.926    H  393 0.914    N  382 0.102
   382  N   3.404        C  380 1.331    H  395 0.913    H  394 0.912    N  379 0.102    N  381 0.102
   383  H   0.977        N  372 0.954
   384  H   0.997        C  373 0.961
   385  H   0.997        C  376 0.971
   386  H   0.998        C  376 0.973
   387  H   0.994        C  377 0.968
   388  H   0.995        C  377 0.971
   389  H   0.994        C  378 0.965
   390  H   0.993        C  378 0.961
   391  H   0.954        N  379 0.926
   392  H   0.945        N  381 0.926
   393  H   0.933        N  381 0.914
   394  H   0.937        N  382 0.912
   395  H   0.933        N  382 0.913
   396  N   3.482        C  374 1.323    C  397 0.983    H  407 0.883    O  375 0.196
   397  C   3.969        N  396 0.983    C  398 0.968    C  400 0.962    H  408 0.942
   398  C   3.901        O  399 1.904    C  397 0.968    H  447 0.953
   399  O   2.048        C  398 1.904
   400  C   3.986        C  401 1.006    H  409 0.968    C  397 0.962    H  410 0.954
   401  C   3.988        C  402 1.418    C  403 1.408    C  400 1.006    C  406 0.109
   402  C   3.989        C  404 1.438    C  401 1.418    H  411 0.966    C  405 0.110
   403  C   3.991        C  405 1.450    C  401 1.408    H  412 0.965    C  404 0.112
   404  C   3.991        C  406 1.443    C  402 1.438    H  413 0.968    C  403 0.112
   405  C   3.992        C  403 1.450    C  406 1.433    H  414 0.967    C  402 0.110
   406  C   3.992        C  404 1.443    C  405 1.433    H  415 0.967    C  401 0.109
   407  H   0.942        N  396 0.883
   408  H   0.992        C  397 0.942
   409  H   0.994        C  400 0.968
   410  H   0.994        C  400 0.954
   411  H   0.998        C  402 0.966
   412  H   0.998        C  403 0.965
   413  H   0.998        C  404 0.968
   414  H   0.998        C  405 0.967
   415  H   0.999        C  406 0.967
   416  N   2.995        C  417 1.010    H  448 0.959    H  421 0.916
   417  C   3.988        N  416 1.010    C  420 0.983    C  418 0.972    H  422 0.964
   418  C   3.883        O  419 1.886    C  417 0.972    H  449 0.954
   419  O   2.019        C  418 1.886
   420  C   3.991        H  423 0.986    C  417 0.983    H  425 0.980    H  424 0.975
   421  H   0.964        N  416 0.916
   422  H   0.999        C  417 0.964
   423  H   0.998        C  420 0.986
   424  H   0.996        C  420 0.975
   425  H   0.996        C  420 0.980
   426  H   0.967        N    1 0.956
   427  H   0.992        C    3 0.953
   428  H   0.967        N    8 0.957
   429  H   0.994        C   29 0.953
   430  H   0.967        N   37 0.955
   431  H   0.994        C   39 0.953
   432  H   0.965        N   51 0.955
   433  H   0.996        C   53 0.955
   434  H   0.973        N   67 0.960
   435  H   0.995        C   69 0.953
   436  H   0.962        N   83 0.948
   437  H   0.992        C  175 0.952
   438  H   0.968        N  192 0.946
   439  H   0.995        C  194 0.954
   440  H   0.964        N  208 0.947
   441  H   0.993        C  305 0.953
   442  H   0.966        N  325 0.955
   443  H   0.993        C  339 0.953
   444  H   0.968        N  356 0.956
   445  H   0.994        C  358 0.953
   446  H   0.966        N  372 0.955
   447  H   0.994        C  398 0.953
   448  H   0.969        N  416 0.959
   449  H   0.995        C  418 0.954
 
molecular dipole:
                 x           y           z       tot (Debye)
 q only:     -532.109    -204.508    -454.416
   full:     -530.928    -208.444    -456.004    1856.162
molecular quadrupole (traceless):
                xx          xy          yy          xz          yz          zz
 q only:   -79460.612  -81745.624  101591.953 -181005.806  -69397.456  -22131.341
  q+dip:   -78075.384  -83076.894  100788.102 -181143.216  -71025.130  -22712.718
   full:   -78078.539  -83075.556  100790.807 -181139.413  -71018.904  -22712.269


           -------------------------------------------------
          | TOTAL ENERGY             -670.506695316519 Eh   |
          | GRADIENT NORM               0.768348989289 Eh/α |
          | HOMO-LUMO GAP               0.983260011833 eV   |
           -------------------------------------------------

------------------------------------------------------------------------
 * finished run on 2019/05/31 at 05:35:17.511     
------------------------------------------------------------------------
 total:
 * wall-time:     0 d,  0 h,  0 min,  7.694 sec
 *  cpu-time:     0 d,  0 h,  0 min, 14.955 sec
 * ratio c/w:     1.944 speedup
 SCF:
 * wall-time:     0 d,  0 h,  0 min,  7.014 sec
 *  cpu-time:     0 d,  0 h,  0 min, 14.014 sec
 * ratio c/w:     1.998 speedup

