      -----------------------------------------------------------      
     |                   =====================                   |     
     |                           x T B                           |     
     |                   =====================                   |     
     |                         S. Grimme                         |     
     |          Mulliken Center for Theoretical Chemistry        |     
     |                    University of Bonn                     |     
     |                 Version 6.0.1 (SAW181210)                 |     
      -----------------------------------------------------------      

   This program is distributed in the hope that it will be useful,
   but WITHOUT ANY WARRANTY; without even the implied warranty of
   MERCHANTABILITY or FITNESS FOR A PARTICULAR PURPOSE.
   
   FOR NON-COMMERCIAL, ACADEMIA USE ONLY.
   
   Cite this work as:
   S. Grimme, C. Bannwarth, P. Shushkov, J. Comput. Theory Chem., 2017,
   13, 1989-2009.
   C. Bannwarth, S. Ehlert and S. Grimme., ChemRxiv, 2018, preprint.
   http://doi.org/10.26434/chemrxiv.7246238.v1
   
   for sTDA-xTB:
   S. Grimme and C. Bannwarth, J. Chem. Phys., 2016, 145, 054103.
   
   in the mass-spec context:
   V. Asgeirsson, C. Bauer and S. Grimme, Chem. Sci., 2017, 8, 4879.
   
   if GBSA is used:
   P. Shushkov, F. März and S. Grimme, unpublished.
   
   for ANC optimizer:
   S. Grimme, unpublished.
   Rational Function algorithm used in ANCopt:
   F. Eckert, P. Pulay, H.-J. Werner, J. Comput. Chem., 1997, 18, 1473.
   
   with help from (in alphabetical order)
   C. Bannwarth, F. Bohle, G. Brandenburg, E. Caldeweyher, M. Checinski,
   S. Dohm, S. Ehlert, S. Ehrlich, F. März, H. Neugebauer, J. Pisarek,
   P. Pracht, P. Shushkov, and S. Spicher.
   
 * started run on 2019/03/07 at 11:37:45.665     
========================================================================
 # omp threads = 1
========================================================================
number of atoms            : 392
number of electrons        : 1104
charge                     : -2
spin                       : .0
first test random number   : .3089
           ------------------------------------------------- 
          |                 G F N 2 - x T B                 |
          | Geometry, Frequencies, Noncovalent interactions |
          |            JCTC 2018 parametrisation            |
           ------------------------------------------------- 
 
      method parameters     
 k(s)        :  1.8500
 k(p)        :  2.2300
 k(d)        :  2.2300
 k(f)        :  2.0000
 kEN (H0ij)  : -2.0000
 D4 a1       :  0.5200
 D4 a2       :  5.0000
 D4 s6       :  1.0000
 D4 s8       :  2.7000
 D4 s9       :  5.0000
 alphaj      :  2.0000

 Solvent             : h2o
 Using internal parameter file: .param_gbsa2_h2o
 Gsolv ref. state (COSMO-RS): gsolv [1 M gas/solution]
 temperature (mdtemp)       :    298.150000000000     
 dielectric constant        :    80.2000000000000     
 rho                        :    1.00000000000000     
 mass                       :    18.0000000000000     
 surface tension            :    15.5689454083859     
 probe radius               :   0.975313790000000     
 vdW radii scaling          :    1.00000000000000     
 Gshift (Eh)                :   1.857443126794793E-003
 c1                         :    1.55243817000000     
 soset                      :   0.130326360000000     
 HB correction              :  T

            Z     q(EN)     CN     RAES       Cart. coordinates
     1  N   5.0   -0.23    3.27    1.97   371.07037   137.09395   189.27306
     2  C   4.0    0.03    4.46    4.48   371.08171   138.74746   191.45381
     3  C   4.0    0.15    3.46    3.10   373.78023   139.07438   192.42890
     4  O   6.0   -0.29    1.24    1.80   375.16540   137.22245   192.68969
     5  C   4.0   -0.03    4.37    4.33   369.42064   137.65142   193.61376
     6  C   4.0   -0.08    4.22    4.05   369.43197   139.44099   195.88710
     7  C   4.0   -0.10    4.22    4.04   366.71266   137.26213   192.63488
     8  H   1.0    0.09    1.09    1.44   370.14818   135.77114   189.47526
     9  H   1.0    0.03    1.13    1.45   370.39762   140.36695   190.93602
    10  H   1.0    0.05    1.12    1.45   370.10283   136.03759   194.15233
    11  H   1.0    0.06    1.05    1.44   368.39074   138.73990   197.22314
    12  H   1.0    0.06    1.06    1.44   371.14974   139.64697   196.49559
    13  H   1.0    0.04    1.06    1.44   368.76301   141.07182   195.38444
    14  H   1.0    0.04    1.05    1.44   365.66953   136.57805   193.97848
    15  H   1.0    0.04    1.05    1.44   366.02291   138.87029   192.08497
    16  H   1.0    0.04    1.06    1.44   366.73534   136.09239   191.22326
    17  N   5.0   -0.16    3.50    2.08   374.53612   141.41197   192.93535
    18  C   4.0    0.04    4.55    4.60   377.08536   141.99590   193.82730
    19  C   4.0    0.15    3.42    3.09   377.12883   142.83872   196.58630
    20  O   6.0   -0.28    1.25    1.80   376.23121   144.83994   197.22125
    21  C   4.0    0.05    4.36    4.31   378.19652   144.04625   192.12466
    22  O   6.0   -0.27    2.17    1.85   376.25011   145.85472   191.54829
    23  C   4.0   -0.09    4.21    4.01   379.18674   142.87840   189.71715
    24  H   1.0    0.10    1.14    1.45   373.57992   142.71588   192.77094
    25  H   1.0    0.05    1.14    1.45   378.09448   140.46900   193.74226
    26  H   1.0    0.04    1.11    1.45   379.58358   144.88151   192.98259
    27  H   1.0    0.13    1.08    1.44   376.84348   146.99233   190.61477
    28  H   1.0    0.04    1.06    1.44   379.88972   144.18987   188.64567
    29  H   1.0    0.04    1.06    1.44   380.49254   141.65575   190.12155
    30  H   1.0    0.05    1.06    1.44   377.81669   142.03936   188.83653
    31  N   5.0   -0.16    3.41    2.02   378.09259   141.21355   198.26627
    32  C   4.0    0.02    4.36    4.31   378.21731   141.82582   200.94590
    33  C   4.0    0.14    3.36    3.07   379.29256   139.68476   202.49736
    34  O   6.0   -0.30    1.24    1.80   379.29445   137.51536   201.72258
    35  H   1.0    0.11    1.13    1.45   378.68218   139.74901   197.88076
    36  H   1.0    0.05    1.09    1.44   379.24910   143.32249   201.18022
    37  H   1.0    0.06    1.09    1.44   376.53734   142.23211   201.55439
    38  N   5.0   -0.16    3.50    2.08   380.10137   140.31593   204.82362
    39  C   4.0    0.04    4.46    4.47   381.11048   138.52069   206.63775
    40  C   4.0    0.15    3.43    3.09   379.58169   138.71533   209.10951
    41  O   6.0   -0.28    1.24    1.80   378.55746   140.73356   209.74068
    42  C   4.0   -0.04    4.38    4.35   383.92050   139.04793   207.14798
    43  C   4.0   -0.01    3.55    3.14   385.64582   138.42432   204.95590
    44  C   4.0   -0.04    3.48    3.11   385.62693   139.88129   202.73736
    45  C   4.0   -0.05    3.49    3.11   387.40705   136.43254   205.13542
    46  C   4.0   -0.03    3.46    3.10   387.35225   139.36162   200.78905
    47  C   4.0   -0.05    3.46    3.10   389.11536   135.91665   203.18900
    48  C   4.0    0.07    3.49    3.11   389.03599   137.36796   201.01393
    49  O   6.0   -0.26    2.14    1.84   390.74052   136.90309   199.07696
    50  H   1.0    0.11    1.13    1.45   380.06735   141.84283   205.38109
    51  H   1.0    0.07    1.13    1.45   380.96875   136.82561   205.95556
    52  H   1.0    0.05    1.09    1.44   384.12270   140.81860   207.57506
    53  H   1.0    0.05    1.10    1.44   384.44963   138.07850   208.61252
    54  H   1.0    0.06    1.09    1.44   384.47041   141.19276   202.55783
    55  H   1.0    0.06    1.09    1.44   387.43161   135.43855   206.58484
    56  H   1.0    0.07    1.09    1.44   387.36547   140.35939   199.34152
    57  H   1.0    0.05    1.09    1.44   390.28888   134.61841   203.35152
    58  H   1.0    0.14    1.10    1.44   391.64381   135.65398   199.45490
    59  N   5.0   -0.16    3.49    2.07   379.43240   136.65931   210.54949
    60  C   4.0    0.04    4.45    4.46   378.05668   136.65175   212.94188
    61  C   4.0    0.15    3.48    3.11   379.61004   135.21934   214.87885
    62  O   6.0   -0.32    1.30    1.80   380.92151   133.40709   214.26280
    63  C   4.0   -0.06    4.23    4.06   375.49422   135.40453   212.62252
    64  H   1.0    0.12    1.13    1.45   380.12215   135.23635   210.16965
    65  H   1.0    0.07    1.13    1.45   377.78456   138.37518   213.50124
    66  H   1.0    0.07    1.06    1.44   374.60415   135.41398   214.22500
    67  H   1.0    0.07    1.06    1.44   374.51534   136.32672   211.37719
    68  H   1.0    0.06    1.06    1.44   375.72098   133.67354   212.06127
    69  N   5.0   -0.15    3.52    2.09   379.48721   136.07350   217.23723
    70  C   4.0    0.04    4.51    4.55   380.89883   134.81683   219.24978
    71  C   4.0    0.16    3.47    3.10   379.37571   132.60774   220.22866
    72  O   6.0   -0.26    1.24    1.80   377.02867   132.70223   220.27402
    73  C   4.0   -0.03    4.33    4.25   381.48654   136.66687   221.43242
    74  C   4.0    0.26    3.15    3.03   379.11304   138.04826   222.41508
    75  O   6.0   -0.27    1.16    1.80   378.68029   140.26302   221.65163
    76  O   6.0   -0.26    1.17    1.80   377.73732   136.91065   223.95898
    77  H   1.0    0.11    1.13    1.45   378.61226   137.35851   217.70966
    78  H   1.0    0.05    1.13    1.45   382.49187   134.22157   218.56759
    79  H   1.0    0.06    1.09    1.44   382.26132   135.74468   222.81381
    80  H   1.0    0.07    1.09    1.44   382.71108   137.90464   220.85983
    81  N   5.0   -0.15    3.57    2.13   380.68718   130.59329   220.88629
    82  C   4.0    0.03    4.48    4.51   379.53634   128.31995   221.92942
    83  C   4.0    0.09    3.29    3.05   380.39994   128.08562   224.62983
    84  O   6.0   -0.28    1.16    1.80   381.70763   129.71835   225.61627
    85  C   4.0    0.04    4.37    4.32   380.33191   125.93701   220.50267
    86  O   6.0   -0.28    2.17    1.85   382.93974   125.37954   221.05258
    87  C   4.0   -0.08    4.26    4.12   380.09192   126.35086   217.73422
    88  H   1.0    0.10    1.14    1.45   382.30290   130.49880   220.73889
    89  H   1.0    0.05    1.13    1.45   377.71464   128.46924   221.78958
    90  H   1.0    0.04    1.11    1.45   379.25288   124.54995   221.02613
    91  H   1.0    0.15    1.08    1.44   383.85058   126.59085   220.58393
    92  H   1.0    0.04    1.06    1.44   380.60025   124.83152   216.84227
    93  H   1.0    0.05    1.06    1.44   378.34959   126.74581   217.32415
    94  H   1.0    0.05    1.07    1.44   381.16906   127.74547   217.22778
    95  N   5.0   -0.22    3.28    1.98   400.12301   142.77635   216.03536
    96  C   4.0    0.03    4.31    4.21   399.12146   141.25324   213.99446
    97  C   4.0    0.08    3.27    3.05   399.04209   142.96533   211.69655
    98  O   6.0   -0.28    1.14    1.80   398.47895   145.21032   211.93277
    99  C   4.0   -0.05    4.44    4.44   396.42860   140.33672   214.60295
   100  C   4.0   -0.02    3.63    3.19   395.25508   138.75124   212.59228
   101  C   4.0   -0.05    3.52    3.12   395.69917   136.16420   212.40520
   102  C   4.0   -0.05    3.55    3.14   393.67338   139.86240   210.88964
   103  C   4.0   -0.04    3.46    3.10   394.57667   134.77148   210.50980
   104  C   4.0   -0.05    3.46    3.10   392.52254   138.45644   208.98857
   105  C   4.0   -0.05    3.45    3.09   392.96473   135.89775   208.78637
   106  H   1.0    0.10    1.09    1.44   399.00430   143.25257   217.11439
   107  H   1.0    0.04    1.12    1.45   400.16081   139.76791   213.72234
   108  H   1.0    0.04    1.10    1.44   396.47017   139.37485   216.16386
   109  H   1.0    0.05    1.10    1.44   395.36090   141.79748   214.90152
   110  H   1.0    0.05    1.10    1.44   396.75741   135.37241   213.56360
   111  H   1.0    0.06    1.10    1.44   393.35779   141.58772   211.00113
   112  H   1.0    0.07    1.10    1.44   394.90737   133.04993   210.38886
   113  H   1.0    0.05    1.10    1.44   391.44728   139.24824   207.84718
   114  H   1.0    0.05    1.10    1.44   392.19750   134.95100   207.52026
   115  N   5.0   -0.23    3.27    1.97   395.25697   144.24278   205.63242
   116  C   4.0    0.03    4.42    4.41   392.87969   143.71555   204.35118
   117  C   4.0    0.17    3.43    3.09   392.96284   143.60027   201.47313
   118  O   6.0   -0.29    1.26    1.80   391.03721   143.92720   200.22969
   119  C   4.0   -0.03    4.35    4.30   390.81233   145.51268   205.24503
   120  C   4.0    0.25    3.16    3.03   391.71751   148.29813   205.26581
   121  O   6.0   -0.27    1.19    1.80   393.23685   149.00678   203.57451
   122  O   6.0   -0.28    1.17    1.80   391.02587   149.71921   206.98357
   123  H   1.0    0.12    1.10    1.44   395.31366   145.70165   206.34674
   124  H   1.0    0.04    1.14    1.45   392.49041   141.99401   204.84629
   125  H   1.0    0.06    1.09    1.44   389.35158   145.35394   204.15087
   126  H   1.0    0.05    1.09    1.44   390.27376   145.03269   206.93066
   127  N   5.0   -0.15    3.52    2.09   395.16626   143.02391   200.43189
   128  C   4.0    0.04    4.52    4.56   395.47240   142.94076   197.67100
   129  C   4.0    0.14    3.45    3.09   396.85190   140.54081   196.88110
   130  O   6.0   -0.31    1.25    1.80   396.67237   139.71878   194.74004
   131  C   4.0    0.05    4.27    4.13   396.82355   145.29914   196.54284
   132  O   6.0   -0.25    2.11    1.84   395.77475   147.60649   197.64833
   133  C   4.0   -0.08    4.19    3.97   396.39647   145.39740   193.68368
   134  H   1.0    0.09    1.14    1.45   396.51175   142.67431   201.27471
   135  H   1.0    0.07    1.14    1.45   393.77353   142.94643   196.98314
   136  H   1.0    0.04    1.10    1.44   398.61501   145.17820   196.91511
   137  H   1.0    0.14    1.07    1.44   396.51364   148.87072   197.03417
   138  H   1.0    0.04    1.05    1.44   397.24118   146.86950   192.98826
   139  H   1.0    0.05    1.06    1.44   397.07678   143.88184   192.91078
   140  H   1.0    0.05    1.05    1.44   394.59934   145.50512   193.33597
   141  N   5.0   -0.16    3.57    2.13   398.22006   139.41075   198.64799
   142  C   4.0    0.04    4.51    4.55   399.61090   137.08072   198.14532
   143  C   4.0    0.15    3.41    3.08   399.26130   135.10029   200.27127
   144  O   6.0   -0.30    1.23    1.80   400.22884   133.00458   200.11064
   145  C   4.0    0.05    4.32    4.24   402.45683   137.59095   197.82974
   146  O   6.0   -0.28    2.15    1.85   403.31287   139.09517   199.90655
   147  C   4.0   -0.09    4.18    3.95   402.99351   138.97423   195.32963
   148  H   1.0    0.09    1.15    1.45   398.37124   139.96633   200.16733
   149  H   1.0    0.06    1.14    1.45   398.91926   136.41176   196.58441
   150  H   1.0    0.05    1.11    1.44   403.34878   135.99035   197.79762
   151  H   1.0    0.13    1.08    1.44   404.79253   139.59595   199.62309
   152  H   1.0    0.03    1.05    1.44   404.79442   139.27469   195.17090
   153  H   1.0    0.04    1.05    1.44   402.42092   137.94433   193.92557
   154  H   1.0    0.05    1.05    1.44   402.10345   140.57671   195.31452
   155  N   5.0   -0.17    3.39    2.02   397.85723   135.77870   202.28571
   156  C   4.0    0.01    4.25    4.11   397.44905   134.03259   204.37953
   157  C   4.0    0.09    3.15    3.03   399.79231   133.37686   205.85163
   158  O   6.0   -0.29    1.11    1.80   399.73373   131.81594   207.60340
   159  H   1.0    0.09    1.13    1.45   397.14103   137.22812   202.45768
   160  H   1.0    0.04    1.10    1.44   396.22073   134.76392   205.52470
   161  H   1.0    0.06    1.09    1.44   396.71584   132.48680   203.72191
   162  N   5.0   -0.22    3.26    1.97   389.20040   131.88019   217.01613
   163  C   4.0    0.03    4.42    4.41   387.55823   132.89498   215.04325
   164  C   4.0    0.15    3.46    3.10   387.14627   130.87675   213.08739
   165  O   6.0   -0.29    1.25    1.80   388.91127   129.46512   212.53370
   166  C   4.0   -0.05    4.43    4.44   388.62403   135.24391   213.72045
   167  C   4.0   -0.04    4.34    4.27   388.94151   137.54937   215.28514
   168  C   4.0    0.15    3.32    3.06   386.60202   138.26936   216.73267
   169  O   6.0   -0.30    1.19    1.80   386.66816   138.70022   219.06837
   170  N   5.0   -0.24    3.26    1.97   384.45530   138.43187   215.40230
   171  H   1.0    0.10    1.08    1.44   390.77265   132.22412   216.79692
   172  H   1.0    0.05    1.13    1.45   385.98597   133.40709   215.83505
   173  H   1.0    0.05    1.11    1.44   390.25675   134.80738   213.01180
   174  H   1.0    0.05    1.10    1.44   387.52232   135.65587   212.31449
   175  H   1.0    0.05    1.10    1.44   390.31723   137.28481   216.46811
   176  H   1.0    0.04    1.10    1.44   389.42528   138.94588   214.20233
   177  H   1.0    0.11    1.09    1.44   384.46285   138.12763   213.80548
   178  H   1.0    0.12    1.09    1.44   383.06824   138.84194   216.14496
   179  N   5.0   -0.16    3.48    2.06   384.90316   130.75581   211.92332
   180  C   4.0    0.03    4.54    4.60   384.24932   128.80561   210.06194
   181  C   4.0    0.15    3.51    3.12   383.44240   130.04338   207.57128
   182  O   6.0   -0.30    1.25    1.80   382.50888   132.18444   207.58073
   183  C   4.0   -0.03    4.40    4.38   382.01188   127.12186   210.96145
   184  C   4.0   -0.07    4.31    4.22   379.64027   128.60908   210.92365
   185  C   4.0   -0.08    4.23    4.05   381.86826   124.75026   209.30416
   186  H   1.0    0.12    1.15    1.45   383.70507   131.81972   212.19733
   187  H   1.0    0.06    1.13    1.45   385.74409   127.76815   209.84462
   188  H   1.0    0.04    1.13    1.45   382.27455   126.57006   212.68866
   189  H   1.0    0.05    1.06    1.44   378.24944   127.55650   211.48490
   190  H   1.0    0.07    1.07    1.44   379.80468   130.05094   212.04237
   191  H   1.0    0.07    1.08    1.44   379.31335   129.19489   209.21723
   192  H   1.0    0.05    1.05    1.44   380.47553   123.69768   209.86163
   193  H   1.0    0.06    1.06    1.44   381.60370   125.23970   207.55805
   194  H   1.0    0.05    1.05    1.44   383.43673   123.81106   209.44400
   195  N   5.0   -0.16    3.50    2.07   383.99609   128.78671   205.45289
   196  C   4.0    0.04    4.40    4.39   383.32146   129.70890   202.95090
   197  C   4.0    0.16    3.48    3.11   380.49443   129.00592   202.65988
   198  O   6.0   -0.31    1.38    1.80   379.95208   126.90644   201.89076
   199  C   4.0   -0.07    4.23    4.06   384.90316   128.34263   200.94779
   200  H   1.0    0.10    1.14    1.45   384.78033   127.36375   205.43778
   201  H   1.0    0.05    1.11    1.45   383.62004   131.50603   202.74870
   202  H   1.0    0.05    1.05    1.44   384.44963   128.96057   199.28294
   203  H   1.0    0.05    1.05    1.44   386.68328   128.66010   201.25203
   204  H   1.0    0.08    1.06    1.44   384.58002   126.53983   201.03850
   205  N   5.0   -0.16    3.45    2.05   378.78234   130.77659   203.21546
   206  C   4.0    0.04    4.47    4.49   376.01956   130.42322   202.95846
   207  C   4.0    0.16    3.48    3.11   375.27123   128.93033   200.62653
   208  O   6.0   -0.31    1.26    1.80   373.35127   127.59241   200.61709
   209  C   4.0   -0.03    4.38    4.34   374.58526   132.95545   203.02082
   210  C   4.0    0.16    3.31    3.05   374.28479   134.01936   205.63053
   211  O   6.0   -0.31    1.23    1.80   373.60449   132.69089   207.42199
   212  N   5.0   -0.23    3.24    1.97   374.93864   136.43821   205.98958
   213  H   1.0    0.11    1.13    1.45   379.19241   132.25058   203.76348
   214  H   1.0    0.07    1.13    1.45   375.53012   129.42922   204.41921
   215  H   1.0    0.06    1.10    1.44   375.47532   134.17243   201.97769
   216  H   1.0    0.06    1.10    1.44   372.92608   132.72112   202.27627
   217  H   1.0    0.13    1.09    1.44   374.88761   137.08072   207.48057
   218  H   1.0    0.12    1.09    1.44   375.41107   137.34906   204.72913
   219  N   5.0   -0.15    3.57    2.13   376.84159   129.05883   198.66878
   220  C   4.0    0.03    4.38    4.34   376.46175   127.69634   196.30473
   221  C   4.0    0.16    3.43    3.09   376.21798   124.79750   196.76394
   222  O   6.0   -0.30    1.22    1.80   374.94053   123.45580   195.34475
   223  C   4.0   -0.08    4.19    3.98   378.66140   128.21791   194.46036
   224  H   1.0    0.10    1.15    1.45   378.19085   129.96401   198.68012
   225  H   1.0    0.06    1.12    1.45   374.89517   128.29727   195.56585
   226  H   1.0    0.05    1.05    1.44   378.38172   127.29950   192.89945
   227  H   1.0    0.05    1.05    1.44   378.74832   130.01315   194.10509
   228  H   1.0    0.05    1.05    1.44   380.23743   127.66800   195.21625
   229  N   5.0   -0.15    3.57    2.13   377.41985   123.86020   198.76515
   230  C   4.0    0.04    4.51    4.56   377.30835   121.16167   199.40388
   231  C   4.0    0.15    3.47    3.10   374.84415   120.36231   200.61331
   232  O   6.0   -0.31    1.29    1.80   374.47565   118.10409   201.04038
   233  C   4.0   -0.03    4.37    4.34   379.46453   120.41145   201.16511
   234  C   4.0    0.25    3.16    3.03   382.04401   121.22592   200.15788
   235  O   6.0   -0.29    1.18    1.80   383.64838   121.87599   201.74714
   236  O   6.0   -0.29    1.18    1.80   382.47108   121.14088   197.82218
   237  H   1.0    0.13    1.18    1.46   378.31558   124.75404   199.78561
   238  H   1.0    0.06    1.14    1.45   377.45575   120.29617   197.79573
   239  H   1.0    0.06    1.09    1.44   379.19241   121.16545   202.81295
   240  H   1.0    0.05    1.09    1.44   379.45130   118.59353   201.39943
   241  N   5.0   -0.16    3.50    2.08   373.15284   122.15755   201.13676
   242  C   4.0    0.03    4.44    4.45   370.68486   121.58875   202.27249
   243  C   4.0    0.16    3.48    3.11   370.73778   119.78028   204.51748
   244  O   6.0   -0.30    1.33    1.80   369.38851   117.89055   204.55905
   245  C   4.0   -0.04    4.50    4.54   368.90474   120.50782   200.21457
   246  C   4.0   -0.03    4.33    4.25   368.44932   121.83819   197.70691
   247  C   4.0   -0.10    4.25    4.10   366.82982   120.23570   196.03639
   248  C   4.0   -0.09    4.24    4.08   367.33249   124.44601   198.09052
   249  H   1.0    0.12    1.15    1.45   373.40040   123.73737   200.84574
   250  H   1.0    0.05    1.13    1.45   370.08204   123.18368   202.94523
   251  H   1.0    0.05    1.13    1.45   369.52646   118.83164   199.81206
   252  H   1.0    0.05    1.10    1.44   367.26257   120.29617   201.00070
   253  H   1.0    0.06    1.14    1.45   370.06503   122.07630   196.87354
   254  H   1.0    0.04    1.06    1.44   366.55014   121.09931   194.44335
   255  H   1.0    0.04    1.06    1.44   367.66697   118.63511   195.72459
   256  H   1.0    0.04    1.06    1.44   365.21789   119.93146   196.85653
   257  H   1.0    0.04    1.06    1.44   367.06604   125.24348   196.46158
   258  H   1.0    0.04    1.06    1.44   365.73000   124.30239   198.96925
   259  H   1.0    0.06    1.06    1.44   368.48522   125.46457   199.08641
   260  N   5.0   -0.15    3.49    2.07   372.37617   120.34720   206.36941
   261  C   4.0    0.04    4.45    4.46   372.53113   118.83353   208.63519
   262  C   4.0    0.09    3.31    3.06   369.83638   118.30440   209.60462
   263  O   6.0   -0.28    1.12    1.80   368.95009   116.16712   209.61218
   264  C   4.0    0.04    4.35    4.30   373.89173   120.23381   210.79326
   265  O   6.0   -0.28    2.17    1.85   375.86271   121.77772   209.86163
   266  C   4.0   -0.09    4.19    3.99   374.91407   118.27039   212.64519
   267  H   1.0    0.11    1.14    1.45   373.40229   121.60575   206.32595
   268  H   1.0    0.06    1.12    1.45   373.44953   117.30852   208.19867
   269  H   1.0    0.04    1.11    1.45   372.70498   121.34119   211.64553
   270  H   1.0    0.13    1.08    1.44   376.39939   122.71313   211.02759
   271  H   1.0    0.04    1.05    1.44   375.77956   119.11888   214.02091
   272  H   1.0    0.04    1.06    1.44   373.52512   117.28017   213.31604
   273  H   1.0    0.05    1.06    1.44   376.08759   117.16301   211.77592
   274  N   5.0   -0.23    3.24    1.96   364.49034   115.58887   204.59874
   275  C   4.0    0.03    4.32    4.23   364.97411   112.90357   204.17166
   276  C   4.0    0.08    3.21    3.04   364.39019   111.28218   206.46957
   277  O   6.0   -0.31    1.11    1.80   363.29225   109.23561   206.20690
   278  C   4.0   -0.05    4.41    4.39   367.68776   112.44436   203.31561
   279  C   4.0   -0.06    4.37    4.32   368.14507   113.40623   200.68701
   280  C   4.0   -0.05    4.34    4.27   370.88706   113.36466   199.96513
   281  C   4.0   -0.03    4.34    4.26   371.32737   115.15423   197.79195
   282  N   5.0   -0.16    4.14    3.26   373.91062   114.77628   196.73559
   283  H   1.0    0.13    1.10    1.44   365.81126   116.52806   204.47969
   284  H   1.0    0.04    1.14    1.45   363.82894   112.39712   202.83373
   285  H   1.0    0.07    1.10    1.44   368.84238   113.26828   204.47591
   286  H   1.0    0.04    1.10    1.44   368.05247   110.64912   203.38176
   287  H   1.0    0.03    1.10    1.44   367.19265   112.38767   199.49648
   288  H   1.0    0.05    1.11    1.44   367.51201   115.12022   200.55284
   289  H   1.0    0.06    1.10    1.44   371.92263   113.84843   201.39754
   290  H   1.0    0.03    1.09    1.44   371.38784   111.66580   199.49270
   291  H   1.0    0.03    1.09    1.44   370.07070   114.87266   196.48615
   292  H   1.0    0.05    1.11    1.45   371.13273   116.88711   198.35886
   293  H   1.0    0.06    1.09    1.44   373.93897   115.27517   195.12932
   294  H   1.0    0.09    1.10    1.44   375.01800   115.68146   197.62187
   295  H   1.0    0.06    1.09    1.44   374.32070   113.14734   196.82441
   296  N   5.0   -0.21    3.32    1.99   361.14931   140.34428   207.69789
   297  C   4.0    0.02    4.48    4.50   361.36851   141.53669   210.14886
   298  C   4.0    0.15    3.45    3.10   363.16186   143.76846   210.04115
   299  O   6.0   -0.27    1.25    1.80   364.49412   144.18987   208.16465
   300  C   4.0   -0.04    4.42    4.41   362.38519   139.60917   212.05749
   301  C   4.0    0.16    3.31    3.05   360.71467   137.27914   212.28803
   302  O   6.0   -0.30    1.22    1.80   361.64252   135.23446   212.95322
   303  N   5.0   -0.25    3.27    1.97   358.30716   137.53425   211.66064
   304  H   1.0    0.14    1.12    1.45   362.24913   139.18021   207.41632
   305  H   1.0    0.03    1.13    1.45   359.71122   142.13196   210.65720
   306  H   1.0    0.07    1.10    1.44   364.07082   139.09517   211.55482
   307  H   1.0    0.04    1.09    1.44   362.53447   140.40853   213.69966
   308  H   1.0    0.11    1.09    1.44   357.31505   136.24735   211.70411
   309  H   1.0    0.09    1.10    1.44   357.73457   138.98745   211.20900
   310  N   5.0   -0.17    3.52    2.09   362.98045   145.26323   212.01969
   311  C   4.0    0.03    4.44    4.45   364.46577   147.58949   212.47134
   312  C   4.0    0.16    3.44    3.09   367.19643   147.60460   211.42443
   313  O   6.0   -0.29    1.22    1.80   367.84271   149.27701   209.92777
   314  C   4.0   -0.07    4.37    4.33   364.46577   148.28113   215.30593
   315  C   4.0   -0.06    4.44    4.44   364.14830   146.02479   216.99534
   316  C   4.0   -0.05    4.39    4.36   366.44243   144.37884   217.09739
   317  C   4.0   -0.04    4.31    4.22   366.05314   142.18865   218.85483
   318  N   5.0   -0.17    4.18    3.38   365.11584   143.09194   221.33226
   319  H   1.0    0.08    1.16    1.46   361.93354   144.95710   213.22534
   320  H   1.0    0.05    1.13    1.45   363.59272   148.86883   211.49057
   321  H   1.0    0.04    1.10    1.44   366.03803   149.12583   215.71978
   322  H   1.0    0.03    1.09    1.44   363.11462   149.47354   215.63474
   323  H   1.0    0.03    1.11    1.44   363.74390   146.59549   218.69043
   324  H   1.0    0.04    1.12    1.45   362.72345   145.03269   216.40953
   325  H   1.0    0.05    1.13    1.45   366.83171   143.75901   215.41742
   326  H   1.0    0.04    1.10    1.44   367.88429   145.36528   217.65108
   327  H   1.0    0.05    1.09    1.44   364.85317   141.00946   218.12540
   328  H   1.0    0.06    1.09    1.44   367.62918   141.27969   219.07782
   329  H   1.0    0.07    1.09    1.44   365.64307   142.05259   222.54547
   330  H   1.0    0.06    1.10    1.44   365.70543   144.63962   221.62517
   331  H   1.0    0.06    1.09    1.44   363.43398   143.12784   221.31714
   332  N   5.0   -0.16    3.55    2.11   368.63262   145.66575   212.07260
   333  C   4.0    0.04    4.49    4.53   371.22721   145.49000   211.28081
   334  C   4.0    0.17    3.42    3.09   371.71098   144.32782   208.65409
   335  O   6.0   -0.28    1.22    1.80   373.72165   144.82482   207.54860
   336  C   4.0   -0.04    4.30    4.19   372.89017   144.14641   213.31982
   337  C   4.0    0.24    3.13    3.03   371.89618   141.49701   214.01335
   338  O   6.0   -0.29    1.22    1.80   370.04236   140.64285   212.81527
   339  O   6.0   -0.28    1.16    1.80   372.94120   140.31593   215.78592
   340  H   1.0    0.10    1.18    1.46   368.12050   144.42042   212.98345
   341  H   1.0    0.06    1.15    1.45   371.72799   147.24367   211.10318
   342  H   1.0    0.07    1.08    1.44   374.60982   144.00279   212.69999
   343  H   1.0    0.05    1.08    1.44   372.95064   145.18387   214.82972
   344  N   5.0   -0.15    3.45    2.05   369.89307   142.95588   207.65254
   345  C   4.0    0.02    4.37    4.32   370.20676   141.77858   205.20156
   346  C   4.0    0.16    3.38    3.07   369.40930   139.04604   205.07495
   347  O   6.0   -0.29    1.22    1.80   369.05403   137.98212   203.00003
   348  H   1.0    0.13    1.14    1.45   368.45688   142.67998   208.36118
   349  H   1.0    0.06    1.09    1.44   369.24300   142.72911   203.96568
   350  H   1.0    0.07    1.11    1.44   371.96988   141.89952   204.71401
   351  N   5.0   -0.14    3.51    2.09   369.10883   137.84417   207.27648
   352  C   4.0    0.04    4.46    4.48   368.33782   135.19477   207.35585
   353  C   4.0    0.17    3.47    3.10   365.74323   134.85084   206.14453
   354  O   6.0   -0.29    1.32    1.80   364.32405   136.63852   205.84974
   355  C   4.0    0.04    4.25    4.09   368.31137   134.18755   210.09217
   356  O   6.0   -0.25    2.10    1.84   366.89785   135.73713   211.75324
   357  H   1.0    0.12    1.14    1.45   369.34127   138.52825   208.73157
   358  H   1.0    0.06    1.14    1.45   369.56615   134.22723   206.39965
   359  H   1.0    0.05    1.07    1.44   367.61217   132.49436   210.10540
   360  H   1.0    0.06    1.07    1.44   370.03480   134.06094   210.70444
   361  H   1.0    0.17    1.10    1.44   365.40875   135.19666   211.84206
   362  N   5.0   -0.16    3.49    2.07   365.15741   132.54916   205.36597
   363  C   4.0    0.03    4.47    4.49   362.72534   132.01437   204.14520
   364  C   4.0    0.07    3.26    3.05   361.34017   129.99425   205.63053
   365  O   6.0   -0.29    1.13    1.80   362.31338   127.89476   206.02737
   366  C   4.0   -0.02    4.44    4.44   363.07872   131.22635   201.34841
   367  C   4.0   -0.06    4.29    4.17   360.56349   130.59707   200.14843
   368  C   4.0   -0.08    4.29    4.17   364.92498   129.04750   201.11030
   369  C   4.0   -0.10    4.10    3.79   360.82616   129.56717   197.33841
   370  H   1.0    0.10    1.13    1.45   366.13440   131.25847   205.52093
   371  H   1.0    0.05    1.14    1.45   361.71811   133.54504   204.13954
   372  H   1.0    0.05    1.13    1.45   363.79303   132.65120   200.44323
   373  H   1.0    0.04    1.09    1.44   359.70555   129.34040   201.17267
   374  H   1.0    0.04    1.08    1.44   359.50713   132.09562   200.14277
   375  H   1.0    0.04    1.07    1.44   365.11017   128.59396   199.34341
   376  H   1.0    0.05    1.06    1.44   366.55392   129.54827   201.78683
   377  H   1.0    0.06    1.06    1.44   364.29381   127.60563   202.04761
   378  H   1.0    0.03    1.05    1.44   359.16320   129.19489   196.66567
   379  H   1.0    0.04    1.05    1.44   361.63685   130.83707   196.29528
   380  H   1.0    0.04    1.05    1.44   361.83906   128.04027   197.33841
   381  H   1.0    0.08    1.08    1.44   370.46789   137.93705   187.92445
   382  H   1.0    0.05    1.05    1.44   379.90585   126.57506   225.65216
   383  H   1.0    0.08    1.08    1.44   401.29432   141.88473   216.88718
   384  H   1.0    0.05    1.04    1.43   399.44755   142.27093   209.98644
   385  H   1.0    0.10    1.08    1.44   395.51802   143.07996   206.84578
   386  H   1.0    0.06    1.05    1.44   401.43764   134.20323   205.42610
   387  H   1.0    0.10    1.08    1.44   388.74582   132.52751   218.52175
   388  H   1.0    0.05    1.05    1.44   368.76771   119.72419   210.24745
   389  H   1.0    0.09    1.08    1.44   363.37014   116.15359   203.45035
   390  H   1.0    0.06    1.04    1.43   364.89370   111.87018   208.19346
   391  H   1.0    0.09    1.08    1.44   359.61604   139.62278   207.55265
   392  H   1.0    0.05    1.04    1.43   359.61134   130.33998   206.31074

  Z AO/shell   Hii/eV     exponent
  1     Wed Apr 25 08:07:45 CEST 2018   EN: 2.200 GM2: 0.406  GM3: 0.0800  RAES: 1.40
     1s    -10.707211    1.230000
  6     Wed Apr 25 08:07:45 CEST 2018   EN: 2.550 GM2: 0.538  GM3: 0.1500  RAES: 3.00
     2s    -13.970922    2.096432
     2p    -10.063292    1.800000
  7     Wed Apr 25 08:07:45 CEST 2018   EN: 3.040 GM2: 0.461  GM3:-0.0640  RAES: 1.90
     2s    -16.686243    2.339881
     2p    -12.523956    2.014332
  8     Wed Apr 25 08:07:45 CEST 2018   EN: 3.440 GM2: 0.452  GM3:-0.0517  RAES: 1.80
     2s    -20.229985    2.439742
     2p    -15.503117    2.137023
 no old-style atom pair restraining (fixing) potential

molecular fragmentation (1/2 indicates fragments):
111111111111111111111111111111111111111111111111111111111111111111111111
111111111111111111111122222222222222222222222222222222222222222222222222
222222222222222222222222222222222222222222222222222222222222222222222222
222222222222222222222222222222222222222222222222222222222222222222222222
222222222222222222222222222222222222222222222222222222222222222222222222
22222222222222222222112222222222
# atoms in fragment 1/2:    96   296
 fragment masses (1/2) :      708.74     2086.30
CMA distance (Bohr)    :   4.031
constraining FC (au)   :  0.0500
           ------------------------------------------------- 
          |        Self-Consistent Charge Iterations        |
           ------------------------------------------------- 

 Ncao       : 980
 Nao        : 980
 Nshell     : 588
 Nel        : 1104
 T(el)      :   500.0
 intcut     :    35.0
 scfconv/Eh :  0.100E-06
   qconv/e  :  0.100E-04
 intneglect :  0.100E-08
 broydamp   :      0.400
 iter      E             dE          RMSdq      gap      omega  full diag
   1   -640.3279141 -0.640328E+03  0.492E+00    3.45       0.0  T
   2   -642.1399475 -0.181203E+01  0.227E+00    1.71       1.0  T
   3   -642.2457629 -0.105815E+00  0.132E+00    1.81       1.0  T
   4   -642.3411045 -0.953416E-01  0.276E-01    1.10       1.0  T
   5   -642.3494909 -0.838638E-02  0.130E-01    1.27       1.0  T
   6   -642.3504377 -0.946844E-03  0.588E-02    1.21       1.0  T
   7   -642.3507411 -0.303407E-03  0.233E-02    1.20       1.0  T
   8   -642.3507783 -0.371337E-04  0.121E-02    1.19       1.0  T
   9   -642.3507916 -0.133041E-04  0.548E-03    1.18       1.0  T
  10   -642.3507944 -0.281033E-05  0.234E-03    1.18       2.2  T
  11   -642.3507949 -0.463739E-06  0.997E-04    1.18       5.1  T
  12   -642.3507949 -0.713378E-07  0.483E-04    1.18      10.5  T
  13   -642.3507950 -0.233821E-07  0.224E-04    1.18      22.6  T
  14   -642.3507950 -0.416048E-08  0.954E-05    1.18      53.0  T
  15   -642.3507950 -0.702471E-09  0.384E-05    1.18     131.6  T
speedup  1.00
cpu  time for SCC    6.31 s
wall time for SCC    6.31 s

   *** convergence criteria satisfied after 15 iterations ***

          eigenvalues
 #    :         540        541        542        543        544        545        546        547
 occ. :        2.000      2.000      2.000      2.000      2.000      2.000      2.000      2.000
 eps  :       -10.333    -10.311    -10.279    -10.196    -10.150    -10.076    -10.019     -9.984
 #    :         548        549        550        551        552        553        554        555
 occ. :        2.000      2.000      2.000      2.000      2.000      0.000      0.000      0.000
 eps  :        -9.914     -9.764     -9.735     -9.680     -9.432     -8.255     -8.078     -8.075
 #    :         556        557        558        559        560        561        562        563
 occ. :        0.000      0.000      0.000      0.000      0.000      0.000      0.000      0.000
 eps  :        -7.894     -7.862     -7.363     -7.097     -7.014     -6.923     -6.860     -6.844


   #   Z            q   n(s)   n(p)   n(d)      C6AA      α(0)
   1   7 N     -0.415  1.285  4.130  0.000    30.793     8.241
   2   6 C      0.020  1.037  2.943  0.000    20.253     6.409
   3   6 C      0.266  1.050  2.684  0.000    22.516     7.770
   4   8 O     -0.500  1.750  4.749  0.000    23.774     6.537
   5   6 C     -0.033  1.044  2.989  0.000    21.120     6.536
   6   6 C     -0.151  0.977  3.174  0.000    23.459     6.902
   7   6 C     -0.152  0.980  3.172  0.000    23.479     6.905
   8   1 H      0.191  0.809  0.000  0.000     1.150     1.680
   9   1 H      0.047  0.953  0.000  0.000     2.353     2.399
  10   1 H      0.055  0.945  0.000  0.000     2.259     2.350
  11   1 H      0.065  0.935  0.000  0.000     2.142     2.288
  12   1 H      0.030  0.970  0.000  0.000     2.589     2.516
  13   1 H      0.056  0.944  0.000  0.000     2.245     2.343
  14   1 H      0.063  0.937  0.000  0.000     2.160     2.298
  15   1 H      0.060  0.940  0.000  0.000     2.195     2.317
  16   1 H      0.063  0.937  0.000  0.000     2.166     2.301
  17   7 N     -0.178  1.206  3.972  0.000    24.853     7.404
  18   6 C      0.003  1.039  2.958  0.000    20.534     6.451
  19   6 C      0.267  1.041  2.692  0.000    22.492     7.766
  20   8 O     -0.466  1.740  4.726  0.000    23.051     6.437
  21   6 C      0.110  1.021  2.869  0.000    18.862     6.198
  22   8 O     -0.502  1.687  4.815  0.000    22.932     6.464
  23   6 C     -0.170  0.982  3.188  0.000    23.836     6.957
  24   1 H      0.222  0.778  0.000  0.000     1.001     1.567
  25   1 H      0.088  0.912  0.000  0.000     1.897     2.154
  26   1 H      0.045  0.955  0.000  0.000     2.383     2.414
  27   1 H      0.346  0.654  0.000  0.000     0.597     1.213
  28   1 H      0.080  0.920  0.000  0.000     1.980     2.200
  29   1 H      0.068  0.932  0.000  0.000     2.109     2.271
  30   1 H      0.079  0.921  0.000  0.000     1.986     2.203
  31   7 N     -0.191  1.205  3.987  0.000    25.146     7.448
  32   6 C     -0.038  1.001  3.037  0.000    21.309     6.581
  33   6 C      0.264  1.040  2.696  0.000    22.544     7.775
  34   8 O     -0.470  1.731  4.739  0.000    23.122     6.447
  35   1 H      0.223  0.777  0.000  0.000     0.995     1.562
  36   1 H      0.096  0.904  0.000  0.000     1.823     2.111
  37   1 H      0.100  0.900  0.000  0.000     1.786     2.090
  38   7 N     -0.184  1.204  3.980  0.000    24.991     7.425
  39   6 C      0.012  1.040  2.948  0.000    20.383     6.429
  40   6 C      0.257  1.049  2.695  0.000    22.679     7.798
  41   8 O     -0.505  1.768  4.737  0.000    23.894     6.554
  42   6 C     -0.089  1.007  3.082  0.000    22.185     6.703
  43   6 C     -0.013  1.086  2.927  0.000    28.349     8.733
  44   6 C     -0.056  1.063  2.994  0.000    29.402     8.892
  45   6 C     -0.061  1.061  3.000  0.000    29.525     8.911
  46   6 C     -0.067  1.057  3.009  0.000    29.660     8.931
  47   6 C     -0.094  1.053  3.041  0.000    30.361     9.035
  48   6 C      0.135  1.051  2.814  0.000    25.036     8.200
  49   8 O     -0.448  1.686  4.762  0.000    21.797     6.303
  50   1 H      0.212  0.788  0.000  0.000     1.048     1.603
  51   1 H      0.102  0.898  0.000  0.000     1.762     2.076
  52   1 H      0.070  0.930  0.000  0.000     2.083     2.257
  53   1 H      0.067  0.933  0.000  0.000     2.120     2.277
  54   1 H      0.056  0.944  0.000  0.000     2.248     2.344
  55   1 H      0.071  0.929  0.000  0.000     2.077     2.253
  56   1 H      0.078  0.922  0.000  0.000     2.003     2.213
  57   1 H      0.084  0.916  0.000  0.000     1.937     2.176
  58   1 H      0.345  0.655  0.000  0.000     0.598     1.215
  59   7 N     -0.184  1.210  3.975  0.000    24.994     7.425
  60   6 C      0.025  1.030  2.945  0.000    20.146     6.390
  61   6 C      0.265  1.042  2.693  0.000    22.528     7.773
  62   8 O     -0.478  1.724  4.754  0.000    23.305     6.472
  63   6 C     -0.138  0.975  3.163  0.000    23.184     6.861
  64   1 H      0.231  0.769  0.000  0.000     0.962     1.537
  65   1 H      0.072  0.928  0.000  0.000     2.066     2.247
  66   1 H      0.076  0.924  0.000  0.000     2.019     2.222
  67   1 H      0.064  0.936  0.000  0.000     2.150     2.293
  68   1 H      0.088  0.912  0.000  0.000     1.898     2.154
  69   7 N     -0.177  1.209  3.968  0.000    24.831     7.401
  70   6 C      0.035  1.033  2.932  0.000    19.981     6.363
  71   6 C      0.278  1.037  2.685  0.000    22.297     7.733
  72   8 O     -0.501  1.760  4.741  0.000    23.804     6.541
  73   6 C     -0.120  1.021  3.099  0.000    22.783     6.794
  74   6 C      0.369  1.023  2.608  0.000    20.745     7.454
  75   8 O     -0.662  1.782  4.880  0.000    27.703     7.057
  76   8 O     -0.632  1.771  4.861  0.000    26.916     6.956
  77   1 H      0.197  0.803  0.000  0.000     1.121     1.659
  78   1 H      0.071  0.929  0.000  0.000     2.074     2.252
  79   1 H      0.060  0.940  0.000  0.000     2.203     2.321
  80   1 H      0.064  0.936  0.000  0.000     2.151     2.293
  81   7 N     -0.164  1.191  3.973  0.000    24.550     7.359
  82   6 C      0.000  1.040  2.960  0.000    20.577     6.458
  83   6 C      0.203  1.079  2.718  0.000    23.687     7.971
  84   8 O     -0.370  1.761  4.609  0.000    21.090     6.157
  85   6 C      0.095  1.029  2.876  0.000    19.084     6.234
  86   8 O     -0.488  1.680  4.809  0.000    22.639     6.423
  87   6 C     -0.169  0.977  3.192  0.000    23.809     6.953
  88   1 H      0.213  0.787  0.000  0.000     1.043     1.599
  89   1 H      0.125  0.875  0.000  0.000     1.574     1.962
  90   1 H      0.104  0.896  0.000  0.000     1.750     2.069
  91   1 H      0.327  0.673  0.000  0.000     0.644     1.260
  92   1 H      0.098  0.902  0.000  0.000     1.799     2.098
  93   1 H      0.076  0.924  0.000  0.000     2.024     2.225
  94   1 H      0.060  0.940  0.000  0.000     2.195     2.317
  95   7 N     -0.407  1.287  4.120  0.000    30.566     8.211
  96   6 C      0.034  1.031  2.936  0.000    20.022     6.373
  97   6 C      0.200  1.084  2.716  0.000    23.745     7.981
  98   8 O     -0.377  1.769  4.607  0.000    21.222     6.176
  99   6 C     -0.093  1.009  3.083  0.000    22.248     6.712
 100   6 C     -0.003  1.081  2.923  0.000    28.105     8.696
 101   6 C     -0.061  1.058  3.003  0.000    29.508     8.909
 102   6 C     -0.063  1.051  3.012  0.000    29.578     8.920
 103   6 C     -0.053  1.059  2.994  0.000    29.313     8.879
 104   6 C     -0.059  1.054  3.005  0.000    29.472     8.903
 105   6 C     -0.066  1.055  3.011  0.000    29.651     8.930
 106   1 H      0.188  0.812  0.000  0.000     1.170     1.694
 107   1 H      0.078  0.922  0.000  0.000     2.004     2.213
 108   1 H      0.081  0.919  0.000  0.000     1.969     2.194
 109   1 H      0.058  0.942  0.000  0.000     2.226     2.333
 110   1 H      0.078  0.922  0.000  0.000     2.000     2.211
 111   1 H      0.037  0.963  0.000  0.000     2.494     2.469
 112   1 H      0.077  0.923  0.000  0.000     2.009     2.216
 113   1 H      0.042  0.958  0.000  0.000     2.419     2.432
 114   1 H      0.068  0.932  0.000  0.000     2.109     2.271
 115   7 N     -0.411  1.270  4.141  0.000    30.673     8.225
 116   6 C      0.040  1.028  2.932  0.000    19.916     6.355
 117   6 C      0.281  1.045  2.674  0.000    22.239     7.722
 118   8 O     -0.503  1.749  4.754  0.000    23.840     6.546
 119   6 C     -0.110  1.014  3.096  0.000    22.590     6.765
 120   6 C      0.371  1.025  2.604  0.000    20.711     7.448
 121   8 O     -0.653  1.779  4.875  0.000    27.470     7.027
 122   8 O     -0.657  1.770  4.887  0.000    27.560     7.038
 123   1 H      0.163  0.837  0.000  0.000     1.316     1.797
 124   1 H      0.052  0.948  0.000  0.000     2.291     2.367
 125   1 H      0.044  0.956  0.000  0.000     2.398     2.421
 126   1 H      0.030  0.970  0.000  0.000     2.586     2.514
 127   7 N     -0.192  1.204  3.988  0.000    25.170     7.451
 128   6 C     -0.003  1.049  2.954  0.000    20.633     6.467
 129   6 C      0.270  1.038  2.693  0.000    22.446     7.758
 130   8 O     -0.458  1.735  4.723  0.000    22.878     6.413
 131   6 C      0.108  1.032  2.860  0.000    18.905     6.209
 132   8 O     -0.524  1.717  4.806  0.000    23.415     6.532
 133   6 C     -0.167  0.984  3.184  0.000    23.787     6.951
 134   1 H      0.211  0.789  0.000  0.000     1.051     1.606
 135   1 H      0.111  0.889  0.000  0.000     1.686     2.031
 136   1 H      0.055  0.945  0.000  0.000     2.259     2.350
 137   1 H      0.341  0.659  0.000  0.000     0.610     1.226
 138   1 H      0.082  0.918  0.000  0.000     1.960     2.189
 139   1 H      0.085  0.915  0.000  0.000     1.931     2.173
 140   1 H      0.071  0.929  0.000  0.000     2.069     2.249
 141   7 N     -0.181  1.196  3.985  0.000    24.916     7.413
 142   6 C     -0.005  1.050  2.955  0.000    20.677     6.474
 143   6 C      0.267  1.047  2.686  0.000    22.497     7.767
 144   8 O     -0.461  1.747  4.714  0.000    22.931     6.420
 145   6 C      0.104  1.029  2.867  0.000    18.952     6.214
 146   8 O     -0.511  1.687  4.823  0.000    23.123     6.491
 147   6 C     -0.169  0.984  3.185  0.000    23.827     6.957
 148   1 H      0.206  0.794  0.000  0.000     1.076     1.625
 149   1 H      0.120  0.880  0.000  0.000     1.609     1.983
 150   1 H      0.072  0.928  0.000  0.000     2.068     2.249
 151   1 H      0.350  0.650  0.000  0.000     0.587     1.203
 152   1 H      0.082  0.918  0.000  0.000     1.959     2.188
 153   1 H      0.076  0.924  0.000  0.000     2.024     2.225
 154   1 H      0.065  0.935  0.000  0.000     2.138     2.286
 155   7 N     -0.186  1.198  3.988  0.000    25.022     7.429
 156   6 C     -0.044  1.007  3.037  0.000    21.414     6.599
 157   6 C      0.203  1.081  2.717  0.000    23.689     7.971
 158   8 O     -0.368  1.764  4.604  0.000    21.050     6.151
 159   1 H      0.207  0.793  0.000  0.000     1.073     1.622
 160   1 H      0.124  0.876  0.000  0.000     1.584     1.968
 161   1 H      0.137  0.863  0.000  0.000     1.486     1.906
 162   7 N     -0.405  1.283  4.122  0.000    30.508     8.203
 163   6 C      0.025  1.027  2.948  0.000    20.162     6.394
 164   6 C      0.265  1.046  2.690  0.000    22.538     7.775
 165   8 O     -0.479  1.744  4.735  0.000    23.325     6.475
 166   6 C     -0.089  1.003  3.087  0.000    22.181     6.702
 167   6 C     -0.112  1.004  3.108  0.000    22.622     6.769
 168   6 C      0.280  1.045  2.675  0.000    22.254     7.724
 169   8 O     -0.514  1.772  4.741  0.000    24.089     6.580
 170   7 N     -0.291  1.186  4.105  0.000    27.514     7.790
 171   1 H      0.196  0.804  0.000  0.000     1.127     1.663
 172   1 H      0.038  0.962  0.000  0.000     2.480     2.462
 173   1 H      0.083  0.917  0.000  0.000     1.950     2.184
 174   1 H      0.045  0.955  0.000  0.000     2.377     2.411
 175   1 H      0.093  0.907  0.000  0.000     1.847     2.125
 176   1 H      0.088  0.912  0.000  0.000     1.896     2.153
 177   1 H      0.216  0.784  0.000  0.000     1.028     1.588
 178   1 H      0.205  0.795  0.000  0.000     1.080     1.628
 179   7 N     -0.191  1.210  3.981  0.000    25.137     7.446
 180   6 C      0.000  1.047  2.953  0.000    20.579     6.459
 181   6 C      0.267  1.047  2.686  0.000    22.499     7.767
 182   8 O     -0.505  1.748  4.757  0.000    23.896     6.554
 183   6 C     -0.035  1.038  2.997  0.000    21.165     6.543
 184   6 C     -0.152  0.971  3.181  0.000    23.464     6.902
 185   6 C     -0.161  0.981  3.180  0.000    23.658     6.931
 186   1 H      0.215  0.785  0.000  0.000     1.032     1.591
 187   1 H      0.095  0.905  0.000  0.000     1.829     2.115
 188   1 H      0.076  0.924  0.000  0.000     2.021     2.223
 189   1 H      0.066  0.934  0.000  0.000     2.124     2.279
 190   1 H      0.065  0.935  0.000  0.000     2.135     2.285
 191   1 H      0.042  0.958  0.000  0.000     2.420     2.432
 192   1 H      0.083  0.917  0.000  0.000     1.944     2.180
 193   1 H      0.048  0.952  0.000  0.000     2.349     2.396
 194   1 H      0.066  0.934  0.000  0.000     2.131     2.282
 195   7 N     -0.181  1.211  3.969  0.000    24.919     7.414
 196   6 C      0.015  1.039  2.947  0.000    20.334     6.421
 197   6 C      0.269  1.045  2.685  0.000    22.450     7.759
 198   8 O     -0.469  1.738  4.731  0.000    23.106     6.445
 199   6 C     -0.153  0.980  3.173  0.000    23.501     6.908
 200   1 H      0.226  0.774  0.000  0.000     0.984     1.554
 201   1 H      0.082  0.918  0.000  0.000     1.963     2.191
 202   1 H      0.075  0.925  0.000  0.000     2.033     2.230
 203   1 H      0.083  0.917  0.000  0.000     1.948     2.183
 204   1 H      0.084  0.916  0.000  0.000     1.935     2.175
 205   7 N     -0.200  1.215  3.986  0.000    25.354     7.478
 206   6 C      0.017  1.041  2.942  0.000    20.299     6.415
 207   6 C      0.269  1.039  2.692  0.000    22.460     7.761
 208   8 O     -0.484  1.738  4.745  0.000    23.424     6.489
 209   6 C     -0.123  1.013  3.110  0.000    22.845     6.802
 210   6 C      0.279  1.038  2.682  0.000    22.269     7.727
 211   8 O     -0.474  1.744  4.730  0.000    23.209     6.459
 212   7 N     -0.287  1.186  4.102  0.000    27.417     7.777
 213   1 H      0.212  0.788  0.000  0.000     1.047     1.603
 214   1 H      0.113  0.887  0.000  0.000     1.672     2.022
 215   1 H      0.095  0.905  0.000  0.000     1.828     2.114
 216   1 H      0.120  0.880  0.000  0.000     1.613     1.986
 217   1 H      0.207  0.793  0.000  0.000     1.071     1.621
 218   1 H      0.209  0.791  0.000  0.000     1.061     1.613
 219   7 N     -0.178  1.207  3.971  0.000    24.858     7.405
 220   6 C      0.008  1.047  2.945  0.000    20.454     6.441
 221   6 C      0.271  1.046  2.683  0.000    22.425     7.754
 222   8 O     -0.483  1.737  4.746  0.000    23.414     6.488
 223   6 C     -0.160  0.983  3.178  0.000    23.651     6.931
 224   1 H      0.209  0.791  0.000  0.000     1.060     1.613
 225   1 H      0.107  0.893  0.000  0.000     1.725     2.053
 226   1 H      0.094  0.906  0.000  0.000     1.836     2.119
 227   1 H      0.087  0.913  0.000  0.000     1.911     2.161
 228   1 H      0.064  0.936  0.000  0.000     2.151     2.293
 229   7 N     -0.199  1.218  3.981  0.000    25.319     7.473
 230   6 C      0.023  1.037  2.940  0.000    20.190     6.397
 231   6 C      0.257  1.047  2.696  0.000    22.675     7.798
 232   8 O     -0.478  1.725  4.753  0.000    23.300     6.472
 233   6 C     -0.115  1.019  3.096  0.000    22.672     6.776
 234   6 C      0.371  1.020  2.608  0.000    20.704     7.447
 235   8 O     -0.645  1.772  4.873  0.000    27.253     6.999
 236   8 O     -0.655  1.776  4.879  0.000    27.498     7.031
 237   1 H      0.218  0.782  0.000  0.000     1.018     1.581
 238   1 H      0.099  0.901  0.000  0.000     1.789     2.092
 239   1 H      0.048  0.952  0.000  0.000     2.341     2.392
 240   1 H      0.077  0.923  0.000  0.000     2.013     2.218
 241   7 N     -0.182  1.212  3.970  0.000    24.943     7.417
 242   6 C      0.006  1.043  2.951  0.000    20.484     6.445
 243   6 C      0.268  1.044  2.688  0.000    22.471     7.763
 244   8 O     -0.444  1.734  4.710  0.000    22.577     6.371
 245   6 C     -0.111  1.013  3.098  0.000    22.595     6.764
 246   6 C     -0.032  1.027  3.005  0.000    21.108     6.534
 247   6 C     -0.163  0.979  3.185  0.000    23.697     6.936
 248   6 C     -0.159  0.978  3.181  0.000    23.611     6.924
 249   1 H      0.208  0.792  0.000  0.000     1.065     1.617
 250   1 H      0.084  0.916  0.000  0.000     1.939     2.178
 251   1 H      0.090  0.910  0.000  0.000     1.877     2.142
 252   1 H      0.082  0.918  0.000  0.000     1.954     2.186
 253   1 H      0.051  0.949  0.000  0.000     2.301     2.372
 254   1 H      0.065  0.935  0.000  0.000     2.137     2.286
 255   1 H      0.064  0.936  0.000  0.000     2.150     2.293
 256   1 H      0.065  0.935  0.000  0.000     2.139     2.287
 257   1 H      0.054  0.946  0.000  0.000     2.269     2.355
 258   1 H      0.060  0.940  0.000  0.000     2.193     2.316
 259   1 H      0.045  0.955  0.000  0.000     2.387     2.416
 260   7 N     -0.184  1.202  3.982  0.000    24.995     7.425
 261   6 C      0.009  1.044  2.947  0.000    20.428     6.435
 262   6 C      0.198  1.087  2.715  0.000    23.783     7.987
 263   8 O     -0.325  1.749  4.576  0.000    20.238     6.031
 264   6 C      0.100  1.025  2.875  0.000    19.009     6.221
 265   8 O     -0.489  1.673  4.816  0.000    22.659     6.426
 266   6 C     -0.173  0.984  3.189  0.000    23.915     6.969
 267   1 H      0.213  0.787  0.000  0.000     1.042     1.599
 268   1 H      0.112  0.888  0.000  0.000     1.682     2.028
 269   1 H      0.053  0.947  0.000  0.000     2.278     2.360
 270   1 H      0.324  0.676  0.000  0.000     0.651     1.267
 271   1 H      0.080  0.920  0.000  0.000     1.981     2.201
 272   1 H      0.072  0.928  0.000  0.000     2.066     2.247
 273   1 H      0.081  0.919  0.000  0.000     1.972     2.196
 274   7 N     -0.425  1.288  4.137  0.000    31.089     8.281
 275   6 C      0.027  1.033  2.941  0.000    20.137     6.391
 276   6 C      0.199  1.094  2.706  0.000    23.757     7.982
 277   8 O     -0.398  1.764  4.634  0.000    21.641     6.237
 278   6 C     -0.092  1.007  3.085  0.000    22.242     6.711
 279   6 C     -0.094  1.000  3.094  0.000    22.268     6.715
 280   6 C     -0.114  1.006  3.108  0.000    22.667     6.776
 281   6 C     -0.067  1.018  3.050  0.000    21.855     6.668
 282   7 N     -0.142  1.146  3.997  0.000    24.071     7.287
 283   1 H      0.197  0.803  0.000  0.000     1.123     1.660
 284   1 H      0.077  0.923  0.000  0.000     2.010     2.217
 285   1 H      0.078  0.922  0.000  0.000     1.994     2.208
 286   1 H      0.061  0.939  0.000  0.000     2.181     2.309
 287   1 H      0.075  0.925  0.000  0.000     2.030     2.228
 288   1 H      0.073  0.927  0.000  0.000     2.052     2.240
 289   1 H      0.090  0.910  0.000  0.000     1.877     2.142
 290   1 H      0.090  0.910  0.000  0.000     1.877     2.143
 291   1 H      0.128  0.872  0.000  0.000     1.550     1.947
 292   1 H      0.116  0.884  0.000  0.000     1.645     2.006
 293   1 H      0.293  0.707  0.000  0.000     0.735     1.342
 294   1 H      0.270  0.730  0.000  0.000     0.810     1.410
 295   1 H      0.296  0.704  0.000  0.000     0.724     1.333
 296   7 N     -0.413  1.284  4.129  0.000    30.749     8.236
 297   6 C      0.015  1.034  2.951  0.000    20.330     6.420
 298   6 C      0.264  1.041  2.694  0.000    22.543     7.775
 299   8 O     -0.512  1.773  4.739  0.000    24.062     6.577
 300   6 C     -0.135  1.020  3.115  0.000    23.070     6.835
 301   6 C      0.285  1.037  2.678  0.000    22.165     7.709
 302   8 O     -0.521  1.766  4.755  0.000    24.244     6.602
 303   7 N     -0.289  1.192  4.098  0.000    27.467     7.784
 304   1 H      0.187  0.813  0.000  0.000     1.174     1.697
 305   1 H      0.078  0.922  0.000  0.000     2.000     2.211
 306   1 H      0.084  0.916  0.000  0.000     1.934     2.175
 307   1 H      0.092  0.908  0.000  0.000     1.856     2.130
 308   1 H      0.249  0.751  0.000  0.000     0.888     1.476
 309   1 H      0.238  0.762  0.000  0.000     0.932     1.512
 310   7 N     -0.201  1.214  3.986  0.000    25.359     7.479
 311   6 C     -0.009  1.052  2.957  0.000    20.739     6.485
 312   6 C      0.277  1.040  2.683  0.000    22.309     7.734
 313   8 O     -0.508  1.766  4.741  0.000    23.958     6.562
 314   6 C     -0.111  1.011  3.101  0.000    22.608     6.767
 315   6 C     -0.123  1.006  3.117  0.000    22.843     6.801
 316   6 C     -0.117  1.002  3.116  0.000    22.726     6.784
 317   6 C     -0.064  1.012  3.052  0.000    21.797     6.659
 318   7 N     -0.141  1.145  3.996  0.000    24.046     7.283
 319   1 H      0.241  0.759  0.000  0.000     0.918     1.501
 320   1 H      0.107  0.893  0.000  0.000     1.726     2.054
 321   1 H      0.081  0.919  0.000  0.000     1.973     2.196
 322   1 H      0.111  0.889  0.000  0.000     1.684     2.029
 323   1 H      0.108  0.892  0.000  0.000     1.711     2.045
 324   1 H      0.086  0.914  0.000  0.000     1.918     2.166
 325   1 H      0.073  0.927  0.000  0.000     2.054     2.241
 326   1 H      0.081  0.919  0.000  0.000     1.970     2.195
 327   1 H      0.129  0.871  0.000  0.000     1.542     1.942
 328   1 H      0.111  0.889  0.000  0.000     1.690     2.033
 329   1 H      0.295  0.705  0.000  0.000     0.727     1.335
 330   1 H      0.293  0.707  0.000  0.000     0.734     1.342
 331   1 H      0.306  0.694  0.000  0.000     0.696     1.307
 332   7 N     -0.193  1.208  3.985  0.000    25.186     7.453
 333   6 C      0.021  1.038  2.941  0.000    20.221     6.402
 334   6 C      0.272  1.045  2.683  0.000    22.407     7.752
 335   8 O     -0.525  1.761  4.765  0.000    24.356     6.617
 336   6 C     -0.122  1.024  3.098  0.000    22.828     6.801
 337   6 C      0.361  1.025  2.614  0.000    20.880     7.478
 338   8 O     -0.626  1.758  4.868  0.000    26.775     6.937
 339   8 O     -0.648  1.786  4.862  0.000    27.341     7.010
 340   1 H      0.227  0.773  0.000  0.000     0.977     1.548
 341   1 H      0.085  0.915  0.000  0.000     1.931     2.173
 342   1 H      0.047  0.953  0.000  0.000     2.351     2.398
 343   1 H      0.067  0.933  0.000  0.000     2.117     2.275
 344   7 N     -0.170  1.200  3.970  0.000    24.678     7.378
 345   6 C     -0.042  1.003  3.039  0.000    21.369     6.589
 346   6 C      0.268  1.041  2.691  0.000    22.484     7.765
 347   8 O     -0.492  1.749  4.744  0.000    23.618     6.516
 348   1 H      0.223  0.777  0.000  0.000     0.994     1.561
 349   1 H      0.117  0.883  0.000  0.000     1.641     2.003
 350   1 H      0.097  0.903  0.000  0.000     1.808     2.102
 351   7 N     -0.173  1.202  3.971  0.000    24.755     7.389
 352   6 C      0.006  1.038  2.956  0.000    20.477     6.443
 353   6 C      0.275  1.036  2.689  0.000    22.355     7.742
 354   8 O     -0.473  1.735  4.738  0.000    23.192     6.457
 355   6 C      0.056  0.997  2.948  0.000    19.827     6.374
 356   8 O     -0.479  1.678  4.801  0.000    22.440     6.395
 357   1 H      0.216  0.784  0.000  0.000     1.027     1.587
 358   1 H      0.079  0.921  0.000  0.000     1.988     2.205
 359   1 H      0.071  0.929  0.000  0.000     2.074     2.252
 360   1 H      0.074  0.926  0.000  0.000     2.043     2.235
 361   1 H      0.338  0.662  0.000  0.000     0.617     1.234
 362   7 N     -0.178  1.204  3.974  0.000    24.852     7.404
 363   6 C      0.011  1.040  2.950  0.000    20.398     6.430
 364   6 C      0.193  1.088  2.719  0.000    23.884     8.004
 365   8 O     -0.356  1.762  4.594  0.000    20.831     6.119
 366   6 C     -0.032  1.040  2.992  0.000    21.107     6.534
 367   6 C     -0.094  1.010  3.084  0.000    22.282     6.719
 368   6 C     -0.161  0.978  3.184  0.000    23.655     6.931
 369   6 C     -0.156  0.985  3.171  0.000    23.575     6.923
 370   1 H      0.215  0.785  0.000  0.000     1.033     1.592
 371   1 H      0.099  0.901  0.000  0.000     1.793     2.094
 372   1 H      0.069  0.931  0.000  0.000     2.098     2.265
 373   1 H      0.056  0.944  0.000  0.000     2.250     2.345
 374   1 H      0.058  0.942  0.000  0.000     2.224     2.332
 375   1 H      0.084  0.916  0.000  0.000     1.936     2.176
 376   1 H      0.045  0.955  0.000  0.000     2.388     2.416
 377   1 H      0.076  0.924  0.000  0.000     2.025     2.225
 378   1 H      0.066  0.934  0.000  0.000     2.124     2.279
 379   1 H      0.058  0.942  0.000  0.000     2.226     2.333
 380   1 H      0.067  0.933  0.000  0.000     2.114     2.274
 381   1 H      0.188  0.812  0.000  0.000     1.170     1.694
 382   1 H      0.101  0.899  0.000  0.000     1.772     2.081
 383   1 H      0.195  0.805  0.000  0.000     1.134     1.668
 384   1 H      0.060  0.940  0.000  0.000     2.195     2.317
 385   1 H      0.179  0.821  0.000  0.000     1.219     1.730
 386   1 H      0.090  0.910  0.000  0.000     1.882     2.145
 387   1 H      0.175  0.825  0.000  0.000     1.243     1.747
 388   1 H      0.079  0.921  0.000  0.000     1.984     2.202
 389   1 H      0.180  0.820  0.000  0.000     1.215     1.727
 390   1 H      0.068  0.932  0.000  0.000     2.106     2.269
 391   1 H      0.190  0.810  0.000  0.000     1.160     1.687
 392   1 H      0.088  0.912  0.000  0.000     1.901     2.156

 Mol. C6AA /au·bohr⁶  :    1440934.162184
 Mol. C8AA /au·bohr⁸  :   32119368.727471
 Mol. α(0) /au        :       1790.098527

 
molecular dipole:
                 x           y           z       tot (Debye)
 q only:     -783.572    -289.104    -420.425
   full:     -782.302    -285.141    -418.510    2368.724
molecular quadrupole (traceless):
                xx          xy          yy          xz          yz          zz
 q only:  -241436.809 -169796.504  155674.290 -247099.154  -90875.186   85762.519
  q+dip:  -241387.786 -167315.551  155824.337 -245624.251  -89268.903   85563.449
   full:  -241384.919 -167314.367  155820.421 -245624.611  -89266.686   85564.498
speedup  1.00
cpu  time for grad    7.98 s
wall time for grad    7.98 s

SCC energy    :    -642.3581694
rep           :      12.8613295
ES            :       2.5843807
AES           :      -0.0437003
AXC           :       0.0591276
disp          :      -0.4945969
XB            :       0.0000000
fix           :       0.0000000
Gborn         :       0.0000000
Gsasa         :       0.0000000
Ghb           :       0.0000000
Gshift        :       0.0000000
Gsolv         :      -0.7260395     -455.60
Etot ala COSMO:    -642.3581694
grad norm     :       2.5705680
total E       :    -629.4573536
atomizationE  :     108.7697540    68254.05
(atE without considering molecular charge,
 total energy contains solvation terms)
H-L gap (eV)  :          1.1767

------------------------------------------------------------------------
 * finished run on 2019/03/07 at 11:37:54.561     
------------------------------------------------------------------------
 total:
 * wall-time:     0 d,  0 h,  0 min,  8.895 sec
 *  cpu-time:     0 d,  0 h,  0 min,  8.757 sec
 * ratio c/w:     0.984 speedup
 SCF:
 * wall-time:     0 d,  0 h,  0 min,  8.626 sec
 *  cpu-time:     0 d,  0 h,  0 min,  8.624 sec
 * ratio c/w:     1.000 speedup

