      -----------------------------------------------------------      
     |                   =====================                   |     
     |                           x T B                           |     
     |                   =====================                   |     
     |                         S. Grimme                         |     
     |          Mulliken Center for Theoretical Chemistry        |     
     |                    University of Bonn                     |     
     |                 Version 6.0.1 (SAW181210)                 |     
      -----------------------------------------------------------      

   This program is distributed in the hope that it will be useful,
   but WITHOUT ANY WARRANTY; without even the implied warranty of
   MERCHANTABILITY or FITNESS FOR A PARTICULAR PURPOSE.
   
   FOR NON-COMMERCIAL, ACADEMIA USE ONLY.
   
   Cite this work as:
   S. Grimme, C. Bannwarth, P. Shushkov, J. Comput. Theory Chem., 2017,
   13, 1989-2009.
   C. Bannwarth, S. Ehlert and S. Grimme., ChemRxiv, 2018, preprint.
   http://doi.org/10.26434/chemrxiv.7246238.v1
   
   for sTDA-xTB:
   S. Grimme and C. Bannwarth, J. Chem. Phys., 2016, 145, 054103.
   
   in the mass-spec context:
   V. Asgeirsson, C. Bauer and S. Grimme, Chem. Sci., 2017, 8, 4879.
   
   if GBSA is used:
   P. Shushkov, F. März and S. Grimme, unpublished.
   
   for ANC optimizer:
   S. Grimme, unpublished.
   Rational Function algorithm used in ANCopt:
   F. Eckert, P. Pulay, H.-J. Werner, J. Comput. Chem., 1997, 18, 1473.
   
   with help from (in alphabetical order)
   C. Bannwarth, F. Bohle, G. Brandenburg, E. Caldeweyher, M. Checinski,
   S. Dohm, S. Ehlert, S. Ehrlich, F. März, H. Neugebauer, J. Pisarek,
   P. Pracht, P. Shushkov, and S. Spicher.
   
 * started run on 2019/03/15 at 00:15:16.619     
========================================================================
 # omp threads = 1
========================================================================
number of atoms            : 85
number of electrons        : 238
charge                     : 0
spin                       : .0
first test random number   : .7717
           ------------------------------------------------- 
          |                 G F N 2 - x T B                 |
          | Geometry, Frequencies, Noncovalent interactions |
          |            JCTC 2018 parametrisation            |
           ------------------------------------------------- 
 
      method parameters     
 k(s)        :  1.8500
 k(p)        :  2.2300
 k(d)        :  2.2300
 k(f)        :  2.0000
 kEN (H0ij)  : -2.0000
 D4 a1       :  0.5200
 D4 a2       :  5.0000
 D4 s6       :  1.0000
 D4 s8       :  2.7000
 D4 s9       :  5.0000
 alphaj      :  2.0000

 Solvent             : h2o
 Using internal parameter file: .param_gbsa2_h2o
 Gsolv ref. state (COSMO-RS): gsolv [1 M gas/solution]
 temperature (mdtemp)       :    298.150000000000     
 dielectric constant        :    80.2000000000000     
 rho                        :    1.00000000000000     
 mass                       :    18.0000000000000     
 surface tension            :    15.5689454083859     
 probe radius               :   0.975313790000000     
 vdW radii scaling          :    1.00000000000000     
 Gshift (Eh)                :   1.857443126794793E-003
 c1                         :    1.55243817000000     
 soset                      :   0.130326360000000     
 HB correction              :  T

            Z     q(EN)     CN     RAES       Cart. coordinates
     1  N   5.0   -0.21    3.25    1.97    19.59602    32.09734    35.67878
     2  C   4.0    0.03    4.42    4.42    20.53063    34.60402    35.19415
     3  C   4.0    0.15    3.56    3.14    18.63607    36.61712    35.99535
     4  O   6.0   -0.28    1.37    1.80    16.46930    36.44317    35.18447
     5  C   4.0   -0.04    4.46    4.47    21.15806    34.96739    32.46775
     6  C   4.0   -0.01    3.67    3.21    22.58179    37.29106    31.80830
     7  C   4.0   -0.04    3.63    3.19    24.92093    37.80302    32.80136
     8  C   4.0   -0.03    3.65    3.20    21.74753    38.96910    30.02689
     9  C   4.0   -0.04    3.52    3.12    26.29015    39.77416    32.05909
    10  C   4.0   -0.04    3.52    3.12    23.12842    40.93561    29.29084
    11  C   4.0   -0.04    3.53    3.13    25.41016    41.35276    30.29231
    12  H   1.0    0.09    1.07    1.44    18.90144    31.31905    34.26357
    13  H   1.0    0.04    1.11    1.45    22.13137    34.82333    36.26073
    14  H   1.0    0.04    1.08    1.44    22.14551    33.43261    31.83348
    15  H   1.0    0.05    1.09    1.44    19.51132    34.93303    31.46017
    16  H   1.0    0.05    1.08    1.44    25.57734    36.61179    34.13413
    17  H   1.0    0.05    1.12    1.45    20.02509    38.65214    29.28620
    18  H   1.0    0.05    1.08    1.44    28.01526    40.08187    32.83048
    19  H   1.0    0.05    1.08    1.44    22.44784    42.13006    27.95672
    20  H   1.0    0.05    1.07    1.44    26.45964    42.84950    29.72395
    21  N   5.0   -0.09    3.70    2.26    19.37416    38.50619    37.52214
    22  C   4.0    0.04    4.71    4.77    17.61701    40.50026    38.29578
    23  C   4.0    0.17    3.50    3.12    15.60082    41.01203    36.30851
    24  O   6.0   -0.29    1.35    1.80    16.07906    40.80342    34.08940
    25  C   4.0   -0.04    4.52    4.57    19.32736    42.66467    38.85305
    26  C   4.0   -0.05    4.46    4.47    21.51129    41.42588    39.97168
    27  C   4.0   -0.02    4.49    4.53    21.90831    39.20268    38.32684
    28  H   1.0    0.05    1.11    1.44    16.58846    40.00954    39.87097
    29  H   1.0    0.05    1.07    1.44    19.79031    43.63506    37.24031
    30  H   1.0    0.04    1.07    1.44    18.52091    44.00263    39.99711
    31  H   1.0    0.04    1.07    1.44    23.05263    42.58591    40.08039
    32  H   1.0    0.04    1.07    1.44    21.16711    40.92081    41.81119
    33  H   1.0    0.04    1.07    1.44    23.05617    39.60946    36.81480
    34  H   1.0    0.04    1.06    1.44    22.81225    37.74023    39.22354
    35  N   5.0   -0.15    3.53    2.10    13.33111    41.74227    37.11822
    36  C   4.0    0.04    4.49    4.52    11.18652    42.15967    35.49969
    37  C   4.0    0.16    3.42    3.08    10.68643    44.70941    34.22787
    38  O   6.0   -0.28    1.25    1.80     9.27504    44.81621    32.42001
    39  C   4.0   -0.03    4.38    4.35     8.80542    41.27898    36.77090
    40  C   4.0    0.25    3.17    3.03     8.44537    42.35248    39.40929
    41  O   6.0   -0.29    1.25    1.80    10.19140    42.01397    40.96491
    42  O   6.0   -0.26    1.17    1.80     6.46622    43.51825    39.88975
    43  H   1.0    0.11    1.16    1.46    12.96600    42.01018    38.81995
    44  H   1.0    0.07    1.14    1.45    11.73296    41.11980    33.95202
    45  H   1.0    0.07    1.08    1.44     7.26551    41.73768    35.69972
    46  H   1.0    0.05    1.07    1.44     8.77549    39.35301    36.87775
    47  N   5.0   -0.14    3.46    2.05    11.79746    46.75460    35.14647
    48  C   4.0    0.04    4.36    4.31    11.46691    49.26667    34.14836
    49  C   4.0    0.08    3.21    3.04    13.83285    50.44759    32.98220
    50  O   6.0   -0.27    1.12    1.80    14.13741    50.59201    30.73124
    51  C   4.0    0.04    4.24    4.09    10.30864    51.04250    36.04834
    52  O   6.0   -0.24    2.08    1.84     7.68856    50.94947    36.08775
    53  H   1.0    0.09    1.11    1.45    12.87485    46.69131    36.53600
    54  H   1.0    0.09    1.13    1.45    10.22735    49.00006    32.67751
    55  H   1.0    0.05    1.06    1.44    11.02664    50.62812    37.79802
    56  H   1.0    0.05    1.06    1.44    10.91109    52.84894    35.69323
    57  H   1.0    0.14    1.06    1.44     7.10737    52.03391    37.27016
    58  N   5.0   -0.22    3.22    1.96    17.26151    42.48367    26.01909
    59  C   4.0    0.03    4.33    4.26    17.03776    39.81328    26.36912
    60  C   4.0    0.08    3.22    3.04    16.55724    38.35770    23.92148
    61  O   6.0   -0.29    1.12    1.80    17.53867    36.30234    23.54418
    62  C   4.0   -0.04    4.41    4.40    15.37657    39.03786    28.53467
    63  C   4.0   -0.04    4.40    4.38    15.16490    36.28842    29.03235
    64  C   4.0   -0.01    4.37    4.33    12.82744    35.16820    27.99363
    65  N   5.0   -0.14    3.60    2.16    10.65082    36.01965    29.33095
    66  C   4.0    0.10    3.48    3.11    10.26728    35.72748    31.82931
    67  N   5.0   -0.16    3.56    2.12    11.79654    34.61622    33.02125
    68  N   5.0   -0.18    3.45    2.05     8.35188    36.57816    32.77921
    69  H   1.0    0.10    1.07    1.44    16.22722    43.41875    27.09209
    70  H   1.0    0.05    1.17    1.46    18.80514    39.22588    26.88868
    71  H   1.0    0.07    1.09    1.44    15.96602    39.93881    30.14447
    72  H   1.0    0.06    1.09    1.44    13.60405    39.72588    28.21558
    73  H   1.0    0.05    1.08    1.44    16.72708    35.39199    28.32577
    74  H   1.0    0.06    1.11    1.45    15.24383    35.94642    30.93505
    75  H   1.0    0.05    1.07    1.44    12.69727    35.58895    26.10766
    76  H   1.0    0.05    1.07    1.44    12.90013    33.23448    28.04312
    77  H   1.0    0.09    1.11    1.45     9.42387    36.88373    28.40040
    78  H   1.0    0.09    1.10    1.44    13.37053    33.90684    32.39769
    79  H   1.0    0.10    1.08    1.44    11.71610    34.31557    34.80718
    80  H   1.0    0.09    1.06    1.44     7.03212    37.50569    31.93651
    81  H   1.0    0.09    1.08    1.44     7.95348    36.44211    34.53566
    82  H   1.0    0.09    1.08    1.44    20.87013    31.11219    36.22528
    83  H   1.0    0.06    1.05    1.44    15.19464    51.13378    34.09832
    84  H   1.0    0.10    1.08    1.44    18.86679    42.96228    26.31331
    85  H   1.0    0.06    1.05    1.44    15.42334    39.08544    22.59645

  Z AO/shell   Hii/eV     exponent
  1     Wed Apr 25 08:07:45 CEST 2018   EN: 2.200 GM2: 0.406  GM3: 0.0800  RAES: 1.40
     1s    -10.707211    1.230000
  6     Wed Apr 25 08:07:45 CEST 2018   EN: 2.550 GM2: 0.538  GM3: 0.1500  RAES: 3.00
     2s    -13.970922    2.096432
     2p    -10.063292    1.800000
  7     Wed Apr 25 08:07:45 CEST 2018   EN: 3.040 GM2: 0.461  GM3:-0.0640  RAES: 1.90
     2s    -16.686243    2.339881
     2p    -12.523956    2.014332
  8     Wed Apr 25 08:07:45 CEST 2018   EN: 3.440 GM2: 0.452  GM3:-0.0517  RAES: 1.80
     2s    -20.229985    2.439742
     2p    -15.503117    2.137023
 no old-style atom pair restraining (fixing) potential

molecular fragmentation (1/2 indicates fragments):
111111111111111111111111111111111111111111111111111111111222222222222222
2222222221122
# atoms in fragment 1/2:    59    26
 fragment masses (1/2) :      447.47      159.21
CMA distance (Bohr)    :   8.466
constraining FC (au)   :  0.0500
           ------------------------------------------------- 
          |        Self-Consistent Charge Iterations        |
           ------------------------------------------------- 

 Ncao       : 214
 Nao        : 214
 Nshell     : 128
 Nel        : 238
 T(el)      :   500.0
 intcut     :    35.0
 scfconv/Eh :  0.100E-06
   qconv/e  :  0.100E-04
 intneglect :  0.100E-08
 broydamp   :      0.400
 iter      E             dE          RMSdq      gap      omega  full diag
   1   -136.9026919 -0.136903E+03  0.481E+00    3.53       0.0  T
   2   -137.2314711 -0.328779E+00  0.225E+00    1.93       1.0  T
   3   -137.2483714 -0.169003E-01  0.122E+00    2.00       1.0  T
   4   -137.2663919 -0.180205E-01  0.249E-01    1.55       1.0  T
   5   -137.2676357 -0.124386E-02  0.118E-01    1.68       1.0  T
   6   -137.2677841 -0.148398E-03  0.440E-02    1.70       1.0  T
   7   -137.2678262 -0.420552E-04  0.195E-02    1.68       1.0  T
   8   -137.2678328 -0.662195E-05  0.849E-03    1.67       1.3  T
   9   -137.2678340 -0.122005E-05  0.387E-03    1.67       2.8  T
  10   -137.2678342 -0.219042E-06  0.164E-03    1.67       6.6  T
  11   -137.2678343 -0.432181E-07  0.547E-04    1.67      19.8  T
  12   -137.2678343 -0.364844E-08  0.228E-04    1.67      47.7  T
  13   -137.2678343 -0.608793E-09  0.108E-04    1.67     100.3  T
  14   -137.2678343 -0.160327E-09  0.394E-05    1.67     275.2  T
  15   -137.2678343 -0.226521E-10  0.146E-05    1.67     743.1  T
speedup  0.99
cpu  time for SCC    0.16 s
wall time for SCC    0.16 s

   *** convergence criteria satisfied after 15 iterations ***

          eigenvalues
 #    :         107        108        109        110        111        112        113        114
 occ. :        2.000      2.000      2.000      2.000      2.000      2.000      2.000      2.000
 eps  :       -11.300    -11.222    -11.153    -11.108    -10.954    -10.910    -10.835    -10.816
 #    :         115        116        117        118        119        120        121        122
 occ. :        2.000      2.000      2.000      2.000      2.000      0.000      0.000      0.000
 eps  :       -10.455    -10.284     -9.970     -9.914     -9.893     -8.225     -7.553     -6.058
 #    :         123        124        125        126        127        128        129        130
 occ. :        0.000      0.000      0.000      0.000      0.000      0.000      0.000      0.000
 eps  :        -5.936     -5.858     -5.734     -5.677     -4.743     -4.635     -1.841     -1.003


   #   Z            q   n(s)   n(p)   n(d)      C6AA      α(0)
   1   7 N     -0.406  1.303  4.103  0.000    30.548     8.209
   2   6 C      0.039  1.031  2.930  0.000    19.926     6.357
   3   6 C      0.257  1.050  2.692  0.000    22.667     7.797
   4   8 O     -0.492  1.740  4.752  0.000    23.599     6.513
   5   6 C     -0.087  1.021  3.066  0.000    22.132     6.693
   6   6 C      0.001  1.077  2.922  0.000    27.992     8.679
   7   6 C     -0.052  1.055  2.997  0.000    29.278     8.876
   8   6 C     -0.060  1.062  2.997  0.000    29.473     8.905
   9   6 C     -0.039  1.052  2.987  0.000    28.960     8.827
  10   6 C     -0.035  1.050  2.985  0.000    28.875     8.814
  11   6 C     -0.042  1.053  2.989  0.000    29.037     8.839
  12   1 H      0.179  0.821  0.000  0.000     1.218     1.729
  13   1 H      0.037  0.963  0.000  0.000     2.489     2.467
  14   1 H      0.064  0.936  0.000  0.000     2.155     2.295
  15   1 H      0.060  0.940  0.000  0.000     2.197     2.318
  16   1 H      0.041  0.959  0.000  0.000     2.433     2.439
  17   1 H      0.065  0.935  0.000  0.000     2.146     2.290
  18   1 H      0.042  0.958  0.000  0.000     2.416     2.430
  19   1 H      0.030  0.970  0.000  0.000     2.590     2.517
  20   1 H      0.037  0.963  0.000  0.000     2.489     2.467
  21   7 N     -0.094  1.235  3.859  0.000    23.085     7.136
  22   6 C      0.018  1.045  2.937  0.000    20.227     6.394
  23   6 C      0.281  1.036  2.683  0.000    22.240     7.722
  24   8 O     -0.466  1.724  4.742  0.000    23.049     6.437
  25   6 C     -0.069  1.012  3.057  0.000    21.762     6.632
  26   6 C     -0.077  1.010  3.067  0.000    21.908     6.654
  27   6 C     -0.011  1.018  2.993  0.000    20.762     6.484
  28   1 H      0.058  0.942  0.000  0.000     2.217     2.328
  29   1 H      0.060  0.940  0.000  0.000     2.195     2.317
  30   1 H      0.055  0.945  0.000  0.000     2.254     2.348
  31   1 H      0.075  0.925  0.000  0.000     2.036     2.231
  32   1 H      0.066  0.934  0.000  0.000     2.135     2.285
  33   1 H      0.067  0.933  0.000  0.000     2.119     2.276
  34   1 H      0.069  0.931  0.000  0.000     2.097     2.265
  35   7 N     -0.210  1.229  3.981  0.000    25.569     7.510
  36   6 C      0.024  1.037  2.939  0.000    20.172     6.394
  37   6 C      0.276  1.042  2.681  0.000    22.327     7.738
  38   8 O     -0.476  1.738  4.738  0.000    23.262     6.467
  39   6 C     -0.113  1.033  3.079  0.000    22.632     6.770
  40   6 C      0.374  1.015  2.611  0.000    20.660     7.439
  41   8 O     -0.646  1.768  4.878  0.000    27.277     7.002
  42   8 O     -0.643  1.779  4.864  0.000    27.202     6.993
  43   1 H      0.210  0.790  0.000  0.000     1.058     1.611
  44   1 H      0.097  0.903  0.000  0.000     1.807     2.102
  45   1 H      0.058  0.942  0.000  0.000     2.228     2.334
  46   1 H      0.060  0.940  0.000  0.000     2.195     2.316
  47   7 N     -0.176  1.218  3.958  0.000    24.811     7.398
  48   6 C      0.007  1.040  2.953  0.000    20.460     6.441
  49   6 C      0.196  1.082  2.722  0.000    23.812     7.991
  50   8 O     -0.327  1.745  4.582  0.000    20.276     6.037
  51   6 C      0.075  1.001  2.924  0.000    19.489     6.316
  52   8 O     -0.490  1.701  4.789  0.000    22.669     6.427
  53   1 H      0.198  0.802  0.000  0.000     1.115     1.654
  54   1 H      0.120  0.880  0.000  0.000     1.616     1.988
  55   1 H      0.048  0.952  0.000  0.000     2.343     2.394
  56   1 H      0.054  0.946  0.000  0.000     2.272     2.357
  57   1 H      0.355  0.645  0.000  0.000     0.576     1.192
  58   7 N     -0.403  1.294  4.108  0.000    30.450     8.195
  59   6 C      0.023  1.034  2.943  0.000    20.205     6.401
  60   6 C      0.196  1.090  2.715  0.000    23.824     7.993
  61   8 O     -0.384  1.757  4.628  0.000    21.371     6.198
  62   6 C     -0.090  1.020  3.070  0.000    22.202     6.705
  63   6 C     -0.100  1.014  3.085  0.000    22.381     6.732
  64   6 C     -0.027  1.015  3.012  0.000    21.098     6.549
  65   7 N     -0.198  1.183  4.015  0.000    25.295     7.470
  66   6 C      0.273  0.965  2.762  0.000    22.380     7.746
  67   7 N     -0.205  1.171  4.034  0.000    25.460     7.494
  68   7 N     -0.242  1.179  4.063  0.000    26.304     7.617
  69   1 H      0.175  0.825  0.000  0.000     1.240     1.744
  70   1 H      0.077  0.923  0.000  0.000     2.005     2.214
  71   1 H      0.083  0.917  0.000  0.000     1.943     2.180
  72   1 H      0.060  0.940  0.000  0.000     2.200     2.319
  73   1 H      0.065  0.935  0.000  0.000     2.139     2.287
  74   1 H      0.082  0.918  0.000  0.000     1.957     2.188
  75   1 H      0.082  0.918  0.000  0.000     1.961     2.190
  76   1 H      0.079  0.921  0.000  0.000     1.991     2.206
  77   1 H      0.218  0.782  0.000  0.000     1.021     1.582
  78   1 H      0.254  0.746  0.000  0.000     0.869     1.460
  79   1 H      0.246  0.754  0.000  0.000     0.898     1.484
  80   1 H      0.246  0.754  0.000  0.000     0.899     1.485
  81   1 H      0.234  0.766  0.000  0.000     0.948     1.525
  82   1 H      0.185  0.815  0.000  0.000     1.184     1.704
  83   1 H      0.086  0.914  0.000  0.000     1.918     2.165
  84   1 H      0.175  0.825  0.000  0.000     1.243     1.747
  85   1 H      0.067  0.933  0.000  0.000     2.121     2.277

 Mol. C6AA /au·bohr⁶  :      70286.066771
 Mol. C8AA /au·bohr⁸  :    1581102.326056
 Mol. α(0) /au        :        399.699503

 
molecular dipole:
                 x           y           z       tot (Debye)
 q only:        3.722      -4.633      -2.947
   full:        4.173      -4.354      -2.093      16.226
molecular quadrupole (traceless):
                xx          xy          yy          xz          yz          zz
 q only:      389.551     171.999    -272.720     203.829    -403.686    -116.832
  q+dip:      364.780     205.064    -282.784     245.101    -333.255     -81.996
   full:      365.186     204.799    -281.350     243.173    -332.805     -83.836
speedup  0.99
cpu  time for grad    0.25 s
wall time for grad    0.25 s

SCC energy    :    -137.2707701
rep           :       2.3770656
ES            :       0.4526400
AES           :      -0.0064704
AXC           :       0.0288980
disp          :      -0.0988109
XB            :       0.0000000
fix           :       0.0000000
Gborn         :       0.0000000
Gsasa         :       0.0000000
Ghb           :       0.0000000
Gshift        :       0.0000000
Gsolv         :      -0.1121187      -70.36
Etot ala COSMO:    -137.2707701
grad norm     :       0.5977334
total E       :    -134.8880341
atomizationE  :      24.1722587    15168.32
(atE without considering molecular charge,
 total energy contains solvation terms)
H-L gap (eV)  :          1.6681

------------------------------------------------------------------------
 * finished run on 2019/03/15 at 00:15:17.023     
------------------------------------------------------------------------
 total:
 * wall-time:     0 d,  0 h,  0 min,  0.403 sec
 *  cpu-time:     0 d,  0 h,  0 min,  0.325 sec
 * ratio c/w:     0.806 speedup
 SCF:
 * wall-time:     0 d,  0 h,  0 min,  0.297 sec
 *  cpu-time:     0 d,  0 h,  0 min,  0.295 sec
 * ratio c/w:     0.993 speedup

