      -----------------------------------------------------------      
     |                   =====================                   |     
     |                           x T B                           |     
     |                   =====================                   |     
     |                         S. Grimme                         |     
     |          Mulliken Center for Theoretical Chemistry        |     
     |                    University of Bonn                     |     
     |                 Version 6.0.1 (SAW181210)                 |     
      -----------------------------------------------------------      

   This program is distributed in the hope that it will be useful,
   but WITHOUT ANY WARRANTY; without even the implied warranty of
   MERCHANTABILITY or FITNESS FOR A PARTICULAR PURPOSE.
   
   FOR NON-COMMERCIAL, ACADEMIA USE ONLY.
   
   Cite this work as:
   S. Grimme, C. Bannwarth, P. Shushkov, J. Comput. Theory Chem., 2017,
   13, 1989-2009.
   C. Bannwarth, S. Ehlert and S. Grimme., ChemRxiv, 2018, preprint.
   http://doi.org/10.26434/chemrxiv.7246238.v1
   
   for sTDA-xTB:
   S. Grimme and C. Bannwarth, J. Chem. Phys., 2016, 145, 054103.
   
   in the mass-spec context:
   V. Asgeirsson, C. Bauer and S. Grimme, Chem. Sci., 2017, 8, 4879.
   
   if GBSA is used:
   P. Shushkov, F. März and S. Grimme, unpublished.
   
   for ANC optimizer:
   S. Grimme, unpublished.
   Rational Function algorithm used in ANCopt:
   F. Eckert, P. Pulay, H.-J. Werner, J. Comput. Chem., 1997, 18, 1473.
   
   with help from (in alphabetical order)
   C. Bannwarth, F. Bohle, G. Brandenburg, E. Caldeweyher, M. Checinski,
   S. Dohm, S. Ehlert, S. Ehrlich, F. März, H. Neugebauer, J. Pisarek,
   P. Pracht, P. Shushkov, and S. Spicher.
   
 * started run on 2019/03/14 at 15:08:19.617     
========================================================================
 # omp threads = 1
========================================================================
number of atoms            : 309
number of electrons        : 814
charge                     : 1
spin                       : .0
first test random number   : .5100
           ------------------------------------------------- 
          |                 G F N 2 - x T B                 |
          | Geometry, Frequencies, Noncovalent interactions |
          |            JCTC 2018 parametrisation            |
           ------------------------------------------------- 
 
      method parameters     
 k(s)        :  1.8500
 k(p)        :  2.2300
 k(d)        :  2.2300
 k(f)        :  2.0000
 kEN (H0ij)  : -2.0000
 D4 a1       :  0.5200
 D4 a2       :  5.0000
 D4 s6       :  1.0000
 D4 s8       :  2.7000
 D4 s9       :  5.0000
 alphaj      :  2.0000

 Solvent             : h2o
 Using internal parameter file: .param_gbsa2_h2o
 Gsolv ref. state (COSMO-RS): gsolv [1 M gas/solution]
 temperature (mdtemp)       :    298.150000000000     
 dielectric constant        :    80.2000000000000     
 rho                        :    1.00000000000000     
 mass                       :    18.0000000000000     
 surface tension            :    15.5689454083859     
 probe radius               :   0.975313790000000     
 vdW radii scaling          :    1.00000000000000     
 Gshift (Eh)                :   1.857443126794793E-003
 c1                         :    1.55243817000000     
 soset                      :   0.130326360000000     
 HB correction              :  T

            Z     q(EN)     CN     RAES       Cart. coordinates
     1  N   5.0   -0.20    3.21    1.96   116.73017    66.54432    38.77279
     2  C   4.0    0.03    4.21    4.02   119.15878    66.77644    37.55930
     3  C   4.0    0.08    3.19    3.04   119.38092    64.94924    35.29373
     4  O   6.0   -0.29    1.11    1.80   120.81732    65.36870    33.54338
     5  C   4.0   -0.04    4.31    4.22   121.31405    66.25359    39.41733
     6  C   4.0   -0.02    3.52    3.12   121.37947    67.72187    41.86562
     7  C   4.0   -0.05    3.53    3.13   122.88311    66.74505    43.79342
     8  C   4.0   -0.04    3.47    3.10   120.04940    69.91984    42.38404
     9  C   4.0   -0.04    3.38    3.07   123.39396    68.06825    45.97853
    10  C   4.0   -0.04    3.43    3.09   120.39437    71.14432    44.67880
    11  C   4.0   -0.04    3.37    3.07   122.18384    70.34210    46.40320
    12  H   1.0    0.09    1.03    1.43   116.67717    65.55874    40.42206
    13  H   1.0    0.05    1.05    1.44   119.36019    68.66118    36.72450
    14  H   1.0    0.04    1.04    1.43   121.27997    64.24477    39.88802
    15  H   1.0    0.04    1.03    1.43   123.06235    66.61744    38.37161
    16  H   1.0    0.04    1.04    1.44   123.66635    64.88223    43.60080
    17  H   1.0    0.04    1.03    1.43   118.67770    70.63232    41.05202
    18  H   1.0    0.05    1.03    1.43   124.66597    67.27784    47.36213
    19  H   1.0    0.05    1.04    1.43   119.22570    72.73621    45.17394
    20  H   1.0    0.05    1.03    1.43   122.55033    71.40382    48.10550
    21  N   5.0   -0.21    3.23    1.96   120.79777    81.46707    40.49491
    22  C   4.0    0.03    4.33    4.26   119.62781    79.82922    38.65962
    23  C   4.0    0.08    3.31    3.05   117.55666    81.32527    37.40842
    24  O   6.0   -0.29    1.14    1.80   116.85944    80.90550    35.24642
    25  C   4.0   -0.02    4.29    4.19   118.33766    77.46926    39.73096
    26  C   4.0   -0.07    4.14    3.89   117.57242    75.72241    37.56311
    27  C   4.0   -0.08    4.16    3.92   120.07212    76.03841    41.50000
    28  H   1.0    0.08    1.02    1.43   120.60460    81.07743    42.35841
    29  H   1.0    0.04    1.06    1.44   121.04264    79.28223    37.25046
    30  H   1.0    0.05    1.06    1.44   116.64819    78.11677    40.74060
    31  H   1.0    0.04    1.00    1.43   116.32472    74.22881    38.21757
    32  H   1.0    0.07    1.01    1.43   116.63334    76.73651    36.04765
    33  H   1.0    0.04    1.00    1.43   119.25025    74.84056    36.76774
    34  H   1.0    0.04    1.04    1.43   118.99764    74.53686    42.34734
    35  H   1.0    0.04    1.00    1.43   121.63628    75.20312    40.46608
    36  H   1.0    0.04    1.01    1.43   120.81914    77.23587    42.97311
    37  N   5.0   -0.19    3.21    1.96   121.12012    84.74953    32.84148
    38  C   4.0    0.04    4.26    4.11   121.88363    82.92111    30.98258
    39  C   4.0    0.10    3.24    3.04   119.67173    82.01943    29.34354
    40  O   6.0   -0.27    1.12    1.80   119.99059    81.69300    27.06012
    41  C   4.0   -0.04    4.35    4.30   123.05099    80.65936    32.36128
    42  C   4.0   -0.01    3.60    3.17   123.47688    78.49066    30.58678
    43  C   4.0   -0.03    3.48    3.11   125.13086    78.76033    28.56586
    44  C   4.0   -0.04    3.47    3.10   122.15508    76.24337    30.86645
    45  C   4.0   -0.04    3.39    3.07   125.34353    76.87534    26.77723
    46  C   4.0   -0.04    3.38    3.07   122.43073    74.32027    29.11640
    47  C   4.0   -0.04    3.39    3.07   123.97627    74.65805    27.03902
    48  H   1.0    0.09    1.03    1.43   121.45309    84.27988    34.68029
    49  H   1.0    0.05    1.05    1.44   123.26375    83.79615    29.70114
    50  H   1.0    0.04    1.03    1.43   124.80606    81.28150    33.25188
    51  H   1.0    0.05    1.04    1.43   121.70863    80.11053    33.81962
    52  H   1.0    0.05    1.03    1.43   126.22555    80.47187    28.38272
    53  H   1.0    0.05    1.03    1.43   120.87739    75.99825    32.44058
    54  H   1.0    0.05    1.03    1.43   126.59052    77.14987    25.19118
    55  H   1.0    0.05    1.03    1.43   121.40733    72.57546    29.37151
    56  H   1.0    0.05    1.03    1.43   124.09561    73.19292    25.62935
    57  N   5.0   -0.12    3.98    2.81   127.34666    74.04952    16.72218
    58  C   4.0   -0.02    4.02    3.66   126.83264    71.84416    15.01310
    59  C   4.0    0.08    3.08    3.02   129.22552    70.90598    13.59427
    60  O   6.0   -0.26    1.11    1.80   129.40341    71.00173    11.31137
    61  H   1.0    0.07    1.02    1.43   126.22375    75.56448    16.21492
    62  H   1.0    0.05    1.01    1.43   126.92897    73.65466    18.58622
    63  H   1.0    0.06    1.02    1.43   129.20081    74.64268    16.58524
    64  H   1.0    0.04    1.02    1.43   126.07184    70.27146    16.11205
    65  H   1.0    0.06    1.02    1.43   125.43589    72.38533    13.59705
    66  N   5.0   -0.20    3.28    1.98   134.06139    71.15770    18.82888
    67  C   4.0    0.03    4.36    4.31   134.76860    71.33067    21.45153
    68  C   4.0    0.14    3.46    3.10   133.07121    69.57047    22.97399
    69  O   6.0   -0.33    1.47    1.80   133.96166    68.48236    24.81045
    70  C   4.0    0.05    4.22    4.04   134.58886    74.13845    22.31928
    71  O   6.0   -0.25    2.14    1.85   135.40917    75.70808    20.32710
    72  C   4.0   -0.08    4.08    3.76   136.09988    74.51179    24.72703
    73  H   1.0    0.10    1.05    1.44   133.98928    72.84261    17.91862
    74  H   1.0    0.05    1.05    1.44   136.69866    70.62842    21.77060
    75  H   1.0    0.04    1.04    1.43   132.59034    74.58769    22.64400
    76  H   1.0    0.12    1.03    1.43   136.85409    76.68937    20.85216
    77  H   1.0    0.04    1.00    1.43   135.79546    76.39206    25.49721
    78  H   1.0    0.04    1.01    1.43   135.54265    73.11127    26.11747
    79  H   1.0    0.05    1.00    1.43   138.10375    74.25087    24.34794
    80  N   5.0   -0.15    3.43    2.04   130.65506    69.21669    22.25342
    81  C   4.0    0.03    4.45    4.47   128.92756    67.74920    23.84056
    82  C   4.0    0.16    3.62    3.18   130.30539    65.60724    25.21222
    83  O   6.0   -0.33    1.39    1.80   130.09472    65.43894    27.51689
    84  C   4.0   -0.03    4.28    4.16   126.54874    66.73424    22.43685
    85  C   4.0   -0.04    4.21    4.02   125.19456    64.63314    23.93625
    86  C   4.0   -0.07    4.11    3.82   127.11556    65.71107    19.79422
    87  C   4.0   -0.07    4.01    3.64   124.47319    65.26925    26.65395
    88  H   1.0    0.07    1.06    1.44   129.89933    70.43205    20.99120
    89  H   1.0    0.04    1.06    1.44   128.24570    68.98420    25.37225
    90  H   1.0    0.04    1.05    1.44   125.22916    68.32118    22.28031
    91  H   1.0    0.04    1.03    1.43   123.46911    64.16235    22.90480
    92  H   1.0    0.05    1.03    1.43   126.38878    62.95161    23.95247
    93  H   1.0    0.05    1.00    1.43   125.38919    65.05257    18.89123
    94  H   1.0    0.05    1.00    1.43   127.95158    67.13480    18.58139
    95  H   1.0    0.05    1.00    1.43   128.40993    64.12237    19.90665
    96  H   1.0    0.05    1.00    1.43   123.53787    63.64838    27.50419
    97  H   1.0    0.06    1.02    1.43   126.12828    65.66415    27.79298
    98  H   1.0    0.05    1.00    1.43   123.21439    66.88881    26.75152
    99  N   5.0   -0.14    3.55    2.12   131.29741    63.71928    23.85453
   100  C   4.0    0.04    4.51    4.55   132.11224    61.49609    25.21884
   101  C   4.0    0.17    3.50    3.12   134.26436    62.11308    27.03902
   102  O   6.0   -0.33    1.33    1.80   134.63191    60.78738    28.91326
   103  C   4.0   -0.03    4.27    4.13   132.93018    59.42518    23.38471
   104  C   4.0    0.26    3.21    3.04   135.36711    60.46566    22.09559
   105  O   6.0   -0.30    1.22    1.80   137.39823    59.46327    22.68553
   106  O   6.0   -0.29    1.23    1.80   135.06331    62.34043    20.69428
   107  H   1.0    0.11    1.09    1.44   132.05289    63.90537    22.08967
   108  H   1.0    0.05    1.05    1.44   130.53954    60.84489    26.41479
   109  H   1.0    0.06    1.02    1.43   133.33135    57.68945    24.42085
   110  H   1.0    0.05    1.02    1.43   131.45836    59.06810    21.98646
   111  N   5.0   -0.13    3.54    2.10   135.64282    64.13423    26.46975
   112  C   4.0    0.04    4.45    4.46   137.44075    65.22446    28.18892
   113  C   4.0    0.15    3.53    3.13   136.29703    66.81433    30.28418
   114  O   6.0   -0.33    1.41    1.80   137.43724    66.85934    32.31365
   115  C   4.0   -0.04    4.29    4.17   139.42819    66.89899    26.92515
   116  C   4.0   -0.04    4.18    3.95   141.39227    65.40002    25.43968
   117  C   4.0   -0.01    4.21    4.02   142.83561    63.52449    27.10935
   118  N   5.0   -0.14    3.38    2.01   144.87079    62.23700    25.78472
   119  C   4.0    0.10    3.35    3.06   144.57933    60.59456    23.89618
   120  N   5.0   -0.17    3.29    1.98   142.42506    60.34429    22.65057
   121  N   5.0   -0.18    3.25    1.97   146.58385    59.29719    23.08862
   122  H   1.0    0.12    1.13    1.45   135.13262    65.20940    24.97175
   123  H   1.0    0.05    1.08    1.44   138.35487    63.66535    29.18976
   124  H   1.0    0.06    1.03    1.43   138.43976    68.22100    25.69050
   125  H   1.0    0.05    1.04    1.43   140.32063    67.98072    28.43944
   126  H   1.0    0.06    1.03    1.43   140.42673    64.41826    23.91503
   127  H   1.0    0.05    1.03    1.43   142.75575    66.71574    24.63829
   128  H   1.0    0.04    1.03    1.43   143.69460    64.58553    28.65395
   129  H   1.0    0.05    1.03    1.43   141.56586    62.09639    27.90318
   130  H   1.0    0.08    1.07    1.44   146.52327    62.15040    26.73613
   131  H   1.0    0.12    1.06    1.44   140.70431    60.71899    23.41059
   132  H   1.0    0.10    1.04    1.43   142.32808    59.03035    21.27611
   133  H   1.0    0.09    1.03    1.43   148.28606    59.50239    23.90361
   134  H   1.0    0.09    1.03    1.43   146.40301    58.06399    21.64963
   135  N   5.0   -0.14    3.54    2.10   134.23265    68.18286    29.90177
   136  C   4.0    0.04    4.49    4.53   133.05448    69.24175    32.13614
   137  C   4.0    0.16    3.50    3.12   132.28308    67.02702    33.81087
   138  O   6.0   -0.30    1.30    1.80   132.69574    67.01887    36.08367
   139  C   4.0   -0.05    4.33    4.25   130.86025    71.00932    31.58941
   140  C   4.0   -0.02    4.20    4.00   131.70583    73.27692    29.97695
   141  C   4.0   -0.08    4.13    3.86   130.24282    73.33087    27.50350
   142  C   4.0   -0.08    4.10    3.80   131.38878    75.77823    31.37257
   143  H   1.0    0.12    1.11    1.45   133.34973    68.18404    28.20318
   144  H   1.0    0.06    1.06    1.44   134.50268    70.28140    33.19505
   145  H   1.0    0.05    1.03    1.43   129.34143    69.97083    30.66022
   146  H   1.0    0.04    1.04    1.43   130.16823    71.66442    33.41668
   147  H   1.0    0.04    1.07    1.44   133.71670    73.04448    29.56351
   148  H   1.0    0.04    1.01    1.43   130.60335    75.10431    26.54460
   149  H   1.0    0.05    1.02    1.43   130.83181    71.78238    26.30476
   150  H   1.0    0.04    1.02    1.43   128.23463    73.16416    27.88673
   151  H   1.0    0.04    1.00    1.43   132.09660    77.31953    30.21379
   152  H   1.0    0.04    1.00    1.43   129.40641    76.12905    31.77961
   153  H   1.0    0.04    1.00    1.43   132.44020    75.76494    33.13754
   154  N   5.0   -0.14    3.54    2.10   131.24346    65.07177    32.58430
   155  C   4.0    0.04    4.40    4.38   130.43740    62.82380    33.91094
   156  C   4.0    0.16    3.47    3.10   132.69340    61.71060    35.32877
   157  O   6.0   -0.32    1.34    1.80   132.62096    61.39131    37.63187
   158  C   4.0    0.04    4.14    3.87   129.13143    60.99732    32.08000
   159  O   6.0   -0.25    2.05    1.83   127.43646    59.51319    33.48435
   160  H   1.0    0.11    1.13    1.45   130.78106    65.21177    30.72873
   161  H   1.0    0.06    1.06    1.44   129.03202    63.30712    35.36668
   162  H   1.0    0.05    1.01    1.43   128.11441    62.16005    30.69218
   163  H   1.0    0.05    1.01    1.43   130.50559    59.79776    31.08535
   164  H   1.0    0.12    1.02    1.43   126.35719    58.58469    32.34509
   165  N   5.0   -0.14    3.52    2.09   134.75697    61.21946    33.97706
   166  C   4.0    0.04    4.42    4.41   136.97579    60.09577    35.13412
   167  C   4.0    0.15    3.46    3.10   138.03711    61.88664    37.13868
   168  O   6.0   -0.34    1.37    1.80   138.93891    61.04051    39.10726
   169  C   4.0   -0.04    4.35    4.30   138.99933    59.46643    33.15710
   170  C   4.0   -0.03    4.05    3.70   138.35872    57.11438    31.62400
   171  S   6.0   -0.02    2.50    3.10   140.68971    56.79744    29.09365
   172  C   4.0   -0.06    3.88    3.43   140.08416    53.59189    28.05931
   173  H   1.0    0.12    1.14    1.45   134.73646    61.36460    32.05238
   174  H   1.0    0.05    1.05    1.44   136.44120    58.35245    36.13453
   175  H   1.0    0.05    1.04    1.43   139.20186    61.06693    31.87443
   176  H   1.0    0.05    1.03    1.43   140.81869    59.17200    34.08324
   177  H   1.0    0.04    1.06    1.44   138.45633    55.41473    32.78559
   178  H   1.0    0.06    1.07    1.44   136.49673    57.27209    30.75679
   179  H   1.0    0.05    1.05    1.44   141.36678    53.23093    26.50193
   180  H   1.0    0.05    1.04    1.43   140.46203    52.29019    29.60200
   181  H   1.0    0.05    1.04    1.43   138.13970    53.43209    27.41910
   182  N   5.0   -0.14    3.56    2.12   137.96172    64.33018    36.59889
   183  C   4.0    0.04    4.42    4.42   138.94644    66.27431    38.24626
   184  C   4.0    0.16    3.41    3.08   136.85730    67.27948    40.04252
   185  O   6.0   -0.31    1.29    1.80   137.00110    69.33018    41.01594
   186  C   4.0   -0.02    4.34    4.28   140.05380    68.50198    36.75907
   187  C   4.0    0.00    3.57    3.15   141.26244    70.51298    38.38067
   188  C   4.0   -0.03    3.46    3.10   141.17097    73.02855    37.62026
   189  C   4.0   -0.03    3.49    3.11   142.54795    69.93341    40.59509
   190  C   4.0   -0.03    3.37    3.07   142.25413    74.90715    39.08367
   191  C   4.0   -0.03    3.37    3.07   143.64359    71.80285    42.05680
   192  C   4.0   -0.03    3.37    3.07   143.48572    74.30456    41.31134
   193  H   1.0    0.12    1.15    1.45   137.35839    64.95450    34.88280
   194  H   1.0    0.05    1.06    1.44   140.45637    65.37297    39.35232
   195  H   1.0    0.05    1.03    1.43   141.44682    67.80461    35.40261
   196  H   1.0    0.07    1.04    1.43   138.51353    69.34641    35.68741
   197  H   1.0    0.05    1.03    1.43   140.26403    73.53018    35.85858
   198  H   1.0    0.05    1.03    1.43   142.69583    67.99061    41.19879
   199  H   1.0    0.06    1.03    1.43   142.13439    76.85491    38.48514
   200  H   1.0    0.05    1.03    1.43   144.64458    71.30884    43.76885
   201  H   1.0    0.06    1.03    1.43   144.35380    75.76225    42.44483
   202  N   5.0   -0.13    3.57    2.13   134.98656    65.61286    40.46713
   203  C   4.0    0.03    4.49    4.52   132.96686    65.94896    42.28378
   204  C   4.0    0.14    3.55    3.14   132.92552    63.62743    44.00274
   205  O   6.0   -0.33    1.27    1.80   132.59543    63.77440    46.27947
   206  C   4.0   -0.01    4.33    4.26   130.34965    66.32654    41.04594
   207  C   4.0   -0.04    4.18    3.97   129.76711    69.15265    40.81100
   208  C   4.0   -0.07    4.20    3.99   128.30187    64.94929    42.51667
   209  C   4.0   -0.07    4.00    3.63   127.67159    69.78781    38.94171
   210  H   1.0    0.12    1.13    1.45   134.64871    64.32464    39.09626
   211  H   1.0    0.05    1.06    1.44   133.45457    67.57150    43.47174
   212  H   1.0    0.07    1.08    1.44   130.45608    65.49096    39.16612
   213  H   1.0    0.04    1.03    1.43   129.23798    69.85405    42.67763
   214  H   1.0    0.06    1.03    1.43   131.49402    70.10447    40.21284
   215  H   1.0    0.04    1.02    1.43   126.52767    65.11182    41.51681
   216  H   1.0    0.05    1.02    1.43   128.72408    62.94777    42.70101
   217  H   1.0    0.05    1.00    1.43   128.09249    65.76181    44.39277
   218  H   1.0    0.04    1.00    1.43   127.39673    71.82302    38.88758
   219  H   1.0    0.05    1.00    1.43   128.16383    69.12757    37.05884
   220  H   1.0    0.04    1.00    1.43   125.90078    68.92648    39.50479
   221  N   5.0   -0.15    3.58    2.14   133.40022    61.44075    42.81855
   222  C   4.0    0.03    4.52    4.57   133.65074    59.11239    44.21451
   223  C   4.0    0.15    3.47    3.10   136.28324    59.05897    45.40794
   224  O   6.0   -0.32    1.36    1.80   136.53069    58.50688    47.64224
   225  C   4.0   -0.02    4.31    4.22   133.01022    56.81645    42.55539
   226  C   4.0   -0.04    4.20    4.01   130.23652    57.04532    41.73414
   227  C   4.0   -0.07    4.12    3.85   133.47054    54.39324    44.04620
   228  C   4.0   -0.07    4.00    3.62   129.40722    55.18106    39.70329
   229  H   1.0    0.11    1.13    1.45   133.24418    61.32896    40.91942
   230  H   1.0    0.06    1.06    1.44   132.34398    59.16411    45.83109
   231  H   1.0    0.05    1.05    1.44   134.23422    56.85570    40.88656
   232  H   1.0    0.04    1.03    1.43   129.05291    56.80861    43.40657
   233  H   1.0    0.05    1.04    1.43   129.93046    58.94263    40.98834
   234  H   1.0    0.04    1.00    1.43   132.97986    52.73846    42.93833
   235  H   1.0    0.05    1.00    1.43   135.44148    54.24475    44.60651
   236  H   1.0    0.05    1.00    1.43   132.31853    54.39710    45.74764
   237  H   1.0    0.05    1.00    1.43   127.44538    55.54961    39.21631
   238  H   1.0    0.05    1.00    1.43   130.54010    55.42654    38.00795
   239  H   1.0    0.04    1.00    1.43   129.55562    53.23551    40.33731
   240  N   5.0   -0.14    3.49    2.07   138.23930    59.76973    43.98239
   241  C   4.0    0.04    4.48    4.50   140.73474    59.95127    45.09743
   242  C   4.0    0.15    3.56    3.14   140.69950    61.65380    47.41775
   243  O   6.0   -0.29    1.26    1.80   141.60674    60.80444    49.38015
   244  C   4.0    0.06    4.23    4.05   142.78193    60.77632    43.16899
   245  O   6.0   -0.25    2.13    1.84   143.10208    58.92597    41.29618
   246  C   4.0   -0.06    4.10    3.80   145.33755    61.14719    44.45044
   247  H   1.0    0.11    1.13    1.45   138.10335    60.15831    42.10655
   248  H   1.0    0.06    1.06    1.44   141.29733    58.08904    45.83161
   249  H   1.0    0.04    1.04    1.43   142.16812    62.55890    42.30451
   250  H   1.0    0.15    1.06    1.44   141.73542    59.08690    40.08817
   251  H   1.0    0.05    1.00    1.43   146.70369    61.76159    43.04505
   252  H   1.0    0.05    1.00    1.43   145.23536    62.53068    45.96000
   253  H   1.0    0.06    1.00    1.43   145.96855    59.35428    45.22535
   254  N   5.0   -0.10    3.67    2.23   139.81345    64.01863    47.31800
   255  C   4.0    0.04    4.61    4.67   140.09657    65.67719    49.50526
   256  C   4.0    0.16    3.48    3.11   138.25842    64.98546    51.60129
   257  O   6.0   -0.27    1.27    1.80   138.90848    65.12526    53.82293
   258  C   4.0   -0.04    4.34    4.28   139.58307    68.32702    48.46771
   259  C   4.0   -0.04    4.30    4.19   137.63573    67.81128    46.41987
   260  C   4.0   -0.00    4.40    4.38   138.52989    65.32207    45.26860
   261  H   1.0    0.06    1.05    1.44   142.00111    65.53377    50.30483
   262  H   1.0    0.05    1.02    1.43   138.90240    69.61377    49.91651
   263  H   1.0    0.04    1.02    1.43   141.30913    69.09740    47.64663
   264  H   1.0    0.05    1.03    1.43   135.75803    67.57670    47.23703
   265  H   1.0    0.06    1.04    1.43   137.59359    69.28857    44.99587
   266  H   1.0    0.06    1.07    1.44   136.95131    64.22241    44.55692
   267  H   1.0    0.04    1.03    1.43   139.82147    65.69301    43.70839
   268  N   5.0   -0.14    3.53    2.10   135.92477    64.27675    50.96894
   269  C   4.0    0.04    4.55    4.60   134.25353    63.47739    52.99456
   270  C   4.0    0.16    3.54    3.13   135.42065    61.15634    54.24386
   271  O   6.0   -0.27    1.25    1.80   135.36331    60.81071    56.53685
   272  C   4.0   -0.02    4.26    4.12   131.55425    62.95463    52.07708
   273  C   4.0   -0.06    4.13    3.86   129.97948    61.77051    54.18498
   274  C   4.0   -0.06    4.12    3.85   130.32560    65.40237    51.18239
   275  H   1.0    0.10    1.08    1.44   135.33227    64.10428    49.16136
   276  H   1.0    0.07    1.06    1.44   134.22688    64.98123    54.42629
   277  H   1.0    0.06    1.05    1.44   131.66306    61.63562    50.48965
   278  H   1.0    0.05    1.00    1.43   128.08898    61.35787    53.49960
   279  H   1.0    0.06    1.00    1.43   130.82056    60.02388    54.86377
   280  H   1.0    0.05    1.00    1.43   129.82691    63.06398    55.77429
   281  H   1.0    0.04    1.00    1.43   128.42519    65.01022    50.51526
   282  H   1.0    0.05    1.00    1.43   130.22416    66.75994    52.71954
   283  H   1.0    0.06    1.01    1.43   131.39132    66.21495    49.63433
   284  N   5.0   -0.13    3.51    2.09   136.56119    59.54307    52.68002
   285  C   4.0    0.05    4.41    4.40   137.83163    57.37457    53.74812
   286  C   4.0    0.11    3.27    3.05   140.02825    58.28105    55.37290
   287  O   6.0   -0.26    1.11    1.80   140.32163    57.45661    57.53459
   288  C   4.0   -0.03    4.33    4.25   138.77907    55.50553    51.76446
   289  C   4.0   -0.04    4.05    3.71   139.41054    52.95328    52.93210
   290  S   6.0   -0.03    2.52    3.10   136.59301    51.38342    54.19679
   291  C   4.0   -0.05    3.88    3.43   136.91843    52.00102    57.55763
   292  H   1.0    0.12    1.12    1.45   136.39321    59.63225    50.77309
   293  H   1.0    0.06    1.09    1.44   136.49426    56.42397    55.01381
   294  H   1.0    0.06    1.04    1.44   137.30786    55.22268    50.35142
   295  H   1.0    0.06    1.03    1.43   140.44166    56.29561    50.83320
   296  H   1.0    0.05    1.07    1.44   140.16254    51.68669    51.49415
   297  H   1.0    0.06    1.07    1.44   140.74955    53.09974    54.48634
   298  H   1.0    0.06    1.05    1.44   135.58433    50.77230    58.51276
   299  H   1.0    0.06    1.04    1.43   138.84360    51.58771    58.13674
   300  H   1.0    0.06    1.03    1.43   136.45930    53.95718    57.97341
   301  H   1.0    0.09    1.07    1.44   116.12995    68.09212    39.14239
   302  H   1.0    0.06    1.05    1.44   118.33131    63.37873    35.24006
   303  H   1.0    0.09    1.07    1.44   122.47957    81.49220    40.24298
   304  H   1.0    0.06    1.05    1.44   116.69773    82.72046    38.35009
   305  H   1.0    0.10    1.07    1.44   121.94687    86.21136    32.57295
   306  H   1.0    0.07    1.04    1.43   117.98278    81.69985    30.12863
   307  H   1.0    0.06    1.04    1.44   130.68225    70.19535    14.56587
   308  H   1.0    0.11    1.07    1.44   135.18948    70.19255    17.99915
   309  H   1.0    0.08    1.04    1.44   141.24645    59.55401    54.68979

  Z AO/shell   Hii/eV     exponent
  1     Wed Apr 25 08:07:45 CEST 2018   EN: 2.200 GM2: 0.406  GM3: 0.0800  RAES: 1.40
     1s    -10.707211    1.230000
  6     Wed Apr 25 08:07:45 CEST 2018   EN: 2.550 GM2: 0.538  GM3: 0.1500  RAES: 3.00
     2s    -13.970922    2.096432
     2p    -10.063292    1.800000
  7     Wed Apr 25 08:07:45 CEST 2018   EN: 3.040 GM2: 0.461  GM3:-0.0640  RAES: 1.90
     2s    -16.686243    2.339881
     2p    -12.523956    2.014332
  8     Wed Apr 25 08:07:45 CEST 2018   EN: 3.440 GM2: 0.452  GM3:-0.0517  RAES: 1.80
     2s    -20.229985    2.439742
     2p    -15.503117    2.137023
 16     Tue Apr 24 11:44:34 CEST 2018   EN: 2.580 GM2: 0.340  GM3:-0.0502  RAES: 3.10
     3s    -20.029654    1.981333
     3p    -11.377694    2.025643
     3d     -0.420282    1.702555
 no old-style atom pair restraining (fixing) potential

molecular fragmentation (1/2 indicates fragments):
111111111111111111112222222222222222222222222222222222222222222222222222
222222222222222222222222222222222222222222222222222222222222222222222222
222222222222222222222222222222222222222222222222222222222222222222222222
222222222222222222222222222222222222222222222222222222222222222222222222
222222222222112222222
# atoms in fragment 1/2:    22   287
 fragment masses (1/2) :      149.19     1931.44
CMA distance (Bohr)    :  13.953
constraining FC (au)   :  0.0500
           ------------------------------------------------- 
          |        Self-Consistent Charge Iterations        |
           ------------------------------------------------- 

 Ncao       : 756
 Nao        : 754
 Nshell     : 456
 Nel        : 814
 T(el)      :   500.0
 intcut     :    35.0
 scfconv/Eh :  0.100E-06
   qconv/e  :  0.100E-04
 intneglect :  0.100E-08
 broydamp   :      0.400
 iter      E             dE          RMSdq      gap      omega  full diag
   1   -461.6367695 -0.461637E+03  0.442E+00    2.80       0.0  T
   2   -462.5844297 -0.947660E+00  0.212E+00    1.55       1.0  T
   3   -462.6372380 -0.528083E-01  0.118E+00    1.73       1.0  T
   4   -462.7103180 -0.730800E-01  0.247E-01    1.20       1.0  T
   5   -462.7136198 -0.330175E-02  0.119E-01    1.32       1.0  T
   6   -462.7142702 -0.650409E-03  0.510E-02    1.33       1.0  T
   7   -462.7144696 -0.199384E-03  0.233E-02    1.35       1.0  T
   8   -462.7144947 -0.251289E-04  0.107E-02    1.36       1.0  T
   9   -462.7145028 -0.811926E-05  0.452E-03    1.36       1.3  T
  10   -462.7145039 -0.113229E-05  0.194E-03    1.36       2.9  T
  11   -462.7145042 -0.216465E-06  0.889E-04    1.36       6.4  T
  12   -462.7145042 -0.415886E-07  0.384E-04    1.36      14.8  T
  13   -462.7145042 -0.115662E-07  0.195E-04    1.36      29.2  T
  14   -462.7145042 -0.215357E-08  0.858E-05    1.36      66.3  T
  15   -462.7145042 -0.585203E-09  0.367E-05    1.36     154.8  T
speedup  1.00
cpu  time for SCC    3.63 s
wall time for SCC    3.63 s

   *** convergence criteria satisfied after 15 iterations ***

          eigenvalues
 #    :         395        396        397        398        399        400        401        402
 occ. :        2.000      2.000      2.000      2.000      2.000      2.000      2.000      2.000
 eps  :       -10.817    -10.809    -10.791    -10.775    -10.717    -10.520    -10.473    -10.241
 #    :         403        404        405        406        407        408        409        410
 occ. :        2.000      2.000      2.000      2.000      2.000      0.000      0.000      0.000
 eps  :       -10.111    -10.101    -10.009     -9.883     -9.723     -8.359     -7.862     -7.751
 #    :         411        412        413        414        415        416        417        418
 occ. :        0.000      0.000      0.000      0.000      0.000      0.000      0.000      0.000
 eps  :        -7.698     -7.551     -6.899     -6.882     -6.788     -6.742     -6.630     -6.562


   #   Z            q   n(s)   n(p)   n(d)      C6AA      α(0)
   1   7 N     -0.386  1.313  4.073  0.000    29.991     8.133
   2   6 C      0.040  1.054  2.906  0.000    19.930     6.360
   3   6 C      0.196  1.095  2.709  0.000    23.814     7.992
   4   8 O     -0.372  1.751  4.621  0.000    21.122     6.162
   5   6 C     -0.067  1.053  3.014  0.000    21.779     6.643
   6   6 C      0.012  1.081  2.907  0.000    27.737     8.639
   7   6 C     -0.046  1.082  2.964  0.000    29.142     8.854
   8   6 C     -0.041  1.076  2.965  0.000    29.010     8.833
   9   6 C     -0.030  1.079  2.951  0.000    28.738     8.791
  10   6 C     -0.037  1.082  2.956  0.000    28.922     8.819
  11   6 C     -0.035  1.080  2.955  0.000    28.863     8.810
  12   1 H      0.164  0.836  0.000  0.000     1.311     1.794
  13   1 H      0.065  0.935  0.000  0.000     2.142     2.289
  14   1 H      0.048  0.952  0.000  0.000     2.345     2.395
  15   1 H      0.054  0.946  0.000  0.000     2.267     2.355
  16   1 H      0.038  0.962  0.000  0.000     2.471     2.458
  17   1 H      0.044  0.956  0.000  0.000     2.398     2.422
  18   1 H      0.027  0.973  0.000  0.000     2.625     2.534
  19   1 H      0.045  0.955  0.000  0.000     2.385     2.415
  20   1 H      0.034  0.966  0.000  0.000     2.534     2.489
  21   7 N     -0.395  1.315  4.080  0.000    30.224     8.165
  22   6 C      0.040  1.053  2.907  0.000    19.916     6.356
  23   6 C      0.199  1.089  2.712  0.000    23.769     7.986
  24   8 O     -0.385  1.753  4.631  0.000    21.374     6.199
  25   6 C     -0.011  1.059  2.952  0.000    20.731     6.475
  26   6 C     -0.112  1.038  3.074  0.000    22.697     6.792
  27   6 C     -0.121  1.038  3.083  0.000    22.873     6.818
  28   1 H      0.163  0.837  0.000  0.000     1.319     1.799
  29   1 H      0.054  0.946  0.000  0.000     2.272     2.357
  30   1 H      0.030  0.970  0.000  0.000     2.580     2.512
  31   1 H      0.039  0.961  0.000  0.000     2.457     2.451
  32   1 H      0.046  0.954  0.000  0.000     2.372     2.408
  33   1 H      0.044  0.956  0.000  0.000     2.395     2.420
  34   1 H      0.065  0.935  0.000  0.000     2.146     2.291
  35   1 H      0.047  0.953  0.000  0.000     2.358     2.401
  36   1 H      0.041  0.959  0.000  0.000     2.438     2.442
  37   7 N     -0.391  1.318  4.073  0.000    30.113     8.150
  38   6 C      0.048  1.054  2.897  0.000    19.778     6.335
  39   6 C      0.203  1.094  2.703  0.000    23.683     7.970
  40   8 O     -0.376  1.756  4.621  0.000    21.214     6.175
  41   6 C     -0.069  1.056  3.013  0.000    21.801     6.645
  42   6 C      0.005  1.083  2.911  0.000    27.897     8.664
  43   6 C     -0.038  1.080  2.958  0.000    28.947     8.823
  44   6 C     -0.041  1.081  2.961  0.000    29.031     8.836
  45   6 C     -0.036  1.082  2.955  0.000    28.899     8.816
  46   6 C     -0.035  1.080  2.955  0.000    28.867     8.811
  47   6 C     -0.041  1.079  2.962  0.000    29.025     8.835
  48   1 H      0.155  0.845  0.000  0.000     1.366     1.831
  49   1 H      0.049  0.951  0.000  0.000     2.329     2.387
  50   1 H      0.056  0.944  0.000  0.000     2.252     2.347
  51   1 H      0.049  0.951  0.000  0.000     2.330     2.387
  52   1 H      0.039  0.961  0.000  0.000     2.465     2.455
  53   1 H      0.020  0.980  0.000  0.000     2.729     2.584
  54   1 H      0.065  0.935  0.000  0.000     2.147     2.291
  55   1 H      0.031  0.969  0.000  0.000     2.575     2.509
  56   1 H      0.053  0.947  0.000  0.000     2.281     2.362
  57   7 N     -0.129  1.218  3.912  0.000    23.795     7.245
  58   6 C     -0.079  1.065  3.014  0.000    22.124     6.716
  59   6 C      0.196  1.079  2.724  0.000    23.808     7.990
  60   8 O     -0.327  1.768  4.559  0.000    20.272     6.037
  61   1 H      0.318  0.682  0.000  0.000     0.661     1.274
  62   1 H      0.301  0.699  0.000  0.000     0.709     1.319
  63   1 H      0.296  0.704  0.000  0.000     0.726     1.335
  64   1 H      0.156  0.844  0.000  0.000     1.350     1.817
  65   1 H      0.153  0.847  0.000  0.000     1.369     1.830
  66   7 N     -0.384  1.303  4.081  0.000    29.936     8.126
  67   6 C      0.018  1.063  2.918  0.000    20.285     6.415
  68   6 C      0.261  1.056  2.683  0.000    22.605     7.786
  69   8 O     -0.499  1.745  4.754  0.000    23.769     6.537
  70   6 C      0.106  1.050  2.844  0.000    18.935     6.213
  71   8 O     -0.472  1.710  4.762  0.000    22.290     6.373
  72   6 C     -0.139  1.043  3.095  0.000    23.232     6.873
  73   1 H      0.189  0.811  0.000  0.000     1.165     1.691
  74   1 H      0.041  0.959  0.000  0.000     2.439     2.442
  75   1 H      0.054  0.946  0.000  0.000     2.275     2.359
  76   1 H      0.338  0.662  0.000  0.000     0.618     1.235
  77   1 H      0.060  0.940  0.000  0.000     2.195     2.317
  78   1 H      0.054  0.946  0.000  0.000     2.267     2.354
  79   1 H      0.053  0.947  0.000  0.000     2.278     2.360
  80   7 N     -0.165  1.253  3.912  0.000    24.571     7.362
  81   6 C      0.006  1.072  2.922  0.000    20.492     6.447
  82   6 C      0.294  1.041  2.665  0.000    22.007     7.683
  83   8 O     -0.512  1.739  4.773  0.000    24.049     6.575
  84   6 C     -0.036  1.073  2.963  0.000    21.183     6.547
  85   6 C     -0.064  1.052  3.012  0.000    21.722     6.635
  86   6 C     -0.135  1.042  3.094  0.000    23.159     6.862
  87   6 C     -0.114  1.035  3.080  0.000    22.748     6.802
  88   1 H      0.239  0.761  0.000  0.000     0.928     1.509
  89   1 H      0.084  0.916  0.000  0.000     1.934     2.175
  90   1 H      0.079  0.921  0.000  0.000     1.985     2.203
  91   1 H      0.055  0.945  0.000  0.000     2.263     2.353
  92   1 H      0.023  0.977  0.000  0.000     2.690     2.565
  93   1 H      0.066  0.934  0.000  0.000     2.133     2.284
  94   1 H      0.072  0.928  0.000  0.000     2.060     2.245
  95   1 H      0.040  0.960  0.000  0.000     2.445     2.445
  96   1 H      0.027  0.973  0.000  0.000     2.623     2.533
  97   1 H      0.040  0.960  0.000  0.000     2.444     2.445
  98   1 H      0.046  0.954  0.000  0.000     2.376     2.411
  99   7 N     -0.193  1.258  3.935  0.000    25.186     7.454
 100   6 C      0.046  1.053  2.901  0.000    19.797     6.332
 101   6 C      0.275  1.045  2.679  0.000    22.342     7.740
 102   8 O     -0.508  1.737  4.771  0.000    23.961     6.563
 103   6 C     -0.102  1.066  3.036  0.000    22.439     6.744
 104   6 C      0.366  1.022  2.612  0.000    20.796     7.463
 105   8 O     -0.599  1.757  4.842  0.000    26.092     6.848
 106   8 O     -0.614  1.761  4.853  0.000    26.470     6.898
 107   1 H      0.231  0.769  0.000  0.000     0.962     1.537
 108   1 H      0.049  0.951  0.000  0.000     2.331     2.387
 109   1 H      0.029  0.971  0.000  0.000     2.597     2.520
 110   1 H      0.041  0.959  0.000  0.000     2.434     2.440
 111   7 N     -0.176  1.247  3.929  0.000    24.803     7.397
 112   6 C      0.025  1.053  2.922  0.000    20.157     6.393
 113   6 C      0.262  1.047  2.691  0.000    22.591     7.785
 114   8 O     -0.505  1.741  4.764  0.000    23.893     6.554
 115   6 C     -0.078  1.055  3.023  0.000    21.985     6.674
 116   6 C     -0.087  1.052  3.035  0.000    22.161     6.702
 117   6 C     -0.026  1.052  2.973  0.000    21.115     6.557
 118   7 N     -0.145  1.218  3.927  0.000    24.138     7.297
 119   6 C      0.237  1.019  2.744  0.000    23.048     7.860
 120   7 N     -0.237  1.244  3.994  0.000    26.207     7.603
 121   7 N     -0.263  1.236  4.027  0.000    26.806     7.689
 122   1 H      0.229  0.771  0.000  0.000     0.971     1.544
 123   1 H      0.072  0.928  0.000  0.000     2.066     2.248
 124   1 H      0.078  0.922  0.000  0.000     2.002     2.213
 125   1 H      0.072  0.928  0.000  0.000     2.066     2.248
 126   1 H      0.068  0.932  0.000  0.000     2.106     2.270
 127   1 H      0.090  0.910  0.000  0.000     1.875     2.141
 128   1 H      0.092  0.908  0.000  0.000     1.861     2.133
 129   1 H      0.060  0.940  0.000  0.000     2.196     2.317
 130   1 H      0.241  0.759  0.000  0.000     0.921     1.503
 131   1 H      0.242  0.758  0.000  0.000     0.916     1.499
 132   1 H      0.232  0.768  0.000  0.000     0.958     1.533
 133   1 H      0.252  0.748  0.000  0.000     0.875     1.465
 134   1 H      0.249  0.751  0.000  0.000     0.886     1.474
 135   7 N     -0.178  1.251  3.927  0.000    24.862     7.405
 136   6 C      0.026  1.061  2.913  0.000    20.115     6.383
 137   6 C      0.274  1.042  2.684  0.000    22.365     7.745
 138   8 O     -0.484  1.751  4.733  0.000    23.437     6.491
 139   6 C     -0.079  1.058  3.021  0.000    21.995     6.676
 140   6 C     -0.017  1.058  2.959  0.000    20.836     6.492
 141   6 C     -0.132  1.045  3.087  0.000    23.085     6.850
 142   6 C     -0.119  1.042  3.077  0.000    22.833     6.813
 143   1 H      0.237  0.763  0.000  0.000     0.933     1.513
 144   1 H      0.075  0.925  0.000  0.000     2.030     2.228
 145   1 H      0.058  0.942  0.000  0.000     2.227     2.333
 146   1 H      0.058  0.942  0.000  0.000     2.224     2.332
 147   1 H      0.039  0.961  0.000  0.000     2.456     2.451
 148   1 H      0.064  0.936  0.000  0.000     2.158     2.297
 149   1 H      0.038  0.962  0.000  0.000     2.473     2.459
 150   1 H      0.056  0.944  0.000  0.000     2.246     2.344
 151   1 H      0.054  0.946  0.000  0.000     2.277     2.360
 152   1 H      0.044  0.956  0.000  0.000     2.400     2.423
 153   1 H      0.033  0.967  0.000  0.000     2.541     2.493
 154   7 N     -0.217  1.260  3.958  0.000    25.735     7.534
 155   6 C      0.030  1.058  2.912  0.000    20.074     6.380
 156   6 C      0.280  1.044  2.676  0.000    22.267     7.727
 157   8 O     -0.497  1.735  4.762  0.000    23.722     6.530
 158   6 C      0.077  1.039  2.884  0.000    19.506     6.328
 159   8 O     -0.483  1.725  4.758  0.000    22.522     6.407
 160   1 H      0.238  0.762  0.000  0.000     0.930     1.510
 161   1 H      0.078  0.922  0.000  0.000     2.004     2.214
 162   1 H      0.053  0.947  0.000  0.000     2.283     2.363
 163   1 H      0.035  0.965  0.000  0.000     2.520     2.483
 164   1 H      0.355  0.645  0.000  0.000     0.576     1.192
 165   7 N     -0.201  1.261  3.940  0.000    25.356     7.479
 166   6 C      0.027  1.060  2.913  0.000    20.128     6.388
 167   6 C      0.269  1.042  2.689  0.000    22.456     7.760
 168   8 O     -0.507  1.731  4.776  0.000    23.948     6.561
 169   6 C     -0.068  1.052  3.015  0.000    21.754     6.634
 170   6 C     -0.011  1.065  2.946  0.000    20.771     6.490
 171  16 S     -0.206  1.904  4.254  0.047   149.805    20.600
 172   6 C     -0.060  1.054  3.006  0.000    21.721     6.648
 173   1 H      0.240  0.760  0.000  0.000     0.924     1.506
 174   1 H      0.068  0.932  0.000  0.000     2.111     2.272
 175   1 H      0.064  0.936  0.000  0.000     2.151     2.294
 176   1 H      0.076  0.924  0.000  0.000     2.021     2.223
 177   1 H      0.045  0.955  0.000  0.000     2.382     2.414
 178   1 H      0.053  0.947  0.000  0.000     2.281     2.362
 179   1 H      0.080  0.920  0.000  0.000     1.980     2.200
 180   1 H      0.056  0.944  0.000  0.000     2.247     2.344
 181   1 H      0.046  0.954  0.000  0.000     2.368     2.407
 182   7 N     -0.178  1.254  3.924  0.000    24.860     7.405
 183   6 C      0.024  1.064  2.912  0.000    20.182     6.398
 184   6 C      0.282  1.039  2.679  0.000    22.229     7.720
 185   8 O     -0.453  1.734  4.720  0.000    22.773     6.398
 186   6 C     -0.075  1.053  3.022  0.000    21.921     6.665
 187   6 C      0.024  1.081  2.895  0.000    27.472     8.597
 188   6 C     -0.040  1.081  2.960  0.000    29.001     8.831
 189   6 C     -0.035  1.075  2.960  0.000    28.883     8.813
 190   6 C     -0.033  1.081  2.952  0.000    28.824     8.804
 191   6 C     -0.033  1.080  2.953  0.000    28.818     8.803
 192   6 C     -0.037  1.080  2.957  0.000    28.915     8.818
 193   1 H      0.239  0.761  0.000  0.000     0.926     1.507
 194   1 H      0.064  0.936  0.000  0.000     2.151     2.294
 195   1 H      0.078  0.922  0.000  0.000     2.003     2.213
 196   1 H      0.072  0.928  0.000  0.000     2.066     2.248
 197   1 H      0.042  0.958  0.000  0.000     2.419     2.432
 198   1 H      0.015  0.985  0.000  0.000     2.817     2.625
 199   1 H      0.043  0.957  0.000  0.000     2.411     2.428
 200   1 H      0.029  0.971  0.000  0.000     2.603     2.523
 201   1 H      0.035  0.965  0.000  0.000     2.513     2.479
 202   7 N     -0.203  1.255  3.947  0.000    25.408     7.486
 203   6 C      0.016  1.067  2.917  0.000    20.306     6.417
 204   6 C      0.275  1.046  2.679  0.000    22.347     7.742
 205   8 O     -0.491  1.740  4.751  0.000    23.587     6.512
 206   6 C     -0.022  1.064  2.958  0.000    20.923     6.506
 207   6 C     -0.060  1.051  3.009  0.000    21.657     6.625
 208   6 C     -0.117  1.040  3.077  0.000    22.785     6.806
 209   6 C     -0.105  1.035  3.070  0.000    22.575     6.776
 210   1 H      0.208  0.792  0.000  0.000     1.064     1.616
 211   1 H      0.071  0.929  0.000  0.000     2.072     2.251
 212   1 H      0.061  0.939  0.000  0.000     2.193     2.316
 213   1 H      0.037  0.963  0.000  0.000     2.487     2.466
 214   1 H      0.042  0.958  0.000  0.000     2.417     2.431
 215   1 H      0.061  0.939  0.000  0.000     2.188     2.313
 216   1 H      0.026  0.974  0.000  0.000     2.640     2.541
 217   1 H      0.045  0.955  0.000  0.000     2.383     2.414
 218   1 H      0.047  0.953  0.000  0.000     2.364     2.404
 219   1 H      0.031  0.969  0.000  0.000     2.567     2.506
 220   1 H      0.042  0.958  0.000  0.000     2.418     2.432
 221   7 N     -0.213  1.258  3.954  0.000    25.629     7.519
 222   6 C      0.024  1.064  2.912  0.000    20.170     6.394
 223   6 C      0.273  1.045  2.682  0.000    22.386     7.748
 224   8 O     -0.496  1.742  4.754  0.000    23.685     6.525
 225   6 C     -0.020  1.066  2.954  0.000    20.894     6.501
 226   6 C     -0.063  1.051  3.012  0.000    21.701     6.632
 227   6 C     -0.115  1.038  3.077  0.000    22.757     6.802
 228   6 C     -0.110  1.037  3.073  0.000    22.660     6.789
 229   1 H      0.236  0.764  0.000  0.000     0.941     1.519
 230   1 H      0.067  0.933  0.000  0.000     2.121     2.277
 231   1 H      0.040  0.960  0.000  0.000     2.452     2.449
 232   1 H      0.041  0.959  0.000  0.000     2.438     2.442
 233   1 H      0.042  0.958  0.000  0.000     2.422     2.434
 234   1 H      0.063  0.937  0.000  0.000     2.162     2.300
 235   1 H      0.034  0.966  0.000  0.000     2.526     2.485
 236   1 H      0.047  0.953  0.000  0.000     2.352     2.398
 237   1 H      0.049  0.951  0.000  0.000     2.330     2.387
 238   1 H      0.037  0.963  0.000  0.000     2.493     2.469
 239   1 H      0.046  0.954  0.000  0.000     2.370     2.408
 240   7 N     -0.198  1.256  3.942  0.000    25.308     7.472
 241   6 C      0.017  1.068  2.916  0.000    20.301     6.415
 242   6 C      0.265  1.045  2.690  0.000    22.527     7.773
 243   8 O     -0.507  1.754  4.753  0.000    23.928     6.558
 244   6 C      0.121  1.044  2.835  0.000    18.709     6.176
 245   8 O     -0.467  1.714  4.754  0.000    22.202     6.361
 246   6 C     -0.125  1.041  3.084  0.000    22.947     6.831
 247   1 H      0.237  0.763  0.000  0.000     0.935     1.515
 248   1 H      0.072  0.928  0.000  0.000     2.060     2.244
 249   1 H      0.020  0.980  0.000  0.000     2.734     2.586
 250   1 H      0.337  0.663  0.000  0.000     0.620     1.237
 251   1 H      0.078  0.922  0.000  0.000     1.999     2.211
 252   1 H      0.039  0.961  0.000  0.000     2.459     2.452
 253   1 H      0.062  0.938  0.000  0.000     2.173     2.305
 254   7 N     -0.103  1.235  3.868  0.000    23.250     7.161
 255   6 C      0.024  1.065  2.912  0.000    20.152     6.386
 256   6 C      0.281  1.039  2.681  0.000    22.250     7.725
 257   8 O     -0.513  1.758  4.754  0.000    24.068     6.578
 258   6 C     -0.072  1.055  3.018  0.000    21.854     6.651
 259   6 C     -0.075  1.051  3.025  0.000    21.909     6.659
 260   6 C      0.001  1.046  2.953  0.000    20.591     6.466
 261   1 H      0.070  0.930  0.000  0.000     2.081     2.256
 262   1 H      0.068  0.932  0.000  0.000     2.102     2.267
 263   1 H      0.074  0.926  0.000  0.000     2.037     2.232
 264   1 H      0.053  0.947  0.000  0.000     2.280     2.361
 265   1 H      0.095  0.905  0.000  0.000     1.835     2.118
 266   1 H      0.044  0.956  0.000  0.000     2.391     2.418
 267   1 H      0.051  0.949  0.000  0.000     2.302     2.372
 268   7 N     -0.181  1.245  3.935  0.000    24.910     7.413
 269   6 C      0.025  1.065  2.911  0.000    20.151     6.389
 270   6 C      0.286  1.040  2.674  0.000    22.149     7.708
 271   8 O     -0.511  1.754  4.757  0.000    24.040     6.574
 272   6 C     -0.014  1.060  2.954  0.000    20.785     6.484
 273   6 C     -0.115  1.039  3.075  0.000    22.745     6.800
 274   6 C     -0.118  1.041  3.077  0.000    22.819     6.811
 275   1 H      0.213  0.787  0.000  0.000     1.044     1.601
 276   1 H      0.070  0.930  0.000  0.000     2.090     2.261
 277   1 H      0.046  0.954  0.000  0.000     2.368     2.406
 278   1 H      0.061  0.939  0.000  0.000     2.188     2.313
 279   1 H      0.030  0.970  0.000  0.000     2.582     2.513
 280   1 H      0.048  0.952  0.000  0.000     2.351     2.398
 281   1 H      0.055  0.945  0.000  0.000     2.257     2.349
 282   1 H      0.045  0.955  0.000  0.000     2.379     2.412
 283   1 H      0.059  0.941  0.000  0.000     2.212     2.326
 284   7 N     -0.194  1.254  3.940  0.000    25.212     7.457
 285   6 C      0.048  1.050  2.901  0.000    19.764     6.329
 286   6 C      0.215  1.086  2.699  0.000    23.462     7.933
 287   8 O     -0.373  1.754  4.618  0.000    21.145     6.165
 288   6 C     -0.066  1.053  3.014  0.000    21.747     6.635
 289   6 C     -0.013  1.067  2.947  0.000    20.820     6.497
 290  16 S     -0.222  1.912  4.265  0.045   150.540    20.651
 291   6 C     -0.055  1.055  2.999  0.000    21.632     6.635
 292   1 H      0.230  0.770  0.000  0.000     0.966     1.540
 293   1 H      0.076  0.924  0.000  0.000     2.025     2.225
 294   1 H      0.088  0.912  0.000  0.000     1.903     2.157
 295   1 H      0.063  0.937  0.000  0.000     2.166     2.301
 296   1 H      0.072  0.928  0.000  0.000     2.064     2.247
 297   1 H      0.047  0.953  0.000  0.000     2.359     2.402
 298   1 H      0.072  0.928  0.000  0.000     2.062     2.246
 299   1 H      0.056  0.944  0.000  0.000     2.242     2.342
 300   1 H      0.048  0.952  0.000  0.000     2.343     2.394
 301   1 H      0.181  0.819  0.000  0.000     1.206     1.720
 302   1 H      0.073  0.927  0.000  0.000     2.047     2.237
 303   1 H      0.184  0.816  0.000  0.000     1.190     1.708
 304   1 H      0.067  0.933  0.000  0.000     2.115     2.274
 305   1 H      0.187  0.813  0.000  0.000     1.172     1.696
 306   1 H      0.072  0.928  0.000  0.000     2.067     2.248
 307   1 H      0.112  0.888  0.000  0.000     1.680     2.027
 308   1 H      0.179  0.821  0.000  0.000     1.217     1.728
 309   1 H      0.063  0.937  0.000  0.000     2.165     2.301

 Mol. C6AA /au·bohr⁶  :     889889.283000
 Mol. C8AA /au·bohr⁸  :   20302041.786967
 Mol. α(0) /au        :       1424.036318

 
molecular dipole:
                 x           y           z       tot (Debye)
 q only:      130.650      77.582      -0.265
   full:      130.522      77.180      -0.663     385.427
molecular quadrupole (traceless):
                xx          xy          yy          xz          yz          zz
 q only:    14808.342   15176.757   -2048.687    -317.184     514.249  -12759.655
  q+dip:    14813.994   15096.991   -2046.672    -416.311     495.345  -12767.322
   full:    14814.900   15097.794   -2045.852    -418.435     495.573  -12769.048
speedup  1.00
cpu  time for grad    4.66 s
wall time for grad    4.67 s

SCC energy    :    -462.7322102
rep           :       5.8320676
ES            :       1.2003528
AES           :      -0.0452601
AXC           :       0.1736702
disp          :      -0.4172417
XB            :       0.0000000
fix           :       0.0000000
Gborn         :       0.0000000
Gsasa         :       0.0000000
Ghb           :       0.0000000
Gshift        :       0.0000000
Gsolv         :      -0.3197639     -200.65
Etot ala COSMO:    -462.7322102
grad norm     :       0.4621766
total E       :    -456.8644261
atomizationE  :      85.6214611    53728.28
(atE without considering molecular charge,
 total energy contains solvation terms)
H-L gap (eV)  :          1.3639

------------------------------------------------------------------------
 * finished run on 2019/03/14 at 15:08:25.070     
------------------------------------------------------------------------
 total:
 * wall-time:     0 d,  0 h,  0 min,  5.451 sec
 *  cpu-time:     0 d,  0 h,  0 min,  5.261 sec
 * ratio c/w:     0.965 speedup
 SCF:
 * wall-time:     0 d,  0 h,  0 min,  5.173 sec
 *  cpu-time:     0 d,  0 h,  0 min,  5.169 sec
 * ratio c/w:     0.999 speedup

