      -----------------------------------------------------------      
     |                   =====================                   |     
     |                           x T B                           |     
     |                   =====================                   |     
     |                         S. Grimme                         |     
     |          Mulliken Center for Theoretical Chemistry        |     
     |                    University of Bonn                     |     
     |                Version 6.1 RC1 (SAW190329)                |     
      -----------------------------------------------------------      

   This program is distributed in the hope that it will be useful,
   but WITHOUT ANY WARRANTY; without even the implied warranty of
   MERCHANTABILITY or FITNESS FOR A PARTICULAR PURPOSE.
   
   FOR NON-COMMERCIAL, ACADEMIA USE ONLY.
   
   Cite this work as:
   S. Grimme, C. Bannwarth, P. Shushkov, J. Comput. Theory Chem., 2017,
   13, 1989-2009. DOI: 10.1021/acs.jctc.7b00118
   C. Bannwarth, S. Ehlert and S. Grimme., J. Comput. Theory Chem., 2019,
   just accepted. DOI: 10.1021/acs.jctc.8b01176
   
   for sTDA-xTB:
   S. Grimme and C. Bannwarth, J. Chem. Phys., 2016, 145, 054103.
   DOI: 10.1063/1.4959605
   
   in the mass-spec context:
   V. Asgeirsson, C. Bauer and S. Grimme, Chem. Sci., 2017, 8, 4879.
   DOI: 10.1039/c7sc00601b
   
   for metadynamics refer to:
   S. Grimme, ChemRxiv, Preprint. DOI: 10.26434/chemrxiv.7660532.v1
   
   with help from (in alphabetical order)
   C. Bannwarth, F. Bohle, G. Brandenburg, E. Caldeweyher, M. Checinski,
   S. Dohm, S. Ehlert, S. Ehrlich, F. März, H. Neugebauer, J. Pisarek,
   P. Pracht, P. Shushkov, and S. Spicher.
   
 * started run on 2019/05/31 at 05:35:10.080     

           -------------------------------------------------
          |                Calculation Setup                |
           -------------------------------------------------

          program call               : /home/lum/install/xtb/xtb-190329/bin/xtb xtb_tmp.xyz --chrg 0 --grad --gfn 2 --etemp 500 --acc 0.1 --gbsa h2o --parallel 2
          hostname                   : cpu02
          coordinate file            : xtb_tmp.xyz
          omp threads                :                     2
          number of atoms            :                   459
          number of electrons        :                  1240
          charge                     :                     0
          spin                       :                   0.0
          first test random number   :      0.54242566558820


molecular fragmentation (1/2 indicates fragments):
111111111111222222222222222222222222222222222222222222222222222222222222
222222222222222222222222222222222222222222222222222222222222222222222222
222222222222222222222222222222222222222222222222222222222222222222222222
222222222222222222222222222222222222222222222222222222222222222222222222
222222222222222222222222222222222222222222222222222222222222222222222222
222222222222222222222222222222222222222222222222222222222222222222222222
211222222222222222222222222
# atoms in fragment 1/2:    14   445
 fragment masses (1/2) :      116.10     3019.60
CMA distance (Bohr)    :  23.760
constraining FC (au)   :  0.0500

########################################################################
# WARNING! Please study the warnings concerning your input carefully
#  - XTBPATH is not set, using XTBHOME instead
#  - Process number higher than OMP_NUM_THREADS, I hope you know what you are doing.
########################################################################

           ------------------------------------------------- 
          |                 G F N 2 - x T B                 |
          | Geometry, Frequencies, Noncovalent interactions |
          |            JCTC 2018 parametrisation            |
           ------------------------------------------------- 
 
             k(s)              :                1.8500
             k(p)              :                2.2300
             k(d)              :                2.2300
             k(f)              :                2.0000
             kEN (H0ij)        :               -2.0000
             D4 a1             :                0.5200
             D4 a2             :                5.0000
             D4 s6             :                1.0000
             D4 s8             :                2.7000
             D4 s9             :                5.0000
             alphaj            :                2.0000

  Z AO/shell   Hii/eV     exponent
  1     Wed Apr 25 08:07:45 CEST 2018   EN: 2.200 GM2: 0.406  GM3: 0.0800  RAES: 1.40
     1s    -10.707211    1.230000
  6     Wed Apr 25 08:07:45 CEST 2018   EN: 2.550 GM2: 0.538  GM3: 0.1500  RAES: 3.00
     2s    -13.970922    2.096432
     2p    -10.063292    1.800000
  7     Wed Apr 25 08:07:45 CEST 2018   EN: 3.040 GM2: 0.461  GM3:-0.0640  RAES: 1.90
     2s    -16.686243    2.339881
     2p    -12.523956    2.014332
  8     Wed Apr 25 08:07:45 CEST 2018   EN: 3.440 GM2: 0.452  GM3:-0.0517  RAES: 1.80
     2s    -20.229985    2.439742
     2p    -15.503117    2.137023
 16     Tue Apr 24 11:44:34 CEST 2018   EN: 2.580 GM2: 0.340  GM3:-0.0502  RAES: 3.10
     3s    -20.029654    1.981333
     3p    -11.377694    2.025643
     3d     -0.420282    1.702555

 Solvent             : h2o
 Using internal parameter file: .param_gbsa2_h2o
 Gsolv ref. state (COSMO-RS): gsolv [1 M gas/solution]
 temperature (mdtemp)       :    298.150000000000     
 dielectric constant        :    80.2000000000000     
 rho                        :    1.00000000000000     
 mass                       :    18.0000000000000     
 surface tension            :    15.5689454083859     
 probe radius               :   0.975313790000000     
 vdW radii scaling          :    1.00000000000000     
 Gshift (Eh)                :   1.857443126794793E-003
 c1                         :    1.55243817000000     
 soset                      :   0.130326360000000     
 HB correction              :  T
 Number of grid points      :          230

            Z     q(EN)     CN     RAES       Cart. coordinates
     1  N   5.0   -0.70    3.00    1.93   311.99422   138.47105   179.42250
     2  C   4.0    0.08    3.98    3.59   313.07311   138.30120   181.92996
     3  C   4.0    0.08    3.00    3.02   311.55436   139.93146   183.75055
     4  O   6.0   -0.38    1.00    1.80   311.00812   139.19844   185.88386
     5  C   4.0   -0.09    3.98    3.59   315.81541   139.16777   181.93215
     6  C   4.0    0.31    2.99    3.02   317.58341   137.43186   180.30448
     7  O   6.0   -0.46    1.00    1.80   317.09210   135.12331   180.27352
     8  O   6.0   -0.39    1.00    1.80   319.36278   138.50733   179.22689
     9  H   1.0    0.28    1.00    1.43   313.21046   138.72775   177.96230
    10  H   1.0    0.14    0.99    1.43   312.97669   136.34055   182.61640
    11  H   1.0    0.13    0.99    1.43   315.96273   141.09007   181.20801
    12  H   1.0    0.12    0.99    1.43   316.55458   139.11854   183.85950
    13  N   5.0   -0.66    3.00    1.93   309.06479   127.44247   178.53808
    14  C   4.0    0.06    3.98    3.59   311.51255   128.28990   177.68102
    15  C   4.0    0.08    3.00    3.02   312.51129   126.54668   175.58650
    16  O   6.0   -0.36    1.00    1.80   311.53335   124.52130   175.09957
    17  C   4.0   -0.14    3.99    3.60   313.36275   128.33493   179.90502
    18  C   4.0   -0.11    3.99    3.60   312.58358   130.33763   181.83909
    19  C   4.0    0.28    3.00    3.02   314.28594   130.18993   184.13215
    20  O   6.0   -0.40    1.00    1.80   314.04054   128.52678   185.74031
    21  N   5.0   -0.64    3.00    1.93   316.01484   132.00722   184.30539
    22  H   1.0    0.27    1.00    1.43   309.07216   125.94831   179.74552
    23  H   1.0    0.11    0.99    1.43   311.28312   130.19719   176.90012
    24  H   1.0    0.13    0.99    1.43   313.35441   126.47593   180.79871
    25  H   1.0    0.12    0.99    1.43   315.27657   128.72883   179.24306
    26  H   1.0    0.11    0.99    1.43   312.72208   132.21168   180.99830
    27  H   1.0    0.12    0.99    1.43   310.63737   129.98734   182.42822
    28  H   1.0    0.31    1.00    1.43   316.36773   133.21635   182.82995
    29  H   1.0    0.30    1.00    1.43   317.27956   131.95732   185.73027
    30  N   5.0   -0.68    3.00    1.93   320.30853   124.50493   172.97740
    31  C   4.0    0.09    3.99    3.60   322.93067   124.52016   173.78708
    32  C   4.0    0.30    3.01    3.02   324.51690   126.29627   172.15522
    33  O   6.0   -0.36    1.00    1.80   324.33555   126.30756   169.84252
    34  C   4.0   -0.13    3.98    3.59   323.97767   121.82811   173.60162
    35  C   4.0   -0.16    3.99    3.60   322.74923   120.15659   175.61393
    36  C   4.0   -0.15    3.98    3.58   322.82474   117.34127   174.97591
    37  C   4.0   -0.05    3.98    3.59   321.32082   115.94933   176.99714
    38  N   5.0   -0.73    3.98    2.81   321.09892   113.19600   176.50188
    39  H   1.0    0.27    1.00    1.43   319.65402   122.92044   172.14003
    40  H   1.0    0.13    0.99    1.43   322.98025   125.18307   175.74537
    41  H   1.0    0.13    0.99    1.43   323.58229   121.12724   171.70099
    42  H   1.0    0.13    0.99    1.43   326.02512   121.89036   173.82812
    43  H   1.0    0.14    0.99    1.43   323.66622   120.49188   177.43009
    44  H   1.0    0.13    0.99    1.43   320.78708   120.74867   175.84370
    45  H   1.0    0.11    0.99    1.43   321.98305   117.05182   173.11707
    46  H   1.0    0.11    0.99    1.43   324.77987   116.70330   174.92665
    47  H   1.0    0.13    0.99    1.43   322.20699   116.24097   178.83377
    48  H   1.0    0.11    0.99    1.43   319.41851   116.73580   177.08802
    49  H   1.0    0.24    0.99    1.43   319.77350   112.51072   177.78424
    50  H   1.0    0.24    1.00    1.43   320.46488   112.88810   174.68933
    51  H   1.0    0.24    1.00    1.43   322.81169   112.30879   176.73379
    52  N   5.0   -0.47    3.01    1.93   326.14909   127.76696   173.40705
    53  C   4.0    0.08    3.99    3.61   328.18905   129.00479   172.07622
    54  C   4.0    0.07    3.00    3.02   330.00219   126.98943   171.04162
    55  O   6.0   -0.41    1.00    1.80   330.35571   124.98479   172.13740
    56  C   4.0   -0.13    3.99    3.60   329.72386   130.70330   173.86272
    57  C   4.0   -0.04    3.03    3.02   328.57357   133.28083   174.16971
    58  C   4.0   -0.09    3.03    3.02   326.78128   133.76819   176.02832
    59  C   4.0   -0.11    3.03    3.02   329.29327   135.23944   172.57936
    60  C   4.0   -0.07    3.03    3.02   325.74341   136.14867   176.30648
    61  C   4.0   -0.10    3.03    3.02   328.30865   137.63982   172.86739
    62  C   4.0    0.10    3.03    3.02   326.52258   138.11242   174.73571
    63  O   6.0   -0.45    1.99    1.83   325.53824   140.45389   175.09563
    64  H   1.0    0.28    1.00    1.43   326.29357   127.68659   175.31799
    65  H   1.0    0.13    0.99    1.43   327.42924   130.11484   170.50015
    66  H   1.0    0.13    0.99    1.43   329.84629   129.76135   175.69308
    67  H   1.0    0.09    0.99    1.43   331.62592   130.89003   173.07898
    68  H   1.0    0.14    0.99    1.43   326.20135   132.25715   177.27231
    69  H   1.0    0.11    1.00    1.43   330.65744   134.89903   171.10015
    70  H   1.0    0.15    0.99    1.43   324.29256   136.53151   177.69122
    71  H   1.0    0.12    0.99    1.43   328.92832   139.15002   171.63563
    72  H   1.0    0.25    0.99    1.43   326.18271   141.58244   173.80900
    73  N   5.0   -0.68    3.00    1.93   337.19107   125.40752   170.58217
    74  C   4.0    0.07    3.98    3.59   339.12707   125.86980   172.45635
    75  C   4.0    0.07    3.00    3.02   341.72996   125.65144   171.21066
    76  O   6.0   -0.37    1.00    1.80   342.15163   124.16394   169.49722
    77  C   4.0   -0.09    3.98    3.58   338.85727   123.97063   174.65296
    78  C   4.0   -0.23    3.98    3.59   340.88582   124.41106   176.65391
    79  C   4.0   -0.22    3.98    3.59   336.23811   124.20313   175.84510
    80  H   1.0    0.29    1.00    1.43   337.05351   123.61719   169.94213
    81  H   1.0    0.10    0.99    1.43   338.85884   127.79994   173.15010
    82  H   1.0    0.13    0.99    1.43   339.09405   122.06643   173.87684
    83  H   1.0    0.11    0.99    1.43   340.57531   123.15533   178.24938
    84  H   1.0    0.11    0.99    1.43   342.77035   124.03809   175.92212
    85  H   1.0    0.10    0.99    1.43   340.81353   126.34808   177.33832
    86  H   1.0    0.11    0.99    1.43   336.01941   122.80342   177.33143
    87  H   1.0    0.10    0.99    1.43   336.02043   126.06632   176.68174
    88  H   1.0    0.12    0.99    1.43   334.73434   123.92841   174.47139
    89  N   5.0   -0.66    3.00    1.93   349.93769   134.91313   181.65276
    90  C   4.0    0.07    3.98    3.58   347.87192   133.81987   180.22921
    91  C   4.0    0.07    3.00    3.02   346.78458   135.73851   178.34516
    92  O   6.0   -0.35    1.00    1.80   346.98346   138.01731   178.69309
    93  C   4.0   -0.14    4.00    3.63   345.74362   133.00667   182.01134
    94  C   4.0   -0.14    3.98    3.58   346.57112   131.05779   183.96535
    95  S   6.0   -0.16    2.01    3.10   347.96324   128.20438   182.59358
    96  C   4.0   -0.20    3.98    3.58   345.24247   126.99725   180.89734
    97  H   1.0    0.26    1.00    1.43   349.57325   135.59466   183.40462
    98  H   1.0    0.11    0.99    1.43   348.59179   132.17532   179.19647
    99  H   1.0    0.12    0.99    1.43   345.05777   134.67830   183.01037
   100  H   1.0    0.11    0.99    1.43   344.20537   132.24367   180.86999
   101  H   1.0    0.10    0.99    1.43   348.02434   131.81649   185.21045
   102  H   1.0    0.10    0.99    1.43   344.95699   130.45098   185.09061
   103  H   1.0    0.12    0.99    1.43   345.61115   125.01365   180.52532
   104  H   1.0    0.11    0.99    1.43   343.57155   127.19158   182.06950
   105  H   1.0    0.10    0.99    1.43   345.03831   128.00140   179.11892
   106  N   5.0   -0.67    3.00    1.93   339.61326   136.07679   173.68551
   107  C   4.0    0.06    3.98    3.59   337.20689   134.94360   173.04873
   108  C   4.0    0.07    3.00    3.02   336.14630   136.26336   170.70475
   109  O   6.0   -0.43    1.00    1.80   336.11622   138.57741   170.54884
   110  C   4.0   -0.13    3.99    3.60   335.37198   135.26992   175.28430
   111  C   4.0   -0.04    3.03    3.02   336.47498   134.14523   177.64363
   112  C   4.0   -0.11    3.03    3.02   337.83447   135.62750   179.32822
   113  C   4.0   -0.12    3.03    3.02   336.21595   131.58108   178.14993
   114  C   4.0   -0.11    3.03    3.02   338.87195   134.58220   181.48540
   115  C   4.0   -0.09    3.03    3.02   337.25859   130.51161   180.29083
   116  C   4.0    0.09    3.03    3.02   338.58993   132.02068   181.98601
   117  O   6.0   -0.51    1.99    1.83   339.57723   130.93575   184.09837
   118  H   1.0    0.34    1.00    1.43   339.57742   137.91737   174.23369
   119  H   1.0    0.11    0.99    1.43   337.54492   132.94367   172.65879
   120  H   1.0    0.12    0.99    1.43   335.03927   137.28646   175.54351
   121  H   1.0    0.10    0.99    1.43   333.58256   134.36882   174.81590
   122  H   1.0    0.13    1.00    1.43   338.09358   137.61903   178.96330
   123  H   1.0    0.10    1.00    1.43   335.16154   130.41958   176.84474
   124  H   1.0    0.11    1.00    1.43   339.89942   135.77504   182.78454
   125  H   1.0    0.12    1.00    1.43   337.03956   128.52455   180.69568
   126  H   1.0    0.24    0.99    1.43   340.25448   132.23416   185.19120
   127  N   5.0   -0.68    3.00    1.93   337.67766   143.62122   171.52051
   128  C   4.0    0.07    3.98    3.59   338.10762   144.82518   173.93649
   129  C   4.0    0.08    3.00    3.02   340.05306   143.33180   175.46027
   130  O   6.0   -0.44    1.00    1.80   339.93476   141.02551   175.74226
   131  C   4.0   -0.09    3.98    3.58   335.62170   145.17262   175.43834
   132  C   4.0   -0.14    3.98    3.58   334.28532   142.63943   175.86443
   133  C   4.0   -0.23    3.98    3.59   333.93713   147.06176   174.04928
   134  C   4.0   -0.23    3.98    3.58   332.05284   142.82205   177.67671
   135  H   1.0    0.33    1.00    1.43   337.10290   141.78857   171.51846
   136  H   1.0    0.11    0.99    1.43   338.91329   146.68730   173.52189
   137  H   1.0    0.10    0.99    1.43   336.16199   145.95283   177.27927
   138  H   1.0    0.12    0.99    1.43   333.64202   141.88392   174.05353
   139  H   1.0    0.13    0.99    1.43   335.66439   141.32052   176.64360
   140  H   1.0    0.10    0.99    1.43   332.32057   147.54126   175.21598
   141  H   1.0    0.10    0.99    1.43   335.00824   148.76576   173.63487
   142  H   1.0    0.11    0.99    1.43   333.28654   146.23453   172.28143
   143  H   1.0    0.11    0.99    1.43   331.25976   140.95194   177.98828
   144  H   1.0    0.10    0.99    1.43   332.66322   143.59389   179.47973
   145  H   1.0    0.11    0.99    1.43   330.57399   144.01533   176.90630
   146  N   5.0   -0.68    3.00    1.93   352.34871   130.43222   190.68369
   147  C   4.0    0.07    3.98    3.58   351.65411   127.86509   191.23217
   148  C   4.0    0.08    3.01    3.02   354.05734   126.28489   191.29303
   149  O   6.0   -0.39    1.00    1.80   355.90151   126.80808   189.99063
   150  C   4.0   -0.21    3.98    3.59   349.84582   126.75407   189.26138
   151  H   1.0    0.29    1.00    1.43   353.77500   130.68273   189.42949
   152  H   1.0    0.15    0.99    1.43   350.71730   127.83725   193.07337
   153  H   1.0    0.11    0.99    1.43   349.40612   124.81282   189.76749
   154  H   1.0    0.09    0.99    1.43   348.10764   127.84714   189.24550
   155  H   1.0    0.12    0.99    1.43   350.67648   126.80087   187.38368
   156  N   5.0   -0.70    3.00    1.93   346.27965   116.37762   187.45324
   157  C   4.0    0.07    3.98    3.59   346.97722   118.85408   188.37870
   158  C   4.0    0.27    3.01    3.02   345.82364   119.25106   191.00349
   159  O   6.0   -0.47    1.00    1.80   343.60484   118.72136   191.41446
   160  C   4.0   -0.13    3.99    3.60   345.90579   120.94076   186.64097
   161  C   4.0   -0.05    3.03    3.02   346.62615   120.58124   183.91880
   162  C   4.0   -0.11    3.03    3.02   345.05408   119.23894   182.29596
   163  C   4.0   -0.10    3.03    3.02   348.84805   121.58700   182.95589
   164  C   4.0   -0.08    3.03    3.02   345.64318   118.95015   179.77411
   165  C   4.0   -0.10    3.03    3.02   349.44957   121.32571   180.42620
   166  C   4.0    0.10    3.03    3.02   347.84137   120.02683   178.79974
   167  O   6.0   -0.45    1.99    1.83   348.31579   119.75871   176.29285
   168  H   1.0    0.28    1.00    1.43   344.41397   115.97210   187.47101
   169  H   1.0    0.11    0.99    1.43   349.03827   118.92261   188.44728
   170  H   1.0    0.11    0.99    1.43   343.84927   120.88621   186.81119
   171  H   1.0    0.09    0.99    1.43   346.59566   122.76014   187.31820
   172  H   1.0    0.11    0.99    1.43   343.31692   118.42239   182.99220
   173  H   1.0    0.12    1.00    1.43   350.10606   122.62239   184.18267
   174  H   1.0    0.13    1.00    1.43   344.43619   117.87370   178.53345
   175  H   1.0    0.12    1.00    1.43   351.16844   122.14070   179.68793
   176  H   1.0    0.25    0.99    1.43   349.60717   120.96378   175.70102
   177  N   5.0   -0.49    3.01    1.93   347.36795   120.28805   192.69524
   178  C   4.0    0.08    3.99    3.61   346.63246   120.90504   195.26110
   179  C   4.0    0.28    3.02    3.02   346.98165   123.74510   195.67503
   180  O   6.0   -0.44    1.00    1.80   349.00930   124.75042   195.17195
   181  C   4.0   -0.11    3.99    3.60   348.30293   119.48749   197.17331
   182  C   4.0   -0.02    3.03    3.02   347.85122   116.68964   197.09036
   183  C   4.0   -0.09    3.03    3.02   349.09826   115.16720   195.34724
   184  C   4.0   -0.09    3.03    3.02   346.14738   115.58168   198.75077
   185  C   4.0   -0.07    3.03    3.02   348.65848   112.59316   195.26276
   186  C   4.0   -0.10    3.03    3.02   345.72165   113.00583   198.70651
   187  C   4.0    0.10    3.03    3.02   346.98179   111.49715   196.96482
   188  O   6.0   -0.49    1.99    1.83   346.55680   108.95402   196.83412
   189  H   1.0    0.23    1.00    1.43   349.23931   120.45164   192.27060
   190  H   1.0    0.15    0.99    1.43   344.65299   120.39741   195.52468
   191  H   1.0    0.13    0.99    1.43   350.27496   119.91138   196.74040
   192  H   1.0    0.13    0.99    1.43   347.84721   120.22517   199.04026
   193  H   1.0    0.12    1.00    1.43   350.43380   115.99749   194.04684
   194  H   1.0    0.14    1.00    1.43   345.14045   116.74495   200.09154
   195  H   1.0    0.13    1.00    1.43   349.61992   111.41288   193.90680
   196  H   1.0    0.11    1.00    1.43   344.41575   112.17362   200.03461
   197  H   1.0    0.25    0.99    1.43   345.71286   108.38833   198.36348
   198  N   5.0   -0.47    3.01    1.93   344.96174   125.04470   196.47943
   199  C   4.0    0.08    3.99    3.61   345.27121   127.71199   197.03723
   200  C   4.0    0.10    3.00    3.02   347.41680   128.05870   198.95759
   201  O   6.0   -0.34    1.00    1.80   347.61581   126.67381   200.80689
   202  C   4.0   -0.01    3.98    3.58   342.80093   128.81651   198.06883
   203  O   6.0   -0.44    1.98    1.82   342.08327   127.50691   200.26017
   204  H   1.0    0.30    1.00    1.43   343.60651   124.11190   197.46373
   205  H   1.0    0.10    0.99    1.43   345.78642   128.70292   195.29261
   206  H   1.0    0.11    0.99    1.43   343.10069   130.83430   198.45866
   207  H   1.0    0.10    0.99    1.43   341.33074   128.64186   196.60842
   208  H   1.0    0.30    0.99    1.43   340.56013   128.31083   201.00103
   209  N   5.0   -0.69    3.00    1.93   341.32438   119.09758   204.48190
   210  C   4.0    0.09    3.98    3.59   339.46838   120.26991   202.83524
   211  C   4.0    0.29    3.01    3.02   340.30194   119.94845   200.06928
   212  O   6.0   -0.44    1.00    1.80   342.12419   121.07644   199.19898
   213  C   4.0   -0.09    3.99    3.60   339.23241   123.08998   203.39425
   214  C   4.0    0.28    3.00    3.02   338.51781   123.64192   206.11759
   215  O   6.0   -0.40    1.00    1.80   338.22579   121.98774   207.70435
   216  N   5.0   -0.63    3.00    1.93   338.24929   126.10283   206.63913
   217  H   1.0    0.29    1.00    1.43   342.65248   120.26203   205.21531
   218  H   1.0    0.13    0.99    1.43   337.66649   119.29806   203.15065
   219  H   1.0    0.16    0.99    1.43   341.02661   124.01936   202.96994
   220  H   1.0    0.11    0.99    1.43   337.81058   123.93201   202.16332
   221  H   1.0    0.30    1.00    1.43   337.77840   126.61042   208.42033
   222  H   1.0    0.32    1.00    1.43   338.28145   127.44043   205.25945
   223  N   5.0   -0.49    3.01    1.93   338.95994   118.26938   198.75126
   224  C   4.0    0.08    3.99    3.61   339.35657   117.82855   196.07339
   225  C   4.0    0.28    3.01    3.02   337.68148   119.63828   194.57319
   226  O   6.0   -0.46    1.00    1.80   335.76886   120.55969   195.51010
   227  C   4.0   -0.14    3.98    3.59   338.71717   115.05704   195.51216
   228  C   4.0   -0.15    3.98    3.58   339.38600   114.24963   192.82310
   229  C   4.0   -0.15    3.98    3.59   338.61721   111.51284   192.27988
   230  C   4.0   -0.06    3.98    3.58   340.06013   109.52873   193.78820
   231  N   5.0   -0.70    3.97    2.80   342.73345   109.43752   192.96445
   232  H   1.0    0.28    1.00    1.43   337.28815   117.64701   199.46073
   233  H   1.0    0.14    0.99    1.43   341.33874   118.20640   195.62723
   234  H   1.0    0.11    0.99    1.43   339.75778   113.94081   196.89650
   235  H   1.0    0.11    0.99    1.43   336.70312   114.77301   195.84046
   236  H   1.0    0.14    0.99    1.43   338.36276   115.43802   191.48861
   237  H   1.0    0.13    0.99    1.43   341.39547   114.57223   192.48625
   238  H   1.0    0.10    0.99    1.43   336.61169   111.31878   192.70033
   239  H   1.0    0.11    0.99    1.43   338.87560   111.12870   190.27164
   240  H   1.0    0.11    0.99    1.43   339.97905   109.95863   195.80119
   241  H   1.0    0.10    0.99    1.43   339.22118   107.68054   193.44860
   242  H   1.0    0.22    0.99    1.43   342.87036   108.83609   190.99787
   243  H   1.0    0.26    1.00    1.43   343.51706   111.20134   193.12455
   244  H   1.0    0.27    1.00    1.43   343.80199   108.22105   194.04469
   245  N   5.0   -0.49    3.01    1.93   338.37511   120.14477   192.20328
   246  C   4.0    0.08    4.00    3.61   336.78585   121.68629   190.58399
   247  C   4.0    0.27    3.01    3.02   335.17835   119.96269   188.88887
   248  O   6.0   -0.42    1.00    1.80   336.03780   118.05564   187.91267
   249  C   4.0   -0.13    3.99    3.60   338.36762   123.45362   188.93319
   250  C   4.0   -0.10    3.98    3.58   339.78154   125.49100   190.43495
   251  C   4.0   -0.23    3.98    3.59   341.64695   126.85713   188.70635
   252  C   4.0   -0.21    3.98    3.59   337.96861   127.41129   191.60102
   253  H   1.0    0.28    1.00    1.43   340.05374   119.51103   191.52204
   254  H   1.0    0.15    0.99    1.43   335.50924   122.76155   191.80309
   255  H   1.0    0.12    0.99    1.43   339.73237   122.30372   187.89746
   256  H   1.0    0.12    0.99    1.43   337.12114   124.34646   187.55113
   257  H   1.0    0.14    0.99    1.43   340.83546   124.57536   191.96669
   258  H   1.0    0.10    0.99    1.43   342.63925   128.31248   189.76533
   259  H   1.0    0.10    0.99    1.43   343.03000   125.54637   187.94297
   260  H   1.0    0.12    0.99    1.43   340.63720   127.73892   187.14893
   261  H   1.0    0.10    0.99    1.43   339.01453   128.87941   192.59124
   262  H   1.0    0.12    0.99    1.43   336.82207   128.31604   190.15334
   263  H   1.0    0.12    0.99    1.43   336.69345   126.54263   192.96067
   264  N   5.0   -0.48    3.00    1.93   332.77761   120.69832   188.58707
   265  C   4.0    0.03    3.99    3.61   331.07037   119.32073   186.94812
   266  C   4.0    0.26    3.01    3.02   328.41632   120.41328   187.09787
   267  O   6.0   -0.43    1.00    1.80   328.02560   122.66376   187.47980
   268  H   1.0    0.30    1.00    1.43   332.07189   122.20012   189.53766
   269  H   1.0    0.13    0.99    1.43   331.75417   119.50097   184.99602
   270  H   1.0    0.11    0.99    1.43   331.11080   117.32022   187.47114
   271  N   5.0   -0.49    3.00    1.93   326.52835   118.74453   186.80609
   272  C   4.0    0.01    3.99    3.61   323.90020   119.45944   187.02952
   273  C   4.0    0.27    3.00    3.02   322.66705   120.16660   184.49645
   274  O   6.0   -0.40    1.00    1.80   323.77051   120.00710   182.48173
   275  H   1.0    0.23    1.00    1.43   326.91410   116.95874   186.25842
   276  H   1.0    0.11    0.99    1.43   322.84919   117.90161   187.88252
   277  H   1.0    0.13    0.99    1.43   323.79958   121.10569   188.27859
   278  N   5.0   -0.49    3.01    1.93   320.27215   120.97588   184.74514
   279  C   4.0    0.08    3.99    3.60   318.66466   121.66031   182.63903
   280  C   4.0    0.28    3.01    3.02   319.75425   123.81934   181.04900
   281  O   6.0   -0.46    1.00    1.80   319.25902   123.97954   178.80170
   282  C   4.0   -0.20    3.98    3.59   316.05537   122.35703   183.64144
   283  H   1.0    0.25    1.00    1.43   319.42175   120.86859   186.44952
   284  H   1.0    0.13    0.99    1.43   318.50608   120.04816   181.33952
   285  H   1.0    0.11    0.99    1.43   314.70697   122.53516   182.10360
   286  H   1.0    0.13    0.99    1.43   315.41350   120.88069   184.91919
   287  H   1.0    0.14    0.99    1.43   316.12214   124.14455   184.65756
   288  N   5.0   -0.47    3.00    1.93   321.26349   125.45618   182.26990
   289  C   4.0    0.08    3.99    3.60   322.60114   127.44538   180.97028
   290  C   4.0    0.28    3.01    3.02   325.39524   126.82267   180.52660
   291  O   6.0   -0.49    1.00    1.80   326.56559   127.88519   178.83025
   292  C   4.0   -0.09    3.98    3.59   322.38483   130.00031   182.31612
   293  C   4.0    0.32    2.99    3.02   323.82691   130.10504   184.85616
   294  O   6.0   -0.47    1.00    1.80   324.27126   132.23737   185.74881
   295  O   6.0   -0.46    1.00    1.80   324.46037   128.05705   185.84721
   296  H   1.0    0.28    1.00    1.43   321.53342   125.35041   184.15748
   297  H   1.0    0.14    0.99    1.43   321.73058   127.63042   179.09539
   298  H   1.0    0.12    0.99    1.43   323.08435   131.49652   181.08025
   299  H   1.0    0.13    0.99    1.43   320.39768   130.41746   182.69498
   300  N   5.0   -0.46    3.00    1.93   326.45239   125.06819   182.00050
   301  C   4.0    0.03    3.99    3.61   329.01864   124.23064   181.67970
   302  C   4.0    0.28    3.00    3.02   330.94965   125.29232   183.55245
   303  O   6.0   -0.43    1.00    1.80   333.04847   124.35220   183.72005
   304  H   1.0    0.30    1.00    1.43   325.53159   124.46984   183.55899
   305  H   1.0    0.13    0.99    1.43   329.07240   122.16933   181.77407
   306  H   1.0    0.14    0.99    1.43   329.63804   124.81833   179.79398
   307  N   5.0   -0.47    3.00    1.93   330.21481   127.34317   184.84261
   308  C   4.0    0.07    3.99    3.61   331.88653   128.73375   186.48850
   309  C   4.0    0.27    3.01    3.02   330.85805   128.99075   189.18467
   310  O   6.0   -0.43    1.00    1.80   331.77582   130.49799   190.68146
   311  C   4.0   -0.13    3.98    3.59   332.51292   131.36185   185.42778
   312  C   4.0   -0.13    3.98    3.59   330.13452   132.82561   184.69316
   313  C   4.0   -0.15    3.98    3.59   330.65780   135.66027   184.53968
   314  C   4.0   -0.05    3.98    3.58   328.40244   137.14979   183.54995
   315  N   5.0   -0.72    3.98    2.81   326.20270   136.97163   185.28944
   316  H   1.0    0.29    1.00    1.43   328.38395   127.88655   184.79454
   317  H   1.0    0.13    0.99    1.43   333.63895   127.62805   186.62880
   318  H   1.0    0.12    0.99    1.43   333.51658   132.37169   186.91903
   319  H   1.0    0.12    0.99    1.43   333.75614   131.17469   183.79661
   320  H   1.0    0.13    0.99    1.43   329.44730   132.15586   182.86559
   321  H   1.0    0.16    0.99    1.43   328.67467   132.45006   186.10026
   322  H   1.0    0.11    0.99    1.43   331.20005   136.34826   186.40614
   323  H   1.0    0.10    0.99    1.43   332.24417   135.97738   183.26388
   324  H   1.0    0.11    0.99    1.43   328.91969   139.13514   183.35359
   325  H   1.0    0.12    0.99    1.43   327.82934   136.42452   181.70704
   326  H   1.0    0.26    1.00    1.43   324.77263   138.13441   184.69170
   327  H   1.0    0.31    0.99    1.43   325.46707   135.11447   185.36456
   328  H   1.0    0.25    1.00    1.43   326.72258   137.46919   187.09233
   329  N   5.0   -0.46    3.01    1.93   328.89818   127.49251   189.74651
   330  C   4.0    0.09    3.99    3.61   327.99422   127.28304   192.32236
   331  C   4.0    0.27    3.02    3.02   329.94570   125.75941   193.80381
   332  O   6.0   -0.43    1.00    1.80   330.92901   123.90179   192.83049
   333  C   4.0    0.04    3.98    3.58   325.44082   125.86298   192.30115
   334  O   6.0   -0.46    1.99    1.82   323.59319   127.18053   190.92618
   335  C   4.0   -0.20    3.98    3.59   324.40098   125.47872   194.96237
   336  H   1.0    0.31    1.00    1.43   328.50861   125.99883   188.60579
   337  H   1.0    0.14    0.99    1.43   327.77097   129.18087   193.11168
   338  H   1.0    0.14    0.99    1.43   325.81390   124.01132   191.41717
   339  H   1.0    0.33    0.99    1.43   324.16666   127.50924   189.19391
   340  H   1.0    0.11    0.99    1.43   322.61441   124.47775   194.83353
   341  H   1.0    0.13    0.99    1.43   325.69935   124.41402   196.14156
   342  H   1.0    0.12    0.99    1.43   324.04578   127.30693   195.82794
   343  N   5.0   -0.49    3.01    1.93   330.55064   126.55246   196.13004
   344  C   4.0    0.08    4.00    3.62   332.06511   124.91958   197.73340
   345  C   4.0    0.28    3.01    3.02   330.35733   122.72993   198.57178
   346  O   6.0   -0.44    1.00    1.80   328.32530   123.15007   199.62915
   347  C   4.0   -0.13    3.98    3.59   333.10078   126.34300   200.01675
   348  C   4.0   -0.12    3.98    3.58   335.24788   128.14751   199.34324
   349  C   4.0    0.31    2.99    3.02   335.90203   129.78440   201.68835
   350  O   6.0   -0.37    1.00    1.80   334.20536   131.11704   202.58235
   351  O   6.0   -0.47    1.00    1.80   338.12681   129.62441   202.54409
   352  H   1.0    0.24    1.00    1.43   329.59225   127.96256   196.98013
   353  H   1.0    0.15    0.99    1.43   333.61797   124.16368   196.59796
   354  H   1.0    0.15    0.99    1.43   331.59104   127.42854   200.91392
   355  H   1.0    0.12    0.99    1.43   333.77835   124.96545   201.40172
   356  H   1.0    0.11    0.99    1.43   336.91939   127.11031   198.72634
   357  H   1.0    0.13    0.99    1.43   334.64614   129.42318   197.83792
   358  N   5.0   -0.48    3.01    1.93   331.16627   120.43924   197.96185
   359  C   4.0    0.08    4.00    3.61   329.86418   118.15969   198.70809
   360  C   4.0    0.26    3.02    3.02   331.60832   116.70508   200.49047
   361  O   6.0   -0.46    1.00    1.80   333.89025   117.07786   200.55392
   362  C   4.0   -0.08    3.98    3.58   329.06575   116.54052   196.40862
   363  C   4.0   -0.21    3.98    3.59   327.40053   118.09377   194.63510
   364  C   4.0   -0.20    3.98    3.59   331.36637   115.51828   195.00298
   365  H   1.0    0.30    1.00    1.43   332.90362   120.23497   197.15996
   366  H   1.0    0.13    0.99    1.43   328.17510   118.75485   199.75035
   367  H   1.0    0.12    0.99    1.43   327.96905   114.95036   197.15318
   368  H   1.0    0.10    0.99    1.43   326.71108   116.91282   193.10521
   369  H   1.0    0.10    0.99    1.43   325.78677   118.87638   195.63907
   370  H   1.0    0.15    0.99    1.43   328.47038   119.65947   193.83515
   371  H   1.0    0.10    0.99    1.43   330.76335   114.39896   193.39321
   372  H   1.0    0.14    0.99    1.43   332.52802   117.06899   194.31791
   373  H   1.0    0.12    0.99    1.43   332.48367   114.34203   196.26039
   374  N   5.0   -0.48    3.01    1.93   330.47210   114.96529   201.93368
   375  C   4.0    0.07    4.00    3.61   331.90984   113.65376   203.85821
   376  C   4.0    0.06    3.00    3.02   330.99608   110.94170   204.15741
   377  O   6.0   -0.43    1.00    1.80   328.75619   110.40379   204.30448
   378  C   4.0   -0.08    3.98    3.58   331.77878   115.07254   206.41467
   379  C   4.0   -0.19    3.98    3.59   329.10506   115.11629   207.49683
   380  C   4.0   -0.23    3.98    3.59   333.66814   113.92889   208.26387
   381  H   1.0    0.25    1.00    1.43   328.55986   114.83853   201.95589
   382  H   1.0    0.13    0.99    1.43   333.88427   113.68845   203.23710
   383  H   1.0    0.13    0.99    1.43   332.37060   117.01645   206.00368
   384  H   1.0    0.11    0.99    1.43   329.05525   116.20852   209.23842
   385  H   1.0    0.13    0.99    1.43   327.80619   115.98124   206.15841
   386  H   1.0    0.14    0.99    1.43   328.46596   113.20877   207.91065
   387  H   1.0    0.11    0.99    1.43   333.65654   115.00588   210.01048
   388  H   1.0    0.11    0.99    1.43   333.20740   111.97191   208.68869
   389  H   1.0    0.11    0.99    1.43   335.56065   114.04004   207.47172
   390  N   5.0   -0.69    3.00    1.93   323.60456   105.43550   201.67419
   391  C   4.0    0.10    3.98    3.58   324.76064   107.79277   200.91743
   392  C   4.0    0.10    3.00    3.02   322.86577   109.96922   201.15871
   393  O   6.0   -0.44    1.00    1.80   320.95526   110.17582   199.86151
   394  C   4.0    0.04    3.97    3.58   325.94861   107.62828   198.25927
   395  O   6.0   -0.48    1.99    1.82   327.36323   109.87551   197.94407
   396  C   4.0   -0.20    3.98    3.58   324.04853   107.25013   196.12816
   397  H   1.0    0.27    1.00    1.43   322.20051   104.69998   200.54101
   398  H   1.0    0.16    0.99    1.43   326.31433   108.15151   202.23549
   399  H   1.0    0.10    0.99    1.43   327.23898   105.98610   198.30004
   400  H   1.0    0.24    0.99    1.43   328.11603   109.84626   196.28111
   401  H   1.0    0.10    0.99    1.43   325.03223   106.98590   194.34245
   402  H   1.0    0.11    0.99    1.43   322.89739   105.58808   196.48851
   403  H   1.0    0.14    0.99    1.43   322.81091   108.88150   195.98454
   404  N   5.0   -0.68    3.00    1.93   321.33500   118.15323   202.49495
   405  C   4.0    0.06    3.98    3.58   322.29354   120.70574   202.12536
   406  C   4.0    0.08    3.00    3.02   323.55993   121.57325   204.57861
   407  O   6.0   -0.37    1.00    1.80   322.53698   121.22776   206.63376
   408  C   4.0   -0.21    3.98    3.59   320.13209   122.49791   201.47972
   409  H   1.0    0.28    1.00    1.43   319.62451   118.01465   203.33058
   410  H   1.0    0.11    0.99    1.43   323.70301   120.65073   200.61591
   411  H   1.0    0.11    0.99    1.43   320.90087   124.33020   200.97186
   412  H   1.0    0.10    0.99    1.43   319.07105   121.75758   199.88720
   413  H   1.0    0.13    0.99    1.43   318.89660   122.71538   203.10691
   414  N   5.0   -0.67    3.00    1.93   316.41716   113.03628   197.68965
   415  C   4.0    0.07    3.98    3.59   316.26942   115.15005   195.94445
   416  C   4.0    0.29    3.01    3.02   314.94622   114.34259   193.48532
   417  O   6.0   -0.37    1.00    1.80   315.07488   112.19099   192.65982
   418  C   4.0   -0.21    3.98    3.59   318.92171   116.11645   195.36278
   419  H   1.0    0.31    1.00    1.43   318.12685   112.25035   198.04922
   420  H   1.0    0.10    0.99    1.43   315.11183   116.61660   196.84104
   421  H   1.0    0.10    0.99    1.43   318.83497   117.73547   194.10520
   422  H   1.0    0.09    0.99    1.43   319.87399   116.64029   197.10547
   423  H   1.0    0.12    0.99    1.43   320.00858   114.63219   194.44559
   424  N   5.0   -0.48    3.01    1.93   313.65574   116.20078   192.31039
   425  C   4.0    0.06    3.99    3.60   312.56445   115.76912   189.82986
   426  C   4.0    0.07    3.00    3.02   314.68558   115.67846   187.85009
   427  O   6.0   -0.43    1.00    1.80   316.30959   117.31763   187.72518
   428  C   4.0   -0.21    3.98    3.59   310.70189   117.85802   189.15946
   429  H   1.0    0.23    1.00    1.43   313.90661   118.01364   192.84242
   430  H   1.0    0.13    0.99    1.43   311.60966   113.93590   189.91830
   431  H   1.0    0.10    0.99    1.43   309.74950   117.40973   187.39613
   432  H   1.0    0.11    0.99    1.43   309.29219   118.04277   190.64101
   433  H   1.0    0.12    0.99    1.43   311.69844   119.64289   188.92949
   434  H   1.0    0.30    1.00    1.43   311.15452   137.03532   179.06731
   435  H   1.0    0.15    1.00    1.43   310.97331   141.64974   183.22048
   436  H   1.0    0.29    1.00    1.43   308.27981   128.70987   179.35665
   437  H   1.0    0.13    1.00    1.43   314.01641   127.06156   174.56642
   438  H   1.0    0.32    1.00    1.43   319.29755   124.75203   174.32255
   439  H   1.0    0.13    1.00    1.43   330.93491   127.29697   169.42716
   440  H   1.0    0.30    1.00    1.43   335.66756   125.79237   171.23285
   441  H   1.0    0.12    1.00    1.43   343.15274   126.74867   171.79622
   442  H   1.0    0.29    1.00    1.43   351.15016   133.74296   181.88337
   443  H   1.0    0.12    1.00    1.43   345.89044   135.13616   176.79315
   444  H   1.0    0.30    1.00    1.43   340.31923   135.22281   174.97582
   445  H   1.0    0.12    1.00    1.43   335.46421   135.23873   169.27090
   446  H   1.0    0.29    1.00    1.43   336.46850   144.46504   170.67289
   447  H   1.0    0.13    1.00    1.43   341.50072   144.22771   176.28044
   448  H   1.0    0.29    1.00    1.43   351.01000   131.25627   190.03457
   449  H   1.0    0.14    1.00    1.43   354.16411   124.77043   192.41824
   450  H   1.0    0.30    1.00    1.43   346.78248   116.21321   185.83685
   451  H   1.0    0.13    1.00    1.43   348.68867   129.43514   198.71504
   452  H   1.0    0.32    1.00    1.43   340.53596   118.38722   205.81093
   453  H   1.0    0.12    1.00    1.43   332.24632   109.52707   204.23990
   454  H   1.0    0.29    1.00    1.43   324.79160   104.21994   201.75106
   455  H   1.0    0.14    1.00    1.43   323.15163   111.33385   202.43430
   456  H   1.0    0.28    1.00    1.43   321.18795   117.37830   200.98816
   457  H   1.0    0.14    1.00    1.43   325.24154   122.43343   204.52096
   458  H   1.0    0.30    1.00    1.43   315.83882   113.51782   199.21484
   459  H   1.0    0.13    1.00    1.43   314.76538   114.24996   186.61556

           ------------------------------------------------- 
          |        Self-Consistent Charge Iterations        |
           ------------------------------------------------- 

          ...................................................
          :                      SETUP                      :
          :.................................................:
          :  # basis functions                1122          :
          :  # atomic orbitals                1121          :
          :  # shells                          679          :
          :  # electrons                      1240          :
          :  max. iterations                   250          :
          :  Hamiltonian                  GFN2-xTB          :
          :  restarted?                      false          :
          :  GBSA solvation                   true          :
          :  PC potential                    false          :
          :  electronic temp.          500.0000000     K    :
          :  accuracy                    0.1000000          :
          :  -> integral cutoff          0.3500000E+02      :
          :  -> integral neglect         0.1000000E-08      :
          :  -> SCF convergence          0.1000000E-06 Eh   :
          :  -> wf. convergence          0.1000000E-04 e    :
          :  Broyden damping             0.4000000          :
          ...................................................

 iter      E             dE          RMSdq      gap      omega  full diag
   1   -710.5477928 -0.710548E+03  0.431E+00    2.01       0.0  T
   2   -712.3248282 -0.177704E+01  0.221E+00    1.58       1.0  T
   3   -712.3933329 -0.685046E-01  0.122E+00    1.90       1.0  T
   4   -712.4380787 -0.447458E-01  0.297E-01    1.43       1.0  T
   5   -712.4572007 -0.191220E-01  0.115E-01    1.52       1.0  T
   6   -712.4579346 -0.733884E-03  0.566E-02    1.50       1.0  T
   7   -712.4580815 -0.146953E-03  0.269E-02    1.50       1.0  T
   8   -712.4581772 -0.956981E-04  0.104E-02    1.50       1.0  T
   9   -712.4581856 -0.838646E-05  0.544E-03    1.50       1.0  T
  10   -712.4581884 -0.276214E-05  0.228E-03    1.50       2.0  T
  11   -712.4581888 -0.453316E-06  0.108E-03    1.50       4.3  T
  12   -712.4581889 -0.119139E-06  0.528E-04    1.50       8.8  T
  13   -712.4581890 -0.370442E-07  0.266E-04    1.50      17.5  T
  14   -712.4581890 -0.604211E-08  0.119E-04    1.50      39.1  T
  15   -712.4581890 -0.129000E-08  0.548E-05    1.50      85.2  T
  16   -712.4581890 -0.248519E-09  0.262E-05    1.50     178.2  T

   *** convergence criteria satisfied after 16 iterations ***

         #    Occupation            Energy/Eh            Energy/eV
      -------------------------------------------------------------
         1        2.0000           -0.7408773             -20.1603
       ...           ...                  ...                  ...
       614        2.0000           -0.3657247              -9.9519
       615        2.0000           -0.3650829              -9.9344
       616        2.0000           -0.3599399              -9.7945
       617        2.0000           -0.3597017              -9.7880
       618        2.0000           -0.3566214              -9.7042
       619        2.0000           -0.3548944              -9.6572
       620        2.0000           -0.3540793              -9.6350 (HOMO)
       621                         -0.2989785              -8.1356 (LUMO)
       622                         -0.2931177              -7.9761
       623                         -0.2926594              -7.9637
       624                         -0.2925752              -7.9614
       625                         -0.2904186              -7.9027
       ...                                ...                  ...
      1121                          0.6611597              17.9911
      -------------------------------------------------------------
                  HL-Gap            0.0551008 Eh            1.4994 eV
             Fermi-level           -0.3260927 Eh           -8.8734 eV

 SCC (total)                   0 d,  0 h,  0 min,  9.027 sec
 SCC setup                      ...        0 min,  0.095 sec (  1.047%)
 Dispersion                     ...        0 min,  0.088 sec (  0.972%)
 integral evaluation            ...        0 min,  0.242 sec (  2.685%)
 zeroth order Hamiltonian       ...        0 min,  0.004 sec (  0.041%)
 iterations                     ...        0 min,  7.027 sec ( 77.840%)
 molecular gradient             ...        0 min,  1.503 sec ( 16.653%)
 printout                       ...        0 min,  0.069 sec (  0.761%)

         :::::::::::::::::::::::::::::::::::::::::::::::::::::
         ::                     SUMMARY                     ::
         :::::::::::::::::::::::::::::::::::::::::::::::::::::
         :: total energy             -703.652718103440 Eh   ::
         :: total w/o Gsasa/hb       -703.559426879950 Eh   ::
         :: gradient norm               0.807703720180 Eh/α ::
         :: HOMO-LUMO gap               1.499370243486 eV   ::
         ::.................................................::
         :: SCC energy               -712.479734705532 Eh   ::
         :: -> isotropic ES             2.138383372488 Eh   ::
         :: -> anisotropic ES          -0.079700990555 Eh   ::
         :: -> anisotropic XC           0.248495082856 Eh   ::
         :: -> dispersion              -0.563586984567 Eh   ::
         :: -> Gsolv                   -0.506194520629 Eh   ::
         ::    -> Gborn                -0.412903297139 Eh   ::
         ::    -> Gsasa                -0.023403166811 Eh   ::
         ::    -> Ghb                  -0.071745499806 Eh   ::
         ::    -> Gshift                0.001857443127 Eh   ::
         :: repulsion energy            8.774589155836 Eh   ::
         :: add. restraining            0.000000000000 Eh   ::
         :::::::::::::::::::::::::::::::::::::::::::::::::::::

           -------------------------------------------------
          |                Property Printout                |
           -------------------------------------------------

    * Orbital Energies and Occupations

         #    Occupation            Energy/Eh            Energy/eV
      -------------------------------------------------------------
         1        2.0000           -0.7408773             -20.1603
       ...           ...                  ...                  ...
       608        2.0000           -0.3747196             -10.1966
       609        2.0000           -0.3736113             -10.1665
       610        2.0000           -0.3709926             -10.0952
       611        2.0000           -0.3666027              -9.9758
       612        2.0000           -0.3659118              -9.9570
       613        2.0000           -0.3658122              -9.9543
       614        2.0000           -0.3657247              -9.9519
       615        2.0000           -0.3650829              -9.9344
       616        2.0000           -0.3599399              -9.7945
       617        2.0000           -0.3597017              -9.7880
       618        2.0000           -0.3566214              -9.7042
       619        2.0000           -0.3548944              -9.6572
       620        2.0000           -0.3540793              -9.6350 (HOMO)
       621                         -0.2989785              -8.1356 (LUMO)
       622                         -0.2931177              -7.9761
       623                         -0.2926594              -7.9637
       624                         -0.2925752              -7.9614
       625                         -0.2904186              -7.9027
       626                         -0.2890017              -7.8641
       627                         -0.2886211              -7.8538
       628                         -0.2867071              -7.8017
       629                         -0.2856422              -7.7727
       630                         -0.2831963              -7.7062
       631                         -0.2804100              -7.6303
       ...                                ...                  ...
      1121                          0.6611597              17.9911
      -------------------------------------------------------------
                  HL-Gap            0.0551008 Eh            1.4994 eV
             Fermi-level           -0.3260927 Eh           -8.8734 eV

   #   Z        covCN         q      C6AA      α(0)
   1   7 N      2.637    -0.384    29.940     8.127
   2   6 C      3.783     0.054    19.696     6.322
   3   6 C      2.769     0.195    23.830     7.995
   4   8 O      0.856    -0.394    21.556     6.225
   5   6 C      3.803    -0.096    22.337     6.729
   6   6 C      2.682     0.373    20.673     7.441
   7   8 O      0.856    -0.613    26.434     6.893
   8   8 O      0.856    -0.603    26.193     6.862
   9   1 H      0.860     0.156     1.360     1.827
  10   1 H      0.923     0.035     2.517     2.481
  11   1 H      0.925     0.040     2.452     2.449
  12   1 H      0.924     0.029     2.594     2.519
  13   7 N      2.636    -0.374    29.668     8.090
  14   6 C      3.783     0.037    19.965     6.365
  15   6 C      2.765     0.198    23.773     7.985
  16   8 O      0.856    -0.345    20.622     6.088
  17   6 C      3.809    -0.052    21.499     6.600
  18   6 C      3.809    -0.086    22.142     6.698
  19   6 C      2.746     0.290    22.076     7.693
  20   8 O      0.859    -0.518    24.183     6.593
  21   7 N      2.638    -0.300    27.725     7.820
  22   1 H      0.860     0.169     1.280     1.772
  23   1 H      0.924     0.060     2.196     2.317
  24   1 H      0.924     0.054     2.275     2.359
  25   1 H      0.924     0.033     2.548     2.496
  26   1 H      0.925     0.045     2.385     2.415
  27   1 H      0.924     0.068     2.107     2.270
  28   1 H      0.859     0.234     0.950     1.527
  29   1 H      0.860     0.198     1.114     1.653
  30   7 N      2.636    -0.395    30.240     8.167
  31   6 C      3.789     0.041    19.903     6.354
  32   6 C      2.760     0.270    22.446     7.759
  33   8 O      0.859    -0.505    23.886     6.553
  34   6 C      3.807    -0.066    21.754     6.640
  35   6 C      3.809    -0.071    21.852     6.654
  36   6 C      3.802    -0.090    22.225     6.712
  37   6 C      3.736    -0.049    21.537     6.623
  38   7 N      3.482    -0.150    24.235     7.312
  39   1 H      0.860     0.175     1.244     1.748
  40   1 H      0.924     0.014     2.828     2.630
  41   1 H      0.924     0.053     2.279     2.361
  42   1 H      0.924     0.034     2.526     2.485
  43   1 H      0.924     0.047     2.354     2.399
  44   1 H      0.924     0.053     2.281     2.362
  45   1 H      0.924     0.074     2.039     2.233
  46   1 H      0.925     0.082     1.963     2.191
  47   1 H      0.925     0.115     1.655     2.012
  48   1 H      0.924     0.105     1.741     2.063
  49   1 H      0.858     0.309     0.687     1.298
  50   1 H      0.859     0.301     0.710     1.320
  51   1 H      0.859     0.306     0.695     1.306
  52   7 N      2.691    -0.186    25.040     7.432
  53   6 C      3.796     0.036    19.976     6.364
  54   6 C      2.769     0.198    23.771     7.985
  55   8 O      0.856    -0.363    20.949     6.137
  56   6 C      3.814    -0.071    21.843     6.652
  57   6 C      2.968    -0.000    28.034     8.685
  58   6 C      2.924    -0.039    28.980     8.828
  59   6 C      2.926    -0.043    29.074     8.843
  60   6 C      2.917    -0.057    29.428     8.896
  61   6 C      2.917    -0.074    29.835     8.957
  62   6 C      2.847     0.148    24.783     8.159
  63   8 O      1.659    -0.431    21.458     6.253
  64   1 H      0.860     0.217     1.024     1.585
  65   1 H      0.924     0.078     2.004     2.214
  66   1 H      0.924     0.078     1.999     2.211
  67   1 H      0.924     0.062     2.174     2.306
  68   1 H      0.926     0.042     2.429     2.437
  69   1 H      0.926     0.046     2.371     2.408
  70   1 H      0.926     0.039     2.459     2.452
  71   1 H      0.925     0.048     2.349     2.397
  72   1 H      0.805     0.346     0.597     1.213
  73   7 N      2.637    -0.380    29.831     8.112
  74   6 C      3.785     0.035    19.996     6.369
  75   6 C      2.766     0.202    23.705     7.974
  76   8 O      0.856    -0.371    21.104     6.159
  77   6 C      3.852    -0.014    20.784     6.484
  78   6 C      3.756    -0.118    22.817     6.811
  79   6 C      3.757    -0.114    22.740     6.799
  80   1 H      0.860     0.164     1.312     1.794
  81   1 H      0.924     0.051     2.312     2.378
  82   1 H      0.924     0.040     2.444     2.445
  83   1 H      0.925     0.054     2.268     2.355
  84   1 H      0.925     0.033     2.538     2.491
  85   1 H      0.925     0.042     2.418     2.432
  86   1 H      0.925     0.051     2.302     2.372
  87   1 H      0.925     0.039     2.456     2.451
  88   1 H      0.925     0.045     2.377     2.411
  89   7 N      2.635    -0.379    29.800     8.108
  90   6 C      3.782     0.042    19.886     6.352
  91   6 C      2.767     0.196    23.819     7.993
  92   8 O      0.856    -0.367    21.024     6.148
  93   6 C      3.826    -0.059    21.618     6.616
  94   6 C      3.794    -0.012    20.800     6.495
  95  16 S      1.958    -0.216   150.262    20.631
  96   6 C      3.745    -0.058    21.693     6.644
  97   1 H      0.860     0.159     1.341     1.814
  98   1 H      0.924     0.063     2.170     2.304
  99   1 H      0.924     0.047     2.357     2.401
 100   1 H      0.924     0.047     2.359     2.402
 101   1 H      0.925     0.054     2.265     2.354
 102   1 H      0.925     0.057     2.238     2.340
 103   1 H      0.925     0.061     2.183     2.310
 104   1 H      0.925     0.062     2.176     2.307
 105   1 H      0.925     0.050     2.315     2.379
 106   7 N      2.638    -0.394    30.212     8.163
 107   6 C      3.785     0.046    19.823     6.342
 108   6 C      2.767     0.199    23.757     7.982
 109   8 O      0.856    -0.357    20.842     6.121
 110   6 C      3.813    -0.074    21.895     6.660
 111   6 C      2.970     0.004    27.940     8.670
 112   6 C      2.924    -0.038    28.955     8.824
 113   6 C      2.926    -0.044    29.086     8.844
 114   6 C      2.918    -0.077    29.911     8.969
 115   6 C      2.917    -0.061    29.521     8.910
 116   6 C      2.846     0.139    24.965     8.189
 117   8 O      1.659    -0.421    21.252     6.223
 118   1 H      0.860     0.187     1.177     1.700
 119   1 H      0.924     0.047     2.359     2.402
 120   1 H      0.925     0.057     2.237     2.339
 121   1 H      0.925     0.047     2.354     2.399
 122   1 H      0.926     0.047     2.360     2.402
 123   1 H      0.926     0.041     2.432     2.439
 124   1 H      0.926     0.038     2.481     2.463
 125   1 H      0.926     0.051     2.307     2.375
 126   1 H      0.805     0.329     0.641     1.257
 127   7 N      2.635    -0.403    30.443     8.195
 128   6 C      3.785     0.038    19.951     6.362
 129   6 C      2.765     0.198    23.787     7.987
 130   8 O      0.856    -0.369    21.078     6.155
 131   6 C      3.851    -0.018    20.853     6.495
 132   6 C      3.802    -0.053    21.530     6.606
 133   6 C      3.755    -0.113    22.721     6.797
 134   6 C      3.752    -0.112    22.699     6.794
 135   1 H      0.860     0.184     1.190     1.709
 136   1 H      0.924     0.046     2.374     2.409
 137   1 H      0.924     0.027     2.634     2.538
 138   1 H      0.924     0.038     2.481     2.463
 139   1 H      0.924     0.035     2.519     2.482
 140   1 H      0.925     0.053     2.289     2.366
 141   1 H      0.925     0.042     2.425     2.435
 142   1 H      0.925     0.043     2.406     2.426
 143   1 H      0.925     0.039     2.461     2.453
 144   1 H      0.925     0.039     2.461     2.453
 145   1 H      0.925     0.042     2.424     2.435
 146   7 N      2.639    -0.392    30.139     8.153
 147   6 C      3.782     0.039    19.938     6.361
 148   6 C      2.772     0.205    23.650     7.965
 149   8 O      0.856    -0.382    21.319     6.190
 150   6 C      3.756    -0.110    22.666     6.788
 151   1 H      0.860     0.165     1.302     1.788
 152   1 H      0.924     0.073     2.056     2.242
 153   1 H      0.925     0.045     2.383     2.414
 154   1 H      0.925     0.054     2.270     2.356
 155   1 H      0.925     0.058     2.218     2.329
 156   7 N      2.636    -0.379    29.796     8.107
 157   6 C      3.787     0.030    20.077     6.382
 158   6 C      2.757     0.268    22.477     7.764
 159   8 O      0.858    -0.475    23.239     6.463
 160   6 C      3.813    -0.071    21.840     6.652
 161   6 C      2.968     0.002    27.990     8.678
 162   6 C      2.925    -0.044    29.105     8.847
 163   6 C      2.924    -0.038    28.951     8.824
 164   6 C      2.918    -0.062    29.547     8.914
 165   6 C      2.918    -0.073    29.822     8.955
 166   6 C      2.845     0.143    24.873     8.174
 167   8 O      1.657    -0.440    21.635     6.279
 168   1 H      0.860     0.173     1.252     1.753
 169   1 H      0.924     0.039     2.466     2.456
 170   1 H      0.924     0.047     2.363     2.404
 171   1 H      0.924     0.035     2.517     2.481
 172   1 H      0.926     0.051     2.311     2.377
 173   1 H      0.926     0.039     2.463     2.454
 174   1 H      0.926     0.050     2.325     2.384
 175   1 H      0.926     0.035     2.511     2.478
 176   1 H      0.802     0.344     0.602     1.219
 177   7 N      2.691    -0.163    24.535     7.357
 178   6 C      3.795     0.024    20.182     6.397
 179   6 C      2.766     0.272    22.412     7.753
 180   8 O      0.859    -0.480    23.350     6.479
 181   6 C      3.813    -0.066    21.761     6.640
 182   6 C      2.970     0.002    27.982     8.677
 183   6 C      2.924    -0.041    29.009     8.833
 184   6 C      2.925    -0.037    28.910     8.818
 185   6 C      2.917    -0.067    29.672     8.932
 186   6 C      2.917    -0.077    29.935     8.972
 187   6 C      2.847     0.130    25.142     8.218
 188   8 O      1.658    -0.423    21.304     6.231
 189   1 H      0.860     0.199     1.113     1.653
 190   1 H      0.924     0.083     1.944     2.180
 191   1 H      0.924     0.053     2.279     2.361
 192   1 H      0.925     0.047     2.362     2.403
 193   1 H      0.926     0.040     2.447     2.446
 194   1 H      0.926     0.034     2.532     2.488
 195   1 H      0.926     0.076     2.023     2.224
 196   1 H      0.926     0.061     2.192     2.315
 197   1 H      0.804     0.357     0.572     1.188
 198   7 N      2.689    -0.170    24.686     7.379
 199   6 C      3.798     0.032    20.034     6.373
 200   6 C      2.765     0.208    23.585     7.953
 201   8 O      0.856    -0.359    20.876     6.126
 202   6 C      3.677     0.096    19.212     6.279
 203   8 O      1.652    -0.487    22.621     6.420
 204   1 H      0.860     0.229     0.971     1.544
 205   1 H      0.924     0.078     2.003     2.213
 206   1 H      0.923     0.028     2.612     2.527
 207   1 H      0.923     0.035     2.514     2.480
 208   1 H      0.801     0.321     0.662     1.279
 209   7 N      2.636    -0.373    29.634     8.085
 210   6 C      3.787     0.042    19.881     6.351
 211   6 C      2.757     0.270    22.431     7.756
 212   8 O      0.859    -0.495    23.676     6.524
 213   6 C      3.813    -0.089    22.188     6.704
 214   6 C      2.743     0.291    22.069     7.692
 215   8 O      0.859    -0.502    23.833     6.545
 216   7 N      2.639    -0.308    27.921     7.848
 217   1 H      0.860     0.151     1.395     1.850
 218   1 H      0.924     0.038     2.478     2.462
 219   1 H      0.924     0.078     1.996     2.209
 220   1 H      0.924     0.030     2.580     2.512
 221   1 H      0.860     0.218     1.019     1.582
 222   1 H      0.860     0.218     1.020     1.582
 223   7 N      2.693    -0.174    24.766     7.391
 224   6 C      3.795     0.015    20.326     6.420
 225   6 C      2.760     0.272    22.396     7.750
 226   8 O      0.859    -0.514    24.090     6.581
 227   6 C      3.807    -0.088    22.177     6.704
 228   6 C      3.801    -0.087    22.163     6.703
 229   6 C      3.803    -0.098    22.371     6.734
 230   6 C      3.731    -0.055    21.664     6.644
 231   7 N      3.476    -0.136    23.946     7.268
 232   1 H      0.860     0.229     0.969     1.542
 233   1 H      0.924     0.081     1.972     2.196
 234   1 H      0.924     0.082     1.962     2.191
 235   1 H      0.924     0.063     2.169     2.303
 236   1 H      0.925     0.061     2.188     2.313
 237   1 H      0.924     0.066     2.135     2.285
 238   1 H      0.925     0.086     1.914     2.163
 239   1 H      0.924     0.090     1.877     2.142
 240   1 H      0.925     0.115     1.655     2.012
 241   1 H      0.925     0.129     1.543     1.942
 242   1 H      0.850     0.304     0.702     1.313
 243   1 H      0.859     0.267     0.820     1.418
 244   1 H      0.859     0.296     0.725     1.334
 245   7 N      2.689    -0.171    24.699     7.381
 246   6 C      3.799     0.022    20.213     6.401
 247   6 C      2.758     0.268    22.473     7.763
 248   8 O      0.859    -0.461    22.942     6.422
 249   6 C      3.809    -0.070    21.835     6.651
 250   6 C      3.849    -0.009    20.701     6.472
 251   6 C      3.757    -0.120    22.853     6.816
 252   6 C      3.756    -0.100    22.458     6.757
 253   1 H      0.860     0.240     0.922     1.504
 254   1 H      0.924     0.059     2.214     2.327
 255   1 H      0.924     0.063     2.165     2.301
 256   1 H      0.924     0.049     2.335     2.390
 257   1 H      0.924     0.029     2.607     2.525
 258   1 H      0.925     0.036     2.501     2.473
 259   1 H      0.925     0.050     2.324     2.384
 260   1 H      0.925     0.058     2.218     2.329
 261   1 H      0.925     0.030     2.584     2.514
 262   1 H      0.925     0.036     2.507     2.476
 263   1 H      0.925     0.012     2.863     2.646
 264   7 N      2.688    -0.163    24.528     7.356
 265   6 C      3.746    -0.034    21.241     6.574
 266   6 C      2.753     0.273    22.376     7.746
 267   8 O      0.859    -0.495    23.679     6.524
 268   1 H      0.860     0.199     1.113     1.653
 269   1 H      0.923     0.102     1.771     2.081
 270   1 H      0.924     0.103     1.760     2.074
 271   7 N      2.686    -0.157    24.404     7.337
 272   6 C      3.745    -0.041    21.383     6.596
 273   6 C      2.747     0.265    22.530     7.772
 274   8 O      0.858    -0.459    22.892     6.415
 275   1 H      0.860     0.240     0.923     1.505
 276   1 H      0.924     0.108     1.710     2.045
 277   1 H      0.924     0.082     1.956     2.187
 278   7 N      2.692    -0.186    25.038     7.432
 279   6 C      3.791     0.020    20.256     6.410
 280   6 C      2.754     0.278    22.299     7.733
 281   8 O      0.858    -0.474    23.211     6.459
 282   6 C      3.757    -0.126    22.962     6.832
 283   1 H      0.860     0.218     1.018     1.580
 284   1 H      0.923     0.097     1.812     2.105
 285   1 H      0.925     0.065     2.139     2.287
 286   1 H      0.925     0.085     1.926     2.170
 287   1 H      0.925     0.052     2.297     2.370
 288   7 N      2.687    -0.186    25.028     7.430
 289   6 C      3.794     0.038    19.939     6.359
 290   6 C      2.756     0.269    22.462     7.761
 291   8 O      0.859    -0.486    23.480     6.497
 292   6 C      3.803    -0.098    22.377     6.735
 293   6 C      2.685     0.366    20.790     7.462
 294   8 O      0.857    -0.591    25.909     6.824
 295   8 O      0.856    -0.602    26.161     6.857
 296   1 H      0.860     0.199     1.109     1.649
 297   1 H      0.923     0.068     2.105     2.269
 298   1 H      0.924     0.049     2.339     2.391
 299   1 H      0.924     0.044     2.399     2.422
 300   7 N      2.685    -0.154    24.325     7.325
 301   6 C      3.745    -0.031    21.203     6.568
 302   6 C      2.750     0.279    22.283     7.730
 303   8 O      0.858    -0.471    23.148     6.451
 304   1 H      0.860     0.207     1.072     1.622
 305   1 H      0.924     0.098     1.808     2.102
 306   1 H      0.924     0.107     1.719     2.050
 307   7 N      2.688    -0.178    24.858     7.405
 308   6 C      3.795     0.024    20.168     6.395
 309   6 C      2.757     0.273    22.382     7.747
 310   8 O      0.858    -0.499    23.761     6.535
 311   6 C      3.806    -0.074    21.906     6.663
 312   6 C      3.802    -0.071    21.849     6.655
 313   6 C      3.803    -0.088    22.169     6.703
 314   6 C      3.731    -0.035    21.288     6.586
 315   7 N      3.481    -0.163    24.519     7.354
 316   1 H      0.860     0.196     1.126     1.662
 317   1 H      0.923     0.079     1.991     2.207
 318   1 H      0.924     0.069     2.092     2.262
 319   1 H      0.925     0.061     2.188     2.313
 320   1 H      0.924     0.041     2.430     2.438
 321   1 H      0.924     0.044     2.400     2.423
 322   1 H      0.924     0.075     2.035     2.231
 323   1 H      0.924     0.085     1.924     2.169
 324   1 H      0.924     0.115     1.653     2.011
 325   1 H      0.924     0.097     1.811     2.104
 326   1 H      0.859     0.278     0.783     1.386
 327   1 H      0.856     0.294     0.731     1.340
 328   1 H      0.859     0.285     0.759     1.365
 329   7 N      2.694    -0.192    25.174     7.452
 330   6 C      3.797     0.021    20.233     6.405
 331   6 C      2.766     0.271    22.413     7.753
 332   8 O      0.859    -0.478    23.304     6.472
 333   6 C      3.728     0.128    18.597     6.157
 334   8 O      1.655    -0.483    22.533     6.408
 335   6 C      3.753    -0.126    22.978     6.836
 336   1 H      0.860     0.235     0.944     1.522
 337   1 H      0.924     0.051     2.302     2.373
 338   1 H      0.923     0.028     2.621     2.532
 339   1 H      0.803     0.324     0.653     1.270
 340   1 H      0.925     0.075     2.028     2.227
 341   1 H      0.925     0.047     2.353     2.399
 342   1 H      0.925     0.050     2.318     2.381
 343   7 N      2.691    -0.176    24.806     7.397
 344   6 C      3.803     0.029    20.092     6.382
 345   6 C      2.759     0.267    22.488     7.766
 346   8 O      0.858    -0.520    24.230     6.600
 347   6 C      3.807    -0.041    21.309     6.571
 348   6 C      3.799    -0.092    22.256     6.717
 349   6 C      2.686     0.370    20.723     7.450
 350   8 O      0.856    -0.608    26.316     6.878
 351   8 O      0.856    -0.621    26.651     6.921
 352   1 H      0.860     0.196     1.126     1.662
 353   1 H      0.924     0.077     2.012     2.218
 354   1 H      0.924     0.044     2.399     2.422
 355   1 H      0.924     0.024     2.678     2.559
 356   1 H      0.924     0.027     2.626     2.534
 357   1 H      0.924     0.032     2.562     2.503
 358   7 N      2.692    -0.169    24.658     7.375
 359   6 C      3.799     0.018    20.282     6.412
 360   6 C      2.763     0.267    22.489     7.766
 361   8 O      0.859    -0.475    23.241     6.464
 362   6 C      3.850    -0.024    20.972     6.514
 363   6 C      3.756    -0.115    22.760     6.802
 364   6 C      3.755    -0.124    22.942     6.830
 365   1 H      0.860     0.246     0.899     1.485
 366   1 H      0.924     0.058     2.223     2.331
 367   1 H      0.924     0.066     2.129     2.282
 368   1 H      0.925     0.066     2.132     2.283
 369   1 H      0.925     0.032     2.563     2.503
 370   1 H      0.925     0.035     2.514     2.479
 371   1 H      0.925     0.072     2.067     2.248
 372   1 H      0.925     0.046     2.371     2.408
 373   1 H      0.925     0.054     2.273     2.358
 374   7 N      2.689    -0.154    24.323     7.325
 375   6 C      3.799     0.015    20.323     6.419
 376   6 C      2.766     0.200    23.747     7.981
 377   8 O      0.856    -0.345    20.608     6.086
 378   6 C      3.851    -0.010    20.718     6.474
 379   6 C      3.754    -0.116    22.774     6.805
 380   6 C      3.755    -0.125    22.945     6.830
 381   1 H      0.860     0.203     1.089     1.635
 382   1 H      0.924     0.099     1.793     2.094
 383   1 H      0.924     0.035     2.511     2.478
 384   1 H      0.925     0.045     2.386     2.416
 385   1 H      0.925     0.037     2.492     2.469
 386   1 H      0.925     0.060     2.201     2.320
 387   1 H      0.925     0.052     2.293     2.368
 388   1 H      0.925     0.056     2.249     2.345
 389   1 H      0.925     0.054     2.274     2.358
 390   7 N      2.633    -0.384    29.926     8.125
 391   6 C      3.782     0.026    20.153     6.395
 392   6 C      2.764     0.210    23.546     7.947
 393   8 O      0.856    -0.364    20.974     6.140
 394   6 C      3.724     0.114    18.811     6.193
 395   8 O      1.656    -0.494    22.758     6.440
 396   6 C      3.751    -0.129    23.033     6.844
 397   1 H      0.859     0.160     1.338     1.812
 398   1 H      0.924     0.084     1.934     2.175
 399   1 H      0.922     0.026     2.644     2.543
 400   1 H      0.805     0.335     0.625     1.241
 401   1 H      0.925     0.058     2.222     2.331
 402   1 H      0.925     0.049     2.338     2.391
 403   1 H      0.925     0.055     2.258     2.350
 404   7 N      2.637    -0.379    29.790     8.106
 405   6 C      3.781     0.045    19.836     6.345
 406   6 C      2.768     0.203    23.686     7.971
 407   8 O      0.856    -0.364    20.976     6.140
 408   6 C      3.757    -0.118    22.820     6.811
 409   1 H      0.860     0.170     1.274     1.768
 410   1 H      0.924     0.048     2.345     2.395
 411   1 H      0.925     0.042     2.422     2.434
 412   1 H      0.925     0.066     2.129     2.282
 413   1 H      0.925     0.056     2.248     2.345
 414   7 N      2.636    -0.392    30.142     8.154
 415   6 C      3.784     0.036    19.978     6.367
 416   6 C      2.756     0.268    22.467     7.762
 417   8 O      0.858    -0.472    23.175     6.454
 418   6 C      3.757    -0.115    22.746     6.800
 419   1 H      0.860     0.174     1.246     1.749
 420   1 H      0.924     0.027     2.636     2.539
 421   1 H      0.925     0.043     2.411     2.428
 422   1 H      0.925     0.044     2.395     2.420
 423   1 H      0.925     0.057     2.237     2.339
 424   7 N      2.690    -0.183    24.976     7.422
 425   6 C      3.792     0.030    20.082     6.382
 426   6 C      2.766     0.199    23.760     7.983
 427   8 O      0.856    -0.363    20.951     6.137
 428   6 C      3.757    -0.130    23.057     6.846
 429   1 H      0.860     0.203     1.093     1.637
 430   1 H      0.924     0.087     1.906     2.159
 431   1 H      0.925     0.076     2.016     2.221
 432   1 H      0.925     0.078     1.995     2.209
 433   1 H      0.925     0.065     2.147     2.291
 434   1 H      0.862     0.181     1.209     1.722
 435   1 H      0.930     0.076     2.025     2.225
 436   1 H      0.862     0.180     1.214     1.726
 437   1 H      0.930     0.063     2.164     2.300
 438   1 H      0.862     0.171     1.266     1.762
 439   1 H      0.930     0.079     1.990     2.206
 440   1 H      0.862     0.173     1.253     1.753
 441   1 H      0.930     0.065     2.146     2.291
 442   1 H      0.862     0.183     1.195     1.712
 443   1 H      0.930     0.065     2.146     2.291
 444   1 H      0.862     0.170     1.275     1.768
 445   1 H      0.930     0.070     2.080     2.255
 446   1 H      0.862     0.180     1.216     1.727
 447   1 H      0.930     0.063     2.162     2.299
 448   1 H      0.862     0.179     1.218     1.729
 449   1 H      0.930     0.061     2.186     2.312
 450   1 H      0.862     0.183     1.194     1.712
 451   1 H      0.930     0.081     1.971     2.195
 452   1 H      0.862     0.189     1.166     1.691
 453   1 H      0.930     0.095     1.835     2.118
 454   1 H      0.862     0.192     1.145     1.676
 455   1 H      0.930     0.067     2.116     2.275
 456   1 H      0.862     0.175     1.242     1.745
 457   1 H      0.930     0.056     2.251     2.346
 458   1 H      0.862     0.173     1.257     1.756
 459   1 H      0.930     0.089     1.891     2.150

 Mol. C6AA /au·bohr⁶  :    1938774.223595
 Mol. C8AA /au·bohr⁸  :   43288948.480066
 Mol. α(0) /au        :       2093.200752


Wiberg/Mayer (AO) data.
largest (>0.10) Wiberg bond orders for each atom
          total WBO             WBO to atom ...
     1  N   2.997        C    2 1.012    H    9 0.957    H  434 0.956
     2  C   3.986        N    1 1.012    C    3 0.981    C    5 0.965    H   10 0.952
     3  C   3.898        O    4 1.867    C    2 0.981    H  435 0.953
     4  O   2.010        C    3 1.867
     5  C   3.981        H   11 0.977    C    2 0.965    H   12 0.964    C    6 0.892
     6  C   3.937        O    8 1.539    O    7 1.468    C    5 0.892
     7  O   1.850        C    6 1.468    O    8 0.212
     8  O   1.843        C    6 1.539    O    7 0.212
     9  H   0.976        N    1 0.957
    10  H   0.999        C    2 0.952
    11  H   0.998        C    5 0.977
    12  H   0.999        C    5 0.964
    13  N   3.005        C   14 1.031    H   22 0.953    H  436 0.952
    14  C   3.990        N   13 1.031    C   15 0.978    C   17 0.955    H   23 0.943
    15  C   3.907        O   16 1.910    C   14 0.978    H  437 0.955
    16  O   2.050        C   15 1.910
    17  C   3.994        C   18 0.987    H   25 0.977    H   24 0.970    C   14 0.955
    18  C   3.996        C   17 0.987    H   26 0.971    C   19 0.969    H   27 0.961
    19  C   3.943        O   20 1.615    N   21 1.328    C   18 0.969
    20  O   1.911        C   19 1.615    N   21 0.198
    21  N   3.402        C   19 1.328    H   29 0.936    H   28 0.862    O   20 0.198
    22  H   0.971        N   13 0.953
    23  H   0.996        C   14 0.943
    24  H   0.997        C   17 0.970
    25  H   0.999        C   17 0.977
    26  H   0.998        C   18 0.971
    27  H   0.995        C   18 0.961
    28  H   0.945        N   21 0.862
    29  H   0.960        N   21 0.936
    30  N   2.994        C   31 1.014    H  438 0.958    H   39 0.950
    31  C   3.985        N   30 1.014    C   34 0.971    H   40 0.960    C   32 0.942
    32  C   3.940        O   33 1.635    N   52 1.288    C   31 0.942
    33  O   1.935        C   32 1.635    N   52 0.190
    34  C   3.992        C   35 1.003    H   42 0.977    H   41 0.972    C   31 0.971
    35  C   3.991        C   34 1.003    C   36 1.002    H   43 0.976    H   44 0.967
    36  C   3.986        C   37 1.011    C   35 1.002    H   46 0.972    H   45 0.971
    37  C   3.922        C   36 1.011    H   48 0.966    H   47 0.964    N   38 0.961
    38  N   3.662        C   37 0.961    H   50 0.894    H   51 0.893    H   49 0.893
    39  H   0.969        N   30 0.950
    40  H   1.000        C   31 0.960
    41  H   0.997        C   34 0.972
    42  H   0.999        C   34 0.977
    43  H   0.998        C   35 0.976
    44  H   0.997        C   35 0.967
    45  H   0.994        C   36 0.971
    46  H   0.993        C   36 0.972
    47  H   0.987        C   37 0.964
    48  H   0.989        C   37 0.966
    49  H   0.904        N   38 0.893
    50  H   0.909        N   38 0.894
    51  H   0.906        N   38 0.893
    52  N   3.453        C   32 1.288    C   53 0.988    H   64 0.888    O   33 0.190
    53  C   3.971        N   52 0.988    C   54 0.972    H   65 0.948    C   56 0.946
    54  C   3.899        O   55 1.893    C   53 0.972    H  439 0.952
    55  O   2.038        C   54 1.893
    56  C   3.986        C   57 1.007    H   66 0.963    H   67 0.963    C   53 0.946
    57  C   3.987        C   59 1.408    C   58 1.399    C   56 1.007
    58  C   3.989        C   60 1.463    C   57 1.399    H   68 0.965    C   61 0.104
    59  C   3.989        C   61 1.450    C   57 1.408    H   69 0.966    C   60 0.106
    60  C   3.988        C   58 1.463    C   62 1.359    H   70 0.968    C   59 0.106
    61  C   3.985        C   59 1.450    C   62 1.370    H   71 0.965    C   58 0.104
    62  C   3.936        C   61 1.370    C   60 1.359    O   63 1.079
    63  O   2.099        C   62 1.079    H   72 0.859
    64  H   0.953        N   52 0.888
    65  H   0.994        C   53 0.948
    66  H   0.993        C   56 0.963
    67  H   0.995        C   56 0.963
    68  H   0.998        C   58 0.965
    69  H   0.998        C   59 0.966
    70  H   0.998        C   60 0.968
    71  H   0.997        C   61 0.965
    72  H   0.880        O   63 0.859
    73  N   2.999        C   74 1.020    H   80 0.956    H  440 0.951
    74  C   3.986        N   73 1.020    C   75 0.984    H   81 0.955    C   77 0.935
    75  C   3.900        O   76 1.897    C   74 0.984    H  441 0.955
    76  O   2.038        C   75 1.897
    77  C   3.992        C   78 1.008    C   79 1.008    H   82 0.967    C   74 0.935
    78  C   3.995        C   77 1.008    H   84 0.985    H   85 0.984    H   83 0.984
    79  C   3.994        C   77 1.008    H   87 0.982    H   86 0.982    H   88 0.978
    80  H   0.973        N   73 0.956
    81  H   0.997        C   74 0.955
    82  H   0.998        C   77 0.967
    83  H   0.997        C   78 0.984
    84  H   0.999        C   78 0.985
    85  H   0.998        C   78 0.984
    86  H   0.996        C   79 0.982
    87  H   0.998        C   79 0.982
    88  H   0.998        C   79 0.978
    89  N   3.002        C   90 1.025    H   97 0.956    H  442 0.955
    90  C   3.988        N   89 1.025    C   91 0.974    C   93 0.958    H   98 0.950
    91  C   3.901        O   92 1.901    C   90 0.974    H  443 0.955
    92  O   2.038        C   91 1.901
    93  C   3.994        C   94 1.009    H  100 0.972    H   99 0.967    C   90 0.958
    94  C   3.982        C   93 1.009    S   95 0.991    H  102 0.970    H  101 0.970
    95  S   2.093        C   96 1.009    C   94 0.991
    96  C   3.976        S   95 1.009    H  105 0.985    H  104 0.981    H  103 0.977
    97  H   0.975        N   89 0.956
    98  H   0.996        C   90 0.950
    99  H   0.998        C   93 0.967
   100  H   0.998        C   93 0.972
   101  H   0.997        C   94 0.970
   102  H   0.995        C   94 0.970
   103  H   0.996        C   96 0.977
   104  H   0.996        C   96 0.981
   105  H   0.997        C   96 0.985
   106  N   2.993        C  107 1.019    H  444 0.952    H  118 0.918
   107  C   3.987        N  106 1.019    C  108 0.983    H  119 0.963    C  110 0.930
   108  C   3.894        O  109 1.885    C  107 0.983    H  445 0.954
   109  O   2.063        C  108 1.885
   110  C   3.992        C  111 1.012    H  120 0.966    H  121 0.962    C  107 0.930
   111  C   3.989        C  112 1.407    C  113 1.399    C  110 1.012
   112  C   3.990        C  114 1.446    C  111 1.407    H  122 0.966    C  115 0.106
[...]
   118  H   0.965        N  106 0.918
   119  H   0.997        C  107 0.963
   120  H   0.996        C  110 0.966
   121  H   0.997        C  110 0.962
   122  H   0.998        C  112 0.966
   123  H   0.998        C  113 0.965
   124  H   0.998        C  114 0.965
   125  H   0.997        C  115 0.966
   126  H   0.892        O  117 0.870
   127  N   2.990        C  128 1.021    H  446 0.948    H  135 0.920
   128  C   3.987        N  127 1.021    C  129 0.992    H  136 0.958    C  131 0.927
   129  C   3.897        O  130 1.861    C  128 0.992    H  447 0.957
   130  O   2.051        C  129 1.861
   131  C   3.992        C  133 1.006    C  132 0.999    H  137 0.968    C  128 0.927
   132  C   3.996        C  134 1.017    C  131 0.999    H  138 0.973    H  139 0.967
   133  C   3.995        C  131 1.006    H  141 0.985    H  142 0.982    H  140 0.980
   134  C   3.996        C  132 1.017    H  144 0.987    H  143 0.986    H  145 0.985
   135  H   0.966        N  127 0.920
   136  H   0.997        C  128 0.958
   137  H   0.999        C  131 0.968
   138  H   0.999        C  132 0.973
   139  H   0.999        C  132 0.967
   140  H   0.996        C  133 0.980
   141  H   0.998        C  133 0.985
   142  H   0.998        C  133 0.982
   143  H   0.998        C  134 0.986
   144  H   0.998        C  134 0.987
   145  H   0.998        C  134 0.985
   146  N   2.997        C  147 1.023    H  448 0.953    H  151 0.951
   147  C   3.984        N  146 1.023    C  148 0.993    C  150 0.957    H  152 0.939
   148  C   3.899        O  149 1.880    C  147 0.993    H  449 0.957
   149  O   2.032        C  148 1.880
   150  C   3.992        H  155 0.984    H  153 0.980    H  154 0.980    C  147 0.957
   151  H   0.973        N  146 0.951
   152  H   0.995        C  147 0.939
   153  H   0.998        C  150 0.980
   154  H   0.997        C  150 0.980
   155  H   0.997        C  150 0.984
   156  N   2.998        C  157 1.026    H  168 0.951    H  450 0.948
   157  C   3.988        N  156 1.026    H  169 0.961    C  158 0.944    C  160 0.943
   158  C   3.940        O  159 1.615    N  177 1.301    C  157 0.944
   159  O   1.965        C  158 1.615    N  177 0.190
   160  C   3.994        C  161 1.011    H  170 0.967    H  171 0.965    C  157 0.943
   161  C   3.988        C  163 1.408    C  162 1.397    C  160 1.011
   162  C   3.989        C  164 1.461    C  161 1.397    H  172 0.967    C  165 0.104
   163  C   3.991        C  165 1.449    C  161 1.408    H  173 0.968    C  164 0.107
   164  C   3.987        C  162 1.461    C  166 1.360    H  174 0.968    C  163 0.107
   165  C   3.988        C  163 1.449    C  166 1.372    H  175 0.967    C  162 0.104
   166  C   3.935        C  165 1.372    C  164 1.360    O  167 1.070
   167  O   2.085        C  166 1.070    H  176 0.859
   168  H   0.970        N  156 0.951
   169  H   0.998        C  157 0.961
   170  H   0.997        C  160 0.967
   171  H   0.998        C  160 0.965
   172  H   0.997        C  162 0.967
   173  H   0.998        C  163 0.968
   174  H   0.997        C  164 0.968
   175  H   0.998        C  165 0.967
   176  H   0.881        O  167 0.859
   177  N   3.481        C  158 1.301    C  178 0.983    H  189 0.924    O  159 0.190
   178  C   3.964        N  177 0.983    C  181 0.954    H  190 0.947    C  179 0.935
   179  C   3.941        O  180 1.634    N  198 1.288    C  178 0.935
   180  O   1.964        C  179 1.634    N  198 0.188
   181  C   3.986        C  182 1.007    H  192 0.969    H  191 0.968    C  178 0.954
   182  C   3.986        C  184 1.409    C  183 1.407    C  181 1.007
   183  C   3.990        C  185 1.454    C  182 1.407    H  193 0.968    C  186 0.106
   184  C   3.991        C  186 1.450    C  182 1.409    H  194 0.969    C  185 0.108
   185  C   3.985        C  183 1.454    C  187 1.372    H  195 0.965    C  184 0.108
   186  C   3.985        C  184 1.450    C  187 1.377    H  196 0.963    C  183 0.106
   187  C   3.948        C  186 1.377    C  185 1.372    O  188 1.063
   188  O   2.091        C  187 1.063    H  197 0.852
   189  H   0.960        N  177 0.924
   190  H   0.993        C  178 0.947
   191  H   0.996        C  181 0.968
   192  H   0.997        C  181 0.969
   193  H   0.998        C  183 0.968
   194  H   0.999        C  184 0.969
   195  H   0.994        C  185 0.965
   196  H   0.996        C  186 0.963
   197  H   0.872        O  188 0.852
   198  N   3.445        C  179 1.288    C  199 0.988    H  204 0.894    O  180 0.188
   199  C   3.978        N  198 0.988    C  200 0.966    C  202 0.964    H  205 0.954
   200  C   3.902        O  201 1.907    C  199 0.966    H  451 0.953
   201  O   2.048        C  200 1.907
   202  C   3.966        O  203 1.015    H  206 0.967    C  199 0.964    H  207 0.959
   203  O   1.926        C  202 1.015    H  208 0.804
   204  H   0.948        N  198 0.894
   205  H   0.994        C  199 0.954
   206  H   0.998        C  202 0.967
   207  H   0.999        C  202 0.959
   208  H   0.897        O  203 0.804
   209  N   2.999        C  210 1.014    H  217 0.960    H  452 0.951
   210  C   3.986        N  209 1.014    C  213 0.983    H  218 0.965    C  211 0.931
   211  C   3.948        O  212 1.617    N  223 1.323    C  210 0.931
   212  O   1.953        C  211 1.617    N  223 0.197
   213  C   3.993        C  210 0.983    C  214 0.969    H  220 0.954    H  219 0.948
   214  C   3.942        O  215 1.631    N  216 1.311    C  213 0.969
   215  O   1.930        C  214 1.631    N  216 0.196
   216  N   3.390        C  214 1.311    H  221 0.930    H  222 0.894    O  215 0.196
   217  H   0.977        N  209 0.960
   218  H   0.998        C  210 0.965
   219  H   0.994        C  213 0.948
   220  H   0.999        C  213 0.954
   221  H   0.952        N  216 0.930
   222  H   0.953        N  216 0.894
   223  N   3.472        C  211 1.323    C  224 0.978    H  232 0.890    O  212 0.197
   224  C   3.957        N  223 0.978    C  227 0.966    H  233 0.942    C  225 0.942
   225  C   3.940        O  226 1.578    N  245 1.329    C  224 0.942
   226  O   1.960        C  225 1.578    N  245 0.191
   227  C   3.978        C  228 1.006    H  235 0.968    C  224 0.966    H  234 0.965
   228  C   3.987        C  227 1.006    C  229 1.006    H  236 0.968    H  237 0.966
   229  C   3.985        C  230 1.013    C  228 1.006    H  239 0.967    H  238 0.966
   230  C   3.915        C  229 1.013    H  241 0.962    H  240 0.959    N  231 0.959
   231  N   3.669        C  230 0.959    H  243 0.903    H  242 0.890    H  244 0.881
   232  H   0.947        N  223 0.890
   233  H   0.993        C  224 0.942
   234  H   0.993        C  227 0.965
   235  H   0.996        C  227 0.968
   236  H   0.996        C  228 0.968
   237  H   0.996        C  228 0.966
   238  H   0.992        C  229 0.966
   239  H   0.991        C  229 0.967
   240  H   0.987        C  230 0.959
   241  H   0.983        C  230 0.962
   242  H   0.908        N  231 0.890
   243  H   0.929        N  231 0.903
   244  H   0.912        N  231 0.881
   245  N   3.489        C  225 1.329    C  246 0.984    H  253 0.885    O  226 0.191
   246  C   3.968        N  245 0.984    C  249 0.978    H  254 0.948    C  247 0.929
   247  C   3.953        O  248 1.645    N  264 1.303    C  246 0.929
   248  O   1.960        C  247 1.645    N  264 0.203
   249  C   3.990        C  250 0.994    C  246 0.978    H  256 0.970    H  255 0.968
   250  C   3.994        C  252 1.009    C  251 1.007    C  249 0.994    H  257 0.968
   251  C   3.992        C  250 1.007    H  258 0.986    H  259 0.982    H  260 0.981
   252  C   3.995        C  250 1.009    H  262 0.984    H  261 0.983    H  263 0.983
   253  H   0.942        N  245 0.885
   254  H   0.996        C  246 0.948
   255  H   0.996        C  249 0.968
   256  H   0.997        C  249 0.970
   257  H   0.999        C  250 0.968
   258  H   0.998        C  251 0.986
   259  H   0.998        C  251 0.982
   260  H   0.997        C  251 0.981
   261  H   0.999        C  252 0.983
   262  H   0.999        C  252 0.984
   263  H   1.000        C  252 0.983
   264  N   3.474        C  247 1.303    C  265 0.993    H  268 0.911    O  248 0.203
   265  C   3.964        N  264 0.993    C  266 0.969    H  270 0.953    H  269 0.935
   266  C   3.948        O  267 1.611    N  271 1.304    C  265 0.969
   267  O   1.977        C  266 1.611    N  271 0.192
   268  H   0.961        N  264 0.911
   269  H   0.989        C  265 0.935
   270  H   0.989        C  265 0.953
   271  N   3.474        C  266 1.304    C  272 1.005    H  275 0.915    O  267 0.192
   272  C   3.965        N  271 1.005    H  277 0.950    H  276 0.949    C  273 0.942
   273  C   3.954        O  274 1.656    N  278 1.283    C  272 0.942
   274  O   1.980        C  273 1.656    N  278 0.198
   275  H   0.942        N  271 0.915
   276  H   0.988        C  272 0.949
   277  H   0.993        C  272 0.950
   278  N   3.459        C  273 1.283    C  279 0.982    H  283 0.919    O  274 0.198
   279  C   3.964        C  282 0.993    N  278 0.982    H  284 0.943    C  280 0.939
   280  C   3.943        O  281 1.647    N  288 1.277    C  279 0.939
   281  O   1.969        C  280 1.647    N  288 0.192
   282  C   3.983        C  279 0.993    H  287 0.983    H  285 0.979    H  286 0.971
   283  H   0.952        N  278 0.919
   284  H   0.990        C  279 0.943
   285  H   0.995        C  282 0.979
   286  H   0.992        C  282 0.971
   287  H   0.997        C  282 0.983
   288  N   3.460        C  280 1.277    C  289 0.992    H  296 0.918    O  281 0.192
   289  C   3.970        N  288 0.992    C  292 0.974    H  297 0.944    C  290 0.939
   290  C   3.950        O  291 1.598    N  300 1.318    C  289 0.939
   291  O   1.956        C  290 1.598    N  300 0.189
   292  C   3.983        C  289 0.974    H  298 0.967    H  299 0.953    C  293 0.932
   293  C   3.937        O  294 1.485    O  295 1.473    C  292 0.932
   294  O   1.873        C  293 1.485    O  295 0.202
   295  O   1.857        C  293 1.473    O  294 0.202
   296  H   0.960        N  288 0.918
   297  H   0.995        C  289 0.944
   298  H   0.997        C  292 0.967
   299  H   0.997        C  292 0.953
   300  N   3.494        C  290 1.318    C  301 0.999    H  304 0.914    O  291 0.189
   301  C   3.957        N  300 0.999    H  305 0.952    C  302 0.948    H  306 0.941
   302  C   3.952        O  303 1.643    N  307 1.287    C  301 0.948
   303  O   1.965        C  302 1.643    N  307 0.193
   304  H   0.957        N  300 0.914
   305  H   0.990        C  301 0.952
   306  H   0.988        C  301 0.941
   307  N   3.470        C  302 1.287    C  308 0.988    H  316 0.910    O  303 0.193
   308  C   3.965        N  307 0.988    C  311 0.974    C  309 0.940    H  317 0.934
   309  C   3.945        O  310 1.633    N  329 1.295    C  308 0.940
   310  O   1.945        C  309 1.633    N  329 0.191
   311  C   3.987        C  312 1.006    C  308 0.974    H  319 0.971    H  318 0.968
   312  C   3.995        C  313 1.007    C  311 1.006    H  320 0.977    H  321 0.969
   313  C   3.987        C  314 1.013    C  312 1.007    H  322 0.970    H  323 0.966
   314  C   3.918        C  313 1.013    H  325 0.967    H  324 0.965    N  315 0.954
   315  N   3.650        C  314 0.954    H  326 0.909    H  328 0.903    H  327 0.821
   316  H   0.961        N  307 0.910
   317  H   0.993        C  308 0.934
   318  H   0.995        C  311 0.968
   319  H   0.996        C  311 0.971
   320  H   0.998        C  312 0.977
   321  H   0.998        C  312 0.969
   322  H   0.994        C  313 0.970
   323  H   0.993        C  313 0.966
   324  H   0.986        C  314 0.965
   325  H   0.991        C  314 0.967
   326  H   0.923        N  315 0.909
   327  H   0.913        N  315 0.821
   328  H   0.919        N  315 0.903
   329  N   3.451        C  309 1.295    C  330 0.985    H  336 0.877    O  310 0.191
   330  C   3.971        N  329 0.985    H  337 0.958    C  333 0.946    C  331 0.940
   331  C   3.948        O  332 1.619    N  343 1.300    C  330 0.940
   332  O   1.955        C  331 1.619    N  343 0.191
   333  C   3.958        O  334 1.006    C  335 1.004    H  338 0.952    C  330 0.946
   334  O   1.941        C  333 1.006    H  339 0.829
   335  C   3.990        C  333 1.004    H  342 0.985    H  340 0.981    H  341 0.980
   336  H   0.945        N  329 0.877
   337  H   0.997        C  330 0.958
   338  H   0.999        C  333 0.952
   339  H   0.895        O  334 0.829
   340  H   0.994        C  335 0.981
   341  H   0.998        C  335 0.980
   342  H   0.997        C  335 0.985
   343  N   3.471        C  331 1.300    C  344 0.971    H  352 0.928    O  332 0.191
   344  C   3.959        C  347 0.986    N  343 0.971    H  353 0.949    C  345 0.926
   345  C   3.955        O  346 1.593    N  358 1.354    C  344 0.926
   346  O   1.915        C  345 1.593    N  358 0.205
   347  C   3.993        C  348 1.000    C  344 0.986    H  354 0.971    H  355 0.971
   348  C   3.991        C  347 1.000    H  356 0.978    H  357 0.969    C  349 0.923
   349  C   3.930        O  350 1.556    O  351 1.418    C  348 0.923
   350  O   1.844        C  349 1.556    O  351 0.203
   351  O   1.848        C  349 1.418    O  350 0.203
   352  H   0.961        N  343 0.928
   353  H   0.994        C  344 0.949
   354  H   0.998        C  347 0.971
   355  H   0.999        C  347 0.971
   356  H   0.999        C  348 0.978
   357  H   0.999        C  348 0.969
   358  N   3.500        C  345 1.354    C  359 0.983    H  365 0.860    O  346 0.205
   359  C   3.958        N  358 0.983    H  366 0.949    C  362 0.948    C  360 0.940
   360  C   3.952        O  361 1.621    N  374 1.303    C  359 0.940
   361  O   1.976        C  360 1.621    N  374 0.195
   362  C   3.984        C  364 1.009    C  363 1.009    H  367 0.962    C  359 0.948
   363  C   3.994        C  362 1.009    H  369 0.986    H  370 0.985    H  368 0.982
   364  C   3.991        C  362 1.009    H  371 0.982    H  372 0.982    H  373 0.980
   365  H   0.939        N  358 0.860
   366  H   0.996        C  359 0.949
   367  H   0.995        C  362 0.962
   368  H   0.995        C  363 0.982
   369  H   0.999        C  363 0.986
   370  H   0.999        C  363 0.985
   371  H   0.995        C  364 0.982
   372  H   0.998        C  364 0.982
   373  H   0.997        C  364 0.980
   374  N   3.479        C  360 1.303    C  375 0.978    H  381 0.925    O  361 0.195
   375  C   3.959        C  376 0.984    N  374 0.978    H  382 0.949    C  378 0.931
   376  C   3.904        O  377 1.900    C  375 0.984    H  453 0.950
   377  O   2.062        C  376 1.900
   378  C   3.988        C  379 1.012    C  380 1.008    H  383 0.964    C  375 0.931
   379  C   3.994        C  378 1.012    H  385 0.984    H  384 0.983    H  386 0.982
   380  C   3.992        C  378 1.008    H  389 0.984    H  388 0.984    H  387 0.984
   381  H   0.958        N  374 0.925
   382  H   0.990        C  375 0.949
   383  H   0.999        C  378 0.964
   384  H   0.998        C  379 0.983
   385  H   0.999        C  379 0.984
   386  H   0.996        C  379 0.982
   387  H   0.997        C  380 0.984
   388  H   0.997        C  380 0.984
   389  H   0.997        C  380 0.984
   390  N   2.998        C  391 1.013    H  397 0.953    H  454 0.948
   391  C   3.979        N  390 1.013    C  392 0.976    H  398 0.946    C  394 0.943
   392  C   3.890        O  393 1.898    C  391 0.976    H  455 0.957
   393  O   2.046        C  392 1.898
   394  C   3.955        C  396 1.006    O  395 0.984    H  399 0.957    C  391 0.943
   395  O   1.926        C  394 0.984    H  400 0.871
   396  C   3.993        C  394 1.006    H  403 0.982    H  401 0.981    H  402 0.979
   397  H   0.974        N  390 0.953
   398  H   0.993        C  391 0.946
   399  H   0.999        C  394 0.957
   400  H   0.888        O  395 0.871
   401  H   0.997        C  396 0.981
   402  H   0.998        C  396 0.979
   403  H   0.997        C  396 0.982
   404  N   2.995        C  405 1.012    H  409 0.955    H  456 0.953
   405  C   3.988        N  404 1.012    C  406 0.975    C  408 0.973    H  410 0.963
   406  C   3.896        O  407 1.906    C  405 0.975    H  457 0.958
   407  O   2.038        C  406 1.906
   408  C   3.991        H  411 0.985    H  413 0.984    H  412 0.978    C  405 0.973
   409  H   0.971        N  404 0.955
   410  H   0.998        C  405 0.963
   411  H   0.998        C  408 0.985
   412  H   0.996        C  408 0.978
   413  H   0.997        C  408 0.984
   414  N   2.993        C  415 1.021    H  458 0.960    H  419 0.941
   415  C   3.989        N  414 1.021    C  418 0.988    H  420 0.963    C  416 0.934
   416  C   3.942        O  417 1.671    N  424 1.263    C  415 0.934
   417  O   1.974        C  416 1.671    N  424 0.191
   418  C   3.994        C  415 0.988    H  421 0.985    H  423 0.984    H  422 0.979
   419  H   0.969        N  414 0.941
   420  H   0.999        C  415 0.963
   421  H   0.998        C  418 0.985
   422  H   0.997        C  418 0.979
   423  H   0.997        C  418 0.984
   424  N   3.439        C  416 1.263    C  425 0.974    H  429 0.927    O  417 0.191
   425  C   3.966        C  428 0.983    N  424 0.974    C  426 0.966    H  430 0.955
   426  C   3.893        O  427 1.899    C  425 0.966    H  459 0.952
   427  O   2.043        C  426 1.899
   428  C   3.982        C  425 0.983    H  433 0.982    H  431 0.980    H  432 0.976
   429  H   0.959        N  424 0.927
   430  H   0.992        C  425 0.955
   431  H   0.993        C  428 0.980
   432  H   0.994        C  428 0.976
   433  H   0.996        C  428 0.982
   434  H   0.967        N    1 0.956
   435  H   0.994        C    3 0.953
   436  H   0.968        N   13 0.952
   437  H   0.996        C   15 0.955
   438  H   0.971        N   30 0.958
   439  H   0.994        C   54 0.952
   440  H   0.970        N   73 0.951
   441  H   0.996        C   75 0.955
   442  H   0.966        N   89 0.955
   443  H   0.996        C   91 0.955
   444  H   0.971        N  106 0.952
   445  H   0.995        C  108 0.954
   446  H   0.968        N  127 0.948
   447  H   0.996        C  129 0.957
   448  H   0.968        N  146 0.953
   449  H   0.996        C  148 0.957
   450  H   0.966        N  156 0.948
   451  H   0.993        C  200 0.953
   452  H   0.964        N  209 0.951
   453  H   0.991        C  376 0.950
   454  H   0.963        N  390 0.948
   455  H   0.995        C  392 0.957
   456  H   0.969        N  404 0.953
   457  H   0.997        C  406 0.958
   458  H   0.970        N  414 0.960
   459  H   0.992        C  426 0.952
 
molecular dipole:
                 x           y           z       tot (Debye)
 q only:        5.215     -35.439     -11.445
   full:        3.701     -32.488      -9.723      86.709
molecular quadrupole (traceless):
                xx          xy          yy          xz          yz          zz
 q only:     9857.791  -16627.484   -7813.047   -4208.196  -12146.542   -2044.744
  q+dip:     8142.566  -15454.942   -6884.336   -3780.962  -10949.865   -1258.230
   full:     8145.697  -15457.970   -6886.692   -3777.936  -10952.575   -1259.005


           -------------------------------------------------
          | TOTAL ENERGY             -703.652718103440 Eh   |
          | GRADIENT NORM               0.807703720180 Eh/α |
          | HOMO-LUMO GAP               1.499370243486 eV   |
           -------------------------------------------------

------------------------------------------------------------------------
 * finished run on 2019/05/31 at 05:35:19.832     
------------------------------------------------------------------------
 total:
 * wall-time:     0 d,  0 h,  0 min,  9.752 sec
 *  cpu-time:     0 d,  0 h,  0 min, 18.379 sec
 * ratio c/w:     1.885 speedup
 SCF:
 * wall-time:     0 d,  0 h,  0 min,  9.028 sec
 *  cpu-time:     0 d,  0 h,  0 min, 17.395 sec
 * ratio c/w:     1.927 speedup

