      -----------------------------------------------------------      
     |                   =====================                   |     
     |                           x T B                           |     
     |                   =====================                   |     
     |                         S. Grimme                         |     
     |          Mulliken Center for Theoretical Chemistry        |     
     |                    University of Bonn                     |     
     |                Version 6.1 RC1 (SAW190329)                |     
      -----------------------------------------------------------      

   This program is distributed in the hope that it will be useful,
   but WITHOUT ANY WARRANTY; without even the implied warranty of
   MERCHANTABILITY or FITNESS FOR A PARTICULAR PURPOSE.
   
   FOR NON-COMMERCIAL, ACADEMIA USE ONLY.
   
   Cite this work as:
   S. Grimme, C. Bannwarth, P. Shushkov, J. Comput. Theory Chem., 2017,
   13, 1989-2009. DOI: 10.1021/acs.jctc.7b00118
   C. Bannwarth, S. Ehlert and S. Grimme., J. Comput. Theory Chem., 2019,
   just accepted. DOI: 10.1021/acs.jctc.8b01176
   
   for sTDA-xTB:
   S. Grimme and C. Bannwarth, J. Chem. Phys., 2016, 145, 054103.
   DOI: 10.1063/1.4959605
   
   in the mass-spec context:
   V. Asgeirsson, C. Bauer and S. Grimme, Chem. Sci., 2017, 8, 4879.
   DOI: 10.1039/c7sc00601b
   
   for metadynamics refer to:
   S. Grimme, ChemRxiv, Preprint. DOI: 10.26434/chemrxiv.7660532.v1
   
   with help from (in alphabetical order)
   C. Bannwarth, F. Bohle, G. Brandenburg, E. Caldeweyher, M. Checinski,
   S. Dohm, S. Ehlert, S. Ehrlich, F. März, H. Neugebauer, J. Pisarek,
   P. Pracht, P. Shushkov, and S. Spicher.
   
 * started run on 2019/05/31 at 06:33:33.517     

           -------------------------------------------------
          |                Calculation Setup                |
           -------------------------------------------------

          program call               : /home/lum/qr/xtb-190329/bin/xtb xtb_tmp.xyz --chrg -1 --grad --gfn 2 --etemp 500 --acc 0.1 --gbsa h2o --parallel 2
          hostname                   : cu39
          coordinate file            : xtb_tmp.xyz
          omp threads                :                     2
          number of atoms            :                   305
          number of electrons        :                   828
          charge                     :                    -1
          spin                       :                   0.0
          first test random number   :      0.98760160335625


molecular fragmentation (1/2 indicates fragments):
111111111111111111111111111111111111111111111111111111111111111111111111
122222222222222222222222222222222222222222222222222222222222222222222222
222222222222222222222222222222222222222222222222222222222222222222222222
222222222222222222222222222222222222222222222222222222222222222222222222
22222222222112222
# atoms in fragment 1/2:    75   230
 fragment masses (1/2) :      500.59     1575.79
CMA distance (Bohr)    :  14.522
constraining FC (au)   :  0.0500

########################################################################
# WARNING! Please study the warnings concerning your input carefully
#  - XTBPATH is not set, using XTBHOME instead
#  - Process number higher than OMP_NUM_THREADS, I hope you know what you are doing.
########################################################################

           ------------------------------------------------- 
          |                 G F N 2 - x T B                 |
          | Geometry, Frequencies, Noncovalent interactions |
          |            JCTC 2018 parametrisation            |
           ------------------------------------------------- 
 
             k(s)              :                1.8500
             k(p)              :                2.2300
             k(d)              :                2.2300
             k(f)              :                2.0000
             kEN (H0ij)        :               -2.0000
             D4 a1             :                0.5200
             D4 a2             :                5.0000
             D4 s6             :                1.0000
             D4 s8             :                2.7000
             D4 s9             :                5.0000
             alphaj            :                2.0000

  Z AO/shell   Hii/eV     exponent
  1     Wed Apr 25 08:07:45 CEST 2018   EN: 2.200 GM2: 0.406  GM3: 0.0800  RAES: 1.40
     1s    -10.707211    1.230000
  6     Wed Apr 25 08:07:45 CEST 2018   EN: 2.550 GM2: 0.538  GM3: 0.1500  RAES: 3.00
     2s    -13.970922    2.096432
     2p    -10.063292    1.800000
  7     Wed Apr 25 08:07:45 CEST 2018   EN: 3.040 GM2: 0.461  GM3:-0.0640  RAES: 1.90
     2s    -16.686243    2.339881
     2p    -12.523956    2.014332
  8     Wed Apr 25 08:07:45 CEST 2018   EN: 3.440 GM2: 0.452  GM3:-0.0517  RAES: 1.80
     2s    -20.229985    2.439742
     2p    -15.503117    2.137023

 Solvent             : h2o
 Using internal parameter file: .param_gbsa2_h2o
 Gsolv ref. state (COSMO-RS): gsolv [1 M gas/solution]
 temperature (mdtemp)       :    298.150000000000     
 dielectric constant        :    80.2000000000000     
 rho                        :    1.00000000000000     
 mass                       :    18.0000000000000     
 surface tension            :    15.5689454083859     
 probe radius               :   0.975313790000000     
 vdW radii scaling          :    1.00000000000000     
 Gshift (Eh)                :   1.857443126794793E-003
 c1                         :    1.55243817000000     
 soset                      :   0.130326360000000     
 HB correction              :  T
 Number of grid points      :          230

            Z     q(EN)     CN     RAES       Cart. coordinates
     1  N   5.0   -0.70    3.00    1.93    36.75342    51.73589   137.05585
     2  C   4.0    0.07    3.99    3.60    36.58790    49.71964   135.22174
     3  C   4.0    0.27    3.01    3.02    37.44983    50.73165   132.67553
     4  O   6.0   -0.46    1.00    1.80    37.24361    52.97730   132.12610
     5  C   4.0   -0.14    3.98    3.59    33.98226    48.44794   135.10011
     6  C   4.0   -0.10    3.97    3.57    31.79348    50.05973   134.18284
     7  C   4.0    0.31    2.99    3.02    29.26979    48.65670   134.84043
     8  O   6.0   -0.39    1.00    1.80    27.72920    48.36455   133.08484
     9  O   6.0   -0.40    1.00    1.80    29.01687    47.92287   137.06719
    10  H   1.0    0.31    1.00    1.43    36.64295    53.53521   136.41091
    11  H   1.0    0.11    0.99    1.43    37.91929    48.24512   135.81713
    12  H   1.0    0.11    0.99    1.43    34.14445    46.77452   133.90475
    13  H   1.0    0.13    0.99    1.43    33.51367    47.83088   137.01498
    14  H   1.0    0.12    0.99    1.43    31.75058    51.87127   135.17466
    15  H   1.0    0.13    0.99    1.43    31.84526    50.42158   132.14890
    16  N   5.0   -0.49    3.02    1.93    38.54422    48.98248   131.24054
    17  C   4.0    0.07    3.99    3.61    39.89444    49.50461   128.91774
    18  C   4.0    0.26    3.01    3.02    39.25969    47.35085   127.09123
    19  O   6.0   -0.43    1.00    1.80    39.74363    45.15376   127.62643
    20  C   4.0   -0.15    3.98    3.59    42.76079    49.62867   129.42969
    21  C   4.0   -0.15    3.98    3.59    43.32305    51.00159   131.91743
    22  C   4.0   -0.16    3.98    3.58    46.09117    51.76805   132.24683
    23  C   4.0   -0.07    3.98    3.58    46.74805    54.08388   130.65399
    24  N   5.0   -0.73    3.98    2.82    49.24514    55.14291   131.41468
    25  H   1.0    0.24    1.00    1.43    38.56804    47.15743   131.83073
    26  H   1.0    0.14    0.99    1.43    39.19709    51.30296   128.18559
    27  H   1.0    0.12    0.99    1.43    43.47415    47.69812   129.52559
    28  H   1.0    0.09    0.99    1.43    43.62269    50.57815   127.82090
    29  H   1.0    0.13    0.99    1.43    42.11009    52.66173   132.06210
    30  H   1.0    0.12    0.99    1.43    42.79461    49.74460   133.46209
    31  H   1.0    0.10    0.99    1.43    46.35715    52.20550   134.24394
    32  H   1.0    0.10    0.99    1.43    47.28004    50.16156   131.74888
    33  H   1.0    0.10    0.99    1.43    46.81884    53.58421   128.65940
    34  H   1.0    0.10    0.99    1.43    45.29637    55.52674   130.91054
    35  H   1.0    0.23    1.00    1.43    49.71281    56.64434   130.26496
    36  H   1.0    0.23    1.00    1.43    49.16407    55.75136   133.26475
    37  H   1.0    0.23    1.00    1.43    50.62790    53.77527   131.26722
    38  N   5.0   -0.49    3.01    1.93    38.19476    48.08563   124.92629
    39  C   4.0    0.07    3.99    3.60    37.19644    46.33822   123.06064
    40  C   4.0    0.27    3.01    3.02    38.22107    47.21012   120.49063
    41  O   6.0   -0.47    1.00    1.80    37.54205    49.23922   119.60233
    42  C   4.0   -0.13    3.99    3.60    34.30023    46.46518   123.07672
    43  C   4.0   -0.12    3.99    3.60    33.08048    44.15983   121.83275
    44  C   4.0    0.27    3.00    3.02    30.25773    44.62724   121.65606
    45  O   6.0   -0.41    1.00    1.80    29.20476    45.37450   119.73978
    46  N   5.0   -0.65    3.01    1.93    29.02418    44.18599   123.82735
    47  H   1.0    0.29    1.00    1.43    37.66157    49.91691   124.71037
    48  H   1.0    0.13    0.99    1.43    37.86593    44.44469   123.54108
    49  H   1.0    0.13    0.99    1.43    33.66136    46.60080   125.03474
    50  H   1.0    0.14    0.99    1.43    33.72479    48.18414   122.08327
    51  H   1.0    0.13    0.99    1.43    33.84712    43.87865   119.94285
    52  H   1.0    0.10    0.99    1.43    33.42124    42.51368   123.01863
    53  H   1.0    0.26    1.00    1.43    29.97415    43.58408   125.36634
    54  H   1.0    0.28    1.00    1.43    27.16948    44.58574   123.96297
    55  N   5.0   -0.48    3.01    1.93    39.88982    45.67562   119.40284
    56  C   4.0    0.07    3.99    3.60    41.29934    46.25263   117.12394
    57  C   4.0    0.06    3.00    3.02    40.97032    44.01187   115.33092
    58  O   6.0   -0.42    1.00    1.80    41.68644    41.88485   115.92987
    59  C   4.0   -0.07    3.98    3.59    44.14242    46.54214   117.70789
    60  C   4.0   -0.15    3.98    3.58    44.67184    48.61258   119.66483
    61  C   4.0   -0.23    3.98    3.59    45.55033    47.05486   115.24356
    62  C   4.0   -0.24    3.98    3.58    47.15565    48.13089   121.05351
    63  H   1.0    0.24    1.00    1.43    40.41892    44.05443   120.28973
    64  H   1.0    0.14    0.99    1.43    40.54441    47.98299   116.28785
    65  H   1.0    0.13    0.99    1.43    44.77434    44.72903   118.48539
    66  H   1.0    0.11    0.99    1.43    44.72412    50.45260   118.71925
    67  H   1.0    0.13    0.99    1.43    43.13664    48.66596   121.04627
    68  H   1.0    0.10    0.99    1.43    47.53416    47.42328   115.61179
    69  H   1.0    0.11    0.99    1.43    45.41404    45.45180   113.96494
    70  H   1.0    0.11    0.99    1.43    44.75994    48.70825   114.30786
    71  H   1.0    0.10    0.99    1.43    47.61905    49.74296   122.23789
    72  H   1.0    0.10    0.99    1.43    46.98957    46.45186   122.23109
    73  H   1.0    0.10    0.99    1.43    48.69144    47.85591   119.71525
    74  N   5.0   -0.71    3.01    1.93    39.13751    49.57654   101.12222
    75  C   4.0    0.06    3.98    3.59    40.40133    49.92289   103.53737
    76  C   4.0    0.27    3.02    3.02    38.67434    51.59291   105.14399
    77  O   6.0   -0.46    1.00    1.80    37.87981    53.60325   104.30451
    78  C   4.0   -0.15    3.98    3.59    42.95784    51.22549   103.01999
    79  C   4.0   -0.16    3.97    3.58    44.63396    51.57627   105.35538
    80  C   4.0   -0.15    3.98    3.58    46.57872    53.71711   105.07383
    81  C   4.0   -0.07    3.97    3.58    49.01738    53.14609   103.62256
    82  N   5.0   -0.73    3.98    2.81    48.66672    52.79429   100.84255
    83  H   1.0    0.32    1.00    1.43    38.39274    51.16800   100.35100
    84  H   1.0    0.10    0.99    1.43    40.65379    48.08077   104.43245
    85  H   1.0    0.09    0.99    1.43    43.89451    50.05707   101.60130
    86  H   1.0    0.12    0.99    1.43    42.50267    53.07019   102.21443
    87  H   1.0    0.12    0.99    1.43    43.42150    52.06849   106.95275
    88  H   1.0    0.10    0.99    1.43    45.56646    49.80806   105.85302
    89  H   1.0    0.11    0.99    1.43    45.61596    55.35550   104.27950
    90  H   1.0    0.11    0.99    1.43    47.16419    54.26697   106.97433
    91  H   1.0    0.10    0.99    1.43    50.28942    54.74558   103.89901
    92  H   1.0    0.10    0.99    1.43    49.91011    51.45863   104.39703
    93  H   1.0    0.22    0.99    1.43    50.39857    52.62680    99.91390
    94  H   1.0    0.23    1.00    1.43    47.64030    51.17995   100.49254
    95  H   1.0    0.22    1.00    1.43    47.70566    54.30795   100.08466
    96  N   5.0   -0.50    3.01    1.93    38.07838    50.72673   107.44026
    97  C   4.0    0.08    4.00    3.62    36.69174    52.31343   109.18253
    98  C   4.0    0.26    3.02    3.02    37.64948    51.92147   111.85201
    99  O   6.0   -0.45    1.00    1.80    38.64039    49.93305   112.53550
   100  C   4.0   -0.13    3.98    3.59    33.80544    51.94123   109.00916
   101  C   4.0   -0.09    3.97    3.58    32.76238    49.47088   110.13392
   102  C   4.0   -0.20    3.98    3.59    31.84463    49.88358   112.84376
   103  C   4.0   -0.23    3.98    3.59    30.57885    48.50341   108.49385
   104  H   1.0    0.24    1.00    1.43    38.74144    49.04246   108.07532
   105  H   1.0    0.15    0.99    1.43    37.07124    54.28112   108.65522
   106  H   1.0    0.12    0.99    1.43    32.93801    53.56016   109.94834
   107  H   1.0    0.12    0.99    1.43    33.34758    52.05351   107.00052
   108  H   1.0    0.13    0.99    1.43    34.28575    48.06976   110.15607
   109  H   1.0    0.12    0.99    1.43    31.21862    48.11981   113.69708
   110  H   1.0    0.14    0.99    1.43    33.33353    50.66771   114.02550
   111  H   1.0    0.11    0.99    1.43    30.26898    51.20492   112.85856
   112  H   1.0    0.10    0.99    1.43    29.42591    47.15589   109.53125
   113  H   1.0    0.10    0.99    1.43    29.36703    50.07409   107.95866
   114  H   1.0    0.10    0.99    1.43    31.28555    47.61963   106.77942
   115  N   5.0   -0.50    3.01    1.93    37.27896    53.89101   113.38071
   116  C   4.0    0.08    4.00    3.62    37.83518    53.71717   116.03773
   117  C   4.0    0.28    3.01    3.02    35.98533    55.27992   117.58534
   118  O   6.0   -0.44    1.00    1.80    35.05692    57.25186   116.79195
   119  C   4.0   -0.13    3.98    3.59    40.55684    54.57084   116.64519
   120  C   4.0   -0.09    3.97    3.58    41.08876    57.30665   115.93372
   121  C   4.0    0.31    2.99    3.02    43.86730    58.00379   116.65379
   122  O   6.0   -0.39    1.00    1.80    44.22708    58.74488   118.86038
   123  O   6.0   -0.38    1.00    1.80    45.50059    57.72287   114.98402
   124  H   1.0    0.29    1.00    1.43    36.46157    55.49291   112.72361
   125  H   1.0    0.16    0.99    1.43    37.66945    51.72683   116.57076
   126  H   1.0    0.12    0.99    1.43    40.88744    54.31387   118.66549
   127  H   1.0    0.13    0.99    1.43    41.86564    53.35315   115.61081
   128  H   1.0    0.13    0.99    1.43    40.85948    57.57764   113.90000
   129  H   1.0    0.14    0.99    1.43    39.81753    58.58200   116.94708
   130  N   5.0   -0.47    3.01    1.93    35.61703    54.34083   119.89890
   131  C   4.0    0.11    3.99    3.61    34.11673    55.55121   121.82413
   132  C   4.0    0.26    3.01    3.02    35.45329    55.29551   124.36462
   133  O   6.0   -0.46    1.00    1.80    36.32654    53.25376   125.04716
   134  C   4.0    0.05    3.98    3.58    31.47473    54.32661   122.06741
   135  O   6.0   -0.45    1.99    1.82    30.44226    54.17423   119.61887
   136  C   4.0   -0.20    3.98    3.59    29.81448    55.88725   123.84004
   137  H   1.0    0.29    1.00    1.43    36.27466    52.57826   120.28649
   138  H   1.0    0.17    0.99    1.43    33.87712    57.52945   121.29957
   139  H   1.0    0.13    0.99    1.43    31.71874    52.40226   122.84357
   140  H   1.0    0.25    0.99    1.43    28.77494    53.44030   119.74133
   141  H   1.0    0.11    0.99    1.43    27.94636    55.04511   123.99868
   142  H   1.0    0.13    0.99    1.43    30.63630    55.97350   125.72107
   143  H   1.0    0.15    0.99    1.43    29.63817    57.80542   123.11851
   144  N   5.0   -0.48    3.01    1.93    35.60173    57.39903   125.73872
   145  C   4.0    0.10    4.00    3.61    36.32371    57.36926   128.36913
   146  C   4.0    0.28    3.01    3.02    34.33655    58.77389   129.92341
   147  O   6.0   -0.44    1.00    1.80    32.91085    60.32740   128.97575
   148  C   4.0    0.04    3.98    3.58    38.92036    58.60436   128.89942
   149  O   6.0   -0.46    1.99    1.82    38.69870    61.24589   128.55233
   150  C   4.0   -0.20    3.98    3.59    40.97458    57.44988   127.23336
   151  H   1.0    0.30    1.00    1.43    34.75749    59.00364   125.09390
   152  H   1.0    0.15    0.99    1.43    36.41845    55.39809   128.98873
   153  H   1.0    0.11    0.99    1.43    39.31924    58.19113   130.89992
   154  H   1.0    0.24    0.99    1.43    40.21232    62.02714   129.21464
   155  H   1.0    0.10    0.99    1.43    42.78128    58.35055   127.59793
   156  H   1.0    0.10    0.99    1.43    41.09747    55.44012   127.61579
   157  H   1.0    0.14    0.99    1.43    40.51166    57.70855   125.24762
   158  N   5.0   -0.49    3.01    1.93    34.41227    58.25164   132.40182
   159  C   4.0    0.09    3.99    3.60    32.71353    59.41974   134.19010
   160  C   4.0    0.08    3.00    3.02    33.95780    59.40781   136.78648
   161  O   6.0   -0.42    1.00    1.80    35.32833    57.63990   137.41362
   162  C   4.0    0.01    3.98    3.58    30.16570    57.99571   134.39133
   163  O   6.0   -0.47    1.99    1.82    28.46024    59.26702   135.95980
   164  H   1.0    0.27    1.00    1.43    35.40118    56.73100   133.02641
   165  H   1.0    0.16    0.99    1.43    32.30042    61.34536   133.56873
   166  H   1.0    0.13    0.99    1.43    29.40325    57.72943   132.47961
   167  H   1.0    0.13    0.99    1.43    30.48435    56.12285   135.22426
   168  H   1.0    0.32    0.99    1.43    27.66329    60.62063   134.96720
   169  N   5.0   -0.71    3.01    1.93    28.39480    71.76376   143.93130
   170  C   4.0    0.07    3.99    3.60    27.82306    69.96409   141.95035
   171  C   4.0    0.27    3.02    3.02    29.09475    71.00462   139.57682
   172  O   6.0   -0.44    1.00    1.80    29.01083    73.26632   139.07194
   173  C   4.0   -0.09    3.98    3.58    24.93059    69.71650   141.59245
   174  C   4.0   -0.15    3.98    3.59    24.30125    68.03626   139.31985
   175  C   4.0   -0.22    3.98    3.59    23.71764    72.32578   141.31188
   176  C   4.0   -0.22    3.98    3.58    25.00795    65.26869   139.68861
   177  H   1.0    0.28    1.00    1.43    28.33580    73.57610   143.31903
   178  H   1.0    0.10    0.99    1.43    28.63381    68.14042   142.46184
   179  H   1.0    0.09    0.99    1.43    24.19110    68.80196   143.29866
   180  H   1.0    0.11    0.99    1.43    22.26851    68.13723   138.97572
   181  H   1.0    0.15    0.99    1.43    25.23752    68.74545   137.62273
   182  H   1.0    0.09    0.99    1.43    21.71906    72.12741   140.89335
   183  H   1.0    0.10    0.99    1.43    23.91205    73.41514   143.04326
   184  H   1.0    0.13    0.99    1.43    24.60621    73.35784   139.77294
   185  H   1.0    0.14    0.99    1.43    24.68334    64.23139   137.94399
   186  H   1.0    0.11    0.99    1.43    26.98932    65.04166   140.17158
   187  H   1.0    0.10    0.99    1.43    23.89708    64.41211   141.18823
   188  N   5.0   -0.49    3.01    1.93    30.34923    69.31795   138.20378
   189  C   4.0    0.07    3.99    3.61    31.73254    69.97665   135.93616
   190  C   4.0    0.28    3.02    3.02    31.61708    67.68135   134.20142
   191  O   6.0   -0.42    1.00    1.80    32.08427    65.56546   135.00432
   192  C   4.0   -0.13    3.99    3.60    34.48578    70.55292   136.67575
   193  C   4.0   -0.10    3.97    3.58    36.27625    71.12520   134.47229
   194  C   4.0   -0.22    3.98    3.59    35.67175    73.66996   133.24251
   195  C   4.0   -0.23    3.98    3.59    38.99676    71.07203   135.45198
   196  H   1.0    0.25    1.00    1.43    30.46925    67.49819   138.78470
   197  H   1.0    0.13    0.99    1.43    30.82179    71.62779   135.09032
   198  H   1.0    0.12    0.99    1.43    34.44235    72.15022   137.98351
   199  H   1.0    0.12    0.99    1.43    35.15776    68.89718   137.70984
   200  H   1.0    0.14    0.99    1.43    36.06100    69.63295   133.05120
   201  H   1.0    0.11    0.99    1.43    37.19146    74.21529   131.97170
   202  H   1.0    0.11    0.99    1.43    33.93826    73.56807   132.14084
   203  H   1.0    0.10    0.99    1.43    35.45350    75.13426   134.67185
   204  H   1.0    0.10    0.99    1.43    40.31019    71.38894   133.90522
   205  H   1.0    0.10    0.99    1.43    39.25979    72.53910   136.86708
   206  H   1.0    0.10    0.99    1.43    39.38286    69.23673   136.29110
   207  N   5.0   -0.48    3.01    1.93    31.17564    68.15778   131.75835
   208  C   4.0    0.08    4.00    3.62    30.82573    66.17180   129.91904
   209  C   4.0    0.27    3.01    3.02    32.08295    66.99414   127.46137
   210  O   6.0   -0.40    1.00    1.80    32.14411    69.22099   126.83357
   211  C   4.0   -0.09    3.98    3.58    28.01037    65.66187   129.45600
   212  C   4.0    0.33    2.99    3.02    26.79794    64.95736   132.05730
   213  O   6.0   -0.45    1.00    1.80    26.62012    62.65648   132.54847
   214  O   6.0   -0.40    1.00    1.80    26.16427    66.76045   133.41994
   215  H   1.0    0.25    1.00    1.43    30.56487    69.87155   131.19288
   216  H   1.0    0.16    0.99    1.43    31.70396    64.45488   130.65203
   217  H   1.0    0.12    0.99    1.43    27.11274    67.36362   128.70835
   218  H   1.0    0.12    0.99    1.43    27.78869    64.10025   128.13507
   219  N   5.0   -0.49    3.01    1.93    33.07993    65.10890   126.11007
   220  C   4.0    0.09    3.99    3.61    34.30966    65.52044   123.70391
   221  C   4.0    0.29    3.01    3.02    33.46721    63.45611   121.87004
   222  O   6.0   -0.44    1.00    1.80    33.37910    61.24965   122.55904
   223  C   4.0   -0.08    3.99    3.60    37.21304    65.47587   123.98372
   224  C   4.0    0.28    3.00    3.02    38.38236    67.93343   123.03745
   225  O   6.0   -0.39    1.00    1.80    37.30736    69.32335   121.54728
   226  N   5.0   -0.65    3.00    1.93    40.68164    68.43966   123.97369
   227  H   1.0    0.30    1.00    1.43    32.94480    63.29868   126.73765
   228  H   1.0    0.16    0.99    1.43    33.74431    67.39747   123.03597
   229  H   1.0    0.14    0.99    1.43    37.68583    65.13755   125.95906
   230  H   1.0    0.13    0.99    1.43    38.01627    63.92525   122.88456
   231  H   1.0    0.28    1.00    1.43    41.60086    69.98777   123.34919
   232  H   1.0    0.26    1.00    1.43    41.58587    67.20351   125.09688
   233  N   5.0   -0.47    3.01    1.93    32.96380    64.21939   119.51901
   234  C   4.0    0.11    3.99    3.61    32.11639    62.53837   117.53088
   235  C   4.0    0.26    3.01    3.02    33.14697    63.51356   115.00487
   236  O   6.0   -0.41    1.00    1.80    32.85460    65.72370   114.38402
   237  C   4.0    0.04    3.98    3.58    29.19529    62.46909   117.37755
   238  O   6.0   -0.44    1.99    1.82    28.26526    61.93622   119.82480
   239  C   4.0   -0.22    3.98    3.59    28.36061    60.48857   115.45292
   240  H   1.0    0.26    1.00    1.43    33.06911    66.07288   119.06480
   241  H   1.0    0.16    0.99    1.43    32.80207    60.63681   117.95440
   242  H   1.0    0.13    0.99    1.43    28.53687    64.35721   116.78591
   243  H   1.0    0.24    0.99    1.43    26.46548    61.65508   119.69936
   244  H   1.0    0.10    0.99    1.43    26.31122    60.35236   115.40823
   245  H   1.0    0.12    0.99    1.43    29.03718    60.99263   113.58163
   246  H   1.0    0.13    0.99    1.43    29.13358    58.65993   115.98177
   247  N   5.0   -0.49    3.01    1.93    34.25474    61.77461   113.55252
   248  C   4.0    0.07    3.99    3.60    35.28279    62.29398   111.06320
   249  C   4.0    0.26    3.01    3.02    34.79768    60.00419   109.35840
   250  O   6.0   -0.47    1.00    1.80    35.05616    57.85536   110.18266
   251  C   4.0   -0.12    3.98    3.59    38.16962    62.68664   111.22871
   252  C   4.0   -0.11    3.98    3.58    39.44738    62.81976   108.65936
   253  C   4.0    0.31    2.99    3.02    42.36742    63.13640   108.84850
   254  O   6.0   -0.47    1.00    1.80    43.59614    61.88598   107.24928
   255  O   6.0   -0.38    1.00    1.80    43.25197    64.64225   110.40165
   256  H   1.0    0.29    1.00    1.43    34.58006    60.02119   114.26438
   257  H   1.0    0.13    0.99    1.43    34.36265    63.99659   110.33789
   258  H   1.0    0.14    0.99    1.43    38.57326    64.41187   112.29140
   259  H   1.0    0.13    0.99    1.43    38.96552    61.10826   112.30153
   260  H   1.0    0.14    0.99    1.43    39.09162    61.10435   107.57091
   261  H   1.0    0.11    0.99    1.43    38.74910    64.45471   107.60360
   262  N   5.0   -0.50    3.01    1.93    34.19568    60.48731   106.95263
   263  C   4.0    0.08    3.99    3.61    34.11682    58.57746   104.98989
   264  C   4.0    0.26    3.01    3.02    35.27482    59.74667   102.61916
   265  O   6.0   -0.44    1.00    1.80    34.94113    61.97512   102.07498
   266  C   4.0   -0.08    3.98    3.58    31.39432    57.62919   104.47136
   267  C   4.0   -0.21    3.98    3.59    29.59394    59.83186   104.00081
   268  C   4.0   -0.22    3.98    3.59    31.36374    55.77985   102.25519
   269  H   1.0    0.25    1.00    1.43    34.04834    62.28088   106.31256
   270  H   1.0    0.14    0.99    1.43    35.25539    56.96842   105.60789
   271  H   1.0    0.11    0.99    1.43    30.77968    56.63081   106.17919
   272  H   1.0    0.09    0.99    1.43    27.74438    59.11274   103.47400
   273  H   1.0    0.11    0.99    1.43    29.40077    60.98184   105.69300
   274  H   1.0    0.13    0.99    1.43    30.28409    61.01821   102.47064
   275  H   1.0    0.09    0.99    1.43    29.52676    54.86930   102.10800
   276  H   1.0    0.12    0.99    1.43    31.69402    56.75186   100.47342
   277  H   1.0    0.12    0.99    1.43    32.79514    54.32343   102.48778
   278  N   5.0   -0.48    3.01    1.93    36.66896    58.16321   101.24236
   279  C   4.0    0.06    3.99    3.60    37.68004    58.80882    98.78688
   280  C   4.0    0.04    3.00    3.02    37.68011    56.40460    97.18078
   281  O   6.0   -0.45    1.00    1.80    37.79598    54.29375    98.11664
   282  C   4.0   -0.14    3.98    3.59    40.34132    59.99795    98.93304
   283  C   4.0   -0.14    3.98    3.58    42.03710    58.70732   100.87640
   284  C   4.0   -0.16    3.98    3.58    44.71569    59.80037   100.88675
   285  C   4.0   -0.05    3.98    3.58    44.76009    62.65519   101.38010
   286  N   5.0   -0.72    3.98    2.80    46.56008    63.28846   103.44125
   287  H   1.0    0.29    1.00    1.43    36.97541    56.36260   101.83747
   288  H   1.0    0.12    0.99    1.43    36.39862    60.19368    97.93234
   289  H   1.0    0.09    0.99    1.43    41.20749    59.90164    97.06506
   290  H   1.0    0.11    0.99    1.43    40.09249    61.97760    99.43126
   291  H   1.0    0.14    0.99    1.43    41.22111    58.92824   102.75993
   292  H   1.0    0.12    0.99    1.43    42.09064    56.69355   100.44041
   293  H   1.0    0.11    0.99    1.43    45.73842    58.88433   102.41924
   294  H   1.0    0.09    0.99    1.43    45.65047    59.38980    99.09710
   295  H   1.0    0.09    0.99    1.43    45.28961    63.67061    99.66925
   296  H   1.0    0.12    0.99    1.43    42.90986    63.31551   102.00652
   297  H   1.0    0.24    1.00    1.43    46.86016    65.19875   103.50171
   298  H   1.0    0.31    0.99    1.43    45.67979    62.74245   105.18565
   299  H   1.0    0.24    1.00    1.43    48.26770    62.38393   103.25923
   300  H   1.0    0.31    1.00    1.43    35.48621    51.58600   138.18024
   301  H   1.0    0.13    1.00    1.43    40.16202    44.26432   113.64155
   302  H   1.0    0.29    1.00    1.43    40.24349    48.96194    99.98571
   303  H   1.0    0.14    1.00    1.43    33.66018    60.83950   137.98346
   304  H   1.0    0.28    1.00    1.43    27.26254    71.60138   145.18994
   305  H   1.0    0.11    1.00    1.43    37.58312    56.52640    95.29748

           ------------------------------------------------- 
          |        Self-Consistent Charge Iterations        |
           ------------------------------------------------- 

          ...................................................
          :                      SETUP                      :
          :.................................................:
          :  # basis functions                 740          :
          :  # atomic orbitals                 740          :
          :  # shells                          450          :
          :  # electrons                       828          :
          :  max. iterations                   250          :
          :  Hamiltonian                  GFN2-xTB          :
          :  restarted?                      false          :
          :  GBSA solvation                   true          :
          :  PC potential                    false          :
          :  electronic temp.          500.0000000     K    :
          :  accuracy                    0.1000000          :
          :  -> integral cutoff          0.3500000E+02      :
          :  -> integral neglect         0.1000000E-08      :
          :  -> SCF convergence          0.1000000E-06 Eh   :
          :  -> wf. convergence          0.1000000E-04 e    :
          :  Broyden damping             0.4000000          :
          ...................................................

 iter      E             dE          RMSdq      gap      omega  full diag
   1   -476.2980823 -0.476298E+03  0.432E+00    2.17       0.0  T
   2   -477.7673717 -0.146929E+01  0.218E+00    1.58       1.0  T
   3   -477.8163161 -0.489445E-01  0.120E+00    2.00       1.0  T
   4   -477.8284454 -0.121293E-01  0.307E-01    1.17       1.0  T
   5   -477.8417552 -0.133097E-01  0.130E-01    1.36       1.0  T
   6   -477.8423418 -0.586615E-03  0.599E-02    1.36       1.0  T
   7   -477.8424207 -0.788906E-04  0.208E-02    1.40       1.0  T
   8   -477.8424546 -0.339111E-04  0.868E-03    1.40       1.0  T
   9   -477.8424574 -0.278531E-05  0.331E-03    1.40       1.7  T
  10   -477.8424578 -0.394258E-06  0.128E-03    1.40       4.5  T
  11   -477.8424579 -0.940447E-07  0.536E-04    1.40      10.7  T
  12   -477.8424579 -0.173097E-07  0.244E-04    1.40      23.5  T
  13   -477.8424579 -0.260633E-08  0.101E-04    1.40      56.9  T
  14   -477.8424579 -0.599471E-09  0.373E-05    1.40     153.5  T
  15   -477.8424579 -0.752607E-10  0.149E-05    1.40     383.1  T

   *** convergence criteria satisfied after 15 iterations ***

         #    Occupation            Energy/Eh            Energy/eV
      -------------------------------------------------------------
         1        2.0000           -0.7431407             -20.2219
       ...           ...                  ...                  ...
       408        2.0000           -0.3725133             -10.1366
       409        2.0000           -0.3709548             -10.0942
       410        2.0000           -0.3684600             -10.0263
       411        2.0000           -0.3659243              -9.9573
       412        2.0000           -0.3572069              -9.7201
       413        2.0000           -0.3556326              -9.6773
       414        2.0000           -0.3545693              -9.6483 (HOMO)
       415        0.0000           -0.3032654              -8.2523 (LUMO)
       416                         -0.2975775              -8.0975
       417                         -0.2927713              -7.9667
       418                         -0.2423426              -6.5945
       419                         -0.2411301              -6.5615
       ...                                ...                  ...
       740                          0.6483253              17.6418
      -------------------------------------------------------------
                  HL-Gap            0.0513039 Eh            1.3961 eV
             Fermi-level           -0.3285193 Eh           -8.9395 eV

 SCC (total)                   0 d,  0 h,  0 min,  7.324 sec
 SCC setup                      ...        0 min,  0.119 sec (  1.621%)
 Dispersion                     ...        0 min,  0.090 sec (  1.231%)
 integral evaluation            ...        0 min,  0.405 sec (  5.528%)
 zeroth order Hamiltonian       ...        0 min,  0.011 sec (  0.148%)
 iterations                     ...        0 min,  5.274 sec ( 72.007%)
 molecular gradient             ...        0 min,  1.378 sec ( 18.812%)
 printout                       ...        0 min,  0.048 sec (  0.651%)

         :::::::::::::::::::::::::::::::::::::::::::::::::::::
         ::                     SUMMARY                     ::
         :::::::::::::::::::::::::::::::::::::::::::::::::::::
         :: total energy             -472.473400658365 Eh   ::
         :: total w/o Gsasa/hb       -472.400874554399 Eh   ::
         :: gradient norm               0.391665053060 Eh/α ::
         :: HOMO-LUMO gap               1.396050986324 eV   ::
         ::.................................................::
         :: SCC energy               -477.854002950421 Eh   ::
         :: -> isotropic ES             2.037371527110 Eh   ::
         :: -> anisotropic ES          -0.112349552765 Eh   ::
         :: -> anisotropic XC           0.123972189674 Eh   ::
         :: -> dispersion              -0.366172906820 Eh   ::
         :: -> Gsolv                   -0.695921604351 Eh   ::
         ::    -> Gborn                -0.623395500385 Eh   ::
         ::    -> Gsasa                -0.013402506150 Eh   ::
         ::    -> Ghb                  -0.060981040943 Eh   ::
         ::    -> Gshift                0.001857443127 Eh   ::
         :: repulsion energy            5.353398063334 Eh   ::
         :: add. restraining            0.000000000000 Eh   ::
         :::::::::::::::::::::::::::::::::::::::::::::::::::::

           -------------------------------------------------
          |                Property Printout                |
           -------------------------------------------------

    * Orbital Energies and Occupations

         #    Occupation            Energy/Eh            Energy/eV
      -------------------------------------------------------------
         1        2.0000           -0.7431407             -20.2219
       ...           ...                  ...                  ...
       402        2.0000           -0.3959246             -10.7737
       403        2.0000           -0.3913689             -10.6497
       404        2.0000           -0.3913340             -10.6487
       405        2.0000           -0.3909658             -10.6387
       406        2.0000           -0.3795800             -10.3289
       407        2.0000           -0.3746409             -10.1945
       408        2.0000           -0.3725133             -10.1366
       409        2.0000           -0.3709548             -10.0942
       410        2.0000           -0.3684600             -10.0263
       411        2.0000           -0.3659243              -9.9573
       412        2.0000           -0.3572069              -9.7201
       413        2.0000           -0.3556326              -9.6773
       414        2.0000           -0.3545693              -9.6483 (HOMO)
       415        0.0000           -0.3032654              -8.2523 (LUMO)
       416                         -0.2975775              -8.0975
       417                         -0.2927713              -7.9667
       418                         -0.2423426              -6.5945
       419                         -0.2411301              -6.5615
       420                         -0.2386981              -6.4953
       421                         -0.2368849              -6.4460
       422                         -0.2367918              -6.4434
       423                         -0.2333471              -6.3497
       424                         -0.2328921              -6.3373
       425                         -0.2295740              -6.2470
       ...                                ...                  ...
       740                          0.6483253              17.6418
      -------------------------------------------------------------
                  HL-Gap            0.0513039 Eh            1.3961 eV
             Fermi-level           -0.3285193 Eh           -8.9395 eV

   #   Z        covCN         q      C6AA      α(0)
   1   7 N      2.637    -0.376    29.700     8.094
   2   6 C      3.790     0.027    20.137     6.391
   3   6 C      2.756     0.275    22.343     7.740
   4   8 O      0.858    -0.499    23.769     6.537
   5   6 C      3.805    -0.052    21.503     6.602
   6   6 C      3.796    -0.078    21.990     6.677
   7   6 C      2.685     0.369    20.742     7.453
   8   8 O      0.856    -0.654    27.475     7.028
   9   8 O      0.856    -0.644    27.230     6.996
  10   1 H      0.860     0.164     1.309     1.792
  11   1 H      0.924     0.052     2.294     2.369
  12   1 H      0.924     0.020     2.737     2.587
  13   1 H      0.924     0.047     2.364     2.404
  14   1 H      0.924     0.002     3.025     2.720
  15   1 H      0.924    -0.005     3.153     2.777
  16   7 N      2.698    -0.169    24.646     7.373
  17   6 C      3.794     0.011    20.405     6.433
  18   6 C      2.757     0.270    22.444     7.758
  19   8 O      0.858    -0.473    23.194     6.457
  20   6 C      3.803    -0.082    22.066     6.688
  21   6 C      3.803    -0.073    21.903     6.663
  22   6 C      3.801    -0.097    22.344     6.730
  23   6 C      3.731    -0.051    21.591     6.633
  24   7 N      3.483    -0.149    24.209     7.308
  25   1 H      0.860     0.204     1.087     1.633
  26   1 H      0.924     0.067     2.118     2.276
  27   1 H      0.924     0.076     2.021     2.223
  28   1 H      0.925     0.068     2.104     2.268
  29   1 H      0.924     0.048     2.351     2.398
  30   1 H      0.924     0.053     2.286     2.364
  31   1 H      0.924     0.090     1.878     2.143
  32   1 H      0.925     0.092     1.857     2.131
  33   1 H      0.925     0.113     1.673     2.022
  34   1 H      0.924     0.107     1.724     2.053
  35   1 H      0.859     0.303     0.704     1.315
  36   1 H      0.859     0.302     0.708     1.318
  37   1 H      0.859     0.307     0.694     1.305
  38   7 N      2.695    -0.182    24.952     7.419
  39   6 C      3.794     0.015    20.324     6.420
  40   6 C      2.756     0.274    22.374     7.746
  41   8 O      0.858    -0.486    23.481     6.497
  42   6 C      3.810    -0.057    21.591     6.614
  43   6 C      3.809    -0.103    22.455     6.745
  44   6 C      2.748     0.292    22.041     7.687
  45   8 O      0.858    -0.497    23.723     6.530
  46   7 N      2.640    -0.289    27.459     7.783
  47   1 H      0.860     0.219     1.014     1.578
  48   1 H      0.924     0.085     1.925     2.170
  49   1 H      0.924     0.045     2.379     2.412
  50   1 H      0.924     0.048     2.347     2.396
  51   1 H      0.925     0.073     2.050     2.239
  52   1 H      0.925     0.076     2.016     2.221
  53   1 H      0.860     0.222     1.001     1.567
  54   1 H      0.860     0.226     0.982     1.552
  55   7 N      2.692    -0.156    24.375     7.333
  56   6 C      3.792     0.018    20.276     6.412
  57   6 C      2.771     0.204    23.664     7.967
  58   8 O      0.856    -0.348    20.662     6.094
  59   6 C      3.856    -0.023    20.955     6.510
  60   6 C      3.801    -0.058    21.613     6.619
  61   6 C      3.756    -0.118    22.812     6.810
  62   6 C      3.752    -0.118    22.814     6.811
  63   1 H      0.860     0.224     0.990     1.559
  64   1 H      0.924     0.086     1.919     2.166
  65   1 H      0.924     0.068     2.106     2.269
  66   1 H      0.924     0.028     2.612     2.527
  67   1 H      0.924     0.021     2.719     2.579
  68   1 H      0.925     0.069     2.098     2.265
  69   1 H      0.925     0.050     2.323     2.383
  70   1 H      0.925     0.039     2.458     2.452
  71   1 H      0.925     0.049     2.328     2.386
  72   1 H      0.925     0.053     2.284     2.363
  73   1 H      0.925     0.053     2.283     2.363
  74   7 N      2.641    -0.407    30.561     8.210
  75   6 C      3.784     0.027    20.140     6.392
  76   6 C      2.764     0.273    22.394     7.750
  77   8 O      0.859    -0.487    23.497     6.499
  78   6 C      3.804    -0.088    22.169     6.703
  79   6 C      3.798    -0.074    21.918     6.666
  80   6 C      3.799    -0.090    22.210     6.710
  81   6 C      3.728    -0.054    21.641     6.641
  82   7 N      3.480    -0.137    23.967     7.271
  83   1 H      0.860     0.176     1.237     1.743
  84   1 H      0.924     0.037     2.491     2.468
  85   1 H      0.924     0.066     2.128     2.281
  86   1 H      0.924     0.064     2.150     2.293
  87   1 H      0.924     0.016     2.800     2.617
  88   1 H      0.925     0.061     2.186     2.312
  89   1 H      0.925     0.076     2.025     2.225
  90   1 H      0.924     0.068     2.112     2.273
  91   1 H      0.924     0.124     1.578     1.964
  92   1 H      0.925     0.121     1.605     1.981
  93   1 H      0.858     0.312     0.679     1.291
  94   1 H      0.859     0.287     0.755     1.361
  95   1 H      0.859     0.291     0.740     1.347
  96   7 N      2.689    -0.174    24.775     7.392
  97   6 C      3.803     0.024    20.164     6.393
  98   6 C      2.762     0.272    22.399     7.750
  99   8 O      0.858    -0.493    23.634     6.518
 100   6 C      3.805    -0.073    21.895     6.661
 101   6 C      3.847    -0.010    20.721     6.475
 102   6 C      3.755    -0.104    22.536     6.769
 103   6 C      3.756    -0.121    22.864     6.818
 104   1 H      0.860     0.205     1.081     1.629
 105   1 H      0.924     0.071     2.074     2.252
 106   1 H      0.924     0.046     2.366     2.405
 107   1 H      0.924     0.068     2.105     2.269
 108   1 H      0.924     0.038     2.479     2.462
 109   1 H      0.925     0.039     2.464     2.455
 110   1 H      0.925     0.011     2.867     2.648
 111   1 H      0.925     0.033     2.542     2.493
 112   1 H      0.925     0.045     2.383     2.414
 113   1 H      0.925     0.043     2.407     2.426
 114   1 H      0.925     0.054     2.265     2.354
 115   7 N      2.692    -0.179    24.878     7.408
 116   6 C      3.805     0.023    20.189     6.397
 117   6 C      2.756     0.280    22.259     7.726
 118   8 O      0.858    -0.499    23.771     6.537
 119   6 C      3.806    -0.039    21.268     6.565
 120   6 C      3.797    -0.076    21.955     6.672
 121   6 C      2.684     0.371    20.720     7.449
 122   8 O      0.856    -0.643    27.205     6.993
 123   8 O      0.856    -0.632    26.926     6.957
 124   1 H      0.860     0.210     1.056     1.609
 125   1 H      0.924     0.089     1.887     2.148
 126   1 H      0.924     0.031     2.578     2.511
 127   1 H      0.924     0.048     2.345     2.395
 128   1 H      0.924     0.006     2.958     2.690
 129   1 H      0.924    -0.010     3.238     2.814
 130   7 N      2.694    -0.177    24.837     7.402
 131   6 C      3.797     0.018    20.285     6.413
 132   6 C      2.761     0.265    22.529     7.773
 133   8 O      0.858    -0.485    23.463     6.494
 134   6 C      3.727     0.128    18.598     6.157
 135   8 O      1.656    -0.476    22.387     6.387
 136   6 C      3.752    -0.128    23.021     6.842
 137   1 H      0.860     0.226     0.982     1.552
 138   1 H      0.924     0.087     1.910     2.161
 139   1 H      0.922     0.011     2.880     2.654
 140   1 H      0.805     0.342     0.607     1.223
 141   1 H      0.925     0.057     2.229     2.335
 142   1 H      0.925     0.024     2.675     2.558
 143   1 H      0.925     0.068     2.113     2.273
 144   7 N      2.690    -0.164    24.544     7.358
 145   6 C      3.799     0.011    20.389     6.429
 146   6 C      2.759     0.278    22.291     7.732
 147   8 O      0.858    -0.487    23.503     6.500
 148   6 C      3.726     0.113    18.818     6.194
 149   8 O      1.655    -0.499    22.868     6.455
 150   6 C      3.752    -0.138    23.215     6.871
 151   1 H      0.860     0.224     0.990     1.559
 152   1 H      0.924     0.095     1.832     2.117
 153   1 H      0.923     0.045     2.378     2.412
 154   1 H      0.805     0.353     0.582     1.199
 155   1 H      0.925     0.090     1.878     2.143
 156   1 H      0.925     0.070     2.086     2.259
 157   1 H      0.925     0.044     2.401     2.423
 158   7 N      2.692    -0.177    24.831     7.401
 159   6 C      3.790     0.026    20.144     6.392
 160   6 C      2.770     0.205    23.645     7.964
 161   8 O      0.856    -0.343    20.572     6.081
 162   6 C      3.677     0.102    19.112     6.263
 163   8 O      1.654    -0.472    22.309     6.376
 164   1 H      0.860     0.227     0.977     1.548
 165   1 H      0.924     0.088     1.902     2.157
 166   1 H      0.923     0.027     2.625     2.534
 167   1 H      0.924     0.036     2.497     2.471
 168   1 H      0.802     0.329     0.639     1.256
 169   7 N      2.642    -0.392    30.155     8.156
 170   6 C      3.790     0.030    20.084     6.382
 171   6 C      2.762     0.280    22.255     7.726
 172   8 O      0.859    -0.493    23.625     6.517
 173   6 C      3.851    -0.024    20.965     6.512
 174   6 C      3.803    -0.055    21.560     6.610
 175   6 C      3.755    -0.109    22.647     6.786
 176   6 C      3.751    -0.095    22.379     6.746
 177   1 H      0.860     0.170     1.272     1.767
 178   1 H      0.924     0.028     2.612     2.527
 179   1 H      0.924     0.039     2.460     2.453
 180   1 H      0.924     0.033     2.542     2.493
 181   1 H      0.924     0.021     2.715     2.577
 182   1 H      0.925     0.039     2.464     2.455
 183   1 H      0.925     0.052     2.293     2.368
 184   1 H      0.925     0.040     2.446     2.446
 185   1 H      0.925     0.023     2.685     2.562
 186   1 H      0.925     0.020     2.739     2.588
 187   1 H      0.925     0.043     2.414     2.430
 188   7 N      2.697    -0.172    24.729     7.386
 189   6 C      3.795     0.032    20.050     6.376
 190   6 C      2.761     0.289    22.104     7.699
 191   8 O      0.859    -0.497    23.728     6.531
 192   6 C      3.811    -0.072    21.864     6.656
 193   6 C      3.848    -0.009    20.711     6.473
 194   6 C      3.754    -0.116    22.787     6.807
 195   6 C      3.757    -0.123    22.906     6.824
 196   1 H      0.860     0.188     1.169     1.693
 197   1 H      0.924     0.058     2.227     2.334
 198   1 H      0.924     0.065     2.146     2.291
 199   1 H      0.924     0.052     2.291     2.367
 200   1 H      0.924     0.013     2.836     2.634
 201   1 H      0.925     0.057     2.236     2.338
 202   1 H      0.925     0.019     2.743     2.590
 203   1 H      0.925     0.052     2.295     2.369
 204   1 H      0.925     0.058     2.227     2.334
 205   1 H      0.925     0.058     2.226     2.333
 206   1 H      0.925     0.046     2.374     2.409
 207   7 N      2.693    -0.176    24.811     7.398
 208   6 C      3.801     0.042    19.862     6.345
 209   6 C      2.760     0.270    22.443     7.758
 210   8 O      0.858    -0.487    23.489     6.498
 211   6 C      3.802    -0.093    22.269     6.719
 212   6 C      2.686     0.378    20.597     7.427
 213   8 O      0.856    -0.632    26.915     6.956
 214   8 O      0.856    -0.614    26.476     6.899
 215   1 H      0.860     0.202     1.098     1.641
 216   1 H      0.924     0.060     2.199     2.319
 217   1 H      0.924     0.026     2.648     2.545
 218   1 H      0.925     0.026     2.650     2.546
 219   7 N      2.692    -0.177    24.836     7.402
 220   6 C      3.796     0.027    20.121     6.387
 221   6 C      2.756     0.278    22.303     7.734
 222   8 O      0.858    -0.475    23.239     6.463
 223   6 C      3.808    -0.107    22.535     6.758
 224   6 C      2.743     0.291    22.064     7.691
 225   8 O      0.859    -0.499    23.762     6.536
 226   7 N      2.639    -0.290    27.471     7.784
 227   1 H      0.860     0.219     1.015     1.578
 228   1 H      0.924     0.083     1.953     2.186
 229   1 H      0.925     0.097     1.813     2.105
 230   1 H      0.924     0.074     2.047     2.238
 231   1 H      0.860     0.248     0.891     1.479
 232   1 H      0.860     0.241     0.919     1.502
 233   7 N      2.690    -0.164    24.557     7.360
 234   6 C      3.795     0.014    20.343     6.423
 235   6 C      2.756     0.269    22.454     7.760
 236   8 O      0.858    -0.488    23.521     6.502
 237   6 C      3.726     0.123    18.677     6.171
 238   8 O      1.655    -0.495    22.785     6.444
 239   6 C      3.753    -0.137    23.199     6.868
 240   1 H      0.860     0.209     1.060     1.613
 241   1 H      0.924     0.087     1.913     2.163
 242   1 H      0.923     0.026     2.648     2.545
 243   1 H      0.805     0.343     0.606     1.222
 244   1 H      0.925     0.073     2.048     2.238
 245   1 H      0.925     0.050     2.326     2.385
 246   1 H      0.925     0.065     2.142     2.289
 247   7 N      2.690    -0.177    24.834     7.401
 248   6 C      3.791     0.023    20.198     6.400
 249   6 C      2.756     0.273    22.382     7.747
 250   8 O      0.859    -0.485    23.465     6.495
 251   6 C      3.806    -0.040    21.286     6.568
 252   6 C      3.798    -0.093    22.282     6.721
 253   6 C      2.684     0.367    20.775     7.459
 254   8 O      0.858    -0.583    25.711     6.798
 255   8 O      0.856    -0.624    26.720     6.930
 256   1 H      0.860     0.221     1.005     1.570
 257   1 H      0.924     0.064     2.149     2.292
 258   1 H      0.924     0.033     2.541     2.493
 259   1 H      0.924     0.019     2.750     2.593
 260   1 H      0.924     0.030     2.585     2.514
 261   1 H      0.924     0.036     2.498     2.472
 262   7 N      2.691    -0.163    24.537     7.357
 263   6 C      3.797     0.011    20.402     6.432
 264   6 C      2.758     0.273    22.391     7.749
 265   8 O      0.858    -0.495    23.677     6.524
 266   6 C      3.850    -0.014    20.790     6.485
 267   6 C      3.755    -0.118    22.808     6.810
 268   6 C      3.755    -0.121    22.867     6.819
 269   1 H      0.860     0.209     1.060     1.613
 270   1 H      0.924     0.079     1.994     2.208
 271   1 H      0.924     0.040     2.453     2.449
 272   1 H      0.925     0.055     2.264     2.353
 273   1 H      0.925     0.031     2.576     2.510
 274   1 H      0.925     0.053     2.280     2.361
 275   1 H      0.925     0.058     2.222     2.331
 276   1 H      0.925     0.046     2.365     2.405
 277   1 H      0.925     0.052     2.291     2.367
 278   7 N      2.693    -0.164    24.541     7.357
 279   6 C      3.790     0.022    20.213     6.403
 280   6 C      2.768     0.194    23.853     7.999
 281   8 O      0.856    -0.348    20.669     6.095
 282   6 C      3.803    -0.081    22.048     6.685
 283   6 C      3.801    -0.072    21.872     6.659
 284   6 C      3.802    -0.098    22.366     6.733
 285   6 C      3.730    -0.038    21.355     6.597
 286   7 N      3.478    -0.176    24.787     7.394
 287   1 H      0.860     0.233     0.951     1.528
 288   1 H      0.924     0.087     1.910     2.161
 289   1 H      0.924     0.087     1.911     2.162
 290   1 H      0.925     0.067     2.116     2.275
 291   1 H      0.924     0.042     2.427     2.436
 292   1 H      0.924     0.065     2.137     2.286
 293   1 H      0.925     0.086     1.914     2.163
 294   1 H      0.924     0.100     1.780     2.087
 295   1 H      0.925     0.114     1.660     2.015
 296   1 H      0.924     0.086     1.913     2.163
 297   1 H      0.859     0.270     0.810     1.409
 298   1 H      0.855     0.296     0.726     1.335
 299   1 H      0.859     0.292     0.738     1.346
 300   1 H      0.862     0.168     1.288     1.777
 301   1 H      0.930     0.085     1.932     2.174
 302   1 H      0.862     0.194     1.135     1.669
 303   1 H      0.930     0.089     1.888     2.149
 304   1 H      0.862     0.189     1.164     1.690
 305   1 H      0.930     0.093     1.853     2.129

 Mol. C6AA /au·bohr⁶  :     826637.125091
 Mol. C8AA /au·bohr⁸  :   18104873.106460
 Mol. α(0) /au        :       1347.397689


Wiberg/Mayer (AO) data.
largest (>0.10) Wiberg bond orders for each atom
          total WBO             WBO to atom ...
     1  N   2.995        C    2 1.024    H  300 0.955    H   10 0.943
     2  C   3.987        N    1 1.024    C    5 0.963    C    3 0.949    H   11 0.949
     3  C   3.947        O    4 1.608    N   16 1.310    C    2 0.949
     4  O   1.954        C    3 1.608    N   16 0.191
     5  C   3.994        C    6 1.010    H   12 0.977    H   13 0.968    C    2 0.963
     6  C   3.990        C    5 1.010    H   15 0.982    H   14 0.965    C    7 0.906
     7  C   3.932        O    9 1.502    O    8 1.501    C    6 0.906
     8  O   1.789        C    7 1.501    O    9 0.215
     9  O   1.795        C    7 1.502    O    8 0.215
    10  H   0.973        N    1 0.943
    11  H   0.997        C    2 0.949
    12  H   0.999        C    5 0.977
    13  H   0.997        C    5 0.968
    14  H   1.000        C    6 0.965
    15  H   1.000        C    6 0.982
    16  N   3.475        C    3 1.310    C   17 0.969    H   25 0.923    O    4 0.191
    17  C   3.952        N   16 0.969    C   20 0.963    H   26 0.955    C   18 0.935
    18  C   3.948        O   19 1.640    N   38 1.301    C   17 0.935
    19  O   1.960        C   18 1.640    N   38 0.200
    20  C   3.979        C   21 1.003    H   27 0.973    H   28 0.971    C   17 0.963
    21  C   3.990        C   20 1.003    C   22 1.003    H   30 0.975    H   29 0.972
    22  C   3.983        C   23 1.010    C   21 1.003    H   32 0.970    H   31 0.968
    23  C   3.920        C   22 1.010    H   33 0.965    H   34 0.964    N   24 0.961
    24  N   3.663        C   23 0.961    H   35 0.895    H   36 0.894    H   37 0.892
    25  H   0.958        N   16 0.923
    26  H   0.995        C   17 0.955
    27  H   0.994        C   20 0.973
    28  H   0.995        C   20 0.971
    29  H   0.998        C   21 0.972
    30  H   0.997        C   21 0.975
    31  H   0.991        C   22 0.968
    32  H   0.991        C   22 0.970
    33  H   0.987        C   23 0.965
    34  H   0.989        C   23 0.964
    35  H   0.908        N   24 0.895
    36  H   0.909        N   24 0.894
    37  H   0.906        N   24 0.892
    38  N   3.471        C   18 1.301    C   39 0.977    H   47 0.895    O   19 0.200
    39  C   3.964        N   38 0.977    C   42 0.975    H   48 0.955    C   40 0.930
    40  C   3.949        O   41 1.609    N   55 1.325    C   39 0.930
    41  O   1.987        C   40 1.609    N   55 0.200
    42  C   3.991        C   43 0.989    C   39 0.975    H   49 0.974    H   50 0.971
    43  C   3.992        C   42 0.989    H   51 0.972    H   52 0.967    C   44 0.965
    44  C   3.942        O   45 1.650    N   46 1.301    C   43 0.965
    45  O   1.948        C   44 1.650    N   46 0.200
    46  N   3.393        C   44 1.301    H   53 0.931    H   54 0.928    O   45 0.200
    47  H   0.952        N   38 0.895
    48  H   0.992        C   39 0.955
    49  H   0.997        C   42 0.974
    50  H   0.998        C   42 0.971
    51  H   0.995        C   43 0.972
    52  H   0.994        C   43 0.967
    53  H   0.951        N   46 0.931
    54  H   0.949        N   46 0.928
    55  N   3.496        C   40 1.325    C   56 0.966    H   63 0.916    O   41 0.200
    56  C   3.951        C   57 0.970    N   55 0.966    H   64 0.955    C   59 0.943
    57  C   3.900        O   58 1.909    C   56 0.970    H  301 0.953
    58  O   2.049        C   57 1.909
    59  C   3.983        C   61 1.008    C   60 0.995    H   65 0.961    C   56 0.943
    60  C   3.995        C   62 1.016    C   59 0.995    H   66 0.977    H   67 0.975
    61  C   3.992        C   59 1.008    H   70 0.985    H   69 0.981    H   68 0.979
    62  C   3.993        C   60 1.016    H   72 0.987    H   71 0.986    H   73 0.984
    63  H   0.949        N   55 0.916
    64  H   0.993        C   56 0.955
    65  H   0.995        C   59 0.961
    66  H   0.999        C   60 0.977
    67  H   1.000        C   60 0.975
    68  H   0.994        C   61 0.979
    69  H   0.998        C   61 0.981
    70  H   0.998        C   61 0.985
    71  H   0.997        C   62 0.986
    72  H   0.997        C   62 0.987
    73  H   0.997        C   62 0.984
    74  N   2.984        C   75 1.014    H  302 0.947    H   83 0.939
    75  C   3.984        N   74 1.014    C   78 0.967    H   84 0.962    C   76 0.947
    76  C   3.931        O   77 1.619    N   96 1.295    C   75 0.947
    77  O   1.962        C   76 1.619    N   96 0.189
    78  C   3.990        C   79 1.006    C   75 0.967    H   85 0.966    H   86 0.966
    79  C   3.991        C   78 1.006    C   80 1.003    H   87 0.976    H   88 0.975
    80  C   3.986        C   81 1.014    C   79 1.003    H   90 0.966    H   89 0.961
    81  C   3.918        C   80 1.014    H   91 0.963    H   92 0.963    N   82 0.956
    82  N   3.669        C   81 0.956    H   95 0.899    H   94 0.897    H   93 0.889
    83  H   0.969        N   74 0.939
    84  H   0.998        C   75 0.962
    85  H   0.995        C   78 0.966
    86  H   0.996        C   78 0.966
    87  H   1.000        C   79 0.976
    88  H   0.996        C   79 0.975
    89  H   0.994        C   80 0.961
    90  H   0.995        C   80 0.966
    91  H   0.984        C   81 0.963
    92  H   0.985        C   81 0.963
    93  H   0.903        N   82 0.889
    94  H   0.918        N   82 0.897
    95  H   0.915        N   82 0.899
    96  N   3.472        C   76 1.295    C   97 0.992    H  104 0.921    O   77 0.189
    97  C   3.972        N   96 0.992    C  100 0.959    C   98 0.953    H  105 0.940
    98  C   3.944        O   99 1.611    N  115 1.304    C   97 0.953
    99  O   1.936        C   98 1.611    N  115 0.193
   100  C   3.987        C  101 0.995    H  106 0.972    H  107 0.968    C   97 0.959
   101  C   3.995        C  102 1.010    C  103 1.007    C  100 0.995    H  108 0.969
   102  C   3.995        C  101 1.010    H  111 0.986    H  109 0.986    H  110 0.984
   103  C   3.994        C  101 1.007    H  114 0.987    H  113 0.987    H  112 0.985
   104  H   0.958        N   96 0.921
   105  H   0.995        C   97 0.940
   106  H   0.997        C  100 0.972
   107  H   0.995        C  100 0.968
   108  H   0.999        C  101 0.969
   109  H   0.998        C  102 0.986
   110  H   1.000        C  102 0.984
   111  H   0.999        C  102 0.986
   112  H   0.998        C  103 0.985
   113  H   0.998        C  103 0.987
   114  H   0.997        C  103 0.987
   115  N   3.479        C   98 1.304    C  116 0.994    H  124 0.901    O   99 0.193
   116  C   3.967        N  115 0.994    C  119 0.953    C  117 0.949    H  125 0.935
   117  C   3.942        O  118 1.603    N  130 1.311    C  116 0.949
   118  O   1.958        C  117 1.603    N  130 0.191
   119  C   3.993        C  120 1.005    H  126 0.976    H  127 0.973    C  116 0.953
   120  C   3.985        C  119 1.005    H  129 0.978    H  128 0.975    C  121 0.905
   121  C   3.938        O  123 1.509    O  122 1.502    C  120 0.905
   122  O   1.793        C  121 1.502    O  123 0.220
   123  O   1.800        C  121 1.509    O  122 0.220
   124  H   0.956        N  115 0.901
   125  H   0.992        C  116 0.935
   126  H   0.999        C  119 0.976
   127  H   0.997        C  119 0.973
   128  H   1.000        C  120 0.975
   129  H   1.000        C  120 0.978
   130  N   3.476        C  117 1.311    C  131 0.992    H  137 0.888    O  118 0.191
   131  C   3.966        N  130 0.992    C  134 0.945    C  132 0.942    H  138 0.942
   132  C   3.952        O  133 1.594    N  144 1.334    C  131 0.942
   133  O   1.950        C  132 1.594    N  144 0.197
   134  C   3.962        C  136 1.001    O  135 0.997    H  139 0.958    C  131 0.945
   135  O   1.935        C  134 0.997    H  140 0.866
   136  C   3.991        C  134 1.001    H  142 0.984    H  141 0.982    H  143 0.981
   137  H   0.949        N  130 0.888
   138  H   0.992        C  131 0.942
   139  H   1.000        C  134 0.958
   140  H   0.883        O  135 0.866
   141  H   0.996        C  136 0.982
   142  H   0.999        C  136 0.984
   143  H   0.995        C  136 0.981
   144  N   3.496        C  132 1.334    C  145 0.989    H  151 0.888    O  133 0.197
   145  C   3.960        N  144 0.989    C  148 0.942    C  146 0.941    H  152 0.935
   146  C   3.943        O  147 1.626    N  158 1.292    C  145 0.941
   147  O   1.978        C  146 1.626    N  158 0.188
   148  C   3.948        C  150 0.998    O  149 0.988    H  153 0.958    C  145 0.942
   149  O   1.923        C  148 0.988    H  154 0.861
   150  C   3.986        C  148 0.998    H  157 0.985    H  156 0.979    H  155 0.977
   151  H   0.949        N  144 0.888
   152  H   0.991        C  145 0.935
   153  H   0.997        C  148 0.958
   154  H   0.876        O  149 0.861
   155  H   0.991        C  150 0.977
   156  H   0.995        C  150 0.979
   157  H   0.998        C  150 0.985
   158  N   3.458        C  146 1.292    C  159 0.993    H  164 0.902    O  147 0.188
   159  C   3.969        N  158 0.993    C  160 0.992    H  165 0.942    C  162 0.921
   160  C   3.906        O  161 1.894    C  159 0.992    H  303 0.953
   161  O   2.053        C  160 1.894
   162  C   3.964        O  163 1.026    H  167 0.969    H  166 0.966    C  159 0.921
   163  O   1.952        C  162 1.026    H  168 0.828
   164  H   0.948        N  158 0.902
   165  H   0.992        C  159 0.942
   166  H   0.999        C  162 0.966
   167  H   0.998        C  162 0.969
   168  H   0.891        O  163 0.828
   169  N   2.990        C  170 1.019    H  304 0.950    H  177 0.949
   170  C   3.988        N  169 1.019    H  178 0.958    C  173 0.954    C  171 0.947
   171  C   3.938        O  172 1.624    N  188 1.299    C  170 0.947
   172  O   1.943        C  171 1.624    N  188 0.191
   173  C   3.993        C  175 1.010    C  174 0.996    H  179 0.965    C  170 0.954
   174  C   3.995        C  176 1.018    C  173 0.996    H  180 0.976    H  181 0.974
   175  C   3.995        C  173 1.010    H  182 0.984    H  184 0.984    H  183 0.982
   176  C   3.997        C  174 1.018    H  187 0.987    H  185 0.987    H  186 0.983
   177  H   0.971        N  169 0.949
   178  H   0.999        C  170 0.958
   179  H   0.998        C  173 0.965
   180  H   0.999        C  174 0.976
   181  H   1.000        C  174 0.974
   182  H   0.998        C  175 0.984
   183  H   0.997        C  175 0.982
   184  H   0.998        C  175 0.984
   185  H   0.999        C  176 0.987
   186  H   1.000        C  176 0.983
   187  H   0.998        C  176 0.987
   188  N   3.474        C  171 1.299    C  189 0.977    H  196 0.926    O  172 0.191
   189  C   3.963        N  188 0.977    C  192 0.960    H  197 0.958    C  190 0.945
   190  C   3.939        O  191 1.630    N  207 1.290    C  189 0.945
   191  O   1.949        C  190 1.630    N  207 0.188
   192  C   3.982        C  193 0.994    H  199 0.973    H  198 0.971    C  189 0.960
   193  C   3.993        C  194 1.009    C  195 1.006    C  192 0.994    H  200 0.969
   194  C   3.995        C  193 1.009    H  202 0.987    H  203 0.985    H  201 0.984
   195  C   3.992        C  193 1.006    H  206 0.986    H  205 0.986    H  204 0.985
   196  H   0.965        N  188 0.926
   197  H   0.997        C  189 0.958
   198  H   0.995        C  192 0.971
   199  H   0.997        C  192 0.973
   200  H   1.000        C  193 0.969
   201  H   0.997        C  194 0.984
   202  H   1.000        C  194 0.987
   203  H   0.997        C  194 0.985
   204  H   0.996        C  195 0.985
   205  H   0.997        C  195 0.986
   206  H   0.998        C  195 0.986
   207  N   3.462        C  190 1.290    C  208 0.987    H  215 0.924    O  191 0.188
   208  C   3.968        N  207 0.987    C  211 0.957    H  216 0.950    C  209 0.939
   209  C   3.953        O  210 1.627    N  219 1.307    C  208 0.939
   210  O   1.946        C  209 1.627    N  219 0.199
   211  C   3.983        H  217 0.978    H  218 0.977    C  208 0.957    C  212 0.904
   212  C   3.936        O  214 1.526    O  213 1.473    C  211 0.904
   213  O   1.823        C  212 1.473    O  214 0.215
   214  O   1.826        C  212 1.526    O  213 0.215
   215  H   0.959        N  207 0.924
   216  H   0.996        C  208 0.950
   217  H   0.999        C  211 0.978
   218  H   0.999        C  211 0.977
   219  N   3.476        C  209 1.307    C  220 0.984    H  227 0.896    O  210 0.199
   220  C   3.961        N  219 0.984    C  223 0.964    H  228 0.949    C  221 0.941
   221  C   3.948        O  222 1.612    N  233 1.315    C  220 0.941
   222  O   1.984        C  221 1.612    N  233 0.195
   223  C   3.987        C  224 0.965    C  220 0.964    H  229 0.957    H  230 0.952
   224  C   3.950        O  225 1.647    N  226 1.313    C  223 0.965
   225  O   1.956        C  224 1.647    N  226 0.200
   226  N   3.389        C  224 1.313    H  232 0.924    H  231 0.918    O  225 0.200
   227  H   0.952        N  219 0.896
   228  H   0.993        C  220 0.949
   229  H   0.990        C  223 0.957
   230  H   0.994        C  223 0.952
   231  H   0.938        N  226 0.918
   232  H   0.942        N  226 0.924
   233  N   3.486        C  221 1.315    C  234 0.980    H  240 0.922    O  222 0.195
   234  C   3.957        N  233 0.980    C  237 0.948    H  241 0.947    C  235 0.937
   235  C   3.953        O  236 1.626    N  247 1.321    C  234 0.937
   236  O   1.948        C  235 1.626    N  247 0.205
   237  C   3.952        C  239 1.001    O  238 0.988    H  242 0.960    C  234 0.948
   238  O   1.925        C  237 0.988    H  243 0.865
   239  C   3.989        C  237 1.001    H  246 0.983    H  245 0.983    H  244 0.980
   240  H   0.956        N  233 0.922
   241  H   0.992        C  234 0.947
   242  H   0.999        C  237 0.960
   243  H   0.882        O  238 0.865
   244  H   0.994        C  239 0.980
   245  H   0.998        C  239 0.983
   246  H   0.996        C  239 0.983
   247  N   3.483        C  235 1.321    C  248 0.978    H  256 0.897    O  236 0.205
   248  C   3.958        N  247 0.978    H  257 0.959    C  251 0.957    C  249 0.941
   249  C   3.954        O  250 1.610    N  262 1.322    C  248 0.941
   250  O   1.968        C  249 1.610    N  262 0.198
   251  C   3.988        C  252 1.006    H  258 0.974    H  259 0.973    C  248 0.957
   252  C   3.984        C  251 1.006    H  260 0.977    H  261 0.965    C  253 0.914
   253  C   3.935        O  255 1.552    O  254 1.436    C  252 0.914
   254  O   1.845        C  253 1.436    O  255 0.211
   255  O   1.841        C  253 1.552    O  254 0.211
   256  H   0.951        N  247 0.897
   257  H   0.996        C  248 0.959
   258  H   0.998        C  251 0.974
   259  H   1.000        C  251 0.973
   260  H   0.999        C  252 0.977
   261  H   0.999        C  252 0.965
   262  N   3.486        C  249 1.322    C  263 0.971    H  269 0.918    O  250 0.198
   263  C   3.948        N  262 0.971    H  270 0.947    C  266 0.947    C  264 0.942
   264  C   3.957        O  265 1.620    N  278 1.325    C  263 0.942
   265  O   1.949        C  264 1.620    N  278 0.203
   266  C   3.988        C  267 1.011    C  268 1.008    H  271 0.966    C  263 0.947
   267  C   3.994        C  266 1.011    H  273 0.986    H  272 0.984    H  274 0.983
   268  C   3.992        C  266 1.008    H  276 0.985    H  275 0.984    H  277 0.982
   269  H   0.956        N  262 0.918
   270  H   0.994        C  263 0.947
   271  H   0.998        C  266 0.966
   272  H   0.997        C  267 0.984
   273  H   0.999        C  267 0.986
   274  H   0.997        C  267 0.983
   275  H   0.996        C  268 0.984
   276  H   0.998        C  268 0.985
   277  H   0.997        C  268 0.982
   278  N   3.487        C  264 1.325    C  279 0.983    H  287 0.891    O  265 0.203
   279  C   3.961        C  280 0.989    N  278 0.983    H  288 0.942    C  282 0.940
   280  C   3.903        O  281 1.895    C  279 0.989    H  305 0.951
   281  O   2.067        C  280 1.895
   282  C   3.979        C  283 1.008    H  290 0.968    H  289 0.968    C  279 0.940
   283  C   3.992        C  282 1.008    C  284 1.006    H  291 0.976    H  292 0.966
   284  C   3.983        C  283 1.006    C  285 1.003    H  294 0.971    H  293 0.960
   285  C   3.917        C  284 1.003    H  295 0.969    H  296 0.967    N  286 0.956
   286  N   3.640        C  285 0.956    H  297 0.913    H  299 0.899    H  298 0.799
   287  H   0.946        N  278 0.891
   288  H   0.992        C  279 0.942
   289  H   0.992        C  282 0.968
   290  H   0.995        C  282 0.968
   291  H   0.998        C  283 0.976
   292  H   0.996        C  283 0.966
   293  H   0.992        C  284 0.960
   294  H   0.990        C  284 0.971
   295  H   0.987        C  285 0.969
   296  H   0.992        C  285 0.967
   297  H   0.927        N  286 0.913
   298  H   0.912        N  286 0.799
   299  H   0.915        N  286 0.899
   300  H   0.971        N    1 0.955
   301  H   0.992        C   57 0.953
   302  H   0.962        N   74 0.947
   303  H   0.992        C  160 0.953
   304  H   0.964        N  169 0.950
   305  H   0.991        C  280 0.951
 
molecular dipole:
                 x           y           z       tot (Debye)
 q only:        5.346     -67.280    -158.752
   full:        2.794     -66.727    -157.960     435.915
molecular quadrupole (traceless):
                xx          xy          yy          xz          yz          zz
 q only:    15905.295    -156.903    6156.261   -1010.006  -15370.050  -22061.556
  q+dip:    15616.372    -349.463    6232.072   -1440.407  -15232.977  -21848.444
   full:    15625.851    -343.464    6224.619   -1439.974  -15229.068  -21850.470


           -------------------------------------------------
          | TOTAL ENERGY             -472.473400658365 Eh   |
          | GRADIENT NORM               0.391665053060 Eh/α |
          | HOMO-LUMO GAP               1.396050986324 eV   |
           -------------------------------------------------

------------------------------------------------------------------------
 * finished run on 2019/05/31 at 06:33:41.514     
------------------------------------------------------------------------
 total:
 * wall-time:     0 d,  0 h,  0 min,  7.996 sec
 *  cpu-time:     0 d,  0 h,  0 min, 15.548 sec
 * ratio c/w:     1.945 speedup
 SCF:
 * wall-time:     0 d,  0 h,  0 min,  7.328 sec
 *  cpu-time:     0 d,  0 h,  0 min, 14.378 sec
 * ratio c/w:     1.962 speedup

