      -----------------------------------------------------------      
     |                   =====================                   |     
     |                           x T B                           |     
     |                   =====================                   |     
     |                         S. Grimme                         |     
     |          Mulliken Center for Theoretical Chemistry        |     
     |                    University of Bonn                     |     
     |                 Version 6.0.1 (SAW181210)                 |     
      -----------------------------------------------------------      

   This program is distributed in the hope that it will be useful,
   but WITHOUT ANY WARRANTY; without even the implied warranty of
   MERCHANTABILITY or FITNESS FOR A PARTICULAR PURPOSE.
   
   FOR NON-COMMERCIAL, ACADEMIA USE ONLY.
   
   Cite this work as:
   S. Grimme, C. Bannwarth, P. Shushkov, J. Comput. Theory Chem., 2017,
   13, 1989-2009.
   C. Bannwarth, S. Ehlert and S. Grimme., ChemRxiv, 2018, preprint.
   http://doi.org/10.26434/chemrxiv.7246238.v1
   
   for sTDA-xTB:
   S. Grimme and C. Bannwarth, J. Chem. Phys., 2016, 145, 054103.
   
   in the mass-spec context:
   V. Asgeirsson, C. Bauer and S. Grimme, Chem. Sci., 2017, 8, 4879.
   
   if GBSA is used:
   P. Shushkov, F. März and S. Grimme, unpublished.
   
   for ANC optimizer:
   S. Grimme, unpublished.
   Rational Function algorithm used in ANCopt:
   F. Eckert, P. Pulay, H.-J. Werner, J. Comput. Chem., 1997, 18, 1473.
   
   with help from (in alphabetical order)
   C. Bannwarth, F. Bohle, G. Brandenburg, E. Caldeweyher, M. Checinski,
   S. Dohm, S. Ehlert, S. Ehrlich, F. März, H. Neugebauer, J. Pisarek,
   P. Pracht, P. Shushkov, and S. Spicher.
   
 * started run on 2019/03/14 at 15:08:17.987     
========================================================================
 # omp threads = 1
========================================================================
number of atoms            : 390
number of electrons        : 1012
charge                     : 1
spin                       : .0
first test random number   : .1790
           ------------------------------------------------- 
          |                 G F N 2 - x T B                 |
          | Geometry, Frequencies, Noncovalent interactions |
          |            JCTC 2018 parametrisation            |
           ------------------------------------------------- 
 
      method parameters     
 k(s)        :  1.8500
 k(p)        :  2.2300
 k(d)        :  2.2300
 k(f)        :  2.0000
 kEN (H0ij)  : -2.0000
 D4 a1       :  0.5200
 D4 a2       :  5.0000
 D4 s6       :  1.0000
 D4 s8       :  2.7000
 D4 s9       :  5.0000
 alphaj      :  2.0000

 Solvent             : h2o
 Using internal parameter file: .param_gbsa2_h2o
 Gsolv ref. state (COSMO-RS): gsolv [1 M gas/solution]
 temperature (mdtemp)       :    298.150000000000     
 dielectric constant        :    80.2000000000000     
 rho                        :    1.00000000000000     
 mass                       :    18.0000000000000     
 surface tension            :    15.5689454083859     
 probe radius               :   0.975313790000000     
 vdW radii scaling          :    1.00000000000000     
 Gshift (Eh)                :   1.857443126794793E-003
 c1                         :    1.55243817000000     
 soset                      :   0.130326360000000     
 HB correction              :  T

            Z     q(EN)     CN     RAES       Cart. coordinates
     1  N   5.0   -0.08    4.25    3.61    76.38636   127.08093   100.73936
     2  C   4.0   -0.00    4.40    4.38    78.01494   124.95496    99.77898
     3  C   4.0    0.14    3.39    3.08    77.68739   124.77250    96.87954
     4  O   6.0   -0.31    1.24    1.80    76.12228   123.41226    95.90166
     5  C   4.0   -0.04    4.28    4.16    77.09635   122.54558   101.09582
     6  C   4.0   -0.04    4.19    3.98    74.76999   123.22867   102.68812
     7  C   4.0   -0.03    4.22    4.05    74.41551   126.09061   102.52346
     8  H   1.0    0.05    1.05    1.44    77.47538   128.40121   101.65354
     9  H   1.0    0.05    1.07    1.44    75.49263   127.96930    99.26099
    10  H   1.0    0.04    1.04    1.43    79.99766   125.32390   100.21835
    11  H   1.0    0.06    1.04    1.43    76.56735   121.15671    99.67315
    12  H   1.0    0.04    1.02    1.43    78.58931   121.74810   102.25878
    13  H   1.0    0.05    1.02    1.43    73.11020   122.26537   101.95601
    14  H   1.0    0.04    1.02    1.43    75.03696   122.64971   104.64009
    15  H   1.0    0.04    1.02    1.43    72.53856   126.54852   101.81508
    16  H   1.0    0.04    1.02    1.43    74.65682   126.97684   104.36317
    17  N   5.0   -0.16    3.47    2.06    79.23116   126.29472    95.54584
    18  C   4.0    0.03    4.42    4.41    78.83973   126.67461    92.86287
    19  C   4.0    0.14    3.40    3.08    80.62598   125.13445    91.17908
    20  O   6.0   -0.32    1.27    1.80    80.86508   125.56965    88.92707
    21  C   4.0   -0.05    4.35    4.29    78.99340   129.48434    92.17755
    22  C   4.0   -0.03    4.17    3.95    77.09205   131.17062    93.57645
    23  C   4.0   -0.08    4.11    3.83    77.47375   133.90768    92.74365
    24  C   4.0   -0.08    4.10    3.81    74.34306   130.42511    93.11632
    25  H   1.0    0.07    1.06    1.44    80.54978   127.39897    96.37727
    26  H   1.0    0.05    1.07    1.44    76.93446   125.95630    92.45588
    27  H   1.0    0.04    1.03    1.43    80.90401   130.15706    92.57545
    28  H   1.0    0.05    1.03    1.43    78.69199   129.65176    90.14807
    29  H   1.0    0.04    1.05    1.44    77.48511   131.07069    95.60433
    30  H   1.0    0.04    1.00    1.43    76.15233   135.14536    93.71495
    31  H   1.0    0.04    1.00    1.43    79.38606   134.53542    93.15015
    32  H   1.0    0.04    1.00    1.43    77.14506   134.10542    90.72421
    33  H   1.0    0.04    1.00    1.43    73.10237   131.61963    94.23547
    34  H   1.0    0.04    1.00    1.43    73.84643   130.73319    91.14752
    35  H   1.0    0.05    1.00    1.43    73.96581   128.46242    93.58798
    36  N   5.0   -0.14    3.57    2.13    81.78872   123.17660    92.29237
    37  C   4.0    0.03    4.46    4.48    83.67218   121.70883    90.94130
    38  C   4.0    0.15    3.40    3.08    82.40153   119.91934    89.05088
    39  O   6.0   -0.30    1.22    1.80    83.37321   119.32778    87.04426
    40  C   4.0   -0.04    4.31    4.22    85.32092   120.32797    92.87139
    41  C   4.0   -0.02    3.54    3.13    86.65646   122.10667    94.67835
    42  C   4.0   -0.04    3.46    3.10    87.89101   121.09637    96.77575
    43  C   4.0   -0.04    3.50    3.11    86.73061   124.70986    94.33803
    44  C   4.0   -0.03    3.43    3.09    89.16523   122.62278    98.46382
    45  C   4.0   -0.04    3.43    3.09    87.98379   126.26373    96.02922
    46  C   4.0    0.07    3.44    3.09    89.22608   125.23202    98.09780
    47  O   6.0   -0.23    2.11    1.84    90.49304   126.68158    99.79654
    48  H   1.0    0.08    1.08    1.44    81.65659   122.89425    94.17509
    49  H   1.0    0.06    1.06    1.44    84.83869   122.97576    89.78623
    50  H   1.0    0.04    1.03    1.43    84.15048   119.00780    93.94905
    51  H   1.0    0.05    1.03    1.43    86.72076   119.19974    91.85716
    52  H   1.0    0.05    1.03    1.43    87.87954   119.07784    97.08322
    53  H   1.0    0.05    1.04    1.43    85.83927   125.59871    92.73624
    54  H   1.0    0.06    1.03    1.43    90.14261   121.82643   100.06792
    55  H   1.0    0.05    1.03    1.43    88.02070   128.28365    95.71402
    56  H   1.0    0.12    1.03    1.43    90.45784   128.43920    99.29349
    57  N   5.0   -0.14    3.50    2.08    80.11131   119.10162    89.77713
    58  C   4.0    0.04    4.44    4.45    78.62010   117.42025    88.22266
    59  C   4.0    0.15    3.46    3.10    77.27054   118.89696    86.13332
    60  O   6.0   -0.30    1.31    1.80    77.32913   118.20213    83.93390
    61  C   4.0   -0.04    4.31    4.22    76.76197   115.86242    89.81984
    62  C   4.0   -0.01    3.59    3.16    75.85142   113.71072    88.19975
    63  C   4.0   -0.04    3.47    3.10    77.30746   111.53307    87.99063
    64  C   4.0   -0.04    3.46    3.10    73.68289   113.94906    86.74627
    65  C   4.0   -0.04    3.37    3.07    76.66192   109.65669    86.28852
    66  C   4.0   -0.04    3.38    3.07    73.02135   112.06871    85.05504
    67  C   4.0   -0.04    3.38    3.07    74.55441   109.96434    84.76509
    68  H   1.0    0.08    1.08    1.44    79.35921   119.71084    91.42210
    69  H   1.0    0.06    1.06    1.44    79.92151   116.13408    87.24603
    70  H   1.0    0.04    1.03    1.43    77.76747   115.13499    91.46541
    71  H   1.0    0.04    1.02    1.43    75.19216   117.03538    90.46136
    72  H   1.0    0.05    1.03    1.43    78.97996   111.32604    89.14406
    73  H   1.0    0.05    1.03    1.43    72.53338   115.62914    86.90378
    74  H   1.0    0.05    1.03    1.43    77.80609   107.96726    86.15954
    75  H   1.0    0.04    1.03    1.43    71.30713   112.24666    83.96227
    76  H   1.0    0.04    1.03    1.43    74.11324   108.59574    83.32083
    77  N   5.0   -0.15    3.49    2.07    76.12737   121.04998    86.84379
    78  C   4.0    0.03    4.49    4.52    74.76093   122.53745    84.97572
    79  C   4.0    0.16    3.51    3.12    76.52520   123.09684    82.75259
    80  O   6.0   -0.32    1.32    1.80    75.77696   122.88314    80.57101
    81  C   4.0   -0.03    4.24    4.09    73.49487   124.87571    86.15596
    82  C   4.0   -0.07    4.14    3.89    75.42316   126.72193    87.20499
    83  C   4.0   -0.08    4.12    3.83    71.82362   126.24676    84.25074
    84  H   1.0    0.08    1.06    1.44    75.87031   121.46718    88.68626
    85  H   1.0    0.04    1.06    1.44    73.25120   121.36197    84.17440
    86  H   1.0    0.04    1.05    1.44    72.30072   124.17285    87.69646
    87  H   1.0    0.03    1.00    1.43    74.46431   128.20212    88.24765
    88  H   1.0    0.06    1.02    1.43    76.72755   125.75058    88.43801
    89  H   1.0    0.04    1.00    1.43    76.49266   127.59898    85.68682
    90  H   1.0    0.04    1.00    1.43    70.77371   127.74097    85.19305
    91  H   1.0    0.04    1.00    1.43    72.98702   127.10834    82.79624
    92  H   1.0    0.04    1.00    1.43    70.49216   124.97365    83.34684
    93  N   5.0   -0.14    3.50    2.08    78.92450   123.73398    83.25043
    94  C   4.0    0.03    4.52    4.57    80.64661   124.21676    81.16079
    95  C   4.0    0.16    3.50    3.11    80.73706   121.87652    79.45277
    96  O   6.0   -0.32    1.26    1.80    80.21728   121.95803    77.19873
    97  C   4.0   -0.02    4.26    4.12    83.27234   124.98316    82.14617
    98  C   4.0   -0.07    4.14    3.88    85.15013   125.05514    79.95998
    99  C   4.0   -0.07    4.12    3.83    83.13955   127.58302    83.39006
   100  H   1.0    0.10    1.07    1.44    79.56983   124.05176    85.02018
   101  H   1.0    0.05    1.05    1.44    79.88005   125.74578    79.97808
   102  H   1.0    0.06    1.05    1.44    83.89741   123.58361    83.53906
   103  H   1.0    0.04    1.00    1.43    86.99090   125.70111    80.60142
   104  H   1.0    0.05    1.00    1.43    85.36142   123.19736    79.11454
   105  H   1.0    0.04    1.00    1.43    84.48518   126.35736    78.51598
   106  H   1.0    0.04    1.00    1.43    85.01311   128.16061    83.99998
   107  H   1.0    0.04    1.00    1.43    82.46351   128.96768    82.03104
   108  H   1.0    0.06    1.00    1.43    81.90148   127.56944    85.02479
   109  N   5.0   -0.14    3.49    2.07    81.44254   119.74516    80.62359
   110  C   4.0    0.05    4.41    4.40    81.83446   117.40775    79.27421
   111  C   4.0    0.16    3.39    3.07    79.39157   116.00367    78.50987
   112  O   6.0   -0.30    1.24    1.80    79.53989   113.88502    77.61429
   113  C   4.0   -0.03    4.31    4.21    83.60866   115.61825    80.70640
   114  C   4.0    0.16    3.21    3.04    85.62503   114.50812    78.96064
   115  O   6.0   -0.29    1.21    1.80    85.31245   114.24446    76.69595
   116  N   5.0   -0.19    3.18    1.95    87.78165   113.88496    80.14401
   117  H   1.0    0.10    1.07    1.44    81.79258   119.74104    82.50016
   118  H   1.0    0.06    1.07    1.44    82.74421   117.90380    77.46089
   119  H   1.0    0.05    1.03    1.43    84.53097   116.59907    82.26415
   120  H   1.0    0.06    1.03    1.43    82.49785   114.04476    81.45132
   121  H   1.0    0.10    1.03    1.43    89.21683   113.11090    79.15632
   122  H   1.0    0.08    1.03    1.43    88.04268   114.24331    81.98957
   123  N   5.0   -0.13    3.50    2.08    77.21927   117.30558    78.72659
   124  C   4.0    0.03    4.49    4.52    74.85115   116.39848    77.68404
   125  C   4.0    0.14    3.52    3.12    73.87900   118.11785    75.58558
   126  O   6.0   -0.33    1.32    1.80    72.40743   117.31361    73.97513
   127  C   4.0   -0.02    4.26    4.12    72.71469   116.05556    79.63823
   128  C   4.0   -0.07    4.15    3.90    71.57548   118.59203    80.39798
   129  C   4.0   -0.08    4.12    3.84    70.64498   114.33978    78.58928
   130  H   1.0    0.12    1.10    1.44    77.14510   118.64688    80.08465
   131  H   1.0    0.05    1.07    1.44    75.25994   114.56309    76.81893
   132  H   1.0    0.05    1.06    1.44    73.56807   115.17462    81.30289
   133  H   1.0    0.04    1.00    1.43    70.50223   118.35395    82.13106
   134  H   1.0    0.07    1.02    1.43    73.05356   119.98147    80.67656
   135  H   1.0    0.05    1.00    1.43    70.30943   119.31267    78.94609
   136  H   1.0    0.04    1.00    1.43    69.13891   114.14984    79.97106
   137  H   1.0    0.06    1.01    1.43    69.83859   115.14802    76.87969
   138  H   1.0    0.04    1.00    1.43    71.37352   112.47507    78.13686
   139  N   5.0   -0.14    3.54    2.11    74.72258   120.49303    75.57104
   140  C   4.0    0.03    4.52    4.57    74.17723   122.18923    73.49498
   141  C   4.0    0.15    3.48    3.11    75.93823   121.48222    71.31269
   142  O   6.0   -0.32    1.34    1.80    75.10164   120.99681    69.20081
   143  C   4.0   -0.02    4.33    4.25    74.38203   124.96391    74.31829
   144  C   4.0   -0.04    4.20    4.01    72.31020   125.51852    76.26365
   145  C   4.0   -0.08    4.14    3.88    74.11692   126.66986    72.01319
   146  C   4.0   -0.08    4.01    3.64    72.62397   128.06211    77.57212
   147  H   1.0    0.11    1.09    1.44    75.83724   121.14290    76.97917
   148  H   1.0    0.05    1.06    1.44    72.24459   121.81539    72.83334
   149  H   1.0    0.05    1.05    1.44    76.23769   125.24426    75.18940
   150  H   1.0    0.04    1.03    1.43    70.48225   125.44469    75.31158
   151  H   1.0    0.05    1.04    1.43    72.35791   124.04762    77.70368
   152  H   1.0    0.04    1.00    1.43    74.27312   128.64580    72.53891
   153  H   1.0    0.04    1.01    1.43    75.57248   126.24930    70.63292
   154  H   1.0    0.04    1.00    1.43    72.28173   126.37694    71.13397
   155  H   1.0    0.04    1.00    1.43    71.11402   128.32238    78.93922
   156  H   1.0    0.05    1.00    1.43    74.42975   128.10680    78.55040
   157  H   1.0    0.04    1.00    1.43    72.55438   129.62782    76.24757
   158  N   5.0   -0.15    3.49    2.07    78.38522   121.27380    71.87767
   159  C   4.0    0.03    4.51    4.55    80.22200   120.49023    70.00210
   160  C   4.0    0.15    3.63    3.18    79.30720   118.23326    68.45194
   161  O   6.0   -0.32    1.36    1.80    79.31936   118.40695    66.13072
   162  C   4.0   -0.02    4.34    4.28    82.81070   119.96150    71.20716
   163  C   4.0   -0.05    4.20    4.00    83.87962   122.39942    72.34610
   164  C   4.0   -0.07    4.15    3.90    84.60508   118.88027    69.22568
   165  C   4.0   -0.07    4.02    3.66    86.31902   121.95586    73.80766
   166  H   1.0    0.10    1.09    1.44    79.01986   121.57621    73.66070
   167  H   1.0    0.05    1.06    1.44    80.46237   122.00235    68.58972
   168  H   1.0    0.05    1.05    1.44    82.54062   118.56653    72.70993
   169  H   1.0    0.04    1.03    1.43    84.21866   123.75647    70.83123
   170  H   1.0    0.05    1.04    1.43    82.49657   123.20469    73.64132
   171  H   1.0    0.04    1.00    1.43    86.41227   118.42427    70.07867
   172  H   1.0    0.05    1.01    1.43    83.83698   117.16582    68.40262
   173  H   1.0    0.04    1.00    1.43    84.90943   120.23971    67.71363
   174  H   1.0    0.04    1.00    1.43    86.88188   123.68474    74.75927
   175  H   1.0    0.05    1.00    1.43    86.03558   120.47938    75.21076
   176  H   1.0    0.04    1.00    1.43    87.84452   121.37931    72.56479
   177  N   5.0   -0.10    3.68    2.24    78.66214   116.05721    69.57176
   178  C   4.0    0.03    4.61    4.68    78.00884   113.93455    67.94803
   179  C   4.0    0.16    3.53    3.13    75.85735   114.71728    66.22426
   180  O   6.0   -0.32    1.36    1.80    75.84509   114.21740    63.97446
   181  C   4.0   -0.05    4.30    4.20    77.21310   111.75729    69.67865
   182  C   4.0   -0.04    4.23    4.06    76.79288   112.96665    72.27441
   183  C   4.0    0.00    4.35    4.30    78.03649   115.58148    72.19405
   184  H   1.0    0.05    1.05    1.44    79.60063   113.41727    66.72987
   185  H   1.0    0.04    1.03    1.43    75.49712   110.87855    68.95093
   186  H   1.0    0.04    1.02    1.43    78.67309   110.31058    69.75546
   187  H   1.0    0.05    1.02    1.43    74.77779   113.15558    72.66038
   188  H   1.0    0.05    1.03    1.43    77.68008   111.86503    73.76532
   189  H   1.0    0.06    1.07    1.44    76.73954   117.01658    72.89145
   190  H   1.0    0.06    1.02    1.43    79.71429   115.62387    73.38854
   191  N   5.0   -0.14    3.56    2.13    73.94686   115.91054    67.36438
   192  C   4.0    0.04    4.52    4.56    71.76544   116.71608    65.94866
   193  C   4.0    0.16    3.46    3.10    72.45555   118.42159    63.72235
   194  O   6.0   -0.33    1.34    1.80    71.21747   118.27175    61.75918
   195  C   4.0   -0.04    4.12    3.85    69.90228   118.09954    67.64584
   196  S   6.0   -0.06    2.41    3.10    68.37240   115.89704    69.82262
   197  H   1.0    0.10    1.08    1.44    74.03679   116.38044    69.20826
   198  H   1.0    0.05    1.06    1.44    70.84121   115.03939    65.13001
   199  H   1.0    0.06    1.07    1.44    70.85490   119.55748    68.73607
   200  H   1.0    0.04    1.07    1.44    68.44200   118.96361    66.48196
   201  H   1.0    0.08    1.03    1.43    70.02310   116.22707    71.68387
   202  N   5.0   -0.13    3.51    2.09    74.33488   120.04732    64.05691
   203  C   4.0    0.04    4.42    4.41    75.11747   121.79226    62.09283
   204  C   4.0    0.15    3.44    3.09    76.55940   120.39866    60.00307
   205  O   6.0   -0.32    1.28    1.80    76.19753   120.86232    57.75646
   206  C   4.0   -0.05    4.35    4.30    76.81104   123.89197    63.14119
   207  C   4.0   -0.02    4.18    3.95    75.55607   125.59471    65.12482
   208  C   4.0   -0.08    4.11    3.82    77.50611   127.51484    66.05406
   209  C   4.0   -0.07    4.10    3.81    73.23456   126.96022    64.09926
   210  H   1.0    0.12    1.11    1.45    75.13413   120.22438    65.79238
   211  H   1.0    0.05    1.05    1.44    73.42739   122.60580    61.20852
   212  H   1.0    0.05    1.03    1.43    78.48013   123.01562    63.98267
   213  H   1.0    0.04    1.03    1.43    77.42474   125.05238    61.54767
   214  H   1.0    0.06    1.06    1.44    74.96520   124.40503    66.70535
   215  H   1.0    0.04    1.00    1.43    76.65883   128.83548    67.37823
   216  H   1.0    0.04    1.00    1.43    79.07360   126.56644    66.98681
   217  H   1.0    0.04    1.00    1.43    78.24183   128.59002    64.46605
   218  H   1.0    0.04    1.00    1.43    72.46404   128.20531    65.53917
   219  H   1.0    0.04    1.00    1.43    73.72312   128.09310    62.45624
   220  H   1.0    0.05    1.00    1.43    71.76453   125.62990    63.56313
   221  N   5.0   -0.14    3.54    2.10    78.25094   118.71634    60.80335
   222  C   4.0    0.03    4.43    4.44    79.77262   117.29677    59.02850
   223  C   4.0    0.15    3.45    3.10    78.14614   115.38541    57.60997
   224  O   6.0   -0.30    1.24    1.80    78.67373   114.74353    55.44202
   225  C   4.0   -0.04    4.38    4.34    81.88004   115.80590    60.32562
   226  C   4.0   -0.02    4.18    3.97    83.61021   117.32099    62.07900
   227  C   4.0   -0.07    4.12    3.83    85.30502   115.44642    63.47338
   228  C   4.0   -0.08    4.10    3.81    85.19421   119.23065    60.62255
   229  H   1.0    0.11    1.10    1.44    78.56081   118.44754    62.67818
   230  H   1.0    0.05    1.05    1.44    80.54350   118.59016    57.60212
   231  H   1.0    0.05    1.03    1.43    80.99702   114.29086    61.41190
   232  H   1.0    0.05    1.03    1.43    83.02907   114.96276    58.83395
   233  H   1.0    0.06    1.07    1.44    82.46424   118.31779    63.47395
   234  H   1.0    0.04    1.00    1.43    86.66131   116.42964    64.65800
   235  H   1.0    0.04    1.00    1.43    84.16654   114.21484    64.66115
   236  H   1.0    0.04    1.00    1.43    86.33019   114.27735    62.13104
   237  H   1.0    0.04    1.00    1.43    86.33496   120.33188    61.92687
   238  H   1.0    0.04    1.00    1.43    86.45281   118.25678    59.32508
   239  H   1.0    0.04    1.00    1.43    84.01170   120.52072    59.54755
   240  N   5.0   -0.14    3.58    2.14    76.19648   114.48219    58.90366
   241  C   4.0    0.04    4.42    4.42    74.28912   112.79369    57.90998
   242  C   4.0    0.16    3.55    3.14    72.51239   114.27956    56.21285
   243  O   6.0   -0.28    1.26    1.80    71.68220   113.40697    54.22551
   244  C   4.0   -0.03    4.37    4.32    72.82428   111.65731    60.12967
   245  C   4.0   -0.01    3.58    3.16    70.27401   110.61388    59.47396
   246  C   4.0   -0.04    3.47    3.10    68.26711   110.95976    61.12713
   247  C   4.0   -0.02    3.51    3.12    69.89675   109.17913    57.31669
   248  C   4.0   -0.04    3.39    3.08    65.99547   109.76325    60.69181
   249  C   4.0   -0.03    3.37    3.07    67.63175   107.93364    56.89973
   250  C   4.0   -0.03    3.38    3.07    65.69712   108.18137    58.62687
   251  H   1.0    0.12    1.15    1.45    76.09572   114.80531    60.79193
   252  H   1.0    0.06    1.05    1.44    75.17474   111.32713    56.74922
   253  H   1.0    0.05    1.03    1.43    73.97415   110.16608    60.98164
   254  H   1.0    0.06    1.05    1.44    72.56916   113.13362    61.53766
   255  H   1.0    0.05    1.03    1.43    68.48576   112.14306    62.77527
   256  H   1.0    0.07    1.03    1.43    71.40477   109.02795    55.95658
   257  H   1.0    0.05    1.03    1.43    64.43609   110.00963    61.97013
   258  H   1.0    0.06    1.03    1.43    67.41212   106.74685    55.25881
   259  H   1.0    0.06    1.03    1.43    63.95430   107.15376    58.42179
   260  N   5.0   -0.13    3.56    2.13    71.96535   116.61307    56.95430
   261  C   4.0    0.05    4.42    4.42    70.67203   118.24952    55.20334
   262  C   4.0    0.16    3.49    3.11    72.35565   118.63802    52.89501
   263  O   6.0   -0.27    1.24    1.80    71.40624   118.99542    50.80923
   264  C   4.0    0.04    4.15    3.90    69.95208   120.79614    56.37517
   265  O   6.0   -0.24    2.04    1.83    68.07366   120.60312    58.22242
   266  H   1.0    0.12    1.11    1.45    72.35557   117.25682    58.71690
   267  H   1.0    0.07    1.05    1.44    68.93080   117.33939    54.53062
   268  H   1.0    0.06    1.01    1.43    71.67602   121.68063    57.11258
   269  H   1.0    0.06    1.02    1.43    69.16055   121.96824    54.87140
   270  H   1.0    0.15    1.06    1.44    68.75608   119.69257    59.66417
   271  N   5.0   -0.13    3.50    2.07    74.85298   118.46005    53.22028
   272  C   4.0    0.05    4.36    4.32    76.47584   118.44586    51.01453
   273  C   4.0    0.11    3.25    3.04    76.31625   115.87627    49.71410
   274  O   6.0   -0.26    1.12    1.80    76.31723   115.74815    47.39881
   275  C   4.0   -0.03    4.33    4.25    79.24241   118.99946    51.66604
   276  C   4.0   -0.01    3.56    3.15    80.76481   119.54541    49.32534
   277  C   4.0   -0.03    3.48    3.10    80.58273   121.91017    48.19248
   278  C   4.0   -0.02    3.45    3.10    82.34345   117.74552    48.25559
   279  C   4.0   -0.03    3.37    3.07    82.09333   122.54171    46.15758
   280  C   4.0   -0.03    3.37    3.07    83.80982   118.35024    46.16891
   281  C   4.0   -0.03    3.38    3.07    83.75446   120.77048    45.18442
   282  H   1.0    0.11    1.10    1.44    75.65306   118.78336    54.93524
   283  H   1.0    0.07    1.06    1.44    75.75582   119.83175    49.64229
   284  H   1.0    0.05    1.03    1.43    79.30752   120.63526    52.92347
   285  H   1.0    0.07    1.05    1.44    79.99527   117.36020    52.66007
   286  H   1.0    0.06    1.03    1.43    79.23584   123.25913    48.92196
   287  H   1.0    0.06    1.03    1.43    82.40265   115.85756    49.03503
   288  H   1.0    0.06    1.03    1.43    81.96081   124.39999    45.32498
   289  H   1.0    0.06    1.03    1.43    85.00220   116.95064    45.28169
   290  H   1.0    0.06    1.03    1.43    84.97129   121.24104    43.61911
   291  N   5.0   -0.21    3.22    1.96    73.41403    98.36689    75.39103
   292  C   4.0    0.03    4.30    4.19    73.08496   100.66501    76.84873
   293  C   4.0    0.07    3.21    3.04    70.78729   100.29723    78.59638
   294  O   6.0   -0.33    1.17    1.80    70.84607   101.02482    80.80695
   295  C   4.0   -0.03    4.31    4.21    72.93694   103.00067    75.12821
   296  C   4.0   -0.05    4.20    3.99    75.47700   103.33600    73.76108
   297  C   4.0   -0.07    4.13    3.85    72.30757   105.34385    76.68787
   298  C   4.0   -0.08    4.01    3.64    75.35812   105.18738    71.55906
   299  H   1.0    0.08    1.02    1.43    73.40747    98.44508    73.47685
   300  H   1.0    0.04    1.05    1.44    74.71845   100.87170    78.12422
   301  H   1.0    0.04    1.05    1.44    71.44106   102.66409    73.73826
   302  H   1.0    0.04    1.03    1.43    76.89542   103.96646    75.12079
   303  H   1.0    0.04    1.03    1.43    76.09507   101.51532    73.02756
   304  H   1.0    0.04    1.00    1.43    72.15145   106.99684    75.48318
   305  H   1.0    0.05    1.00    1.43    70.54067   105.09650    77.70219
   306  H   1.0    0.04    1.00    1.43    73.80205   105.68154    78.05843
   307  H   1.0    0.04    1.00    1.43    77.14476   105.17795    70.54395
   308  H   1.0    0.04    1.00    1.43    73.87723   104.61456    70.25757
   309  H   1.0    0.04    1.00    1.43    74.98850   107.10059    72.19763
   310  N   5.0   -0.20    3.27    1.97    73.25679    97.32459    84.37668
   311  C   4.0    0.03    4.31    4.22    74.70602    98.80963    86.15957
   312  C   4.0    0.15    3.41    3.08    72.81867   100.40878    87.68632
   313  O   6.0   -0.31    1.25    1.80    72.88407   100.49729    90.01175
   314  C   4.0   -0.05    4.31    4.22    76.76075   100.37901    84.86734
   315  C   4.0   -0.03    4.18    3.96    78.65562    98.74733    83.38459
   316  C   4.0   -0.08    4.11    3.81    80.40431   100.43936    81.83243
   317  C   4.0   -0.07    4.10    3.80    80.26167    97.05839    85.08498
   318  H   1.0    0.10    1.03    1.43    73.14971    97.88314    82.55373
   319  H   1.0    0.05    1.06    1.44    75.60803    97.50456    87.49188
   320  H   1.0    0.04    1.03    1.43    75.88773   101.72104    83.56414
   321  H   1.0    0.04    1.03    1.43    77.77884   101.43238    86.31857
   322  H   1.0    0.04    1.05    1.44    77.58639    97.53593    82.08927
   323  H   1.0    0.04    1.00    1.43    81.76260    99.31339    80.77326
   324  H   1.0    0.04    1.00    1.43    79.33699   101.58122    80.49964
   325  H   1.0    0.04    1.00    1.43    81.50326   101.67957    83.04805
   326  H   1.0    0.04    1.00    1.43    81.67985    96.10903    83.93597
   327  H   1.0    0.04    1.00    1.43    81.26217    98.16281    86.50105
   328  H   1.0    0.04    1.00    1.43    79.13226    95.62087    86.02056
   329  N   5.0   -0.15    3.46    2.05    71.02055   101.54606    86.33756
   330  C   4.0    0.04    4.41    4.40    69.14692   103.13060    87.54390
   331  C   4.0    0.09    3.23    3.04    67.43704   101.81967    89.47089
   332  O   6.0   -0.30    1.14    1.80    66.68425   103.13829    91.24053
   333  C   4.0   -0.02    4.31    4.23    67.56291   104.70437    85.66060
   334  C   4.0   -0.04    4.18    3.96    65.76402   103.13679    84.01816
   335  C   4.0   -0.08    4.12    3.85    69.32431   106.27179    83.99375
   336  C   4.0   -0.07    4.01    3.64    63.25035   102.50843    85.27307
   337  H   1.0    0.10    1.10    1.44    71.02517   101.41452    84.42447
   338  H   1.0    0.05    1.07    1.44    70.17397   104.50708    88.71810
   339  H   1.0    0.05    1.06    1.44    66.43213   105.98948    86.82415
   340  H   1.0    0.04    1.03    1.43    65.34036   104.23446    82.32216
   341  H   1.0    0.06    1.03    1.43    66.73642   101.42193    83.43011
   342  H   1.0    0.04    1.00    1.43    68.21454   107.49064    82.76939
   343  H   1.0    0.04    1.01    1.43    70.56557   107.45704    85.11643
   344  H   1.0    0.05    1.01    1.43    70.47982   105.04146    82.82276
   345  H   1.0    0.05    1.00    1.43    62.05342   101.46330    83.97182
   346  H   1.0    0.05    1.01    1.43    63.47903   101.36511    86.95297
   347  H   1.0    0.05    1.00    1.43    62.31098   104.25260    85.81112
   348  N   5.0   -0.19    3.19    1.95    70.95868   101.07248    95.37737
   349  C   4.0    0.05    4.26    4.12    71.24621   103.55874    96.48854
   350  C   4.0    0.09    3.21    3.04    68.75573   104.33591    97.75597
   351  O   6.0   -0.26    1.12    1.80    68.77718   104.96853    99.97806
   352  C   4.0    0.06    4.18    3.96    72.40620   105.54521    94.68068
   353  O   6.0   -0.24    2.12    1.84    74.13540   106.92461    96.18372
   354  C   4.0   -0.07    4.07    3.75    70.51618   107.30466    93.40416
   355  H   1.0    0.12    1.04    1.43    71.53265   100.79678    93.56935
   356  H   1.0    0.07    1.07    1.44    72.59565   103.43276    98.07100
   357  H   1.0    0.05    1.04    1.43    73.45930   104.48838    93.21902
   358  H   1.0    0.12    1.03    1.43    74.54212   108.50741    95.36994
   359  H   1.0    0.04    1.00    1.43    71.49491   108.54100    92.08086
   360  H   1.0    0.06    1.01    1.43    69.11392   106.22427    92.37275
   361  H   1.0    0.06    1.00    1.43    69.56301   108.45574    94.81532
   362  N   5.0   -0.20    3.22    1.96    52.61420   113.66680    69.07061
   363  C   4.0    0.03    4.23    4.05    54.44954   114.35789    67.15554
   364  C   4.0    0.08    3.29    3.05    55.61395   111.91620    66.20440
   365  O   6.0   -0.28    1.13    1.80    55.39992   111.34440    63.95313
   366  C   4.0   -0.04    4.30    4.20    56.33945   116.25660    68.22562
   367  C   4.0   -0.01    3.53    3.13    58.91004   116.46898    66.99871
   368  C   4.0   -0.04    3.48    3.11    60.71497   117.91640    68.25388
   369  C   4.0   -0.03    3.50    3.12    59.60046   115.30410    64.74990
   370  C   4.0   -0.04    3.42    3.08    63.16315   118.05776    67.36446
   371  C   4.0   -0.03    3.37    3.07    62.08204   115.35827    63.90734
   372  C   4.0   -0.04    3.40    3.08    63.87432   116.70351    65.24037
   373  H   1.0    0.08    1.02    1.43    53.03509   114.00127    70.91441
   374  H   1.0    0.06    1.05    1.44    53.41999   115.13915    65.52814
   375  H   1.0    0.04    1.03    1.43    55.41181   118.10016    68.19222
   376  H   1.0    0.04    1.04    1.43    56.66106   115.75662    70.20460
   377  H   1.0    0.05    1.03    1.43    60.19941   118.96376    69.92988
   378  H   1.0    0.07    1.06    1.44    58.19406   114.37596    63.61807
   379  H   1.0    0.05    1.04    1.44    64.50112   119.21018    68.38037
   380  H   1.0    0.06    1.03    1.43    62.65457   114.36288    62.21510
   381  H   1.0    0.05    1.03    1.43    65.79544   116.69332    64.56086
   382  H   1.0    0.08    1.04    1.44    76.21098   114.29854    50.74886
   383  H   1.0    0.09    1.07    1.44    74.91508    97.66345    75.77125
   384  H   1.0    0.05    1.04    1.43    69.22544    99.45995    77.94013
   385  H   1.0    0.09    1.07    1.44    73.89825    95.75159    84.29435
   386  H   1.0    0.06    1.04    1.43    66.99170    99.99620    89.25256
   387  H   1.0    0.10    1.07    1.44    71.84331    99.93893    96.28569
   388  H   1.0    0.07    1.04    1.43    67.14638   104.32010    96.76562
   389  H   1.0    0.10    1.07    1.44    51.16442   114.51363    68.79938
   390  H   1.0    0.06    1.04    1.43    56.54526   110.78561    67.39834

  Z AO/shell   Hii/eV     exponent
  1     Wed Apr 25 08:07:45 CEST 2018   EN: 2.200 GM2: 0.406  GM3: 0.0800  RAES: 1.40
     1s    -10.707211    1.230000
  6     Wed Apr 25 08:07:45 CEST 2018   EN: 2.550 GM2: 0.538  GM3: 0.1500  RAES: 3.00
     2s    -13.970922    2.096432
     2p    -10.063292    1.800000
  7     Wed Apr 25 08:07:45 CEST 2018   EN: 3.040 GM2: 0.461  GM3:-0.0640  RAES: 1.90
     2s    -16.686243    2.339881
     2p    -12.523956    2.014332
  8     Wed Apr 25 08:07:45 CEST 2018   EN: 3.440 GM2: 0.452  GM3:-0.0517  RAES: 1.80
     2s    -20.229985    2.439742
     2p    -15.503117    2.137023
 16     Tue Apr 24 11:44:34 CEST 2018   EN: 2.580 GM2: 0.340  GM3:-0.0502  RAES: 3.10
     3s    -20.029654    1.981333
     3p    -11.377694    2.025643
     3d     -0.420282    1.702555
 no old-style atom pair restraining (fixing) potential

molecular fragmentation (1/2 indicates fragments):
111111111111111111111111111111111111111111111111111111111111111111111111
111111111111111111111111111111111111111111111111111111111111111111111111
111111111111111111111111111111111111111111111111111111111111111111111111
111111111111111111111111111111111111111111111111111111111111111111111111
112222222222222222222222222222222222222222222222222222222222222222222222
222222222222222222222122222222
# atoms in fragment 1/2:   291    99
 fragment masses (1/2) :     1969.47      595.82
CMA distance (Bohr)    :  18.013
constraining FC (au)   :  0.0500
           ------------------------------------------------- 
          |        Self-Consistent Charge Iterations        |
           ------------------------------------------------- 

 Ncao       : 942
 Nao        : 941
 Nshell     : 573
 Nel        : 1012
 T(el)      :   500.0
 intcut     :    35.0
 scfconv/Eh :  0.100E-06
   qconv/e  :  0.100E-04
 intneglect :  0.100E-08
 broydamp   :      0.400
 iter      E             dE          RMSdq      gap      omega  full diag
   1   -571.1470368 -0.571147E+03  0.422E+00    2.99       0.0  T
   2   -572.2702645 -0.112323E+01  0.204E+00    2.06       1.0  T
   3   -572.3298718 -0.596073E-01  0.114E+00    2.33       1.0  T
   4   -572.4127467 -0.828749E-01  0.217E-01    1.70       1.0  T
   5   -572.4176409 -0.489422E-02  0.102E-01    1.86       1.0  T
   6   -572.4184623 -0.821413E-03  0.427E-02    1.84       1.0  T
   7   -572.4186741 -0.211793E-03  0.172E-02    1.82       1.0  T
   8   -572.4186893 -0.151905E-04  0.836E-03    1.82       1.0  T
   9   -572.4186948 -0.547310E-05  0.345E-03    1.81       1.5  T
  10   -572.4186957 -0.910303E-06  0.154E-03    1.81       3.3  T
  11   -572.4186958 -0.120218E-06  0.731E-04    1.81       6.9  T
  12   -572.4186958 -0.277183E-07  0.321E-04    1.81      15.8  T
  13   -572.4186959 -0.119478E-07  0.157E-04    1.81      32.2  T
  14   -572.4186959 -0.125385E-08  0.785E-05    1.81      64.5  T
  15   -572.4186959 -0.402906E-09  0.317E-05    1.81     160.0  T
speedup  1.00
cpu  time for SCC    6.08 s
wall time for SCC    6.08 s

   *** convergence criteria satisfied after 15 iterations ***

          eigenvalues
 #    :         494        495        496        497        498        499        500        501
 occ. :        2.000      2.000      2.000      2.000      2.000      2.000      2.000      2.000
 eps  :       -10.864    -10.821    -10.810    -10.738    -10.682    -10.674    -10.630    -10.601
 #    :         502        503        504        505        506        507        508        509
 occ. :        2.000      2.000      2.000      2.000      2.000      0.000      0.000      0.000
 eps  :       -10.171    -10.114    -10.055     -9.943     -9.794     -7.981     -7.741     -7.720
 #    :         510        511        512        513        514        515        516        517
 occ. :        0.000      0.000      0.000      0.000      0.000      0.000      0.000      0.000
 eps  :        -7.665     -7.564     -7.241     -6.883     -6.853     -6.766     -6.727     -6.641


   #   Z            q   n(s)   n(p)   n(d)      C6AA      α(0)
   1   7 N     -0.042  1.235  3.807  0.000    22.043     6.973
   2   6 C     -0.025  1.085  2.941  0.000    21.035     6.532
   3   6 C      0.263  1.036  2.702  0.000    22.574     7.780
   4   8 O     -0.430  1.746  4.684  0.000    22.283     6.329
   5   6 C     -0.080  1.051  3.030  0.000    22.027     6.681
   6   6 C     -0.082  1.050  3.032  0.000    22.052     6.685
   7   6 C     -0.044  1.064  2.980  0.000    21.448     6.608
   8   1 H      0.288  0.712  0.000  0.000     0.751     1.358
   9   1 H      0.264  0.736  0.000  0.000     0.830     1.427
  10   1 H      0.119  0.881  0.000  0.000     1.625     1.994
  11   1 H      0.096  0.904  0.000  0.000     1.825     2.113
  12   1 H      0.087  0.913  0.000  0.000     1.913     2.163
  13   1 H      0.083  0.917  0.000  0.000     1.944     2.180
  14   1 H      0.084  0.916  0.000  0.000     1.938     2.177
  15   1 H      0.115  0.885  0.000  0.000     1.650     2.009
  16   1 H      0.117  0.883  0.000  0.000     1.638     2.002
  17   7 N     -0.180  1.247  3.933  0.000    24.910     7.413
  18   6 C      0.000  1.066  2.934  0.000    20.582     6.460
  19   6 C      0.263  1.044  2.693  0.000    22.565     7.779
  20   8 O     -0.473  1.747  4.726  0.000    23.196     6.457
  21   6 C     -0.081  1.057  3.024  0.000    22.048     6.684
  22   6 C     -0.018  1.060  2.958  0.000    20.865     6.497
  23   6 C     -0.119  1.041  3.077  0.000    22.825     6.811
  24   6 C     -0.123  1.040  3.083  0.000    22.912     6.825
  25   1 H      0.224  0.776  0.000  0.000     0.993     1.561
  26   1 H      0.104  0.896  0.000  0.000     1.751     2.069
  27   1 H      0.059  0.941  0.000  0.000     2.214     2.327
  28   1 H      0.076  0.924  0.000  0.000     2.023     2.224
  29   1 H      0.045  0.955  0.000  0.000     2.389     2.417
  30   1 H      0.044  0.956  0.000  0.000     2.396     2.421
  31   1 H      0.040  0.960  0.000  0.000     2.450     2.448
  32   1 H      0.038  0.962  0.000  0.000     2.481     2.463
  33   1 H      0.048  0.952  0.000  0.000     2.345     2.395
  34   1 H      0.040  0.960  0.000  0.000     2.447     2.446
  35   1 H      0.047  0.953  0.000  0.000     2.359     2.402
  36   7 N     -0.183  1.244  3.939  0.000    24.954     7.419
  37   6 C      0.014  1.063  2.923  0.000    20.340     6.422
  38   6 C      0.273  1.042  2.685  0.000    22.390     7.748
  39   8 O     -0.486  1.749  4.736  0.000    23.471     6.496
  40   6 C     -0.081  1.055  3.025  0.000    22.031     6.681
  41   6 C     -0.003  1.077  2.926  0.000    28.105     8.696
  42   6 C     -0.042  1.083  2.959  0.000    29.044     8.838
  43   6 C     -0.048  1.078  2.970  0.000    29.199     8.861
  44   6 C     -0.057  1.076  2.981  0.000    29.413     8.893
  45   6 C     -0.078  1.078  3.000  0.000    29.950     8.974
  46   6 C      0.147  1.045  2.809  0.000    24.809     8.163
  47   8 O     -0.441  1.725  4.716  0.000    21.658     6.282
  48   1 H      0.213  0.787  0.000  0.000     1.041     1.598
  49   1 H      0.088  0.912  0.000  0.000     1.894     2.152
  50   1 H      0.073  0.927  0.000  0.000     2.058     2.243
  51   1 H      0.072  0.928  0.000  0.000     2.063     2.246
  52   1 H      0.047  0.953  0.000  0.000     2.363     2.404
  53   1 H      0.048  0.952  0.000  0.000     2.347     2.396
  54   1 H      0.046  0.954  0.000  0.000     2.373     2.409
  55   1 H      0.048  0.952  0.000  0.000     2.350     2.397
  56   1 H      0.349  0.651  0.000  0.000     0.590     1.206
  57   7 N     -0.182  1.242  3.940  0.000    24.937     7.417
  58   6 C      0.018  1.064  2.919  0.000    20.280     6.412
  59   6 C      0.272  1.044  2.685  0.000    22.412     7.753
  60   8 O     -0.480  1.750  4.730  0.000    23.347     6.478
  61   6 C     -0.086  1.059  3.027  0.000    22.137     6.697
  62   6 C      0.007  1.078  2.915  0.000    27.860     8.658
  63   6 C     -0.045  1.081  2.964  0.000    29.120     8.849
  64   6 C     -0.040  1.080  2.960  0.000    29.003     8.832
  65   6 C     -0.033  1.081  2.952  0.000    28.827     8.804
  66   6 C     -0.035  1.082  2.953  0.000    28.867     8.811
  67   6 C     -0.036  1.082  2.954  0.000    28.906     8.817
  68   1 H      0.215  0.785  0.000  0.000     1.033     1.592
  69   1 H      0.083  0.917  0.000  0.000     1.952     2.185
  70   1 H      0.082  0.918  0.000  0.000     1.963     2.191
  71   1 H      0.070  0.930  0.000  0.000     2.089     2.260
  72   1 H      0.042  0.958  0.000  0.000     2.417     2.431
  73   1 H      0.038  0.962  0.000  0.000     2.478     2.461
  74   1 H      0.032  0.968  0.000  0.000     2.558     2.501
  75   1 H      0.047  0.953  0.000  0.000     2.358     2.402
  76   1 H      0.040  0.960  0.000  0.000     2.442     2.444
  77   7 N     -0.184  1.248  3.935  0.000    24.978     7.423
  78   6 C      0.012  1.067  2.921  0.000    20.371     6.426
  79   6 C      0.281  1.042  2.677  0.000    22.240     7.723
  80   8 O     -0.490  1.744  4.746  0.000    23.564     6.508
  81   6 C     -0.024  1.063  2.961  0.000    20.970     6.513
  82   6 C     -0.131  1.039  3.092  0.000    23.073     6.848
  83   6 C     -0.121  1.039  3.082  0.000    22.864     6.817
  84   1 H      0.213  0.787  0.000  0.000     1.040     1.598
  85   1 H      0.076  0.924  0.000  0.000     2.026     2.226
  86   1 H      0.062  0.938  0.000  0.000     2.181     2.310
  87   1 H      0.068  0.932  0.000  0.000     2.113     2.273
  88   1 H      0.056  0.944  0.000  0.000     2.244     2.343
  89   1 H      0.044  0.956  0.000  0.000     2.394     2.420
  90   1 H      0.060  0.940  0.000  0.000     2.202     2.321
  91   1 H      0.047  0.953  0.000  0.000     2.361     2.403
  92   1 H      0.042  0.958  0.000  0.000     2.428     2.437
  93   7 N     -0.180  1.246  3.934  0.000    24.896     7.411
  94   6 C      0.019  1.068  2.914  0.000    20.257     6.408
  95   6 C      0.279  1.044  2.678  0.000    22.284     7.730
  96   8 O     -0.486  1.735  4.751  0.000    23.467     6.495
  97   6 C     -0.021  1.063  2.958  0.000    20.914     6.505
  98   6 C     -0.120  1.040  3.080  0.000    22.848     6.815
  99   6 C     -0.127  1.042  3.085  0.000    22.984     6.835
 100   1 H      0.219  0.781  0.000  0.000     1.013     1.577
 101   1 H      0.072  0.928  0.000  0.000     2.063     2.246
 102   1 H      0.049  0.951  0.000  0.000     2.338     2.391
 103   1 H      0.060  0.940  0.000  0.000     2.205     2.322
 104   1 H      0.036  0.964  0.000  0.000     2.504     2.475
 105   1 H      0.047  0.953  0.000  0.000     2.358     2.402
 106   1 H      0.058  0.942  0.000  0.000     2.228     2.334
 107   1 H      0.047  0.953  0.000  0.000     2.357     2.401
 108   1 H      0.067  0.933  0.000  0.000     2.115     2.274
 109   7 N     -0.175  1.243  3.932  0.000    24.798     7.396
 110   6 C      0.034  1.056  2.910  0.000    20.015     6.371
 111   6 C      0.274  1.044  2.682  0.000    22.359     7.743
 112   8 O     -0.473  1.746  4.727  0.000    23.195     6.457
 113   6 C     -0.106  1.063  3.043  0.000    22.518     6.755
 114   6 C      0.292  1.033  2.674  0.000    22.040     7.687
 115   8 O     -0.488  1.753  4.735  0.000    23.516     6.502
 116   7 N     -0.294  1.267  4.027  0.000    27.571     7.798
 117   1 H      0.212  0.788  0.000  0.000     1.048     1.604
 118   1 H      0.078  0.922  0.000  0.000     2.000     2.212
 119   1 H      0.085  0.915  0.000  0.000     1.923     2.169
 120   1 H      0.086  0.914  0.000  0.000     1.917     2.165
 121   1 H      0.234  0.766  0.000  0.000     0.946     1.524
 122   1 H      0.234  0.766  0.000  0.000     0.946     1.524
 123   7 N     -0.193  1.249  3.944  0.000    25.187     7.454
 124   6 C      0.012  1.063  2.925  0.000    20.381     6.428
 125   6 C      0.275  1.046  2.679  0.000    22.350     7.742
 126   8 O     -0.504  1.737  4.767  0.000    23.867     6.550
 127   6 C     -0.016  1.061  2.955  0.000    20.818     6.489
 128   6 C     -0.123  1.040  3.083  0.000    22.919     6.826
 129   6 C     -0.120  1.041  3.079  0.000    22.854     6.816
 130   1 H      0.219  0.781  0.000  0.000     1.012     1.576
 131   1 H      0.083  0.917  0.000  0.000     1.946     2.182
 132   1 H      0.054  0.946  0.000  0.000     2.270     2.356
 133   1 H      0.050  0.950  0.000  0.000     2.326     2.385
 134   1 H      0.060  0.940  0.000  0.000     2.202     2.321
 135   1 H      0.038  0.962  0.000  0.000     2.479     2.462
 136   1 H      0.057  0.943  0.000  0.000     2.239     2.340
 137   1 H      0.051  0.949  0.000  0.000     2.302     2.373
 138   1 H      0.043  0.957  0.000  0.000     2.404     2.425
 139   7 N     -0.181  1.246  3.935  0.000    24.920     7.414
 140   6 C      0.020  1.066  2.914  0.000    20.230     6.403
 141   6 C      0.272  1.046  2.683  0.000    22.408     7.752
 142   8 O     -0.497  1.740  4.758  0.000    23.720     6.530
 143   6 C     -0.024  1.066  2.958  0.000    20.962     6.512
 144   6 C     -0.066  1.050  3.016  0.000    21.759     6.640
 145   6 C     -0.118  1.038  3.081  0.000    22.822     6.811
 146   6 C     -0.109  1.037  3.072  0.000    22.640     6.785
 147   1 H      0.228  0.772  0.000  0.000     0.974     1.546
 148   1 H      0.074  0.926  0.000  0.000     2.040     2.234
 149   1 H      0.052  0.948  0.000  0.000     2.289     2.366
 150   1 H      0.038  0.962  0.000  0.000     2.480     2.463
 151   1 H      0.055  0.945  0.000  0.000     2.256     2.349
 152   1 H      0.060  0.940  0.000  0.000     2.196     2.318
 153   1 H      0.041  0.959  0.000  0.000     2.435     2.440
 154   1 H      0.043  0.957  0.000  0.000     2.406     2.425
 155   1 H      0.050  0.950  0.000  0.000     2.325     2.384
 156   1 H      0.038  0.962  0.000  0.000     2.471     2.458
 157   1 H      0.041  0.959  0.000  0.000     2.433     2.439
 158   7 N     -0.185  1.252  3.933  0.000    25.010     7.427
 159   6 C      0.026  1.064  2.910  0.000    20.144     6.390
 160   6 C      0.267  1.047  2.685  0.000    22.489     7.766
 161   8 O     -0.501  1.739  4.762  0.000    23.797     6.540
 162   6 C     -0.021  1.064  2.957  0.000    20.917     6.505
 163   6 C     -0.069  1.052  3.018  0.000    21.825     6.651
 164   6 C     -0.116  1.037  3.078  0.000    22.770     6.804
 165   6 C     -0.109  1.036  3.072  0.000    22.637     6.785
 166   1 H      0.233  0.767  0.000  0.000     0.950     1.527
 167   1 H      0.067  0.933  0.000  0.000     2.114     2.274
 168   1 H      0.039  0.961  0.000  0.000     2.457     2.451
 169   1 H      0.046  0.954  0.000  0.000     2.373     2.409
 170   1 H      0.055  0.945  0.000  0.000     2.262     2.352
 171   1 H      0.062  0.938  0.000  0.000     2.178     2.308
 172   1 H      0.037  0.963  0.000  0.000     2.484     2.464
 173   1 H      0.049  0.951  0.000  0.000     2.335     2.390
 174   1 H      0.052  0.948  0.000  0.000     2.295     2.369
 175   1 H      0.030  0.970  0.000  0.000     2.585     2.514
 176   1 H      0.046  0.954  0.000  0.000     2.372     2.408
 177   7 N     -0.096  1.238  3.858  0.000    23.118     7.141
 178   6 C      0.023  1.063  2.914  0.000    20.163     6.389
 179   6 C      0.282  1.039  2.678  0.000    22.220     7.720
 180   8 O     -0.486  1.734  4.752  0.000    23.473     6.496
 181   6 C     -0.075  1.055  3.020  0.000    21.920     6.664
 182   6 C     -0.073  1.051  3.022  0.000    21.881     6.657
 183   6 C      0.001  1.045  2.954  0.000    20.617     6.474
 184   1 H      0.072  0.928  0.000  0.000     2.059     2.244
 185   1 H      0.066  0.934  0.000  0.000     2.130     2.282
 186   1 H      0.080  0.920  0.000  0.000     1.984     2.203
 187   1 H      0.063  0.937  0.000  0.000     2.167     2.302
 188   1 H      0.087  0.913  0.000  0.000     1.906     2.159
 189   1 H      0.041  0.959  0.000  0.000     2.440     2.443
 190   1 H      0.067  0.933  0.000  0.000     2.119     2.276
 191   7 N     -0.172  1.236  3.935  0.000    24.717     7.384
 192   6 C      0.039  1.054  2.907  0.000    19.897     6.346
 193   6 C      0.269  1.043  2.688  0.000    22.457     7.760
 194   8 O     -0.511  1.741  4.770  0.000    24.035     6.573
 195   6 C     -0.014  1.063  2.951  0.000    20.833     6.498
 196  16 S     -0.312  1.936  4.343  0.033   154.590    20.927
 197   1 H      0.215  0.785  0.000  0.000     1.032     1.592
 198   1 H      0.065  0.935  0.000  0.000     2.138     2.287
 199   1 H      0.075  0.925  0.000  0.000     2.030     2.228
 200   1 H      0.061  0.939  0.000  0.000     2.185     2.311
 201   1 H      0.225  0.775  0.000  0.000     0.979     1.547
 202   7 N     -0.177  1.251  3.926  0.000    24.825     7.400
 203   6 C      0.025  1.060  2.915  0.000    20.163     6.394
 204   6 C      0.268  1.044  2.688  0.000    22.476     7.764
 205   8 O     -0.505  1.749  4.756  0.000    23.893     6.554
 206   6 C     -0.075  1.059  3.015  0.000    21.918     6.664
 207   6 C     -0.015  1.057  2.958  0.000    20.815     6.489
 208   6 C     -0.117  1.043  3.075  0.000    22.801     6.808
 209   6 C     -0.117  1.040  3.078  0.000    22.805     6.809
 210   1 H      0.243  0.757  0.000  0.000     0.913     1.497
 211   1 H      0.069  0.931  0.000  0.000     2.091     2.261
 212   1 H      0.057  0.943  0.000  0.000     2.233     2.337
 213   1 H      0.058  0.942  0.000  0.000     2.225     2.333
 214   1 H      0.047  0.953  0.000  0.000     2.352     2.398
 215   1 H      0.056  0.944  0.000  0.000     2.244     2.343
 216   1 H      0.036  0.964  0.000  0.000     2.500     2.473
 217   1 H      0.046  0.954  0.000  0.000     2.367     2.406
 218   1 H      0.053  0.947  0.000  0.000     2.281     2.362
 219   1 H      0.042  0.958  0.000  0.000     2.417     2.431
 220   1 H      0.029  0.971  0.000  0.000     2.598     2.521
 221   7 N     -0.184  1.250  3.934  0.000    24.992     7.425
 222   6 C      0.023  1.059  2.918  0.000    20.189     6.397
 223   6 C      0.271  1.041  2.688  0.000    22.421     7.754
 224   8 O     -0.507  1.752  4.755  0.000    23.937     6.560
 225   6 C     -0.073  1.058  3.015  0.000    21.875     6.657
 226   6 C     -0.018  1.057  2.961  0.000    20.852     6.495
 227   6 C     -0.115  1.043  3.073  0.000    22.756     6.801
 228   6 C     -0.119  1.040  3.079  0.000    22.829     6.813
 229   1 H      0.239  0.761  0.000  0.000     0.926     1.508
 230   1 H      0.071  0.929  0.000  0.000     2.079     2.255
 231   1 H      0.047  0.953  0.000  0.000     2.356     2.400
 232   1 H      0.060  0.940  0.000  0.000     2.197     2.318
 233   1 H      0.055  0.945  0.000  0.000     2.263     2.353
 234   1 H      0.055  0.945  0.000  0.000     2.252     2.347
 235   1 H      0.031  0.969  0.000  0.000     2.571     2.507
 236   1 H      0.044  0.956  0.000  0.000     2.400     2.423
 237   1 H      0.051  0.949  0.000  0.000     2.312     2.378
 238   1 H      0.045  0.955  0.000  0.000     2.388     2.417
 239   1 H      0.034  0.966  0.000  0.000     2.526     2.485
 240   7 N     -0.205  1.254  3.951  0.000    25.468     7.495
 241   6 C      0.031  1.057  2.912  0.000    20.053     6.377
 242   6 C      0.283  1.039  2.679  0.000    22.217     7.720
 243   8 O     -0.513  1.758  4.755  0.000    24.071     6.578
 244   6 C     -0.079  1.055  3.024  0.000    21.989     6.674
 245   6 C      0.007  1.080  2.913  0.000    27.852     8.657
 246   6 C     -0.039  1.078  2.961  0.000    28.965     8.826
 247   6 C     -0.035  1.079  2.956  0.000    28.882     8.813
 248   6 C     -0.034  1.078  2.956  0.000    28.840     8.807
 249   6 C     -0.031  1.079  2.952  0.000    28.783     8.798
 250   6 C     -0.037  1.079  2.958  0.000    28.918     8.819
 251   1 H      0.239  0.761  0.000  0.000     0.927     1.508
 252   1 H      0.065  0.935  0.000  0.000     2.141     2.288
 253   1 H      0.076  0.924  0.000  0.000     2.023     2.224
 254   1 H      0.066  0.934  0.000  0.000     2.126     2.280
 255   1 H      0.030  0.970  0.000  0.000     2.580     2.512
 256   1 H      0.030  0.970  0.000  0.000     2.584     2.514
 257   1 H      0.043  0.957  0.000  0.000     2.407     2.426
 258   1 H      0.036  0.964  0.000  0.000     2.505     2.475
 259   1 H      0.042  0.958  0.000  0.000     2.428     2.437
 260   7 N     -0.193  1.246  3.946  0.000    25.178     7.452
 261   6 C      0.020  1.061  2.919  0.000    20.231     6.403
 262   6 C      0.277  1.044  2.679  0.000    22.312     7.736
 263   8 O     -0.505  1.751  4.754  0.000    23.900     6.555
 264   6 C      0.077  1.034  2.889  0.000    19.498     6.325
 265   8 O     -0.465  1.711  4.754  0.000    22.154     6.354
 266   1 H      0.223  0.777  0.000  0.000     0.997     1.564
 267   1 H      0.073  0.927  0.000  0.000     2.051     2.239
 268   1 H      0.041  0.959  0.000  0.000     2.440     2.443
 269   1 H      0.059  0.941  0.000  0.000     2.208     2.323
 270   1 H      0.336  0.664  0.000  0.000     0.622     1.239
 271   7 N     -0.189  1.253  3.936  0.000    25.106     7.442
 272   6 C      0.043  1.057  2.900  0.000    19.848     6.343
 273   6 C      0.215  1.084  2.701  0.000    23.452     7.931
 274   8 O     -0.368  1.752  4.615  0.000    21.045     6.151
 275   6 C     -0.076  1.055  3.021  0.000    21.944     6.668
 276   6 C      0.012  1.081  2.907  0.000    27.742     8.640
 277   6 C     -0.040  1.080  2.959  0.000    28.985     8.829
 278   6 C     -0.036  1.081  2.955  0.000    28.896     8.815
 279   6 C     -0.033  1.080  2.953  0.000    28.819     8.803
 280   6 C     -0.032  1.081  2.952  0.000    28.805     8.801
 281   6 C     -0.035  1.080  2.955  0.000    28.882     8.813
 282   1 H      0.221  0.779  0.000  0.000     1.004     1.570
 283   1 H      0.079  0.921  0.000  0.000     1.993     2.208
 284   1 H      0.069  0.931  0.000  0.000     2.094     2.263
 285   1 H      0.076  0.924  0.000  0.000     2.017     2.221
 286   1 H      0.036  0.964  0.000  0.000     2.497     2.471
 287   1 H      0.028  0.972  0.000  0.000     2.615     2.529
 288   1 H      0.045  0.955  0.000  0.000     2.383     2.414
 289   1 H      0.042  0.958  0.000  0.000     2.428     2.436
 290   1 H      0.044  0.956  0.000  0.000     2.392     2.418
 291   7 N     -0.391  1.310  4.081  0.000    30.118     8.151
 292   6 C      0.039  1.062  2.899  0.000    19.940     6.360
 293   6 C      0.196  1.099  2.705  0.000    23.821     7.993
 294   8 O     -0.367  1.742  4.625  0.000    21.033     6.149
 295   6 C     -0.021  1.068  2.953  0.000    20.917     6.505
 296   6 C     -0.060  1.050  3.010  0.000    21.649     6.624
 297   6 C     -0.115  1.038  3.077  0.000    22.750     6.801
 298   6 C     -0.114  1.037  3.076  0.000    22.735     6.800
 299   1 H      0.165  0.835  0.000  0.000     1.302     1.788
 300   1 H      0.047  0.953  0.000  0.000     2.357     2.401
 301   1 H      0.045  0.955  0.000  0.000     2.385     2.415
 302   1 H      0.041  0.959  0.000  0.000     2.437     2.441
 303   1 H      0.036  0.964  0.000  0.000     2.501     2.473
 304   1 H      0.052  0.948  0.000  0.000     2.293     2.368
 305   1 H      0.040  0.960  0.000  0.000     2.453     2.449
 306   1 H      0.045  0.955  0.000  0.000     2.378     2.412
 307   1 H      0.039  0.961  0.000  0.000     2.463     2.454
 308   1 H      0.038  0.962  0.000  0.000     2.471     2.458
 309   1 H      0.044  0.956  0.000  0.000     2.395     2.420
 310   7 N     -0.393  1.312  4.081  0.000    30.172     8.158
 311   6 C      0.033  1.059  2.908  0.000    20.039     6.376
 312   6 C      0.266  1.052  2.682  0.000    22.505     7.769
 313   8 O     -0.522  1.753  4.769  0.000    24.282     6.607
 314   6 C     -0.070  1.059  3.012  0.000    21.845     6.654
 315   6 C     -0.007  1.056  2.951  0.000    20.669     6.467
 316   6 C     -0.112  1.041  3.071  0.000    22.695     6.792
 317   6 C     -0.111  1.039  3.072  0.000    22.676     6.790
 318   1 H      0.157  0.843  0.000  0.000     1.356     1.824
 319   1 H      0.042  0.958  0.000  0.000     2.419     2.432
 320   1 H      0.043  0.957  0.000  0.000     2.405     2.425
 321   1 H      0.038  0.962  0.000  0.000     2.482     2.464
 322   1 H      0.028  0.972  0.000  0.000     2.618     2.530
 323   1 H      0.039  0.961  0.000  0.000     2.465     2.455
 324   1 H      0.036  0.964  0.000  0.000     2.508     2.477
 325   1 H      0.042  0.958  0.000  0.000     2.428     2.437
 326   1 H      0.040  0.960  0.000  0.000     2.449     2.447
 327   1 H      0.039  0.961  0.000  0.000     2.462     2.454
 328   1 H      0.030  0.970  0.000  0.000     2.592     2.518
 329   7 N     -0.166  1.243  3.924  0.000    24.601     7.366
 330   6 C      0.025  1.061  2.914  0.000    20.165     6.394
 331   6 C      0.208  1.082  2.709  0.000    23.586     7.953
 332   8 O     -0.373  1.756  4.617  0.000    21.146     6.165
 333   6 C     -0.021  1.069  2.952  0.000    20.912     6.504
 334   6 C     -0.073  1.051  3.022  0.000    21.892     6.661
 335   6 C     -0.127  1.043  3.084  0.000    22.990     6.836
 336   6 C     -0.112  1.037  3.075  0.000    22.705     6.795
 337   1 H      0.238  0.762  0.000  0.000     0.931     1.512
 338   1 H      0.083  0.917  0.000  0.000     1.947     2.182
 339   1 H      0.058  0.942  0.000  0.000     2.218     2.329
 340   1 H      0.056  0.944  0.000  0.000     2.241     2.341
 341   1 H      0.052  0.948  0.000  0.000     2.293     2.368
 342   1 H      0.058  0.942  0.000  0.000     2.225     2.333
 343   1 H      0.056  0.944  0.000  0.000     2.241     2.341
 344   1 H      0.055  0.945  0.000  0.000     2.256     2.349
 345   1 H      0.046  0.954  0.000  0.000     2.369     2.407
 346   1 H      0.029  0.971  0.000  0.000     2.598     2.521
 347   1 H      0.042  0.958  0.000  0.000     2.419     2.432
 348   7 N     -0.399  1.313  4.085  0.000    30.334     8.180
 349   6 C      0.034  1.062  2.904  0.000    20.027     6.375
 350   6 C      0.207  1.091  2.703  0.000    23.615     7.958
 351   8 O     -0.375  1.753  4.622  0.000    21.191     6.172
 352   6 C      0.120  1.053  2.827  0.000    18.730     6.181
 353   8 O     -0.498  1.733  4.765  0.000    22.848     6.453
 354   6 C     -0.139  1.044  3.094  0.000    23.237     6.875
 355   1 H      0.174  0.826  0.000  0.000     1.246     1.749
 356   1 H      0.055  0.945  0.000  0.000     2.258     2.350
 357   1 H      0.027  0.973  0.000  0.000     2.636     2.539
 358   1 H      0.343  0.657  0.000  0.000     0.605     1.222
 359   1 H      0.056  0.944  0.000  0.000     2.250     2.346
 360   1 H      0.070  0.930  0.000  0.000     2.082     2.256
 361   1 H      0.051  0.949  0.000  0.000     2.308     2.376
 362   7 N     -0.391  1.318  4.074  0.000    30.131     8.152
 363   6 C      0.042  1.053  2.905  0.000    19.882     6.352
 364   6 C      0.210  1.090  2.701  0.000    23.558     7.949
 365   8 O     -0.393  1.767  4.626  0.000    21.541     6.223
 366   6 C     -0.081  1.060  3.021  0.000    22.040     6.682
 367   6 C      0.009  1.085  2.907  0.000    27.819     8.651
 368   6 C     -0.044  1.082  2.962  0.000    29.088     8.845
 369   6 C     -0.046  1.079  2.967  0.000    29.143     8.853
 370   6 C     -0.029  1.079  2.950  0.000    28.730     8.790
 371   6 C     -0.031  1.081  2.950  0.000    28.770     8.796
 372   6 C     -0.031  1.076  2.955  0.000    28.767     8.795
 373   1 H      0.174  0.826  0.000  0.000     1.247     1.749
 374   1 H      0.052  0.948  0.000  0.000     2.297     2.370
 375   1 H      0.068  0.932  0.000  0.000     2.107     2.270
 376   1 H      0.071  0.929  0.000  0.000     2.079     2.255
 377   1 H      0.046  0.954  0.000  0.000     2.371     2.408
 378   1 H      0.030  0.970  0.000  0.000     2.581     2.513
 379   1 H      0.040  0.960  0.000  0.000     2.450     2.448
 380   1 H      0.023  0.977  0.000  0.000     2.684     2.562
 381   1 H      0.019  0.981  0.000  0.000     2.745     2.591
 382   1 H      0.066  0.934  0.000  0.000     2.127     2.281
 383   1 H      0.180  0.820  0.000  0.000     1.212     1.724
 384   1 H      0.078  0.922  0.000  0.000     1.996     2.209
 385   1 H      0.176  0.824  0.000  0.000     1.235     1.741
 386   1 H      0.067  0.933  0.000  0.000     2.118     2.275
 387   1 H      0.182  0.818  0.000  0.000     1.205     1.719
 388   1 H      0.076  0.924  0.000  0.000     2.016     2.220
 389   1 H      0.189  0.811  0.000  0.000     1.165     1.691
 390   1 H      0.076  0.924  0.000  0.000     2.022     2.224

 Mol. C6AA /au·bohr⁶  :    1401794.426642
 Mol. C8AA /au·bohr⁸  :   31753896.677567
 Mol. α(0) /au        :       1789.829301

 
molecular dipole:
                 x           y           z       tot (Debye)
 q only:       84.846     134.617     123.164
   full:       86.706     135.296     124.963     517.422
molecular quadrupole (traceless):
                xx          xy          yy          xz          yz          zz
 q only:    -8378.009   16895.652    7855.788   15013.373   24175.907     522.221
  q+dip:    -8301.242   17273.045    7787.132   15462.130   24611.532     514.110
   full:    -8300.611   17274.976    7790.461   15459.507   24606.325     510.150
speedup  1.00
cpu  time for grad    7.68 s
wall time for grad    7.69 s

SCC energy    :    -572.4432557
rep           :       7.4552711
ES            :       1.2570891
AES           :      -0.0053495
AXC           :       0.2211283
disp          :      -0.5112911
XB            :       0.0000000
fix           :       0.0000000
Gborn         :       0.0000000
Gsasa         :       0.0000000
Ghb           :       0.0000000
Gshift        :       0.0000000
Gsolv         :      -0.3032114     -190.27
Etot ala COSMO:    -572.4432557
grad norm     :       0.4638665
total E       :    -564.9493805
atomizationE  :     109.6240630    68790.14
(atE without considering molecular charge,
 total energy contains solvation terms)
H-L gap (eV)  :          1.8130

------------------------------------------------------------------------
 * finished run on 2019/03/14 at 15:08:26.321     
------------------------------------------------------------------------
 total:
 * wall-time:     0 d,  0 h,  0 min,  8.333 sec
 *  cpu-time:     0 d,  0 h,  0 min,  8.147 sec
 * ratio c/w:     0.978 speedup
 SCF:
 * wall-time:     0 d,  0 h,  0 min,  8.070 sec
 *  cpu-time:     0 d,  0 h,  0 min,  8.063 sec
 * ratio c/w:     0.999 speedup

