      -----------------------------------------------------------      
     |                   =====================                   |     
     |                           x T B                           |     
     |                   =====================                   |     
     |                         S. Grimme                         |     
     |          Mulliken Center for Theoretical Chemistry        |     
     |                    University of Bonn                     |     
     |                Version 6.1 RC1 (SAW190329)                |     
      -----------------------------------------------------------      

   This program is distributed in the hope that it will be useful,
   but WITHOUT ANY WARRANTY; without even the implied warranty of
   MERCHANTABILITY or FITNESS FOR A PARTICULAR PURPOSE.
   
   FOR NON-COMMERCIAL, ACADEMIA USE ONLY.
   
   Cite this work as:
   S. Grimme, C. Bannwarth, P. Shushkov, J. Comput. Theory Chem., 2017,
   13, 1989-2009. DOI: 10.1021/acs.jctc.7b00118
   C. Bannwarth, S. Ehlert and S. Grimme., J. Comput. Theory Chem., 2019,
   just accepted. DOI: 10.1021/acs.jctc.8b01176
   
   for sTDA-xTB:
   S. Grimme and C. Bannwarth, J. Chem. Phys., 2016, 145, 054103.
   DOI: 10.1063/1.4959605
   
   in the mass-spec context:
   V. Asgeirsson, C. Bauer and S. Grimme, Chem. Sci., 2017, 8, 4879.
   DOI: 10.1039/c7sc00601b
   
   for metadynamics refer to:
   S. Grimme, ChemRxiv, Preprint. DOI: 10.26434/chemrxiv.7660532.v1
   
   with help from (in alphabetical order)
   C. Bannwarth, F. Bohle, G. Brandenburg, E. Caldeweyher, M. Checinski,
   S. Dohm, S. Ehlert, S. Ehrlich, F. März, H. Neugebauer, J. Pisarek,
   P. Pracht, P. Shushkov, and S. Spicher.
   
 * started run on 2019/05/31 at 07:35:56.576     

           -------------------------------------------------
          |                Calculation Setup                |
           -------------------------------------------------

          program call               : /home/lum/install/xtb/xtb-190329/bin/xtb xtb_tmp.xyz --chrg 0 --grad --gfn 2 --etemp 500 --acc 0.1 --gbsa h2o --parallel 1
          hostname                   : cu05
          coordinate file            : xtb_tmp.xyz
          omp threads                :                     1
          number of atoms            :                   606
          number of electrons        :                  1600
          charge                     :                     0
          spin                       :                   0.0
          first test random number   :      0.36973238337191


molecular fragmentation (1/2 indicates fragments):
111111111111111111111111111111111111111111111111111111111111111111111111
111111111111111111111111111111111111111111111111111111111111111111111111
111111111111111111111111111111111111111111111111111111111111111111111111
111111111111111111111111122222222222222222222222222222222222222222222222
222222222222222222222222222222222222222222222222222222222222222222222222
222222222222222222222222222222222222222222222222222222222222222222222222
222222222222222222222222222222222222222222222222222222222222222222222222
222222222222222222222222222222222222222222222222222222222222222222222222
222222222222221122222222222222
# atoms in fragment 1/2:   243   363
 fragment masses (1/2) :     1689.99     2338.96
CMA distance (Bohr)    :  18.081
constraining FC (au)   :  0.0500

########################################################################
# WARNING! Please study the warnings concerning your input carefully
#  - XTBPATH is not set, using XTBHOME instead
########################################################################

           ------------------------------------------------- 
          |                 G F N 2 - x T B                 |
          | Geometry, Frequencies, Noncovalent interactions |
          |            JCTC 2018 parametrisation            |
           ------------------------------------------------- 
 
             k(s)              :                1.8500
             k(p)              :                2.2300
             k(d)              :                2.2300
             k(f)              :                2.0000
             kEN (H0ij)        :               -2.0000
             D4 a1             :                0.5200
             D4 a2             :                5.0000
             D4 s6             :                1.0000
             D4 s8             :                2.7000
             D4 s9             :                5.0000
             alphaj            :                2.0000

  Z AO/shell   Hii/eV     exponent
  1     Wed Apr 25 08:07:45 CEST 2018   EN: 2.200 GM2: 0.406  GM3: 0.0800  RAES: 1.40
     1s    -10.707211    1.230000
  6     Wed Apr 25 08:07:45 CEST 2018   EN: 2.550 GM2: 0.538  GM3: 0.1500  RAES: 3.00
     2s    -13.970922    2.096432
     2p    -10.063292    1.800000
  7     Wed Apr 25 08:07:45 CEST 2018   EN: 3.040 GM2: 0.461  GM3:-0.0640  RAES: 1.90
     2s    -16.686243    2.339881
     2p    -12.523956    2.014332
  8     Wed Apr 25 08:07:45 CEST 2018   EN: 3.440 GM2: 0.452  GM3:-0.0517  RAES: 1.80
     2s    -20.229985    2.439742
     2p    -15.503117    2.137023

 Solvent             : h2o
 Using internal parameter file: .param_gbsa2_h2o
 Gsolv ref. state (COSMO-RS): gsolv [1 M gas/solution]
 temperature (mdtemp)       :    298.150000000000     
 dielectric constant        :    80.2000000000000     
 rho                        :    1.00000000000000     
 mass                       :    18.0000000000000     
 surface tension            :    15.5689454083859     
 probe radius               :   0.975313790000000     
 vdW radii scaling          :    1.00000000000000     
 Gshift (Eh)                :   1.857443126794793E-003
 c1                         :    1.55243817000000     
 soset                      :   0.130326360000000     
 HB correction              :  T
 Number of grid points      :          230

            Z     q(EN)     CN     RAES       Cart. coordinates
     1  N   5.0   -0.72    3.00    1.93    73.48236    74.66607    77.71151
     2  C   4.0    0.06    3.98    3.59    71.10192    74.50765    76.37270
     3  C   4.0    0.27    3.01    3.02    71.22736    72.71105    74.10982
     4  O   6.0   -0.48    1.00    1.80    69.62648    71.08533    73.75469
     5  C   4.0   -0.22    3.99    3.60    70.32963    77.12486    75.45557
     6  H   1.0    0.25    1.00    1.43    74.36635    76.36216    77.71715
     7  H   1.0    0.10    0.99    1.43    69.65942    73.74880    77.65961
     8  H   1.0    0.10    0.99    1.43    68.53770    77.02429    74.45905
     9  H   1.0    0.10    0.99    1.43    70.13246    78.39010    77.06192
    10  H   1.0    0.11    0.99    1.43    71.76212    77.88124    74.19023
    11  N   5.0   -0.48    3.01    1.93    73.13773    73.13175    72.49828
    12  C   4.0    0.06    3.99    3.61    73.19903    71.95535    70.03795
    13  C   4.0    0.27    3.01    3.02    74.94190    69.66519    69.84685
    14  O   6.0   -0.47    1.00    1.80    74.69409    68.19661    68.05743
    15  C   4.0   -0.13    3.99    3.61    73.99079    73.85640    68.00467
    16  C   4.0   -0.04    3.02    3.02    72.06321    75.84349    67.32800
    17  C   4.0   -0.09    3.03    3.02    69.61431    75.89672    68.26258
    18  C   4.0   -0.10    3.04    3.02    72.80761    77.71155    65.63119
    19  C   4.0   -0.10    3.03    3.02    67.95014    77.77920    67.51928
    20  C   4.0   -0.11    3.03    3.02    71.16150    79.60198    64.90560
    21  C   4.0   -0.10    3.03    3.02    68.72426    79.64169    65.85701
    22  H   1.0    0.23    1.00    1.43    74.38458    74.55294    72.81134
    23  H   1.0    0.13    0.99    1.43    71.29380    71.22784    69.64641
    24  H   1.0    0.10    0.99    1.43    75.70695    74.80559    68.65629
    25  H   1.0    0.11    0.99    1.43    74.46084    72.79898    66.29206
    26  H   1.0    0.12    1.00    1.43    68.96569    74.49220    69.59273
    27  H   1.0    0.10    1.00    1.43    74.70909    77.67786    64.89228
    28  H   1.0    0.13    0.99    1.43    66.04644    77.78222    68.26148
    29  H   1.0    0.11    1.00    1.43    71.78110    81.04380    63.60349
    30  H   1.0    0.12    1.00    1.43    67.44451    81.13658    65.31994
    31  N   5.0   -0.49    3.00    1.93    76.65687    69.34498    71.63794
    32  C   4.0    0.00    3.99    3.61    78.45619    67.28037    71.63321
    33  C   4.0    0.28    3.01    3.02    77.51844    64.91028    70.28303
    34  O   6.0   -0.46    1.00    1.80    78.62852    64.08163    68.41535
    35  H   1.0    0.24    1.00    1.43    76.85174    70.58822    73.09394
    36  H   1.0    0.11    0.99    1.43    80.19267    67.86900    70.67002
    37  H   1.0    0.09    0.99    1.43    78.88921    66.83111    73.60048
    38  N   5.0   -0.33    3.03    1.93    75.57328    63.68187    71.31848
    39  C   4.0    0.06    4.02    3.66    74.79112    61.26468    70.25987
    40  C   4.0    0.29    3.01    3.02    74.00293    61.49976    67.49146
    41  O   6.0   -0.46    1.00    1.80    74.67131    59.94190    65.91899
    42  C   4.0   -0.15    4.01    3.63    72.61579    60.37609    71.96099
    43  C   4.0   -0.15    4.01    3.63    71.68837    62.79293    73.24163
    44  C   4.0   -0.05    4.01    3.64    74.09775    64.35266    73.53888
    45  H   1.0    0.11    0.99    1.43    76.38804    59.94842    70.28746
    46  H   1.0    0.10    0.99    1.43    71.14174    59.44714    70.87327
    47  H   1.0    0.09    0.99    1.43    73.33872    59.05281    73.36233
    48  H   1.0    0.11    0.99    1.43    70.33315    63.78146    72.04671
    49  H   1.0    0.09    0.99    1.43    70.78778    62.41835    75.04808
    50  H   1.0    0.13    0.99    1.43    73.71430    66.37306    73.62705
    51  H   1.0    0.10    0.99    1.43    75.12502    63.79691    75.24729
    52  N   5.0   -0.48    3.01    1.93    72.43887    63.41857    66.98122
    53  C   4.0    0.06    4.00    3.61    71.60096    63.95078    64.42658
    54  C   4.0    0.30    3.01    3.02    73.85936    64.01973    62.62695
    55  O   6.0   -0.47    1.00    1.80    73.89200    62.81258    60.65342
    56  C   4.0   -0.23    3.99    3.60    70.24846    66.48986    64.33089
    57  H   1.0    0.27    1.00    1.43    72.27444    64.84564    68.23866
    58  H   1.0    0.11    0.99    1.43    70.35296    62.41891    63.79885
    59  H   1.0    0.10    0.99    1.43    69.96042    67.05395    62.38044
    60  H   1.0    0.09    0.99    1.43    68.41654    66.35116    65.24344
    61  H   1.0    0.13    0.99    1.43    71.38000    67.92218    65.27206
    62  N   5.0   -0.48    3.01    1.93    75.69994    65.57236    63.36128
    63  C   4.0    0.07    3.99    3.61    77.95747    66.00649    61.87342
    64  C   4.0    0.31    3.01    3.02    79.22375    63.48829    61.23015
    65  O   6.0   -0.46    1.00    1.80    79.75801    62.90330    59.04997
    66  C   4.0   -0.13    3.99    3.60    79.72704    67.73262    63.38507
    67  C   4.0   -0.03    3.03    3.02    82.14737    68.29868    62.00863
    68  C   4.0   -0.09    3.03    3.02    84.43400    67.35025    62.87590
    69  C   4.0   -0.10    3.03    3.02    82.12701    69.81787    59.86539
    70  C   4.0   -0.11    3.03    3.02    86.66645    67.92475    61.63862
    71  C   4.0   -0.11    3.03    3.02    84.35321    70.38148    58.61653
    72  C   4.0   -0.11    3.03    3.02    86.62866    69.44313    59.50807
    73  H   1.0    0.30    1.00    1.43    75.55538    66.47789    65.04688
    74  H   1.0    0.12    0.99    1.43    77.44107    66.88244    60.06263
    75  H   1.0    0.11    0.99    1.43    78.71422    69.49544    63.74120
    76  H   1.0    0.14    0.99    1.43    80.12912    66.82739    65.19429
    77  H   1.0    0.11    0.99    1.43    84.46829    66.16345    64.53723
    78  H   1.0    0.11    0.99    1.43    80.35996    70.57240    59.17434
    79  H   1.0    0.10    1.00    1.43    88.43641    67.18991    62.33967
    80  H   1.0    0.11    1.00    1.43    84.31529    71.56551    56.95425
    81  H   1.0    0.10    1.00    1.43    88.36947    69.90061    58.54930
    82  N   5.0   -0.47    3.01    1.93    79.70287    62.01392    63.21374
    83  C   4.0    0.07    3.99    3.61    81.00551    59.61793    62.93962
    84  C   4.0    0.30    3.01    3.02    79.62409    57.89207    61.07125
    85  O   6.0   -0.46    1.00    1.80    80.72757    56.84800    59.32018
    86  C   4.0   -0.22    3.99    3.60    81.20424    58.33017    65.50587
    87  H   1.0    0.29    1.00    1.43    79.22097    62.56672    64.98648
    88  H   1.0    0.12    0.99    1.43    82.89139    59.95881    62.14068
    89  H   1.0    0.09    0.99    1.43    82.21320    56.55111    65.33081
    90  H   1.0    0.11    0.99    1.43    82.21620    59.54639    66.81515
    91  H   1.0    0.12    0.99    1.43    79.32344    57.96047    66.24318
    92  N   5.0   -0.48    3.01    1.93    77.18390    57.50460    61.57201
    93  C   4.0    0.07    4.00    3.62    75.75234    55.71100    60.08339
    94  C   4.0    0.29    3.02    3.02    75.47143    56.64399    57.37130
    95  O   6.0   -0.46    1.00    1.80    75.64960    55.19622    55.56204
    96  C   4.0   -0.14    3.99    3.60    73.17221    55.18102    61.26342
    97  C   4.0   -0.09    3.98    3.58    73.31048    54.22035    63.99863
    98  C   4.0   -0.23    3.99    3.60    70.64635    53.57479    64.90325
    99  C   4.0   -0.22    3.98    3.59    75.01708    51.91275    64.27264
   100  H   1.0    0.29    1.00    1.43    76.28820    58.45817    62.97106
   101  H   1.0    0.13    0.99    1.43    76.84767    53.95379    59.95187
   102  H   1.0    0.11    0.99    1.43    72.06545    56.92191    61.21531
   103  H   1.0    0.10    0.99    1.43    72.22121    53.77376    60.09238
   104  H   1.0    0.14    0.99    1.43    74.05022    55.74148    65.18109
   105  H   1.0    0.10    0.99    1.43    70.68568    53.02712    66.88148
   106  H   1.0    0.10    0.99    1.43    69.39145    55.18552    64.70133
   107  H   1.0    0.12    0.99    1.43    69.88902    52.01195    63.80736
   108  H   1.0    0.10    0.99    1.43    74.98620    51.26027    66.21910
   109  H   1.0    0.12    0.99    1.43    74.33367    50.39237    63.07602
   110  H   1.0    0.10    0.99    1.43    76.96402    52.34032    63.77786
   111  N   5.0   -0.48    3.01    1.93    75.02012    59.09919    57.08124
   112  C   4.0    0.08    4.00    3.63    74.94487    60.18252    54.57179
   113  C   4.0    0.31    3.01    3.02    77.33498    59.43261    53.12334
   114  O   6.0   -0.46    1.00    1.80    77.25037    58.47588    51.01161
   115  C   4.0   -0.13    3.99    3.60    74.75975    63.06880    54.70418
   116  C   4.0   -0.03    3.03    3.02    74.80291    64.13786    52.07185
   117  C   4.0   -0.09    3.03    3.02    77.01302    65.11576    51.05141
   118  C   4.0   -0.11    3.03    3.02    72.63759    64.06470    50.58917
   119  C   4.0   -0.11    3.03    3.02    77.05866    65.99999    48.58924
   120  C   4.0   -0.11    3.03    3.02    72.67947    64.94563    48.12867
   121  C   4.0   -0.11    3.03    3.02    74.89399    65.90987    47.12146
   122  H   1.0    0.31    1.00    1.43    74.81351    60.28781    58.57335
   123  H   1.0    0.11    0.99    1.43    73.32986    59.40871    53.52675
   124  H   1.0    0.11    0.99    1.43    73.01042    63.56448    55.67470
   125  H   1.0    0.14    0.99    1.43    76.34244    63.78707    55.81247
   126  H   1.0    0.11    0.99    1.43    78.70386    65.19122    52.19530
   127  H   1.0    0.09    1.00    1.43    70.90977    63.32474    51.38314
   128  H   1.0    0.10    1.00    1.43    78.78913    66.75574    47.81413
   129  H   1.0    0.10    0.99    1.43    70.98425    64.88352    46.99302
   130  H   1.0    0.10    1.00    1.43    74.93491    66.59141    45.20014
   131  N   5.0   -0.48    3.01    1.93    79.48404    59.96980    54.31059
   132  C   4.0    0.07    3.99    3.61    81.92098    59.68457    53.09258
   133  C   4.0    0.29    3.01    3.02    82.35155    56.94136    52.26497
   134  O   6.0   -0.43    1.00    1.80    83.14256    56.40705    50.15813
   135  C   4.0   -0.14    3.99    3.60    84.03944    60.58197    54.86428
   136  C   4.0   -0.11    3.98    3.58    85.90387    62.41133    53.61392
   137  C   4.0   -0.23    3.98    3.59    87.53602    63.66869    55.63578
   138  C   4.0   -0.22    3.98    3.59    87.55756    61.05480    51.67882
   139  H   1.0    0.29    1.00    1.43    79.45600    60.77637    56.05004
   140  H   1.0    0.12    0.99    1.43    81.91134    60.81471    51.34978
   141  H   1.0    0.14    0.99    1.43    83.16459    61.53166    56.47247
   142  H   1.0    0.11    0.99    1.43    85.07513    58.95784    55.60018
   143  H   1.0    0.10    0.99    1.43    84.81346    63.88161    52.64754
   144  H   1.0    0.10    0.99    1.43    88.82558    65.01365    54.77404
   145  H   1.0    0.11    0.99    1.43    86.36110    64.66988    56.99322
   146  H   1.0    0.10    0.99    1.43    88.64343    62.25832    56.63918
   147  H   1.0    0.10    0.99    1.43    88.74835    62.39719    50.67877
   148  H   1.0    0.10    0.99    1.43    88.76664    59.68066    52.61652
   149  H   1.0    0.12    0.99    1.43    86.40910    60.05419    50.29968
   150  N   5.0   -0.48    3.01    1.93    81.88317    55.22021    54.05518
   151  C   4.0    0.08    4.00    3.61    82.58543    52.59033    53.75662
   152  C   4.0    0.29    3.01    3.02    80.57684    51.03009    52.38044
   153  O   6.0   -0.41    1.00    1.80    81.12505    49.57270    50.66747
   154  C   4.0   -0.08    3.98    3.59    83.13695    51.45013    56.37864
   155  C   4.0   -0.16    3.98    3.59    85.59818    52.57100    57.42635
   156  C   4.0   -0.21    3.98    3.59    83.25463    48.57064    56.27034
   157  C   4.0   -0.24    3.98    3.58    85.71587    52.46817    60.30181
   158  H   1.0    0.29    1.00    1.43    81.31230    55.79861    55.79300
   159  H   1.0    0.14    0.99    1.43    84.28076    52.50951    52.56129
   160  H   1.0    0.13    0.99    1.43    81.57427    52.00545    57.61611
   161  H   1.0    0.10    0.99    1.43    87.19965    51.56014    56.60743
   162  H   1.0    0.12    0.99    1.43    85.73497    54.54495    56.84440
   163  H   1.0    0.10    0.99    1.43    83.98743    47.82778    58.03715
   164  H   1.0    0.14    0.99    1.43    81.38248    47.78551    55.96217
   165  H   1.0    0.11    0.99    1.43    84.48132    47.96340    54.73705
   166  H   1.0    0.10    0.99    1.43    87.49742    53.24437    60.96660
   167  H   1.0    0.12    0.99    1.43    84.18185    53.58408    61.09085
   168  H   1.0    0.10    0.99    1.43    85.54401    50.53855    60.97983
   169  N   5.0   -0.46    3.01    1.93    78.21961    51.30322    53.24785
   170  C   4.0    0.10    3.99    3.61    76.23672    49.53844    52.63371
   171  C   4.0    0.27    3.01    3.02    74.45287    50.46359    50.55940
   172  O   6.0   -0.48    1.00    1.80    73.01262    48.99392    49.49253
   173  C   4.0    0.03    3.98    3.58    74.79662    48.87353    55.09082
   174  O   6.0   -0.49    1.99    1.82    76.66769    48.39964    56.94005
   175  C   4.0   -0.22    3.98    3.59    73.05985    46.60582    54.73664
   176  H   1.0    0.30    1.00    1.43    77.80322    52.61627    54.58185
   177  H   1.0    0.15    0.99    1.43    77.15683    47.82583    51.90491
   178  H   1.0    0.12    0.99    1.43    73.69864    50.55388    55.64997
   179  H   1.0    0.25    0.99    1.43    75.87781    47.58706    58.37148
   180  H   1.0    0.11    0.99    1.43    72.05575    46.20607    56.48547
   181  H   1.0    0.12    0.99    1.43    71.69382    46.99697    53.25991
   182  H   1.0    0.11    0.99    1.43    74.18054    44.96619    54.21487
   183  N   5.0   -0.47    3.01    1.93    74.57557    52.92180    50.01113
   184  C   4.0    0.08    4.00    3.61    73.15742    54.05531    47.96078
   185  C   4.0    0.27    3.00    3.02    74.92258    54.54866    45.70508
   186  O   6.0   -0.44    1.00    1.80    74.70324    53.36980    43.71966
   187  C   4.0   -0.09    3.98    3.58    71.81358    56.48449    48.82043
   188  C   4.0   -0.23    3.98    3.59    70.31242    57.63044    46.63940
   189  C   4.0   -0.22    3.98    3.59    70.09996    55.92739    51.07372
   190  H   1.0    0.29    1.00    1.43    75.72830    54.06007    51.02798
   191  H   1.0    0.13    0.99    1.43    71.76596    52.65344    47.33972
   192  H   1.0    0.13    0.99    1.43    73.25991    57.83908    49.40542
   193  H   1.0    0.09    0.99    1.43    69.65741    59.50841    47.14739
   194  H   1.0    0.12    0.99    1.43    71.47484    57.77528    44.95217
   195  H   1.0    0.11    0.99    1.43    68.67515    56.47734    46.17968
   196  H   1.0    0.09    0.99    1.43    69.11921    57.64239    51.63175
   197  H   1.0    0.10    0.99    1.43    68.70117    54.50736    50.57717
   198  H   1.0    0.13    0.99    1.43    71.20473    55.24182    52.66592
   199  N   5.0   -0.49    3.01    1.93    76.69893    56.29201    46.12192
   200  C   4.0    0.07    3.99    3.60    78.23353    57.45038    44.17009
   201  C   4.0    0.29    3.01    3.02    79.53966    55.57976    42.40485
   202  O   6.0   -0.40    1.00    1.80    79.99565    56.15188    40.21278
   203  C   4.0   -0.20    3.99    3.60    80.20827    59.15693    45.39249
   204  H   1.0    0.29    1.00    1.43    76.83909    57.11828    47.84743
   205  H   1.0    0.12    0.99    1.43    77.00381    58.59129    42.94507
   206  H   1.0    0.11    0.99    1.43    81.36999    60.01925    43.93684
   207  H   1.0    0.12    0.99    1.43    79.26752    60.62008    46.48859
   208  H   1.0    0.16    0.99    1.43    81.40928    58.05510    46.64430
   209  N   5.0   -0.47    3.00    1.93    80.20030    53.34751    43.40843
   210  C   4.0    0.03    3.99    3.61    81.36500    51.41422    41.87757
   211  C   4.0    0.29    3.00    3.02    80.00020    50.90443    39.37577
   212  O   6.0   -0.41    1.00    1.80    81.17640    50.08070    37.56288
   213  H   1.0    0.28    1.00    1.43    79.78283    52.93220    45.21894
   214  H   1.0    0.13    0.99    1.43    83.30527    51.94038    41.38495
   215  H   1.0    0.12    0.99    1.43    81.40828    49.65041    42.94385
   216  N   5.0   -0.47    3.01    1.93    77.49895    51.25778    39.37821
   217  C   4.0    0.08    3.99    3.61    75.93746    50.63421    37.21487
   218  C   4.0    0.28    3.02    3.02    74.25273    52.89041    36.57446
   219  O   6.0   -0.44    1.00    1.80    72.67732    53.68200    38.10651
   220  C   4.0   -0.09    3.98    3.59    74.30692    48.34500    37.88248
   221  C   4.0    0.30    2.99    3.02    71.99593    48.04962    36.10242
   222  O   6.0   -0.40    1.00    1.80    72.07402    49.20351    34.04227
   223  O   6.0   -0.43    1.00    1.80    70.24228    46.70054    36.89199
   224  H   1.0    0.31    1.00    1.43    76.58078    52.02127    40.88325
   225  H   1.0    0.14    0.99    1.43    77.20517    50.20111    35.64904
   226  H   1.0    0.12    0.99    1.43    75.43376    46.62003    37.78703
   227  H   1.0    0.13    0.99    1.43    73.59216    48.57853    39.79703
   228  N   5.0   -0.33    3.03    1.93    74.59354    54.06960    34.37331
   229  C   4.0    0.07    4.03    3.66    73.15247    56.34696    33.83963
   230  C   4.0    0.08    3.00    3.02    70.29480    55.94073    33.88007
   231  O   6.0   -0.42    1.00    1.80    68.87239    57.72107    34.34794
   232  C   4.0   -0.14    4.01    3.63    74.06100    57.18658    31.21938
   233  C   4.0   -0.14    4.01    3.63    74.91783    54.71789    30.00022
   234  C   4.0   -0.04    4.01    3.64    76.06982    53.25346    32.20591
   235  H   1.0    0.13    0.99    1.43    73.55182    57.77306    35.28936
   236  H   1.0    0.11    0.99    1.43    72.56355    58.12591    30.16995
   237  H   1.0    0.10    0.99    1.43    75.65222    58.47615    31.42615
   238  H   1.0    0.12    0.99    1.43    73.29717    53.68496    29.26100
   239  H   1.0    0.10    0.99    1.43    76.27174    55.01733    28.48590
   240  H   1.0    0.13    0.99    1.43    75.88630    51.21774    31.94819
   241  H   1.0    0.12    0.99    1.43    78.06050    53.73959    32.49283
   242  N   5.0   -0.69    3.00    1.93    67.19690    52.69516    37.90303
   243  C   4.0    0.08    3.99    3.60    66.42611    53.12659    40.49208
   244  C   4.0    0.29    3.02    3.02    66.09557    55.94938    40.99092
   245  O   6.0   -0.47    1.00    1.80    64.31379    56.75079    42.23416
   246  C   4.0   -0.15    3.99    3.60    68.33321    52.06456    42.37417
   247  C   4.0   -0.15    3.98    3.59    68.43561    49.18779    42.30476
   248  C   4.0   -0.03    3.99    3.60    70.59139    48.19560    43.95443
   249  N   5.0   -0.47    3.02    1.93    71.03374    45.56491    43.35364
   250  C   4.0    0.37    3.00    3.02    71.15100    43.66264    44.99366
   251  N   5.0   -0.65    3.02    1.93    71.32031    44.04629    47.46486
   252  N   5.0   -0.65    3.02    1.93    71.12871    41.29342    44.13571
   253  H   1.0    0.31    1.00    1.43    69.01532    52.19954    37.59043
   254  H   1.0    0.12    0.99    1.43    64.56778    52.24455    40.76399
   255  H   1.0    0.15    0.99    1.43    70.19580    52.83406    41.93021
   256  H   1.0    0.10    0.99    1.43    67.79490    52.70032    44.26143
   257  H   1.0    0.11    0.99    1.43    66.64295    48.39342    42.94045
   258  H   1.0    0.15    0.99    1.43    68.74379    48.56833    40.36056
   259  H   1.0    0.14    0.99    1.43    72.29915    49.31414    43.60440
   260  H   1.0    0.14    0.99    1.43    70.12057    48.37294    45.95063
   261  H   1.0    0.25    1.00    1.43    70.96069    45.16591    41.48283
   262  H   1.0    0.30    1.00    1.43    71.78627    45.74789    48.20751
   263  H   1.0    0.26    1.00    1.43    71.29614    42.50830    48.59607
   264  H   1.0    0.27    1.00    1.43    70.77460    40.92122    42.30725
   265  H   1.0    0.26    1.00    1.43    71.01316    39.88488    45.43219
   266  N   5.0   -0.48    3.01    1.93    67.90833    57.43369    40.06783
   267  C   4.0    0.07    4.00    3.61    67.75705    60.15687    40.34133
   268  C   4.0    0.09    3.00    3.02    65.18725    61.05449    39.35498
   269  O   6.0   -0.43    1.00    1.80    63.85342    62.49391    40.58782
   270  C   4.0   -0.09    3.98    3.58    69.95645    61.47501    38.98465
   271  C   4.0   -0.22    3.98    3.59    69.61084    64.33893    39.07127
   272  C   4.0   -0.22    3.98    3.59    72.47390    60.74189    40.19801
   273  H   1.0    0.28    1.00    1.43    69.34565    56.67908    39.06347
   274  H   1.0    0.12    0.99    1.43    67.80009    60.62242    42.36505
   275  H   1.0    0.15    0.99    1.43    69.93917    60.85056    37.01362
   276  H   1.0    0.10    0.99    1.43    71.18882    65.26245    38.13957
   277  H   1.0    0.12    0.99    1.43    67.87831    64.89971    38.12140
   278  H   1.0    0.10    0.99    1.43    69.52276    64.99427    41.01662
   279  H   1.0    0.10    0.99    1.43    74.01792    61.64584    39.18848
   280  H   1.0    0.10    0.99    1.43    72.52435    61.36793    42.15577
   281  H   1.0    0.13    0.99    1.43    72.77860    58.70633    40.14051
   282  N   5.0   -0.69    3.00    1.93    59.96794    59.53102    43.61744
   283  C   4.0    0.07    3.98    3.58    60.11958    61.17922    45.79678
   284  C   4.0    0.09    3.00    3.02    58.84722    63.71723    45.26336
   285  O   6.0   -0.50    1.00    1.80    57.41807    64.70118    46.81679
   286  C   4.0   -0.13    3.99    3.60    62.88484    61.54308    46.55124
   287  C   4.0   -0.10    3.98    3.58    63.20392    63.25372    48.88372
   288  C   4.0   -0.24    3.98    3.59    65.08466    62.09487    50.73906
   289  C   4.0   -0.22    3.98    3.59    64.03919    65.90938    48.12183
   290  H   1.0    0.33    1.00    1.43    61.60939    58.84428    42.89965
   291  H   1.0    0.11    0.99    1.43    59.06316    60.31021    47.35970
   292  H   1.0    0.11    0.99    1.43    63.66452    59.67164    46.92520
   293  H   1.0    0.14    0.99    1.43    63.89107    62.33704    44.93725
   294  H   1.0    0.12    0.99    1.43    61.37550    63.41682    49.83829
   295  H   1.0    0.09    0.99    1.43    65.26394    63.28177    52.40700
   296  H   1.0    0.09    0.99    1.43    64.44886    60.23313    51.33296
   297  H   1.0    0.09    0.99    1.43    66.92848    61.92538    49.84994
   298  H   1.0    0.09    0.99    1.43    64.18688    67.11700    49.77772
   299  H   1.0    0.10    0.99    1.43    65.87041    65.85314    47.19187
   300  H   1.0    0.11    0.99    1.43    62.67932    66.75432    46.83521
   301  N   5.0   -0.70    3.00    1.93    52.43286    66.77979    48.28436
   302  C   4.0    0.07    3.98    3.58    52.44260    69.29051    49.37409
   303  C   4.0    0.08    3.00    3.02    50.15241    70.75239    48.38933
   304  O   6.0   -0.42    1.00    1.80    48.72048    71.87105    49.82415
   305  C   4.0   -0.21    3.98    3.59    54.88844    70.65722    48.72639
   306  H   1.0    0.32    1.00    1.43    54.08126    66.11795    47.57026
   307  H   1.0    0.12    0.99    1.43    52.22746    69.14539    51.43295
   308  H   1.0    0.10    0.99    1.43    54.85562    72.55583    49.50583
   309  H   1.0    0.11    0.99    1.43    56.48065    69.63276    49.52267
   310  H   1.0    0.12    0.99    1.43    55.10001    70.77322    46.68711
   311  N   5.0   -0.71    3.00    1.93    58.24320    44.68099    55.82112
   312  C   4.0    0.07    3.98    3.58    60.26974    45.87300    57.23642
   313  C   4.0    0.08    3.00    3.02    60.70023    48.59079    56.34769
   314  O   6.0   -0.46    1.00    1.80    60.53213    50.38265    57.80643
   315  C   4.0   -0.13    3.99    3.60    62.66374    44.26372    56.92629
   316  C   4.0   -0.04    3.03    3.02    64.78227    45.13099    58.60666
   317  C   4.0   -0.10    3.03    3.02    66.33476    47.12618    57.89966
   318  C   4.0   -0.11    3.03    3.02    65.24000    43.93161    60.89308
   319  C   4.0   -0.09    3.03    3.02    68.30690    47.89656    59.42299
   320  C   4.0   -0.10    3.03    3.02    67.22873    44.66417    62.41866
   321  C   4.0    0.09    3.03    3.02    68.78905    46.64322    61.68442
   322  O   6.0   -0.51    1.99    1.83    70.79774    47.39475    63.09356
   323  H   1.0    0.25    1.00    1.43    58.61565    42.95492    55.06219
   324  H   1.0    0.14    0.99    1.43    59.73571    46.00657    59.23750
   325  H   1.0    0.10    0.99    1.43    62.16474    42.31647    57.39054
   326  H   1.0    0.11    0.99    1.43    63.25531    44.35115    54.95232
   327  H   1.0    0.11    1.00    1.43    66.02686    48.06814    56.11883
   328  H   1.0    0.11    1.00    1.43    64.04838    42.38289    61.47394
   329  H   1.0    0.11    1.00    1.43    69.50905    49.44870    58.87251
   330  H   1.0    0.11    1.00    1.43    67.58304    43.68721    64.17440
   331  H   1.0    0.24    0.99    1.43    70.92042    46.37533    64.60541
   332  N   5.0   -0.71    3.00    1.93    58.74951    55.40205    59.54872
   333  C   4.0    0.07    3.98    3.59    60.86797    57.14182    59.68111
   334  C   4.0    0.28    3.01    3.02    60.18456    59.59309    58.30256
   335  O   6.0   -0.47    1.00    1.80    60.37471    61.63212    59.38789
   336  C   4.0   -0.13    3.99    3.60    63.18839    55.73895    58.67792
   337  C   4.0   -0.11    3.97    3.58    65.76960    57.00265    59.07924
   338  C   4.0   -0.23    3.98    3.59    66.34552    58.82443    56.91973
   339  C   4.0   -0.23    3.98    3.59    65.97560    58.28060    61.65570
   340  H   1.0    0.31    1.00    1.43    59.10952    53.66624    58.81124
   341  H   1.0    0.12    0.99    1.43    61.15412    57.66605    61.66732
   342  H   1.0    0.12    0.99    1.43    63.19253    53.90683    59.62660
   343  H   1.0    0.11    0.99    1.43    62.91367    55.40760    56.66129
   344  H   1.0    0.10    0.99    1.43    67.17990    55.48677    59.00916
   345  H   1.0    0.10    0.99    1.43    68.15471    59.74775    57.21401
   346  H   1.0    0.09    0.99    1.43    66.42841    57.79368    55.14568
   347  H   1.0    0.11    0.99    1.43    64.88537    60.25784    56.75806
   348  H   1.0    0.10    0.99    1.43    67.91550    58.87716    61.96736
   349  H   1.0    0.11    0.99    1.43    64.77341    59.93867    61.75102
   350  H   1.0    0.12    0.99    1.43    65.42397    56.98445    63.15073
   351  N   5.0   -0.49    3.01    1.93    59.25261    59.36207    55.97251
   352  C   4.0    0.07    3.99    3.60    58.37693    61.50855    54.50418
   353  C   4.0    0.32    3.01    3.02    56.76054    63.30112    56.10503
   354  O   6.0   -0.44    1.00    1.80    57.27548    65.54841    56.33280
   355  C   4.0   -0.03    3.98    3.59    56.77318    60.46590    52.30263
   356  O   6.0   -0.49    1.99    1.82    55.35657    62.29213    51.01813
   357  H   1.0    0.23    1.00    1.43    59.42628    57.71954    54.97477
   358  H   1.0    0.11    0.99    1.43    59.98541    62.61561    53.79482
   359  H   1.0    0.09    0.99    1.43    58.02839    59.41002    51.03455
   360  H   1.0    0.13    0.99    1.43    55.39241    59.15526    53.10043
   361  H   1.0    0.30    0.99    1.43    56.41111    63.27794    49.87351
   362  N   5.0   -0.48    3.01    1.93    54.72813    62.21975    57.13070
   363  C   4.0    0.07    4.00    3.61    53.00134    63.66862    58.69052
   364  C   4.0    0.29    3.01    3.02    54.51541    64.94351    60.80529
   365  O   6.0   -0.40    1.00    1.80    54.25532    67.18496    61.32448
   366  C   4.0   -0.14    3.99    3.60    50.89836    61.99117    59.76626
   367  C   4.0   -0.03    3.02    3.02    48.58868    61.86274    58.09245
   368  C   4.0   -0.09    3.03    3.02    48.78124    61.78096    55.47355
   369  C   4.0   -0.09    3.03    3.02    46.19451    61.85175    59.18178
   370  C   4.0   -0.09    3.03    3.02    46.62861    61.72591    53.98313
   371  C   4.0   -0.09    3.03    3.02    44.03968    61.79678    57.69541
   372  C   4.0   -0.09    3.03    3.02    44.25576    61.74459    55.08710
   373  H   1.0    0.24    1.00    1.43    54.41396    60.34137    56.91246
   374  H   1.0    0.13    0.99    1.43    52.17535    65.20286    57.56266
   375  H   1.0    0.11    0.99    1.43    51.69353    60.10811    60.07129
   376  H   1.0    0.11    0.99    1.43    50.34582    62.75626    61.59855
   377  H   1.0    0.13    1.00    1.43    50.61165    61.79095    54.57437
   378  H   1.0    0.11    1.00    1.43    46.01353    61.94521    61.21103
   379  H   1.0    0.12    1.00    1.43    46.81488    61.71671    51.95119
   380  H   1.0    0.12    1.00    1.43    42.18855    61.86331    58.55283
   381  H   1.0    0.12    1.00    1.43    42.58379    61.75680    53.92000
   382  N   5.0   -0.47    3.00    1.93    56.07995    63.40752    62.05662
   383  C   4.0    0.02    4.00    3.61    57.71834    64.35863    64.01437
   384  C   4.0    0.30    3.01    3.02    59.17585    66.74904    63.27533
   385  O   6.0   -0.47    1.00    1.80    59.33419    68.51591    64.77499
   386  H   1.0    0.26    1.00    1.43    56.26727    61.57288    61.53420
   387  H   1.0    0.12    0.99    1.43    56.59297    64.86410    65.68057
   388  H   1.0    0.11    0.99    1.43    59.07144    62.87664    64.48915
   389  N   5.0   -0.48    3.01    1.93    60.37787    66.67054    61.07306
   390  C   4.0    0.08    4.00    3.61    61.96126    68.73943    60.22184
   391  C   4.0    0.30    3.02    3.02    60.42843    71.16907    60.06802
   392  O   6.0   -0.47    1.00    1.80    61.19665    73.12149    61.04306
   393  C   4.0   -0.09    3.98    3.58    63.24584    68.11434    57.67870
   394  C   4.0   -0.17    3.98    3.59    65.85912    66.94677    58.12505
   395  C   4.0   -0.23    3.98    3.59    63.54400    70.43476    55.97741
   396  C   4.0   -0.23    3.98    3.59    65.80220    64.69347    59.90716
   397  H   1.0    0.31    1.00    1.43    60.21277    65.11514    59.96663
   398  H   1.0    0.12    0.99    1.43    63.40325    69.11046    61.66849
   399  H   1.0    0.13    0.99    1.43    62.03386    66.74420    56.71236
   400  H   1.0    0.09    0.99    1.43    66.61621    66.34543    56.30356
   401  H   1.0    0.10    0.99    1.43    67.11368    68.40933    58.86511
   402  H   1.0    0.09    0.99    1.43    64.73475    69.95877    54.37198
   403  H   1.0    0.11    0.99    1.43    61.73416    71.08254    55.26176
   404  H   1.0    0.11    0.99    1.43    64.42994    71.97735    57.00558
   405  H   1.0    0.10    0.99    1.43    67.60827    63.71938    59.88312
   406  H   1.0    0.10    0.99    1.43    65.38619    65.26865    61.83131
   407  H   1.0    0.13    0.99    1.43    64.33858    63.38472    59.32386
   408  N   5.0   -0.49    3.01    1.93    58.32086    71.05520    58.68709
   409  C   4.0    0.07    4.00    3.62    56.95026    73.37172    58.20010
   410  C   4.0    0.10    3.00    3.02    55.71703    74.33519    60.63003
   411  O   6.0   -0.41    1.00    1.80    55.69784    76.58270    61.18098
   412  C   4.0   -0.09    3.98    3.59    55.12623    73.04340    55.97281
   413  C   4.0   -0.16    3.98    3.59    54.18257    75.60372    55.00425
   414  C   4.0   -0.21    3.98    3.59    52.91039    71.34193    56.67243
   415  C   4.0   -0.24    3.98    3.58    56.25234    77.23881    53.84038
   416  H   1.0    0.28    1.00    1.43    57.71802    69.39061    57.96502
   417  H   1.0    0.13    0.99    1.43    58.36784    74.80907    57.71730
   418  H   1.0    0.11    0.99    1.43    56.21226    72.13324    54.46061
   419  H   1.0    0.11    0.99    1.43    52.74126    75.24040    53.57450
   420  H   1.0    0.13    0.99    1.43    53.29101    76.62460    56.55829
   421  H   1.0    0.11    0.99    1.43    51.73676    71.02393    55.01892
   422  H   1.0    0.14    0.99    1.43    53.56220    69.52647    57.37321
   423  H   1.0    0.12    0.99    1.43    51.74859    72.22974    58.11230
   424  H   1.0    0.10    0.99    1.43    55.41739    78.85129    52.87948
   425  H   1.0    0.10    0.99    1.43    57.52887    77.96236    55.27788
   426  H   1.0    0.09    0.99    1.43    57.35240    76.16965    52.47208
   427  N   5.0   -0.68    3.00    1.92    57.83604    73.42125    66.24585
   428  C   4.0    0.02    3.98    3.59    59.93986    74.40598    67.68130
   429  C   4.0    0.28    3.01    3.02    60.66231    77.08153    66.87704
   430  O   6.0   -0.40    1.00    1.80    60.98069    78.78424    68.42131
   431  H   1.0    0.33    1.00    1.43    58.08468    71.68566    65.46517
   432  H   1.0    0.10    0.99    1.43    59.48253    74.45273    69.69802
   433  H   1.0    0.11    0.99    1.43    61.55132    73.15835    67.37890
   434  N   5.0   -0.47    3.01    1.93    60.96618    77.39834    64.39851
   435  C   4.0    0.08    4.00    3.62    61.68276    79.84975    63.40412
   436  C   4.0    0.10    3.00    3.02    59.91844    81.84137    64.52945
   437  O   6.0   -0.39    1.00    1.80    60.72026    83.71644    65.62573
   438  C   4.0   -0.09    3.98    3.58    61.59426    79.89022    60.50254
   439  C   4.0   -0.22    3.98    3.59    61.77889    82.60274    59.52941
   440  C   4.0   -0.23    3.98    3.59    63.74247    78.30260    59.41018
   441  H   1.0    0.31    1.00    1.43    60.83161    75.91323    63.19006
   442  H   1.0    0.13    0.99    1.43    63.59842    80.31401    64.05715
   443  H   1.0    0.14    0.99    1.43    59.77660    79.08618    59.92858
   444  H   1.0    0.10    0.99    1.43    61.77661    82.61623    57.47665
   445  H   1.0    0.12    0.99    1.43    60.20646    83.74740    60.19394
   446  H   1.0    0.11    0.99    1.43    63.52211    83.46994    60.18574
   447  H   1.0    0.09    0.99    1.43    63.67581    78.36520    57.35882
   448  H   1.0    0.10    0.99    1.43    65.55621    79.04343    60.02608
   449  H   1.0    0.14    0.99    1.43    63.59403    76.35080    60.02094
   450  N   5.0   -0.73    3.00    1.93    61.12178    73.74434    80.97019
   451  C   4.0    0.08    3.98    3.59    61.23522    73.60606    78.24186
   452  C   4.0    0.27    3.01    3.02    62.36135    71.07893    77.39779
   453  O   6.0   -0.47    1.00    1.80    61.25065    69.69954    75.89892
   454  C   4.0    0.03    3.98    3.58    62.81463    75.81375    77.18105
   455  O   6.0   -0.48    1.99    1.82    61.61306    78.16008    77.61488
   456  C   4.0   -0.20    3.98    3.59    63.18205    75.47955    74.34294
   457  H   1.0    0.25    1.00    1.43    62.05721    75.17558    81.83573
   458  H   1.0    0.11    0.99    1.43    59.30681    73.71141    77.47431
   459  H   1.0    0.10    0.99    1.43    64.66091    75.79486    78.13168
   460  H   1.0    0.24    0.99    1.43    61.58560    78.48693    79.41721
   461  H   1.0    0.12    0.99    1.43    63.97152    77.19251    73.53325
   462  H   1.0    0.11    0.99    1.43    64.44419    73.90253    73.97606
   463  H   1.0    0.12    0.99    1.43    61.37249    75.10065    73.45174
   464  N   5.0   -0.49    3.01    1.93    64.60911    70.52218    78.37844
   465  C   4.0    0.07    4.00    3.62    65.86888    68.16494    77.76778
   466  C   4.0    0.29    3.01    3.02    64.03555    65.95335    78.06052
   467  O   6.0   -0.47    1.00    1.80    63.93273    64.19478    76.55745
   468  C   4.0   -0.22    3.99    3.60    68.08522    67.72055    79.54805
   469  H   1.0    0.23    1.00    1.43    65.45754    71.69416    79.63370
   470  H   1.0    0.14    0.99    1.43    66.52779    68.22363    75.80480
   471  H   1.0    0.10    0.99    1.43    68.82189    65.82448    79.27177
   472  H   1.0    0.11    0.99    1.43    69.60033    69.05429    79.17165
   473  H   1.0    0.10    0.99    1.43    67.45008    67.91813    81.49122
   474  N   5.0   -0.48    3.01    1.93    62.69418    66.05804    80.19180
   475  C   4.0    0.06    3.99    3.61    61.06642    64.01389    80.99067
   476  C   4.0    0.29    3.01    3.02    58.95587    63.62596    79.05953
   477  O   6.0   -0.48    1.00    1.80    58.29690    61.52283    78.37553
   478  C   4.0   -0.23    3.98    3.59    59.96380    64.54504    83.59254
   479  H   1.0    0.24    1.00    1.43    62.94795    67.55555    81.36134
   480  H   1.0    0.11    0.99    1.43    62.15296    62.24371    81.02490
   481  H   1.0    0.10    0.99    1.43    58.86587    62.91696    84.19397
   482  H   1.0    0.10    0.99    1.43    61.49084    64.86345    84.92769
   483  H   1.0    0.10    0.99    1.43    58.76483    66.21042    83.51942
   484  N   5.0   -0.48    3.01    1.93    57.88078    65.76192    78.25042
   485  C   4.0    0.08    4.00    3.61    55.90928    65.78315    76.35021
   486  C   4.0    0.30    3.01    3.02    56.86794    64.46786    73.96816
   487  O   6.0   -0.48    1.00    1.80    55.56094    62.98478    72.74683
   488  C   4.0   -0.09    3.98    3.58    55.10296    68.51736    75.74759
   489  C   4.0   -0.16    3.98    3.58    53.58963    69.69663    77.92587
   490  C   4.0   -0.22    3.98    3.59    53.65020    68.66586    73.25764
   491  C   4.0   -0.24    3.98    3.58    50.98698    68.54605    78.38433
   492  H   1.0    0.25    1.00    1.43    58.44622    67.42535    79.01123
   493  H   1.0    0.11    0.99    1.43    54.28148    64.68254    77.01864
   494  H   1.0    0.13    0.99    1.43    56.84727    69.60858    75.53873
   495  H   1.0    0.10    0.99    1.43    54.70137    69.56048    79.65485
   496  H   1.0    0.10    0.99    1.43    53.34708    71.70120    77.50025
   497  H   1.0    0.10    0.99    1.43    53.00255    70.58992    72.93934
   498  H   1.0    0.12    0.99    1.43    54.85066    68.12729    71.67963
   499  H   1.0    0.11    0.99    1.43    52.02543    67.41206    73.29912
   500  H   1.0    0.10    0.99    1.43    50.12309    69.42685    80.02790
   501  H   1.0    0.10    0.99    1.43    49.74469    68.84944    76.77851
   502  H   1.0    0.10    0.99    1.43    51.09944    66.52747    78.75032
   503  N   5.0   -0.47    3.01    1.93    59.19620    65.10961    73.26073
   504  C   4.0    0.08    4.00    3.62    60.29038    64.09776    70.95809
   505  C   4.0    0.30    3.01    3.02    60.35390    61.21333    71.15941
   506  O   6.0   -0.48    1.00    1.80    59.58629    59.82246    69.45392
   507  C   4.0   -0.09    3.98    3.58    62.94629    65.18549    70.49185
   508  C   4.0   -0.15    3.98    3.59    62.75345    68.03890    70.00636
   509  C   4.0   -0.23    3.98    3.59    64.17900    63.83259    68.25816
   510  C   4.0   -0.23    3.98    3.58    65.30901    69.33612    69.71578
   511  H   1.0    0.29    1.00    1.43    60.16575    66.46359    74.21149
   512  H   1.0    0.12    0.99    1.43    59.06813    64.57724    69.35060
   513  H   1.0    0.14    0.99    1.43    64.06591    64.85601    72.19957
   514  H   1.0    0.13    0.99    1.43    61.63122    68.35400    68.30415
   515  H   1.0    0.13    0.99    1.43    61.76103    68.93482    71.57402
   516  H   1.0    0.10    0.99    1.43    66.16172    64.33219    68.13331
   517  H   1.0    0.12    0.99    1.43    64.05554    61.79216    68.45099
   518  H   1.0    0.11    0.99    1.43    63.24556    64.37332    66.50626
   519  H   1.0    0.10    0.99    1.43    65.02222    71.36370    69.52194
   520  H   1.0    0.13    0.99    1.43    66.49262    69.01710    71.36356
   521  H   1.0    0.10    0.99    1.43    66.28835    68.68260    68.03641
   522  N   5.0   -0.47    3.01    1.93    61.33962    60.35133    73.30376
   523  C   4.0    0.07    3.99    3.61    61.60835    57.66850    73.79102
   524  C   4.0    0.29    3.01    3.02    59.01018    56.39399    73.79122
   525  O   6.0   -0.41    1.00    1.80    58.59652    54.49871    72.51394
   526  C   4.0   -0.14    3.99    3.60    62.95813    57.25004    76.30401
   527  C   4.0   -0.10    3.98    3.58    65.78221    57.90435    76.22300
   528  C   4.0   -0.23    3.98    3.59    66.81509    57.99862    78.91668
   529  C   4.0   -0.23    3.98    3.59    67.26352    55.97401    74.67304
   530  H   1.0    0.29    1.00    1.43    62.07363    61.56813    74.59634
   531  H   1.0    0.12    0.99    1.43    62.67256    56.79483    72.23977
   532  H   1.0    0.13    0.99    1.43    62.01759    58.41142    77.72577
   533  H   1.0    0.10    0.99    1.43    62.74597    55.26862    76.82835
   534  H   1.0    0.13    0.99    1.43    66.01336    59.77338    75.36848
   535  H   1.0    0.09    0.99    1.43    68.82918    58.39574    78.89557
   536  H   1.0    0.10    0.99    1.43    65.87840    59.47383    79.99654
   537  H   1.0    0.10    0.99    1.43    66.52520    56.19407    79.85437
   538  H   1.0    0.09    0.99    1.43    69.26877    56.41247    74.71428
   539  H   1.0    0.10    0.99    1.43    66.99780    54.08522    75.43883
   540  H   1.0    0.10    0.99    1.43    66.66871    55.95716    72.70687
   541  N   5.0   -0.48    3.01    1.93    57.25520    57.48790    75.22305
   542  C   4.0    0.08    4.00    3.62    54.71001    56.47243    75.30765
   543  C   4.0    0.30    3.02    3.02    53.86478    55.82500    72.63289
   544  O   6.0   -0.38    1.00    1.80    52.94849    53.77565    72.09553
   545  C   4.0   -0.14    3.99    3.60    52.78069    58.34582    76.40233
   546  C   4.0   -0.11    3.97    3.58    51.88130    57.82124    79.11115
   547  C   4.0   -0.23    3.98    3.59    51.10188    55.06436    79.48577
   548  C   4.0   -0.22    3.98    3.59    53.82908    58.61443    81.07658
   549  H   1.0    0.31    1.00    1.43    57.65699    59.00952    76.32521
   550  H   1.0    0.12    0.99    1.43    54.71759    54.69632    76.36956
   551  H   1.0    0.13    0.99    1.43    53.59433    60.23494    76.30636
   552  H   1.0    0.11    0.99    1.43    51.10738    58.32235    75.19347
   553  H   1.0    0.10    0.99    1.43    50.18790    58.98384    79.36609
   554  H   1.0    0.10    0.99    1.43    49.84211    54.91238    81.10127
   555  H   1.0    0.11    0.99    1.43    50.11435    54.36589    77.82604
   556  H   1.0    0.10    0.99    1.43    52.73093    53.86112    79.84461
   557  H   1.0    0.09    0.99    1.43    53.18683    58.10742    82.96010
   558  H   1.0    0.12    0.99    1.43    55.63577    57.70922    80.72711
   559  H   1.0    0.11    0.99    1.43    54.13222    60.64307    81.02664
   560  N   5.0   -0.47    3.01    1.93    54.02508    57.74208    70.98842
   561  C   4.0    0.08    4.00    3.62    53.06596    57.47145    68.44182
   562  C   4.0    0.29    3.01    3.02    54.40954    55.34353    67.03148
   563  O   6.0   -0.37    1.00    1.80    53.21145    53.80732    65.78198
   564  C   4.0   -0.13    3.98    3.59    53.27111    59.97996    66.98938
   565  C   4.0    0.08    3.22    3.04    51.10076    61.62755    67.67854
   566  N   5.0   -0.47    3.15    1.95    51.10245    63.14198    69.77245
   567  C   4.0    0.06    3.35    3.07    48.70114    61.79274    66.72100
   568  C   4.0    0.17    3.41    3.08    48.77174    64.14923    69.97523
   569  N   5.0   -0.38    2.10    1.90    47.28344    63.37097    68.16386
   570  H   1.0    0.30    1.00    1.43    54.77849    59.42333    71.51158
   571  H   1.0    0.14    0.99    1.43    51.07832    56.88614    68.57399
   572  H   1.0    0.13    0.99    1.43    55.06121    60.87655    67.47814
   573  H   1.0    0.11    0.99    1.43    53.28473    59.60281    64.96329
   574  H   1.0    0.27    1.00    1.43    52.59383    63.38351    70.95146
   575  H   1.0    0.10    1.00    1.43    47.91385    60.94361    65.06432
   576  H   1.0    0.10    1.00    1.43    48.21173    65.42528    71.44392
   577  N   5.0   -0.47    3.01    1.93    56.90612    55.31375    67.28966
   578  C   4.0    0.09    3.99    3.61    58.42429    53.35414    66.13039
   579  C   4.0    0.10    3.00    3.02    57.19229    50.79232    66.67014
   580  O   6.0   -0.38    1.00    1.80    56.64126    49.28982    64.99879
   581  C   4.0    0.04    3.98    3.58    61.16639    53.50251    67.11378
   582  O   6.0   -0.52    1.99    1.82    62.24855    55.85431    66.47874
   583  C   4.0   -0.20    3.98    3.59    62.78212    51.43113    65.93441
   584  H   1.0    0.30    1.00    1.43    57.77160    56.70087    68.28899
   585  H   1.0    0.13    0.99    1.43    58.46163    53.61889    64.07551
   586  H   1.0    0.14    0.99    1.43    61.13004    53.26669    69.17844
   587  H   1.0    0.29    0.99    1.43    61.37178    57.20841    67.34928
   588  H   1.0    0.11    0.99    1.43    64.73743    51.69341    66.49713
   589  H   1.0    0.11    0.99    1.43    62.13215    49.58872    66.55591
   590  H   1.0    0.12    0.99    1.43    62.66777    51.51858    63.88530
   591  H   1.0    0.28    1.00    1.43    73.24032    74.27307    79.34843
   592  H   1.0    0.16    1.00    1.43    69.57881    54.22804    33.52638
   593  H   1.0    0.31    1.00    1.43    66.26952    51.43456    37.23714
   594  H   1.0    0.15    1.00    1.43    64.56363    60.46623    37.67091
   595  H   1.0    0.30    1.00    1.43    59.04422    58.15734    44.00771
   596  H   1.0    0.15    1.00    1.43    59.16851    64.61030    43.62926
   597  H   1.0    0.32    1.00    1.43    51.97114    65.64901    49.46787
   598  H   1.0    0.14    1.00    1.43    49.79490    70.81085    46.53465
   599  H   1.0    0.30    1.00    1.43    56.89753    44.45608    56.83657
   600  H   1.0    0.12    1.00    1.43    61.12953    48.93705    54.54025
   601  H   1.0    0.31    1.00    1.43    58.14439    55.12421    61.11372
   602  H   1.0    0.16    1.00    1.43    54.89633    73.11801    61.81999
   603  H   1.0    0.30    1.00    1.43    56.47203    73.29223    67.25351
   604  H   1.0    0.15    1.00    1.43    58.04567    81.63586    64.38263
   605  H   1.0    0.29    1.00    1.43    59.50273    73.91179    81.46333
   606  H   1.0    0.16    1.00    1.43    56.80466    50.28638    68.44914

           ------------------------------------------------- 
          |        Self-Consistent Charge Iterations        |
           ------------------------------------------------- 

          ...................................................
          :                      SETUP                      :
          :.................................................:
          :  # basis functions                1464          :
          :  # atomic orbitals                1464          :
          :  # shells                          892          :
          :  # electrons                      1600          :
          :  max. iterations                   250          :
          :  Hamiltonian                  GFN2-xTB          :
          :  restarted?                      false          :
          :  GBSA solvation                   true          :
          :  PC potential                    false          :
          :  electronic temp.          500.0000000     K    :
          :  accuracy                    0.1000000          :
          :  -> integral cutoff          0.3500000E+02      :
          :  -> integral neglect         0.1000000E-08      :
          :  -> SCF convergence          0.1000000E-06 Eh   :
          :  -> wf. convergence          0.1000000E-04 e    :
          :  Broyden damping             0.4000000          :
          ...................................................

 iter      E             dE          RMSdq      gap      omega  full diag
   1   -908.5837377 -0.908584E+03  0.401E+00    1.73       0.0  T
   2   -910.7929600 -0.220922E+01  0.215E+00    1.51       1.0  T
   3   -910.8752474 -0.822875E-01  0.114E+00    1.93       1.0  T
   4   -910.9004196 -0.251722E-01  0.262E-01    1.58       1.0  T
   5   -910.9269042 -0.264846E-01  0.986E-02    1.69       1.0  T
   6   -910.9278700 -0.965768E-03  0.492E-02    1.67       1.0  T
   7   -910.9281647 -0.294731E-03  0.224E-02    1.65       1.0  T
   8   -910.9282439 -0.791879E-04  0.723E-03    1.65       1.0  T
   9   -910.9282494 -0.555198E-05  0.330E-03    1.65       1.2  T
  10   -910.9282506 -0.115257E-05  0.151E-03    1.65       2.7  T
  11   -910.9282508 -0.180042E-06  0.664E-04    1.65       6.1  T
  12   -910.9282509 -0.978969E-07  0.273E-04    1.65      14.9  T
  13   -910.9282509 -0.866225E-08  0.134E-04    1.65      30.4  T
  14   -910.9282509 -0.228044E-08  0.698E-05    1.65      58.2  T
  15   -910.9282509 -0.646992E-09  0.310E-05    1.65     131.1  T

   *** convergence criteria satisfied after 15 iterations ***

         #    Occupation            Energy/Eh            Energy/eV
      -------------------------------------------------------------
         1        2.0000           -0.7356287             -20.0175
       ...           ...                  ...                  ...
       794        2.0000           -0.3695541             -10.0561
       795        2.0000           -0.3683930             -10.0245
       796        2.0000           -0.3645352              -9.9195
       797        2.0000           -0.3611224              -9.8266
       798        2.0000           -0.3566160              -9.7040
       799        2.0000           -0.3535295              -9.6200
       800        2.0000           -0.3504920              -9.5374 (HOMO)
       801                         -0.2896836              -7.8827 (LUMO)
       802                         -0.2888597              -7.8603
       803                         -0.2875646              -7.8250
       804                         -0.2850625              -7.7569
       805                         -0.2787605              -7.5855
       ...                                ...                  ...
      1464                          0.6647985              18.0901
      -------------------------------------------------------------
                  HL-Gap            0.0608084 Eh            1.6547 eV
             Fermi-level           -0.3204774 Eh           -8.7206 eV

 SCC (total)                   0 d,  0 h,  0 min, 38.339 sec
 SCC setup                      ...        0 min,  0.289 sec (  0.753%)
 Dispersion                     ...        0 min,  0.550 sec (  1.434%)
 integral evaluation            ...        0 min,  1.324 sec (  3.452%)
 zeroth order Hamiltonian       ...        0 min,  0.014 sec (  0.036%)
 iterations                     ...        0 min, 28.608 sec ( 74.619%)
 molecular gradient             ...        0 min,  7.287 sec ( 19.007%)
 printout                       ...        0 min,  0.268 sec (  0.699%)

         :::::::::::::::::::::::::::::::::::::::::::::::::::::
         ::                     SUMMARY                     ::
         :::::::::::::::::::::::::::::::::::::::::::::::::::::
         :: total energy             -899.373295549846 Eh   ::
         :: total w/o Gsasa/hb       -899.298221073875 Eh   ::
         :: gradient norm               0.628141076150 Eh/α ::
         :: HOMO-LUMO gap               1.654680764190 eV   ::
         ::.................................................::
         :: SCC energy               -910.959641087955 Eh   ::
         :: -> isotropic ES             2.114653106201 Eh   ::
         :: -> anisotropic ES          -0.068907581665 Eh   ::
         :: -> anisotropic XC           0.321583915433 Eh   ::
         :: -> dispersion              -0.841301102423 Eh   ::
         :: -> Gsolv                   -0.351023659567 Eh   ::
         ::    -> Gborn                -0.275949183596 Eh   ::
         ::    -> Gsasa                -0.033247661664 Eh   ::
         ::    -> Ghb                  -0.043684257434 Eh   ::
         ::    -> Gshift                0.001857443127 Eh   ::
         :: repulsion energy           11.495160185993 Eh   ::
         :: add. restraining            0.000000000000 Eh   ::
         :::::::::::::::::::::::::::::::::::::::::::::::::::::

           -------------------------------------------------
          |                Property Printout                |
           -------------------------------------------------

    * Orbital Energies and Occupations

         #    Occupation            Energy/Eh            Energy/eV
      -------------------------------------------------------------
         1        2.0000           -0.7356287             -20.0175
       ...           ...                  ...                  ...
       788        2.0000           -0.3899491             -10.6111
       789        2.0000           -0.3871391             -10.5346
       790        2.0000           -0.3836544             -10.4398
       791        2.0000           -0.3833815             -10.4323
       792        2.0000           -0.3827366             -10.4148
       793        2.0000           -0.3797176             -10.3326
       794        2.0000           -0.3695541             -10.0561
       795        2.0000           -0.3683930             -10.0245
       796        2.0000           -0.3645352              -9.9195
       797        2.0000           -0.3611224              -9.8266
       798        2.0000           -0.3566160              -9.7040
       799        2.0000           -0.3535295              -9.6200
       800        2.0000           -0.3504920              -9.5374 (HOMO)
       801                         -0.2896836              -7.8827 (LUMO)
       802                         -0.2888597              -7.8603
       803                         -0.2875646              -7.8250
       804                         -0.2850625              -7.7569
       805                         -0.2787605              -7.5855
       806                         -0.2782289              -7.5710
       807                         -0.2748380              -7.4787
       808                         -0.2745295              -7.4703
       809                         -0.2518543              -6.8533
       810                         -0.2476292              -6.7383
       811                         -0.2474990              -6.7348
       ...                                ...                  ...
      1464                          0.6647985              18.0901
      -------------------------------------------------------------
                  HL-Gap            0.0608084 Eh            1.6547 eV
             Fermi-level           -0.3204774 Eh           -8.7206 eV

   #   Z        covCN         q      C6AA      α(0)
   1   7 N      2.636    -0.396    30.261     8.170
   2   6 C      3.785     0.031    20.069     6.381
   3   6 C      2.758     0.265    22.529     7.773
   4   8 O      0.859    -0.479    23.316     6.474
   5   6 C      3.758    -0.122    22.891     6.821
   6   1 H      0.860     0.167     1.290     1.779
   7   1 H      0.923     0.038     2.477     2.461
   8   1 H      0.925     0.041     2.434     2.440
   9   1 H      0.925     0.057     2.236     2.338
  10   1 H      0.925     0.051     2.305     2.374
  11   7 N      2.688    -0.175    24.799     7.396
  12   6 C      3.797     0.012    20.387     6.429
  13   6 C      2.758     0.266    22.515     7.770
  14   8 O      0.859    -0.493    23.626     6.517
  15   6 C      3.815    -0.079    21.995     6.675
  16   6 C      2.967     0.011    27.771     8.644
  17   6 C      2.923    -0.042    29.032     8.836
  18   6 C      2.929    -0.044    29.104     8.847
  19   6 C      2.919    -0.028    28.700     8.785
  20   6 C      2.918    -0.032    28.787     8.798
  21   6 C      2.921    -0.031    28.763     8.795
  22   1 H      0.860     0.211     1.051     1.606
  23   1 H      0.923     0.097     1.811     2.105
  24   1 H      0.924     0.074     2.047     2.237
  25   1 H      0.924     0.077     2.010     2.217
  26   1 H      0.926     0.035     2.510     2.478
  27   1 H      0.926     0.048     2.341     2.393
  28   1 H      0.925     0.017     2.783     2.609
  29   1 H      0.926     0.040     2.446     2.446
  30   1 H      0.926     0.022     2.698     2.568
  31   7 N      2.685    -0.155    24.361     7.331
  32   6 C      3.744    -0.036    21.296     6.583
  33   6 C      2.760     0.272    22.409     7.752
  34   8 O      0.859    -0.504    23.866     6.550
  35   1 H      0.860     0.231     0.959     1.534
  36   1 H      0.924     0.094     1.842     2.122
  37   1 H      0.924     0.098     1.805     2.101
  38   7 N      2.756    -0.090    22.997     7.122
  39   6 C      3.827     0.013    20.343     6.418
  40   6 C      2.754     0.276    22.327     7.738
  41   8 O      0.858    -0.485    23.464     6.495
  42   6 C      3.827    -0.077    21.956     6.667
  43   6 C      3.827    -0.075    21.905     6.660
  44   6 C      3.765    -0.019    20.961     6.526
  45   1 H      0.924     0.077     2.015     2.220
  46   1 H      0.925     0.069     2.101     2.267
  47   1 H      0.925     0.077     2.006     2.215
  48   1 H      0.925     0.060     2.203     2.321
  49   1 H      0.925     0.079     1.989     2.206
  50   1 H      0.925     0.071     2.076     2.253
  51   1 H      0.924     0.082     1.958     2.188
  52   7 N      2.691    -0.176    24.813     7.398
  53   6 C      3.798     0.021    20.217     6.402
  54   6 C      2.758     0.277    22.309     7.735
  55   8 O      0.858    -0.494    23.656     6.521
  56   6 C      3.759    -0.138    23.199     6.867
  57   1 H      0.860     0.219     1.014     1.577
  58   1 H      0.924     0.074     2.040     2.234
  59   1 H      0.925     0.069     2.099     2.266
  60   1 H      0.925     0.066     2.135     2.285
  61   1 H      0.925     0.079     1.989     2.206
  62   7 N      2.694    -0.186    25.038     7.432
  63   6 C      3.797     0.026    20.139     6.390
  64   6 C      2.757     0.279    22.277     7.729
  65   8 O      0.858    -0.506    23.910     6.556
  66   6 C      3.813    -0.084    22.089     6.690
  67   6 C      2.970     0.008    27.839     8.655
  68   6 C      2.924    -0.044    29.082     8.844
  69   6 C      2.925    -0.041    29.025     8.835
  70   6 C      2.919    -0.034    28.843     8.807
  71   6 C      2.918    -0.033    28.812     8.802
  72   6 C      2.920    -0.034    28.852     8.808
  73   1 H      0.860     0.237     0.937     1.516
  74   1 H      0.923     0.066     2.129     2.282
  75   1 H      0.924     0.070     2.086     2.259
  76   1 H      0.924     0.073     2.048     2.238
  77   1 H      0.926     0.039     2.458     2.452
  78   1 H      0.926     0.038     2.474     2.460
  79   1 H      0.926     0.040     2.445     2.445
  80   1 H      0.926     0.038     2.479     2.462
  81   1 H      0.926     0.037     2.489     2.467
  82   7 N      2.691    -0.180    24.892     7.410
  83   6 C      3.796     0.026    20.139     6.390
  84   6 C      2.761     0.275    22.348     7.742
  85   8 O      0.859    -0.499    23.765     6.536
  86   6 C      3.758    -0.133    23.110     6.854
  87   1 H      0.860     0.233     0.954     1.530
  88   1 H      0.923     0.067     2.115     2.274
  89   1 H      0.925     0.068     2.112     2.273
  90   1 H      0.925     0.078     2.001     2.212
  91   1 H      0.925     0.070     2.081     2.256
  92   7 N      2.690    -0.183    24.959     7.420
  93   6 C      3.802     0.025    20.151     6.391
  94   6 C      2.763     0.272    22.410     7.753
  95   8 O      0.859    -0.506    23.922     6.558
  96   6 C      3.809    -0.070    21.836     6.652
  97   6 C      3.850    -0.016    20.819     6.490
  98   6 C      3.758    -0.122    22.893     6.822
  99   6 C      3.756    -0.124    22.935     6.828
 100   1 H      0.860     0.231     0.961     1.535
 101   1 H      0.923     0.074     2.037     2.232
 102   1 H      0.924     0.048     2.341     2.393
 103   1 H      0.924     0.054     2.273     2.358
 104   1 H      0.924     0.049     2.327     2.385
 105   1 H      0.925     0.045     2.381     2.413
 106   1 H      0.925     0.041     2.432     2.439
 107   1 H      0.925     0.051     2.311     2.378
 108   1 H      0.925     0.050     2.320     2.382
 109   1 H      0.925     0.055     2.256     2.349
 110   1 H      0.925     0.030     2.580     2.512
 111   7 N      2.691    -0.186    25.039     7.432
 112   6 C      3.807     0.027    20.108     6.383
 113   6 C      2.759     0.283    22.211     7.718
 114   8 O      0.858    -0.506    23.908     6.556
 115   6 C      3.813    -0.081    22.027     6.680
 116   6 C      2.973     0.008    27.841     8.655
 117   6 C      2.924    -0.041    29.028     8.836
 118   6 C      2.925    -0.043    29.069     8.842
 119   6 C      2.919    -0.034    28.857     8.809
 120   6 C      2.919    -0.032    28.790     8.799
 121   6 C      2.920    -0.037    28.917     8.818
 122   1 H      0.860     0.237     0.936     1.515
 123   1 H      0.924     0.074     2.039     2.233
 124   1 H      0.924     0.076     2.025     2.225
 125   1 H      0.924     0.062     2.181     2.310
 126   1 H      0.926     0.029     2.594     2.519
 127   1 H      0.926     0.047     2.357     2.401
 128   1 H      0.926     0.038     2.481     2.463
 129   1 H      0.926     0.038     2.469     2.457
 130   1 H      0.926     0.042     2.425     2.435
 131   7 N      2.691    -0.183    24.972     7.422
 132   6 C      3.796     0.026    20.136     6.390
 133   6 C      2.755     0.281    22.247     7.724
 134   8 O      0.858    -0.500    23.777     6.538
 135   6 C      3.809    -0.075    21.928     6.666
 136   6 C      3.849    -0.010    20.722     6.475
 137   6 C      3.757    -0.116    22.764     6.803
 138   6 C      3.755    -0.116    22.772     6.804
 139   1 H      0.860     0.227     0.977     1.548
 140   1 H      0.923     0.063     2.164     2.301
 141   1 H      0.924     0.071     2.075     2.252
 142   1 H      0.924     0.044     2.392     2.419
 143   1 H      0.924     0.034     2.525     2.485
 144   1 H      0.925     0.049     2.330     2.387
 145   1 H      0.925     0.040     2.455     2.450
 146   1 H      0.925     0.044     2.395     2.420
 147   1 H      0.925     0.046     2.376     2.411
 148   1 H      0.925     0.038     2.474     2.460
 149   1 H      0.925     0.035     2.521     2.483
 150   7 N      2.690    -0.193    25.177     7.452
 151   6 C      3.799     0.021    20.221     6.403
 152   6 C      2.755     0.278    22.296     7.732
 153   8 O      0.859    -0.503    23.849     6.548
 154   6 C      3.855    -0.022    20.929     6.507
 155   6 C      3.804    -0.060    21.660     6.626
 156   6 C      3.754    -0.118    22.826     6.813
 157   6 C      3.752    -0.111    22.684     6.792
 158   1 H      0.860     0.224     0.993     1.561
 159   1 H      0.923     0.062     2.177     2.307
 160   1 H      0.924     0.052     2.293     2.368
 161   1 H      0.924     0.041     2.440     2.443
 162   1 H      0.924     0.030     2.593     2.518
 163   1 H      0.925     0.063     2.169     2.303
 164   1 H      0.925     0.050     2.319     2.381
 165   1 H      0.925     0.038     2.477     2.461
 166   1 H      0.925     0.046     2.370     2.407
 167   1 H      0.925     0.042     2.424     2.435
 168   1 H      0.925     0.046     2.369     2.407
 169   7 N      2.690    -0.184    24.994     7.425
 170   6 C      3.797     0.015    20.334     6.421
 171   6 C      2.753     0.262    22.577     7.781
 172   8 O      0.859    -0.475    23.244     6.464
 173   6 C      3.726     0.120    18.716     6.177
 174   8 O      1.656    -0.479    22.452     6.396
 175   6 C      3.752    -0.146    23.384     6.896
 176   1 H      0.860     0.225     0.986     1.556
 177   1 H      0.923     0.088     1.899     2.155
 178   1 H      0.923     0.025     2.658     2.550
 179   1 H      0.805     0.336     0.621     1.238
 180   1 H      0.925     0.068     2.113     2.273
 181   1 H      0.925     0.070     2.086     2.259
 182   1 H      0.925     0.067     2.114     2.273
 183   7 N      2.689    -0.165    24.561     7.360
 184   6 C      3.799     0.010    20.416     6.433
 185   6 C      2.751     0.269    22.456     7.760
 186   8 O      0.858    -0.494    23.661     6.522
 187   6 C      3.852    -0.027    21.028     6.522
 188   6 C      3.756    -0.112    22.706     6.794
 189   6 C      3.756    -0.120    22.848     6.815
 190   1 H      0.860     0.205     1.083     1.630
 191   1 H      0.924     0.090     1.882     2.145
 192   1 H      0.924     0.055     2.254     2.348
 193   1 H      0.925     0.058     2.218     2.329
 194   1 H      0.925     0.028     2.616     2.529
 195   1 H      0.925     0.045     2.390     2.417
 196   1 H      0.925     0.060     2.198     2.319
 197   1 H      0.925     0.052     2.299     2.371
 198   1 H      0.925     0.047     2.356     2.400
 199   7 N      2.689    -0.196    25.252     7.463
 200   6 C      3.791     0.028    20.110     6.386
 201   6 C      2.758     0.282    22.232     7.721
 202   8 O      0.859    -0.494    23.646     6.520
 203   6 C      3.758    -0.128    23.009     6.839
 204   1 H      0.860     0.242     0.915     1.499
 205   1 H      0.923     0.067     2.122     2.278
 206   1 H      0.925     0.069     2.099     2.266
 207   1 H      0.925     0.070     2.090     2.261
 208   1 H      0.925     0.074     2.040     2.233
 209   7 N      2.685    -0.165    24.574     7.362
 210   6 C      3.747    -0.030    21.179     6.564
 211   6 C      2.751     0.286    22.146     7.706
 212   8 O      0.858    -0.503    23.862     6.549
 213   1 H      0.860     0.198     1.119     1.657
 214   1 H      0.924     0.090     1.876     2.142
 215   1 H      0.924     0.094     1.843     2.123
 216   7 N      2.692    -0.187    25.061     7.435
 217   6 C      3.795     0.045    19.828     6.341
 218   6 C      2.767     0.272    22.400     7.751
 219   8 O      0.860    -0.515    24.113     6.584
 220   6 C      3.806    -0.099    22.391     6.736
 221   6 C      2.684     0.372    20.702     7.446
 222   8 O      0.856    -0.641    27.145     6.985
 223   8 O      0.856    -0.624    26.728     6.931
 224   1 H      0.860     0.218     1.020     1.582
 225   1 H      0.924     0.051     2.310     2.377
 226   1 H      0.924     0.031     2.575     2.509
 227   1 H      0.925     0.052     2.301     2.372
 228   7 N      2.756    -0.081    22.818     7.095
 229   6 C      3.828     0.031    20.025     6.367
 230   6 C      2.764     0.212    23.516     7.942
 231   8 O      0.856    -0.361    20.910     6.131
 232   6 C      3.830    -0.070    21.823     6.647
 233   6 C      3.830    -0.071    21.839     6.649
 234   6 C      3.766    -0.004    20.690     6.483
 235   1 H      0.924     0.081     1.965     2.192
 236   1 H      0.925     0.076     2.025     2.225
 237   1 H      0.925     0.084     1.935     2.175
 238   1 H      0.925     0.060     2.194     2.316
 239   1 H      0.925     0.082     1.962     2.190
 240   1 H      0.925     0.064     2.158     2.297
 241   1 H      0.924     0.061     2.192     2.315
 242   7 N      2.635    -0.392    30.139     8.154
 243   6 C      3.788     0.038    19.952     6.362
 244   6 C      2.762     0.267    22.495     7.767
 245   8 O      0.859    -0.489    23.551     6.507
 246   6 C      3.809    -0.067    21.777     6.643
 247   6 C      3.805    -0.072    21.873     6.658
 248   6 C      3.739    -0.016    20.947     6.530
 249   7 N      2.701    -0.143    24.097     7.291
 250   6 C      2.736     0.233    23.119     7.872
 251   7 N      2.651    -0.248    26.459     7.640
 252   7 N      2.655    -0.267    26.927     7.707
 253   1 H      0.860     0.149     1.410     1.860
 254   1 H      0.923     0.043     2.408     2.427
 255   1 H      0.924     0.056     2.245     2.343
 256   1 H      0.924     0.040     2.455     2.450
 257   1 H      0.924     0.057     2.240     2.341
 258   1 H      0.924     0.054     2.271     2.357
 259   1 H      0.924     0.063     2.169     2.303
 260   1 H      0.925     0.094     1.843     2.123
 261   1 H      0.860     0.210     1.055     1.609
 262   1 H      0.860     0.253     0.872     1.462
 263   1 H      0.860     0.256     0.859     1.452
 264   1 H      0.860     0.241     0.920     1.502
 265   1 H      0.860     0.264     0.832     1.429
 266   7 N      2.691    -0.160    24.458     7.345
 267   6 C      3.799     0.027    20.121     6.387
 268   6 C      2.766     0.209    23.573     7.951
 269   8 O      0.856    -0.347    20.643     6.092
 270   6 C      3.852    -0.021    20.905     6.503
 271   6 C      3.757    -0.120    22.855     6.816
 272   6 C      3.756    -0.112    22.698     6.793
 273   1 H      0.860     0.204     1.088     1.634
 274   1 H      0.923     0.083     1.948     2.183
 275   1 H      0.924     0.061     2.186     2.312
 276   1 H      0.925     0.063     2.167     2.302
 277   1 H      0.925     0.042     2.419     2.432
 278   1 H      0.925     0.056     2.244     2.343
 279   1 H      0.925     0.055     2.262     2.352
 280   1 H      0.925     0.052     2.291     2.367
 281   1 H      0.925     0.027     2.627     2.535
 282   7 N      2.636    -0.405    30.502     8.202
 283   6 C      3.782     0.048    19.792     6.337
 284   6 C      2.765     0.203    23.687     7.971
 285   8 O      0.856    -0.378    21.243     6.179
 286   6 C      3.809    -0.078    21.986     6.675
 287   6 C      3.849    -0.016    20.825     6.491
 288   6 C      3.756    -0.114    22.740     6.799
 289   6 C      3.755    -0.113    22.714     6.796
 290   1 H      0.860     0.183     1.200     1.716
 291   1 H      0.923     0.038     2.480     2.463
 292   1 H      0.924     0.058     2.221     2.331
 293   1 H      0.924     0.066     2.129     2.282
 294   1 H      0.924     0.025     2.656     2.549
 295   1 H      0.925     0.044     2.394     2.420
 296   1 H      0.925     0.040     2.445     2.445
 297   1 H      0.925     0.043     2.413     2.429
 298   1 H      0.925     0.046     2.372     2.409
 299   1 H      0.925     0.042     2.418     2.432
 300   1 H      0.925     0.032     2.561     2.502
 301   7 N      2.637    -0.395    30.234     8.166
 302   6 C      3.782     0.047    19.799     6.339
 303   6 C      2.767     0.201    23.728     7.977
 304   8 O      0.856    -0.389    21.464     6.212
 305   6 C      3.757    -0.121    22.873     6.819
 306   1 H      0.860     0.188     1.171     1.695
 307   1 H      0.923     0.036     2.504     2.475
 308   1 H      0.925     0.052     2.300     2.372
 309   1 H      0.925     0.067     2.120     2.277
 310   1 H      0.925     0.063     2.167     2.302
 311   7 N      2.636    -0.391    30.134     8.153
 312   6 C      3.783     0.044    19.854     6.347
 313   6 C      2.764     0.200    23.739     7.979
 314   8 O      0.856    -0.375    21.184     6.171
 315   6 C      3.813    -0.078    21.986     6.674
 316   6 C      2.969    -0.004    28.127     8.699
 317   6 C      2.925    -0.045    29.112     8.848
 318   6 C      2.926    -0.041    29.024     8.835
 319   6 C      2.918    -0.061    29.522     8.910
 320   6 C      2.918    -0.076    29.909     8.968
 321   6 C      2.847     0.140    24.948     8.186
 322   8 O      1.659    -0.420    21.232     6.220
 323   1 H      0.860     0.176     1.237     1.742
 324   1 H      0.923     0.039     2.465     2.455
 325   1 H      0.924     0.062     2.175     2.306
 326   1 H      0.924     0.067     2.114     2.274
 327   1 H      0.926     0.041     2.434     2.440
 328   1 H      0.926     0.040     2.445     2.445
 329   1 H      0.926     0.047     2.355     2.400
 330   1 H      0.926     0.043     2.404     2.425
 331   1 H      0.805     0.346     0.598     1.215
 332   7 N      2.639    -0.405    30.521     8.205
 333   6 C      3.784     0.029    20.111     6.388
 334   6 C      2.753     0.271    22.426     7.755
 335   8 O      0.859    -0.491    23.582     6.511
 336   6 C      3.809    -0.075    21.923     6.665
 337   6 C      3.848    -0.017    20.843     6.494
 338   6 C      3.755    -0.118    22.808     6.810
 339   6 C      3.754    -0.121    22.875     6.820
 340   1 H      0.860     0.184     1.194     1.712
 341   1 H      0.924     0.051     2.308     2.376
 342   1 H      0.924     0.054     2.266     2.354
 343   1 H      0.924     0.045     2.378     2.412
 344   1 H      0.924     0.039     2.460     2.453
 345   1 H      0.925     0.044     2.402     2.424
 346   1 H      0.925     0.039     2.466     2.456
 347   1 H      0.925     0.037     2.485     2.465
 348   1 H      0.925     0.036     2.508     2.476
 349   1 H      0.925     0.044     2.391     2.418
 350   1 H      0.925     0.055     2.264     2.353
 351   7 N      2.690    -0.178    24.861     7.405
 352   6 C      3.793     0.005    20.500     6.448
 353   6 C      2.758     0.287    22.141     7.705
 354   8 O      0.858    -0.478    23.307     6.473
 355   6 C      3.680     0.071    19.597     6.340
 356   8 O      1.655    -0.472    22.300     6.375
 357   1 H      0.860     0.216     1.026     1.587
 358   1 H      0.923     0.076     2.020     2.223
 359   1 H      0.924     0.043     2.405     2.425
 360   1 H      0.924     0.060     2.198     2.319
 361   1 H      0.804     0.330     0.637     1.254
 362   7 N      2.692    -0.179    24.871     7.407
 363   6 C      3.799     0.022    20.210     6.401
 364   6 C      2.759     0.278    22.300     7.733
 365   8 O      0.858    -0.476    23.262     6.466
 366   6 C      3.809    -0.077    21.968     6.672
 367   6 C      2.966     0.009    27.808     8.650
 368   6 C      2.923    -0.044    29.087     8.844
 369   6 C      2.925    -0.039    28.968     8.826
 370   6 C      2.918    -0.033    28.812     8.802
 371   6 C      2.917    -0.032    28.787     8.798
 372   6 C      2.919    -0.034    28.853     8.809
 373   1 H      0.860     0.209     1.062     1.614
 374   1 H      0.923     0.081     1.969     2.195
 375   1 H      0.924     0.060     2.197     2.318
[...]
   270  C   3.985        C  271 1.007    C  272 1.006    H  275 0.957    C  267 0.956
   271  C   3.991        C  270 1.007    H  278 0.984    H  276 0.983    H  277 0.983
   272  C   3.994        C  270 1.006    H  280 0.983    H  279 0.982    H  281 0.981
   273  H   0.958        N  266 0.916
   274  H   0.993        C  267 0.946
   275  H   0.996        C  270 0.957
   276  H   0.996        C  271 0.983
   277  H   0.998        C  271 0.983
   278  H   0.997        C  271 0.984
   279  H   0.996        C  272 0.982
   280  H   0.997        C  272 0.983
   281  H   0.999        C  272 0.981
   282  N   2.994        C  283 1.013    H  595 0.956    H  290 0.920
   283  C   3.986        N  282 1.013    C  284 0.985    C  286 0.957    H  291 0.950
   284  C   3.879        O  285 1.845    C  283 0.985    H  596 0.955
   285  O   2.063        C  284 1.845
   286  C   3.986        C  287 0.991    H  292 0.967    H  293 0.966    C  283 0.957
   287  C   3.995        C  289 1.011    C  288 1.009    C  286 0.991    H  294 0.964
   288  C   3.996        C  287 1.009    H  296 0.985    H  295 0.984    H  297 0.981
   289  C   3.995        C  287 1.011    H  299 0.985    H  298 0.985    H  300 0.983
   290  H   0.967        N  282 0.920
   291  H   0.998        C  283 0.950
   292  H   0.997        C  286 0.967
   293  H   0.995        C  286 0.966
   294  H   0.999        C  287 0.964
   295  H   0.998        C  288 0.984
   296  H   0.998        C  288 0.985
   297  H   0.998        C  288 0.981
   298  H   0.998        C  289 0.985
   299  H   0.998        C  289 0.985
   300  H   0.999        C  289 0.983
   301  N   3.000        C  302 1.011    H  597 0.958    H  306 0.926
   302  C   3.987        N  301 1.011    C  305 0.982    C  303 0.972    H  307 0.956
   303  C   3.886        O  304 1.888    C  302 0.972    H  598 0.954
   304  O   2.023        C  303 1.888
   305  C   3.990        H  310 0.984    H  308 0.983    C  302 0.982    H  309 0.978
   306  H   0.965        N  301 0.926
   307  H   0.999        C  302 0.956
   308  H   0.997        C  305 0.983
   309  H   0.996        C  305 0.978
   310  H   0.996        C  305 0.984
   311  N   2.995        C  312 1.005    H  599 0.957    H  323 0.949
   312  C   3.983        N  311 1.005    C  313 0.974    H  324 0.965    C  315 0.954
   313  C   3.887        O  314 1.881    C  312 0.974    H  600 0.952
   314  O   2.043        C  313 1.881
   315  C   3.990        C  316 1.011    H  326 0.967    H  325 0.966    C  312 0.954
   316  C   3.989        C  318 1.412    C  317 1.403    C  315 1.011
   317  C   3.991        C  319 1.459    C  316 1.403    H  327 0.967    C  320 0.106
   318  C   3.991        C  320 1.449    C  316 1.412    H  328 0.969    C  319 0.106
   319  C   3.988        C  317 1.459    C  321 1.361    H  329 0.966    C  318 0.106
   320  C   3.987        C  318 1.449    C  321 1.373    H  330 0.966    C  317 0.106
   321  C   3.943        C  320 1.373    C  319 1.361    O  322 1.078
   322  O   2.105        C  321 1.078    H  331 0.859
   323  H   0.969        N  311 0.949
   324  H   0.998        C  312 0.965
   325  H   0.996        C  315 0.966
   326  H   0.995        C  315 0.967
   327  H   0.998        C  317 0.967
   328  H   0.998        C  318 0.969
   329  H   0.997        C  319 0.966
   330  H   0.998        C  320 0.966
   331  H   0.880        O  322 0.859
   332  N   2.988        C  333 1.005    H  601 0.948    H  340 0.929
   333  C   3.980        N  332 1.005    C  336 0.978    H  341 0.959    C  334 0.941
   334  C   3.935        O  335 1.602    N  351 1.299    C  333 0.941
   335  O   1.969        C  334 1.602    N  351 0.187
   336  C   3.990        C  337 0.992    C  333 0.978    H  343 0.972    H  342 0.968
   337  C   3.995        C  338 1.010    C  339 1.010    C  336 0.992    H  344 0.967
   338  C   3.996        C  337 1.010    H  345 0.985    H  346 0.982    H  347 0.979
   339  C   3.994        C  337 1.010    H  348 0.981    H  349 0.980    H  350 0.980
   340  H   0.966        N  332 0.929
   341  H   0.997        C  333 0.959
   342  H   0.997        C  336 0.968
   343  H   0.998        C  336 0.972
   344  H   0.998        C  337 0.967
   345  H   0.998        C  338 0.985
   346  H   0.998        C  338 0.982
   347  H   0.999        C  338 0.979
   348  H   0.999        C  339 0.981
   349  H   0.998        C  339 0.980
   350  H   0.997        C  339 0.980
   351  N   3.459        C  334 1.299    C  352 0.979    H  357 0.917    O  335 0.187
   352  C   3.967        N  351 0.979    C  355 0.960    H  358 0.948    C  353 0.938
   353  C   3.948        O  354 1.633    N  362 1.297    C  352 0.938
   354  O   1.967        C  353 1.633    N  362 0.193
   355  C   3.961        O  356 1.024    H  360 0.964    C  352 0.960    H  359 0.956
   356  O   1.948        C  355 1.024    H  361 0.835
   357  H   0.953        N  351 0.917
   358  H   0.994        C  352 0.948
   359  H   0.998        C  355 0.956
   360  H   0.996        C  355 0.964
   361  H   0.891        O  356 0.835
   362  N   3.467        C  353 1.297    C  363 0.977    H  373 0.917    O  354 0.193
   363  C   3.964        C  366 0.978    N  362 0.977    H  374 0.948    C  364 0.932
   364  C   3.948        O  365 1.648    N  382 1.288    C  363 0.932
   365  O   1.972        C  364 1.648    N  382 0.195
   366  C   3.988        C  367 1.004    C  363 0.978    H  376 0.966    H  375 0.955
   367  C   3.987        C  368 1.417    C  369 1.413    C  366 1.004    C  372 0.110
   368  C   3.991        C  370 1.442    C  367 1.417    H  377 0.966    C  371 0.111
   369  C   3.991        C  371 1.445    C  367 1.413    H  378 0.966    C  370 0.112
   370  C   3.992        C  368 1.442    C  372 1.440    H  379 0.970    C  369 0.112
   371  C   3.991        C  369 1.445    C  372 1.438    H  380 0.970    C  368 0.111
   372  C   3.991        C  370 1.440    C  371 1.438    H  381 0.971    C  367 0.110
   373  H   0.956        N  362 0.917
   374  H   0.993        C  363 0.948
   375  H   0.996        C  366 0.955
   376  H   0.996        C  366 0.966
   377  H   0.998        C  368 0.966
   378  H   0.999        C  369 0.966
   379  H   0.998        C  370 0.970
   380  H   0.998        C  371 0.970
   381  H   0.998        C  372 0.971
   382  N   3.463        C  364 1.288    C  383 0.991    H  386 0.927    O  365 0.195
   383  C   3.965        N  382 0.991    H  387 0.959    H  388 0.956    C  384 0.945
   384  C   3.955        O  385 1.589    N  389 1.340    C  383 0.945
   385  O   1.949        C  384 1.589    N  389 0.197
   386  H   0.961        N  382 0.927
   387  H   0.995        C  383 0.959
   388  H   0.992        C  383 0.956
   389  N   3.489        C  384 1.340    C  390 0.975    H  397 0.879    O  385 0.197
   390  C   3.958        N  389 0.975    C  393 0.964    H  398 0.949    C  391 0.939
   391  C   3.947        O  392 1.610    N  408 1.308    C  390 0.939
   392  O   1.972        C  391 1.610    N  408 0.192
   393  C   3.986        C  395 1.007    C  394 0.996    C  390 0.964    H  399 0.960
   394  C   3.994        C  396 1.019    C  393 0.996    H  401 0.974    H  400 0.974
   395  C   3.993        C  393 1.007    H  404 0.985    H  403 0.984    H  402 0.982
   396  C   3.994        C  394 1.019    H  406 0.983    H  405 0.982    H  407 0.971
   397  H   0.945        N  389 0.879
   398  H   0.994        C  390 0.949
   399  H   0.997        C  393 0.960
   400  H   0.997        C  394 0.974
   401  H   0.998        C  394 0.974
   402  H   0.996        C  395 0.982
   403  H   0.998        C  395 0.984
   404  H   0.998        C  395 0.985
   405  H   0.997        C  396 0.982
   406  H   0.999        C  396 0.983
   407  H   0.997        C  396 0.971
   408  N   3.481        C  391 1.308    C  409 0.979    H  416 0.911    O  392 0.192
   409  C   3.962        N  408 0.979    C  410 0.974    C  412 0.953    H  417 0.937
   410  C   3.900        O  411 1.895    C  409 0.974    H  602 0.955
   411  O   2.040        C  410 1.895
   412  C   3.986        C  414 1.009    C  413 0.995    H  418 0.959    C  409 0.953
   413  C   3.994        C  415 1.019    C  412 0.995    H  420 0.977    H  419 0.974
   414  C   3.993        C  412 1.009    H  423 0.985    H  421 0.978    H  422 0.976
   415  C   3.995        C  413 1.019    H  426 0.986    H  424 0.986    H  425 0.983
   416  H   0.954        N  408 0.911
   417  H   0.991        C  409 0.937
   418  H   0.996        C  412 0.959
   419  H   0.997        C  413 0.974
   420  H   0.999        C  413 0.977
   421  H   0.997        C  414 0.978
   422  H   0.997        C  414 0.976
   423  H   0.999        C  414 0.985
   424  H   0.997        C  415 0.986
   425  H   0.998        C  415 0.983
   426  H   0.998        C  415 0.986
   427  N   2.993        C  428 1.025    H  603 0.962    H  431 0.925
   428  C   3.989        N  427 1.025    H  432 0.969    H  433 0.957    C  429 0.948
   429  C   3.945        O  430 1.603    N  434 1.327    C  428 0.948
   430  O   1.938        C  429 1.603    N  434 0.199
   431  H   0.968        N  427 0.925
   432  H   0.999        C  428 0.969
   433  H   0.997        C  428 0.957
   434  N   3.482        C  429 1.327    C  435 0.975    H  441 0.881    O  430 0.199
   435  C   3.965        N  434 0.975    C  436 0.974    C  438 0.955    H  442 0.944
   436  C   3.900        O  437 1.881    C  435 0.974    H  604 0.956
   437  O   2.027        C  436 1.881
   438  C   3.986        C  440 1.007    C  439 1.007    H  443 0.962    C  435 0.955
   439  C   3.993        C  438 1.007    H  446 0.985    H  444 0.983    H  445 0.982
   440  C   3.991        C  438 1.007    H  448 0.985    H  447 0.982    H  449 0.974
   441  H   0.944        N  434 0.881
   442  H   0.995        C  435 0.944
   443  H   0.997        C  438 0.962
   444  H   0.996        C  439 0.983
   445  H   0.999        C  439 0.982
   446  H   0.997        C  439 0.985
   447  H   0.995        C  440 0.982
   448  H   0.998        C  440 0.985
   449  H   0.996        C  440 0.974
   450  N   2.992        C  451 1.015    H  605 0.954    H  457 0.949
   451  C   3.985        N  450 1.015    H  458 0.963    C  454 0.951    C  452 0.938
   452  C   3.948        O  453 1.602    N  464 1.318    C  451 0.938
   453  O   1.965        C  452 1.602    N  464 0.195
   454  C   3.955        C  456 1.006    O  455 0.991    H  459 0.957    C  451 0.951
   455  O   1.940        C  454 0.991    H  460 0.868
   456  C   3.993        C  454 1.006    H  461 0.981    H  463 0.981    H  462 0.981
   457  H   0.972        N  450 0.949
   458  H   0.998        C  451 0.963
   459  H   0.999        C  454 0.957
   460  H   0.888        O  455 0.868
   461  H   0.997        C  456 0.981
   462  H   0.998        C  456 0.981
   463  H   0.998        C  456 0.981
   464  N   3.480        C  452 1.318    C  465 0.971    H  469 0.917    O  453 0.195
   465  C   3.956        C  468 0.992    N  464 0.971    H  470 0.944    C  466 0.938
   466  C   3.947        O  467 1.625    N  474 1.295    C  465 0.938
   467  O   1.976        C  466 1.625    N  474 0.190
   468  C   3.980        C  465 0.992    H  473 0.980    H  471 0.978    H  472 0.977
   469  H   0.952        N  464 0.917
   470  H   0.991        C  465 0.944
   471  H   0.993        C  468 0.978
   472  H   0.993        C  468 0.977
   473  H   0.995        C  468 0.980
   474  N   3.462        C  466 1.295    C  475 0.978    H  479 0.916    O  467 0.190
   475  C   3.964        C  478 0.994    N  474 0.978    H  480 0.947    C  476 0.936
   476  C   3.943        O  477 1.616    N  484 1.302    C  475 0.936
   477  O   1.995        C  476 1.616    N  484 0.194
   478  C   3.980        C  475 0.994    H  483 0.982    H  481 0.980    H  482 0.976
   479  H   0.953        N  474 0.916
   480  H   0.993        C  475 0.947
   481  H   0.993        C  478 0.980
   482  H   0.992        C  478 0.976
   483  H   0.995        C  478 0.982
   484  N   3.474        C  476 1.302    C  485 0.980    H  492 0.916    O  477 0.194
   485  C   3.964        N  484 0.980    C  488 0.963    H  493 0.944    C  486 0.941
   486  C   3.944        O  487 1.569    N  503 1.337    C  485 0.941
   487  O   1.951        C  486 1.569    N  503 0.189
   488  C   3.986        C  490 1.009    C  489 0.993    C  485 0.963    H  494 0.957
   489  C   3.995        C  491 1.021    C  488 0.993    H  496 0.974    H  495 0.974
   490  C   3.994        C  488 1.009    H  498 0.984    H  497 0.983    H  499 0.981
   491  C   3.994        C  489 1.021    H  501 0.986    H  500 0.985    H  502 0.982
   492  H   0.957        N  484 0.916
   493  H   0.994        C  485 0.944
   494  H   0.996        C  488 0.957
   495  H   0.998        C  489 0.974
   496  H   0.997        C  489 0.974
   497  H   0.997        C  490 0.983
   498  H   0.999        C  490 0.984
   499  H   0.998        C  490 0.981
   500  H   0.997        C  491 0.985
   501  H   0.998        C  491 0.986
   502  H   0.998        C  491 0.982
   503  N   3.487        C  486 1.337    C  504 0.975    H  511 0.888    O  487 0.189
   504  C   3.960        N  503 0.975    C  507 0.964    H  512 0.950    C  505 0.939
   505  C   3.947        O  506 1.570    N  522 1.344    C  504 0.939
   506  O   1.934        C  505 1.570    N  522 0.193
   507  C   3.983        C  509 1.008    C  508 0.994    C  504 0.964    H  513 0.957
   508  C   3.993        C  510 1.017    C  507 0.994    H  514 0.968    H  515 0.967
   509  C   3.993        C  507 1.008    H  518 0.984    H  517 0.982    H  516 0.977
   510  C   3.993        C  508 1.017    H  519 0.983    H  521 0.981    H  520 0.979
   511  H   0.946        N  503 0.888
   512  H   0.997        C  504 0.950
   513  H   0.995        C  507 0.957
   514  H   0.998        C  508 0.968
   515  H   0.998        C  508 0.967
   516  H   0.995        C  509 0.977
   517  H   0.998        C  509 0.982
   518  H   0.999        C  509 0.984
   519  H   0.999        C  510 0.983
   520  H   0.996        C  510 0.979
   521  H   0.998        C  510 0.981
   522  N   3.491        C  505 1.344    C  523 0.975    H  530 0.886    O  506 0.193
   523  C   3.961        C  526 0.982    N  522 0.975    H  531 0.946    C  524 0.933
   524  C   3.945        O  525 1.606    N  541 1.326    C  523 0.933
   525  O   1.949        C  524 1.606    N  541 0.199
   526  C   3.983        C  527 0.991    C  523 0.982    H  533 0.971    H  532 0.966
   527  C   3.992        C  529 1.011    C  528 1.007    C  526 0.991    H  534 0.964
   528  C   3.993        C  527 1.007    H  537 0.986    H  536 0.984    H  535 0.984
   529  C   3.994        C  527 1.011    H  539 0.986    H  538 0.983    H  540 0.982
   530  H   0.944        N  522 0.886
   531  H   0.994        C  523 0.946
   532  H   0.996        C  526 0.966
   533  H   0.996        C  526 0.971
   534  H   0.997        C  527 0.964
   535  H   0.996        C  528 0.984
   536  H   0.999        C  528 0.984
   537  H   0.998        C  528 0.986
   538  H   0.996        C  529 0.983
   539  H   0.998        C  529 0.986
   540  H   0.999        C  529 0.982
   541  N   3.470        C  524 1.326    C  542 0.979    H  549 0.864    O  525 0.199
   542  C   3.966        N  541 0.979    C  545 0.977    H  550 0.947    C  543 0.939
   543  C   3.941        O  544 1.638    N  560 1.278    C  542 0.939
   544  O   1.945        C  543 1.638    N  560 0.187
   545  C   3.987        C  546 0.992    C  542 0.977    H  552 0.974    H  551 0.964
   546  C   3.993        C  548 1.011    C  547 1.008    C  545 0.992    H  553 0.968
   547  C   3.995        C  546 1.008    H  555 0.987    H  554 0.985    H  556 0.983
   548  C   3.994        C  546 1.011    H  559 0.985    H  558 0.985    H  557 0.985
   549  H   0.940        N  541 0.864
   550  H   0.994        C  542 0.947
   551  H   0.996        C  545 0.964
   552  H   0.998        C  545 0.974
   553  H   0.998        C  546 0.968
   554  H   0.997        C  547 0.985
   555  H   0.999        C  547 0.987
   556  H   0.998        C  547 0.983
   557  H   0.997        C  548 0.985
   558  H   0.998        C  548 0.985
   559  H   0.998        C  548 0.985
   560  N   3.442        C  543 1.278    C  561 0.985    H  570 0.900    O  544 0.187
   561  C   3.970        N  560 0.985    C  564 0.963    H  571 0.953    C  562 0.932
   562  C   3.947        O  563 1.625    N  577 1.311    C  561 0.932
   563  O   1.961        C  562 1.625    N  577 0.199
   564  C   3.991        C  565 1.016    H  573 0.967    C  561 0.963    H  572 0.961
   565  C   3.945        C  567 1.541    N  566 1.208    C  564 1.016    C  568 0.112
   566  N   3.594        C  568 1.276    C  565 1.208    H  574 0.891    N  569 0.102
   567  C   3.972        C  565 1.541    N  569 1.305    H  575 0.967
   568  C   3.954        N  569 1.535    N  566 1.276    H  576 0.963    C  565 0.112
   569  N   3.013        C  568 1.535    C  567 1.305    N  566 0.102
   570  H   0.952        N  560 0.900
   571  H   0.995        C  561 0.953
   572  H   0.995        C  564 0.961
   573  H   0.996        C  564 0.967
   574  H   0.956        N  566 0.891
   575  H   0.999        C  567 0.967
   576  H   0.998        C  568 0.963
   577  N   3.469        C  562 1.311    C  578 0.973    H  584 0.889    O  563 0.199
   578  C   3.960        C  579 0.973    N  577 0.973    C  581 0.940    H  585 0.933
   579  C   3.905        O  580 1.894    C  578 0.973    H  606 0.956
   580  O   2.041        C  579 1.894
   581  C   3.954        C  583 1.005    O  582 1.001    H  586 0.954    C  578 0.940
   582  O   1.968        C  581 1.001    H  587 0.863
   583  C   3.986        C  581 1.005    H  589 0.983    H  590 0.982    H  588 0.979
   584  H   0.949        N  577 0.889
   585  H   0.994        C  578 0.933
   586  H   0.998        C  581 0.954
   587  H   0.903        O  582 0.863
   588  H   0.992        C  583 0.979
   589  H   0.998        C  583 0.983
   590  H   0.996        C  583 0.982
   591  H   0.965        N    1 0.955
   592  H   0.996        C  230 0.955
   593  H   0.970        N  242 0.958
   594  H   0.996        C  268 0.956
   595  H   0.968        N  282 0.956
   596  H   0.994        C  284 0.955
   597  H   0.970        N  301 0.958
   598  H   0.995        C  303 0.954
   599  H   0.967        N  311 0.957
   600  H   0.994        C  313 0.952
   601  H   0.975        N  332 0.948
   602  H   0.996        C  410 0.955
   603  H   0.971        N  427 0.962
   604  H   0.996        C  436 0.956
   605  H   0.964        N  450 0.954
   606  H   0.996        C  579 0.956
 
molecular dipole:
                 x           y           z       tot (Debye)
 q only:       11.689       3.070      28.890
   full:       12.390       2.833      32.670      89.104
molecular quadrupole (traceless):
                xx          xy          yy          xz          yz          zz
 q only:     -592.310    1576.925   -1995.719    4310.972    2914.640    2588.030
  q+dip:     -751.401    1649.847   -2298.314    4739.179    3308.222    3049.715
   full:     -752.789    1648.892   -2292.360    4739.876    3308.259    3045.148


           -------------------------------------------------
          | TOTAL ENERGY             -899.373295549846 Eh   |
          | GRADIENT NORM               0.628141076150 Eh/α |
          | HOMO-LUMO GAP               1.654680764190 eV   |
           -------------------------------------------------

------------------------------------------------------------------------
 * finished run on 2019/05/31 at 07:36:36.702     
------------------------------------------------------------------------
 total:
 * wall-time:     0 d,  0 h,  0 min, 40.125 sec
 *  cpu-time:     0 d,  0 h,  0 min, 20.021 sec
 * ratio c/w:     0.499 speedup
 SCF:
 * wall-time:     0 d,  0 h,  0 min, 38.346 sec
 *  cpu-time:     0 d,  0 h,  0 min, 19.215 sec
 * ratio c/w:     0.501 speedup

