      -----------------------------------------------------------      
     |                   =====================                   |     
     |                           x T B                           |     
     |                   =====================                   |     
     |                         S. Grimme                         |     
     |          Mulliken Center for Theoretical Chemistry        |     
     |                    University of Bonn                     |     
     |                 Version 6.0.1 (SAW181210)                 |     
      -----------------------------------------------------------      

   This program is distributed in the hope that it will be useful,
   but WITHOUT ANY WARRANTY; without even the implied warranty of
   MERCHANTABILITY or FITNESS FOR A PARTICULAR PURPOSE.
   
   FOR NON-COMMERCIAL, ACADEMIA USE ONLY.
   
   Cite this work as:
   S. Grimme, C. Bannwarth, P. Shushkov, J. Comput. Theory Chem., 2017,
   13, 1989-2009.
   C. Bannwarth, S. Ehlert and S. Grimme., ChemRxiv, 2018, preprint.
   http://doi.org/10.26434/chemrxiv.7246238.v1
   
   for sTDA-xTB:
   S. Grimme and C. Bannwarth, J. Chem. Phys., 2016, 145, 054103.
   
   in the mass-spec context:
   V. Asgeirsson, C. Bauer and S. Grimme, Chem. Sci., 2017, 8, 4879.
   
   if GBSA is used:
   P. Shushkov, F. März and S. Grimme, unpublished.
   
   for ANC optimizer:
   S. Grimme, unpublished.
   Rational Function algorithm used in ANCopt:
   F. Eckert, P. Pulay, H.-J. Werner, J. Comput. Chem., 1997, 18, 1473.
   
   with help from (in alphabetical order)
   C. Bannwarth, F. Bohle, G. Brandenburg, E. Caldeweyher, M. Checinski,
   S. Dohm, S. Ehlert, S. Ehrlich, F. März, H. Neugebauer, J. Pisarek,
   P. Pracht, P. Shushkov, and S. Spicher.
   
 * started run on 2019/03/07 at 11:37:46.326     
========================================================================
 # omp threads = 1
========================================================================
number of atoms            : 579
number of electrons        : 1518
charge                     : 0
spin                       : .0
first test random number   : .8478
           ------------------------------------------------- 
          |                 G F N 2 - x T B                 |
          | Geometry, Frequencies, Noncovalent interactions |
          |            JCTC 2018 parametrisation            |
           ------------------------------------------------- 
 
      method parameters     
 k(s)        :  1.8500
 k(p)        :  2.2300
 k(d)        :  2.2300
 k(f)        :  2.0000
 kEN (H0ij)  : -2.0000
 D4 a1       :  0.5200
 D4 a2       :  5.0000
 D4 s6       :  1.0000
 D4 s8       :  2.7000
 D4 s9       :  5.0000
 alphaj      :  2.0000

 Solvent             : h2o
 Using internal parameter file: .param_gbsa2_h2o
 Gsolv ref. state (COSMO-RS): gsolv [1 M gas/solution]
 temperature (mdtemp)       :    298.150000000000     
 dielectric constant        :    80.2000000000000     
 rho                        :    1.00000000000000     
 mass                       :    18.0000000000000     
 surface tension            :    15.5689454083859     
 probe radius               :   0.975313790000000     
 vdW radii scaling          :    1.00000000000000     
 Gshift (Eh)                :   1.857443126794793E-003
 c1                         :    1.55243817000000     
 soset                      :   0.130326360000000     
 HB correction              :  T

            Z     q(EN)     CN     RAES       Cart. coordinates
     1  N   5.0   -0.24    3.21    1.96   279.55283   134.52203   210.83105
     2  C   4.0    0.03    4.31    4.22   280.79438   132.65876   209.15487
     3  C   4.0    0.08    3.21    3.04   279.57929   132.78159   206.49980
     4  O   6.0   -0.32    1.15    1.80   280.90209   132.84207   204.62331
     5  C   4.0   -0.03    4.42    4.41   280.47502   129.88653   210.21122
     6  C   4.0   -0.06    4.32    4.23   281.67121   129.66355   212.86440
     7  C   4.0   -0.09    4.29    4.17   281.60696   128.01004   208.46134
     8  C   4.0   -0.09    4.16    3.92   281.68444   127.04439   213.95099
     9  H   1.0    0.10    1.08    1.44   278.92355   133.88330   212.18599
    10  H   1.0    0.05    1.11    1.45   282.58017   133.06694   209.07172
    11  H   1.0    0.04    1.13    1.45   278.68167   129.52938   210.34540
    12  H   1.0    0.04    1.09    1.44   283.39842   130.27393   212.78314
    13  H   1.0    0.04    1.09    1.44   280.76603   130.77093   214.01146
    14  H   1.0    0.04    1.07    1.44   281.38964   126.32440   209.14731
    15  H   1.0    0.05    1.07    1.44   280.77737   128.11775   206.83051
    16  H   1.0    0.04    1.06    1.44   283.39464   128.36152   208.26103
    17  H   1.0    0.05    1.06    1.44   282.46490   127.07462   215.61017
    18  H   1.0    0.04    1.06    1.44   279.96290   126.43400   214.09650
    19  H   1.0    0.04    1.06    1.44   282.63497   125.92945   212.84928
    20  N   5.0   -0.23    3.25    1.97   282.98835   134.03448   199.76671
    21  C   4.0    0.03    4.31    4.22   282.82017   132.29782   197.62565
    22  C   4.0    0.08    3.21    3.04   281.76381   133.58095   195.29940
    23  O   6.0   -0.31    1.15    1.80   282.75969   133.28048   193.19991
    24  C   4.0   -0.05    4.45    4.47   281.25925   129.96779   198.37587
    25  C   4.0   -0.03    4.33    4.26   282.52915   128.46168   200.50559
    26  C   4.0   -0.09    4.22    4.05   280.77359   126.38109   201.41644
    27  C   4.0   -0.10    4.24    4.08   284.98390   127.32218   199.51727
    28  H   1.0    0.13    1.11    1.45   282.20222   133.52237   201.09519
    29  H   1.0    0.04    1.13    1.45   284.51336   131.74791   197.18534
    30  H   1.0    0.05    1.09    1.44   279.58873   130.49880   198.91444
    31  H   1.0    0.05    1.09    1.44   281.03248   128.88687   196.91322
    32  H   1.0    0.05    1.13    1.45   282.89575   129.57662   201.91344
    33  H   1.0    0.04    1.06    1.44   281.58806   125.43812   202.76004
    34  H   1.0    0.04    1.06    1.44   279.22024   127.12375   202.04572
    35  H   1.0    0.04    1.06    1.44   280.38998   125.25104   200.02560
    36  H   1.0    0.04    1.06    1.44   285.79648   126.36786   200.85330
    37  H   1.0    0.04    1.06    1.44   284.61729   126.20913   198.10753
    38  H   1.0    0.04    1.06    1.44   286.10073   128.66388   198.95980
    39  N   5.0   -0.22    3.26    1.97   286.49568   136.83695   191.98104
    40  C   4.0    0.03    4.39    4.36   288.03203   135.08139   190.55241
    41  C   4.0    0.08    3.27    3.05   286.94733   134.75258   187.91813
    42  O   6.0   -0.31    1.14    1.80   288.28336   135.17021   186.06242
    43  C   4.0   -0.03    4.40    4.39   288.22478   132.50758   191.86388
    44  C   4.0   -0.09    4.24    4.08   289.37940   130.50636   190.09698
    45  C   4.0   -0.09    4.23    4.05   289.72711   132.63420   194.29784
    46  H   1.0    0.11    1.09    1.44   286.00813   136.26058   193.42101
    47  H   1.0    0.05    1.13    1.45   289.72144   135.78248   190.44280
    48  H   1.0    0.06    1.15    1.45   286.51080   132.01625   192.28528
    49  H   1.0    0.04    1.05    1.44   289.47956   128.90010   190.97381
    50  H   1.0    0.05    1.06    1.44   288.32683   130.32495   188.60788
    51  H   1.0    0.04    1.05    1.44   291.06126   131.03171   189.59431
    52  H   1.0    0.04    1.06    1.44   289.79892   130.96935   195.05940
    53  H   1.0    0.04    1.06    1.44   291.42787   133.21434   193.93690
    54  H   1.0    0.04    1.06    1.44   288.91642   133.80016   195.45624
    55  N   5.0   -0.23    3.24    1.96   290.44899   134.61463   180.96016
    56  C   4.0    0.03    4.24    4.07   290.41497   132.45278   179.27452
    57  C   4.0    0.08    3.21    3.04   289.55326   133.20300   176.61568
    58  O   6.0   -0.28    1.11    1.80   290.53781   132.22790   174.73918
    59  C   4.0   -0.09    4.22    4.04   288.68776   130.39865   180.32521
    60  H   1.0    0.13    1.10    1.44   289.52869   134.44644   182.28863
    61  H   1.0    0.05    1.13    1.45   292.12518   131.80461   179.15736
    62  H   1.0    0.05    1.06    1.44   288.67832   128.96435   179.18381
    63  H   1.0    0.04    1.06    1.44   289.29815   129.86764   181.96927
    64  H   1.0    0.05    1.06    1.44   286.98512   131.05627   180.49150
    65  N   5.0   -0.24    3.24    1.97   305.02067   137.57583   185.57865
    66  C   4.0    0.03    4.31    4.22   305.60270   135.53115   187.31153
    67  C   4.0    0.07    3.25    3.04   306.20741   136.54404   189.91557
    68  O   6.0   -0.32    1.20    1.80   305.39294   135.43855   191.83553
    69  C   4.0   -0.05    4.37    4.33   307.87037   134.03259   186.29107
    70  C   4.0   -0.04    4.32    4.24   308.58469   131.77059   187.96726
    71  C   4.0    0.16    3.29    3.05   306.57402   129.71457   187.99372
    72  O   6.0   -0.31    1.24    1.80   306.09025   128.52782   186.06053
    73  N   5.0   -0.24    3.23    1.96   305.48554   129.30639   190.22170
    74  H   1.0    0.10    1.09    1.44   305.99954   137.61362   184.28230
    75  H   1.0    0.05    1.13    1.45   304.13816   134.43699   187.44759
    76  H   1.0    0.05    1.09    1.44   307.48298   133.43166   184.60355
    77  H   1.0    0.05    1.09    1.44   309.31412   135.15131   186.14368
    78  H   1.0    0.05    1.09    1.44   310.16639   131.05816   187.37578
    79  H   1.0    0.05    1.10    1.44   308.86815   132.35641   189.68124
    80  H   1.0    0.12    1.09    1.44   305.90695   130.20401   191.50861
    81  H   1.0    0.13    1.09    1.44   304.35926   128.14421   190.37477
    82  N   5.0   -0.23    3.25    1.97   300.13194   137.71189   192.95992
    83  C   4.0    0.02    4.44    4.45   299.02457   135.23257   193.51739
    84  C   4.0    0.15    3.46    3.10   300.21887   133.99291   195.86065
    85  O   6.0   -0.32    1.26    1.80   298.87150   132.76837   197.35164
    86  C   4.0   -0.02    4.45    4.46   299.32881   133.45245   191.21003
    87  C   4.0   -0.06    4.32    4.24   298.12506   134.59762   188.82520
    88  C   4.0   -0.08    4.29    4.19   298.04002   130.95423   191.77695
    89  C   4.0   -0.09    4.17    3.94   298.27812   132.77403   186.61422
    90  H   1.0    0.10    1.09    1.44   300.54013   137.92732   191.40089
    91  H   1.0    0.04    1.12    1.45   297.24633   135.50469   193.87265
    92  H   1.0    0.06    1.12    1.45   301.12027   133.21056   190.90578
    93  H   1.0    0.04    1.09    1.44   296.37139   135.01714   189.15968
    94  H   1.0    0.04    1.09    1.44   298.97732   136.16231   188.39434
    95  H   1.0    0.04    1.06    1.44   298.22332   129.83173   190.34076
    96  H   1.0    0.06    1.06    1.44   298.81292   130.18889   193.25282
    97  H   1.0    0.04    1.06    1.44   296.25990   131.24336   192.10198
    98  H   1.0    0.04    1.05    1.44   297.50900   133.53748   185.13645
    99  H   1.0    0.05    1.06    1.44   300.03557   132.39042   186.25706
   100  H   1.0    0.04    1.06    1.44   297.38995   131.22635   187.03374
   101  N   5.0   -0.16    3.49    2.07   302.69063   134.28204   196.18946
   102  C   4.0    0.04    4.40    4.39   303.96431   133.17277   198.35508
   103  C   4.0    0.09    3.23    3.04   303.00244   134.33873   200.84196
   104  O   6.0   -0.29    1.16    1.80   302.33725   132.99135   202.61075
   105  C   4.0    0.05    4.28    4.16   306.92551   133.48457   198.15666
   106  O   6.0   -0.28    2.15    1.85   307.70408   132.75136   195.63010
   107  C   4.0   -0.07    4.19    3.98   308.28422   131.77815   199.98403
   108  H   1.0    0.12    1.16    1.45   303.65817   135.11163   195.18223
   109  H   1.0    0.06    1.12    1.45   303.57503   131.38131   198.35697
   110  H   1.0    0.04    1.10    1.44   307.34125   135.22879   198.53839
   111  H   1.0    0.17    1.10    1.44   307.20330   133.83795   194.58508
   112  H   1.0    0.05    1.06    1.44   310.09458   132.01625   199.81395
   113  H   1.0    0.05    1.06    1.44   307.77400   132.18633   201.69612
   114  H   1.0    0.06    1.06    1.44   307.86092   130.03204   199.62120
   115  N   5.0   -0.21    3.23    1.96   297.86238   136.94466   201.66966
   116  C   4.0    0.03    4.44    4.44   295.25645   135.98090   201.88698
   117  C   4.0    0.16    3.45    3.10   295.19409   133.51859   203.33640
   118  O   6.0   -0.32    1.29    1.80   294.23978   133.39009   205.43022
   119  C   4.0   -0.06    4.41    4.39   293.97711   135.63130   199.31884
   120  C   4.0   -0.06    4.30    4.21   293.02846   138.06149   198.11698
   121  C   4.0   -0.02    4.39    4.35   291.65085   139.68287   200.00104
   122  N   5.0   -0.17    3.44    2.04   292.37840   142.34550   199.80450
   123  C   4.0    0.11    3.47    3.10   293.03035   143.74011   201.80005
   124  N   5.0   -0.24    3.30    1.98   293.08138   142.74801   204.12631
   125  N   5.0   -0.24    3.29    1.98   293.53491   146.17975   201.45046
   126  H   1.0    0.11    1.08    1.44   298.32726   137.29993   200.15221
   127  H   1.0    0.04    1.15    1.45   294.31348   137.25646   202.80728
   128  H   1.0    0.06    1.10    1.44   295.16385   134.83195   198.17367
   129  H   1.0    0.04    1.10    1.44   292.56359   134.48046   199.51538
   130  H   1.0    0.05    1.10    1.44   294.44387   138.99501   197.42156
   131  H   1.0    0.04    1.09    1.44   291.91164   137.66087   196.71858
   132  H   1.0    0.04    1.09    1.44   289.84428   139.52414   199.73647
   133  H   1.0    0.04    1.13    1.45   292.00045   139.07816   201.69612
   134  H   1.0    0.09    1.13    1.45   292.38596   143.04092   198.33619
   135  H   1.0    0.10    1.10    1.44   292.69020   141.18709   204.35307
   136  H   1.0    0.11    1.09    1.44   293.50657   143.67208   205.39431
   137  H   1.0    0.11    1.09    1.44   293.43665   146.82415   199.96135
   138  H   1.0    0.11    1.09    1.44   293.95821   147.11139   202.71279
   139  N   5.0   -0.16    3.51    2.09   296.35816   131.57217   202.22902
   140  C   4.0    0.03    4.45    4.46   296.49989   129.04372   203.43845
   141  C   4.0    0.17    3.45    3.10   297.55625   129.19678   206.10674
   142  O   6.0   -0.29    1.25    1.80   296.69453   127.84563   207.81127
   143  C   4.0   -0.05    4.45    4.46   298.13639   127.32784   201.76037
   144  C   4.0   -0.03    4.29    4.17   297.27846   126.69857   199.08641
   145  C   4.0   -0.07    4.19    3.98   299.33826   125.21324   197.61809
   146  C   4.0   -0.08    4.23    4.05   294.86150   125.15277   199.13365
   147  H   1.0    0.12    1.15    1.45   297.08382   131.65910   200.77771
   148  H   1.0    0.05    1.12    1.45   294.81237   128.34641   203.59151
   149  H   1.0    0.06    1.10    1.44   299.79179   128.10452   201.63376
   150  H   1.0    0.06    1.10    1.44   298.35560   125.74047   202.65043
   151  H   1.0    0.05    1.13    1.45   296.97421   128.28972   198.22847
   152  H   1.0    0.06    1.05    1.44   298.73544   124.84286   195.92679
   153  H   1.0    0.06    1.05    1.44   300.86516   126.22424   197.51416
   154  H   1.0    0.07    1.05    1.44   299.70298   123.64477   198.49303
   155  H   1.0    0.05    1.06    1.44   294.34560   124.77105   197.41589
   156  H   1.0    0.06    1.06    1.44   295.15252   123.58997   200.04450
   157  H   1.0    0.04    1.06    1.44   293.54058   126.10897   199.96891
   158  N   5.0   -0.14    3.49    2.07   299.45164   130.79549   206.49980
   159  C   4.0    0.05    4.40    4.37   300.67052   131.12619   208.99802
   160  C   4.0    0.09    3.21    3.04   298.92441   132.22979   210.99168
   161  O   6.0   -0.28    1.13    1.80   298.70898   131.23202   213.04959
   162  C   4.0   -0.04    4.38    4.34   303.15173   132.62286   208.69189
   163  C   4.0    0.18    3.31    3.05   305.13594   131.19044   207.19900
   164  O   6.0   -0.27    1.24    1.80   304.79768   128.97569   206.68311
   165  N   5.0   -0.24    3.23    1.96   307.16550   132.49058   206.50358
   166  H   1.0    0.13    1.16    1.46   300.08470   131.73280   205.33195
   167  H   1.0    0.08    1.14    1.45   301.11082   129.44434   209.58195
   168  H   1.0    0.05    1.09    1.44   302.79835   134.21401   207.85285
   169  H   1.0    0.05    1.09    1.44   303.82069   133.02915   210.34917
   170  H   1.0    0.12    1.09    1.44   308.33524   131.77059   205.63431
   171  H   1.0    0.11    1.09    1.44   307.31101   134.05527   206.91932
   172  N   5.0   -0.22    3.30    1.98   292.97555   132.00870   210.91987
   173  C   4.0    0.03    4.54    4.59   291.13685   130.02826   211.28270
   174  C   4.0    0.16    3.52    3.12   291.96077   128.28027   213.36329
   175  O   6.0   -0.31    1.28    1.80   290.62095   127.82106   215.16042
   176  C   4.0   -0.02    4.50    4.53   290.73812   128.47113   208.88464
   177  C   4.0   -0.05    4.33    4.26   289.86506   130.14165   206.70011
   178  C   4.0   -0.08    4.30    4.19   288.75013   126.48314   209.43077
   179  C   4.0   -0.09    4.13    3.86   289.31326   128.68656   204.23969
   180  H   1.0    0.12    1.10    1.44   293.45743   132.17499   209.37786
   181  H   1.0    0.05    1.13    1.45   289.55704   130.84651   211.72490
   182  H   1.0    0.07    1.13    1.45   292.32171   127.68878   208.39709
   183  H   1.0    0.04    1.09    1.44   288.35139   131.04116   207.21034
   184  H   1.0    0.07    1.12    1.45   291.15197   131.40398   206.36752
   185  H   1.0    0.04    1.06    1.44   288.46856   125.47213   207.92844
   186  H   1.0    0.05    1.07    1.44   289.32460   125.40221   210.79515
   187  H   1.0    0.04    1.06    1.44   287.18354   127.30139   209.91832
   188  H   1.0    0.04    1.05    1.44   288.77091   129.86197   202.94145
   189  H   1.0    0.05    1.05    1.44   290.83260   127.82295   203.68600
   190  H   1.0    0.04    1.05    1.44   287.98857   127.45635   204.54016
   191  N   5.0   -0.15    3.52    2.09   294.26624   127.31840   213.11006
   192  C   4.0    0.04    4.38    4.34   295.35850   125.57418   214.99412
   193  C   4.0    0.10    3.23    3.04   295.50590   126.90644   217.56604
   194  O   6.0   -0.28    1.11    1.80   295.19409   125.71402   219.56915
   195  C   4.0   -0.03    4.35    4.29   298.02112   124.78238   214.15130
   196  C   4.0    0.25    3.15    3.03   297.95876   123.03628   211.86851
   197  O   6.0   -0.29    1.18    1.80   296.74933   121.01238   212.11040
   198  O   6.0   -0.26    1.16    1.80   299.12661   123.62209   209.87296
   199  H   1.0    0.13    1.14    1.45   295.24700   127.64532   211.85718
   200  H   1.0    0.06    1.12    1.45   294.30025   124.08508   215.13963
   201  H   1.0    0.07    1.09    1.44   299.00189   126.27716   213.74690
   202  H   1.0    0.06    1.09    1.44   298.87339   123.94146   215.53836
   203  N   5.0   -0.22    3.23    1.96   289.02414   126.54928   220.25512
   204  C   4.0    0.04    4.27    4.14   288.57249   123.89988   220.87873
   205  C   4.0    0.10    3.24    3.04   289.24901   123.13454   223.51868
   206  O   6.0   -0.27    1.12    1.80   287.62952   122.32196   224.99455
   207  C   4.0    0.04    4.25    4.09   289.96522   122.17645   219.00601
   208  O   6.0   -0.27    2.09    1.84   289.55515   119.50627   219.41041
   209  H   1.0    0.13    1.11    1.44   289.67231   126.75526   218.77924
   210  H   1.0    0.06    1.14    1.45   286.75457   123.70335   220.75212
   211  H   1.0    0.06    1.07    1.44   289.43610   122.60353   217.30337
   212  H   1.0    0.07    1.07    1.44   291.76235   122.52038   219.11183
   213  H   1.0    0.18    1.14    1.45   288.25502   119.04518   218.62428
   214  N   5.0   -0.22    3.25    1.97   280.21045   110.61889   220.20976
   215  C   4.0    0.03    4.42    4.41   282.68033   111.79619   219.87150
   216  C   4.0    0.15    3.50    3.11   282.94489   112.67869   217.17109
   217  O   6.0   -0.30    1.24    1.80   283.01859   111.12911   215.42309
   218  C   4.0   -0.04    4.42    4.41   284.73257   109.90268   220.50645
   219  C   4.0   -0.04    4.32    4.23   287.39897   110.86455   220.11150
   220  C   4.0    0.16    3.28    3.05   289.32271   108.70082   219.91497
   221  O   6.0   -0.29    1.19    1.80   289.52491   107.51218   217.90052
   222  N   5.0   -0.24    3.21    1.96   290.63796   108.10933   221.97855
   223  H   1.0    0.11    1.09    1.44   280.26526   109.00317   220.37039
   224  H   1.0    0.04    1.13    1.45   282.84095   113.24183   220.98833
   225  H   1.0    0.05    1.10    1.44   284.54360   109.39246   222.25634
   226  H   1.0    0.07    1.10    1.44   284.48879   108.40224   219.48222
   227  H   1.0    0.06    1.10    1.44   287.46133   111.87556   218.58271
   228  H   1.0    0.05    1.09    1.44   287.86195   111.96626   221.50234
   229  H   1.0    0.11    1.09    1.44   290.44710   108.97672   223.33915
   230  H   1.0    0.12    1.09    1.44   291.67731   106.86022   221.95020
   231  N   5.0   -0.16    3.53    2.10   282.85418   115.15612   216.79692
   232  C   4.0    0.03    4.61    4.68   283.14709   116.21626   214.31193
   233  C   4.0    0.15    3.47    3.10   285.72278   117.51828   214.24390
   234  O   6.0   -0.32    1.34    1.80   286.42954   118.88266   215.98056
   235  C   4.0   -0.03    4.43    4.42   281.03815   118.14756   213.73367
   236  C   4.0   -0.05    4.30    4.20   278.44167   116.89845   213.86029
   237  C   4.0   -0.09    4.22    4.04   281.41232   119.35131   211.08806
   238  C   4.0   -0.08    4.14    3.87   278.15821   114.62322   212.04615
   239  H   1.0    0.10    1.13    1.45   282.62174   116.25027   217.97611
   240  H   1.0    0.05    1.14    1.45   283.03370   114.89534   213.04581
   241  H   1.0    0.05    1.12    1.45   281.13453   119.46470   215.00546
   242  H   1.0    0.05    1.09    1.44   278.12987   116.33720   215.57805
   243  H   1.0    0.04    1.09    1.44   277.15855   118.14567   213.46344
   244  H   1.0    0.04    1.05    1.44   280.06683   120.55507   210.76869
   245  H   1.0    0.05    1.05    1.44   283.02992   120.21303   211.03137
   246  H   1.0    0.04    1.05    1.44   281.37452   118.03984   209.80871
   247  H   1.0    0.05    1.05    1.44   276.47636   113.91268   212.21244
   248  H   1.0    0.05    1.05    1.44   278.41710   115.18069   210.31894
   249  H   1.0    0.06    1.05    1.44   279.40354   113.34576   212.46756
   250  N   5.0   -0.17    3.51    2.09   287.05315   117.08931   212.16520
   251  C   4.0    0.03    4.48    4.51   289.59105   118.10598   211.68521
   252  C   4.0    0.15    3.50    3.12   290.38852   117.49371   209.01125
   253  O   6.0   -0.30    1.31    1.80   289.16586   116.00650   207.73379
   254  C   4.0   -0.03    4.42    4.41   291.49212   116.95325   213.55793
   255  C   4.0    0.17    3.34    3.06   291.93809   114.17724   213.09684
   256  O   6.0   -0.31    1.35    1.80   293.44420   113.45348   211.46789
   257  N   5.0   -0.23    3.24    1.97   290.64930   112.58798   214.55193
   258  H   1.0    0.11    1.16    1.45   286.49568   116.16901   210.94633
   259  H   1.0    0.05    1.12    1.45   289.55515   119.92579   211.90631
   260  H   1.0    0.07    1.09    1.44   293.08516   117.85087   213.43132
   261  H   1.0    0.06    1.10    1.44   290.87607   117.19135   215.26813
   262  H   1.0    0.12    1.09    1.44   290.84772   110.98361   214.37807
   263  H   1.0    0.11    1.09    1.44   289.61562   113.16246   215.66686
   264  N   5.0   -0.16    3.48    2.07   292.36706   118.82975   208.10796
   265  C   4.0    0.04    4.44    4.45   293.32326   118.48393   205.53982
   266  C   4.0    0.16    3.45    3.09   293.93364   115.76839   204.82362
   267  O   6.0   -0.30    1.27    1.80   293.82593   115.09565   202.61264
   268  C   4.0    0.03    4.24    4.08   295.66463   120.17712   205.12408
   269  O   6.0   -0.28    2.08    1.84   295.04669   122.79250   205.21290
   270  H   1.0    0.11    1.13    1.45   293.17208   119.94658   208.97345
   271  H   1.0    0.06    1.13    1.45   291.94754   118.97715   204.43244
   272  H   1.0    0.06    1.07    1.44   296.92130   119.80485   206.40532
   273  H   1.0    0.05    1.07    1.44   296.42052   119.78406   203.50081
   274  H   1.0    0.17    1.08    1.44   296.18620   123.58052   205.98958
   275  N   5.0   -0.15    3.56    2.12   294.46466   114.19047   206.71712
   276  C   4.0    0.04    4.48    4.50   295.02779   111.51651   206.27115
   277  C   4.0    0.17    3.48    3.10   292.57871   110.13323   205.72313
   278  O   6.0   -0.27    1.28    1.80   292.26502   109.12034   203.63120
   279  C   4.0   -0.05    4.38    4.34   296.51879   110.43369   208.51047
   280  C   4.0   -0.04    4.27    4.15   296.73044   107.53108   208.69566
   281  C   4.0    0.17    3.27    3.05   294.58182   106.31220   210.26792
   282  O   6.0   -0.27    1.19    1.80   293.15886   104.74373   209.27014
   283  N   5.0   -0.24    3.23    1.96   294.35505   107.09833   212.61496
   284  H   1.0    0.13    1.17    1.46   294.50812   114.63267   208.27992
   285  H   1.0    0.07    1.13    1.45   296.10305   111.29919   204.80283
   286  H   1.0    0.05    1.09    1.44   298.21576   111.12344   208.45000
   287  H   1.0    0.08    1.13    1.45   295.74589   111.04597   210.05627
   288  H   1.0    0.07    1.09    1.44   296.71532   106.82054   207.00625
   289  H   1.0    0.05    1.08    1.44   298.34426   107.09455   209.44589
   290  H   1.0    0.11    1.09    1.44   295.40007   108.19248   213.21022
   291  H   1.0    0.13    1.09    1.44   293.16264   106.51818   213.55415
   292  N   5.0   -0.15    3.50    2.08   290.83260   110.11433   207.54671
   293  C   4.0    0.05    4.48    4.51   288.38919   108.80097   207.25758
   294  C   4.0    0.17    3.47    3.10   287.05126   109.76473   204.86897
   295  O   6.0   -0.26    1.22    1.80   286.14797   108.23783   203.37042
   296  C   4.0    0.05    4.29    4.19   286.61473   109.16002   209.61974
   297  O   6.0   -0.27    2.15    1.85   286.25947   111.82453   210.09028
   298  C   4.0   -0.07    4.22    4.04   287.76747   107.93359   211.89308
   299  H   1.0    0.12    1.14    1.45   291.02158   110.85510   208.98101
   300  H   1.0    0.07    1.12    1.45   288.74068   107.00762   207.11396
   301  H   1.0    0.06    1.10    1.44   284.99335   108.37578   209.28148
   302  H   1.0    0.15    1.09    1.44   286.02703   112.06264   211.64175
   303  H   1.0    0.07    1.06    1.44   286.66387   108.16413   213.33872
   304  H   1.0    0.06    1.06    1.44   287.99046   106.14213   211.57561
   305  H   1.0    0.06    1.07    1.44   289.39641   108.69893   212.24079
   306  N   5.0   -0.16    3.54    2.10   287.01725   112.26862   204.52882
   307  C   4.0    0.04    4.46    4.48   285.85695   113.50639   202.33107
   308  C   4.0    0.16    3.46    3.10   287.19677   112.82987   199.88009
   309  O   6.0   -0.30    1.24    1.80   286.27458   113.44214   197.83163
   310  C   4.0   -0.05    4.45    4.46   285.87018   116.39767   202.64476
   311  C   4.0   -0.03    4.31    4.21   283.95400   117.55418   204.50992
   312  C   4.0   -0.09    4.24    4.08   284.20344   120.39255   204.52315
   313  C   4.0   -0.08    4.24    4.08   281.26681   116.85309   203.79372
   314  H   1.0    0.13    1.16    1.46   287.67865   113.31175   205.58518
   315  H   1.0    0.06    1.13    1.45   284.12975   112.89790   202.24036
   316  H   1.0    0.06    1.10    1.44   287.55015   116.90223   203.17389
   317  H   1.0    0.05    1.10    1.44   285.57916   117.14789   200.99692
   318  H   1.0    0.05    1.13    1.45   284.31494   116.88522   206.17855
   319  H   1.0    0.04    1.06    1.44   282.99402   121.10687   205.70045
   320  H   1.0    0.04    1.06    1.44   285.90042   120.85553   205.03716
   321  H   1.0    0.04    1.06    1.44   283.87652   121.04262   202.84129
   322  H   1.0    0.04    1.06    1.44   280.09896   117.60143   204.99180
   323  H   1.0    0.05    1.06    1.44   280.89831   117.48048   202.11186
   324  H   1.0    0.06    1.06    1.44   281.08351   115.02951   203.82017
   325  N   5.0   -0.14    3.49    2.07   289.37373   111.60344   200.09930
   326  C   4.0    0.03    4.33    4.25   290.77780   110.74550   197.87320
   327  C   4.0    0.17    3.36    3.07   291.58093   112.91490   196.14222
   328  O   6.0   -0.28    1.20    1.80   291.73022   112.69570   193.78573
   329  H   1.0    0.13    1.17    1.46   290.07671   111.24439   201.52038
   330  H   1.0    0.07    1.09    1.44   292.26691   109.82709   198.41745
   331  H   1.0    0.07    1.09    1.44   289.74034   109.57009   196.92267
   332  N   5.0   -0.16    3.58    2.14   292.17809   115.06730   197.30629
   333  C   4.0    0.03    4.48    4.51   292.99823   117.29907   195.91545
   334  C   4.0    0.15    3.45    3.10   295.60983   118.06630   196.86409
   335  O   6.0   -0.31    1.25    1.80   296.55469   120.06752   196.20836
   336  C   4.0   -0.05    4.42    4.42   291.08016   119.44958   196.21214
   337  C   4.0   -0.02    4.26    4.12   288.66509   119.32486   194.56429
   338  C   4.0   -0.09    4.20    4.00   287.12685   121.76638   194.95736
   339  C   4.0   -0.08    4.20    4.00   289.26224   119.05273   191.72971
   340  H   1.0    0.12    1.15    1.45   292.11762   115.26950   198.91822
   341  H   1.0    0.06    1.14    1.45   293.10027   116.91923   194.12588
   342  H   1.0    0.05    1.09    1.44   290.56615   119.51383   197.96958
   343  H   1.0    0.05    1.10    1.44   291.93620   121.02939   195.84742
   344  H   1.0    0.06    1.12    1.45   287.72022   117.84331   195.08397
   345  H   1.0    0.04    1.05    1.44   285.60940   121.70591   193.93124
   346  H   1.0    0.04    1.05    1.44   286.66387   121.91945   196.72425
   347  H   1.0    0.04    1.05    1.44   288.13785   123.21391   194.46414
   348  H   1.0    0.05    1.05    1.44   287.69755   118.98281   190.77917
   349  H   1.0    0.04    1.05    1.44   290.25057   120.49082   191.17224
   350  H   1.0    0.05    1.05    1.44   290.21466   117.51261   191.45003
   351  N   5.0   -0.15    3.57    2.13   296.76256   116.48649   198.46091
   352  C   4.0    0.04    4.48    4.51   299.25700   116.99293   199.51916
   353  C   4.0    0.17    3.48    3.11   301.22043   117.34820   197.45180
   354  O   6.0   -0.29    1.22    1.80   302.81347   119.04707   197.59730
   355  C   4.0   -0.04    4.33    4.26   300.11683   114.84432   201.32006
   356  C   4.0    0.25    3.16    3.03   300.25289   112.27240   199.96891
   357  O   6.0   -0.27    1.17    1.80   298.31214   110.94392   199.84041
   358  O   6.0   -0.30    1.21    1.80   302.28434   111.68847   198.99381
   359  H   1.0    0.12    1.16    1.46   296.10872   115.08431   198.95980
   360  H   1.0    0.06    1.13    1.45   299.11716   118.54818   200.47914
   361  H   1.0    0.06    1.09    1.44   301.76278   115.25439   202.01548
   362  H   1.0    0.06    1.09    1.44   298.95276   114.72904   202.73169
   363  N   5.0   -0.15    3.57    2.13   300.93319   115.87422   195.43924
   364  C   4.0    0.04    4.58    4.64   302.72654   115.97059   193.32652
   365  C   4.0    0.15    3.45    3.10   301.59648   117.09498   190.94358
   366  O   6.0   -0.29    1.27    1.80   301.87427   116.05752   188.84787
   367  C   4.0    0.06    4.39    4.37   303.78289   113.36466   192.74449
   368  O   6.0   -0.26    2.18    1.85   302.00088   111.43336   193.43424
   369  C   4.0   -0.07    4.24    4.08   306.12238   112.94892   194.26950
   370  H   1.0    0.11    1.14    1.45   299.72187   114.80841   195.25215
   371  H   1.0    0.06    1.15    1.45   304.08147   117.07797   193.87454
   372  H   1.0    0.07    1.13    1.45   304.13438   113.27584   190.94736
   373  H   1.0    0.17    1.11    1.44   301.97632   111.27462   195.01405
   374  H   1.0    0.06    1.06    1.44   306.80457   111.28785   193.90478
   375  H   1.0    0.05    1.06    1.44   307.36582   114.22637   193.84242
   376  H   1.0    0.07    1.06    1.44   305.71797   113.06419   196.05340
   377  N   5.0   -0.15    3.51    2.09   300.26234   119.18124   191.25916
   378  C   4.0    0.03    4.48    4.51   299.17007   120.55696   189.12188
   379  C   4.0    0.16    3.49    3.11   301.21287   122.39377   188.25261
   380  O   6.0   -0.30    1.25    1.80   301.82325   124.13988   189.59998
   381  C   4.0   -0.05    4.44    4.45   296.77768   122.02527   189.94769
   382  C   4.0   -0.03    4.34    4.28   296.01423   124.24003   188.22048
   383  C   4.0   -0.09    4.23    4.07   294.62150   123.31029   185.91691
   384  C   4.0   -0.09    4.23    4.07   294.41930   126.10708   189.68880
   385  H   1.0    0.11    1.14    1.45   299.95809   119.84831   192.70858
   386  H   1.0    0.05    1.12    1.45   298.66174   119.41367   187.78207
   387  H   1.0    0.04    1.09    1.44   295.37550   120.84797   190.04029
   388  H   1.0    0.06    1.10    1.44   297.04791   122.67345   191.64089
   389  H   1.0    0.05    1.14    1.45   297.53546   125.08285   187.64223
   390  H   1.0    0.04    1.06    1.44   294.16230   124.73703   184.86244
   391  H   1.0    0.04    1.06    1.44   295.70054   122.17267   184.96827
   392  H   1.0    0.04    1.06    1.44   293.10405   122.42212   186.43658
   393  H   1.0    0.04    1.06    1.44   293.94309   127.49792   188.59465
   394  H   1.0    0.04    1.06    1.44   292.90941   125.26993   190.30485
   395  H   1.0    0.04    1.06    1.44   295.38306   126.74959   191.10987
   396  N   5.0   -0.16    3.50    2.08   302.34670   121.80229   186.07942
   397  C   4.0    0.04    4.51    4.55   304.44241   123.25549   185.03063
   398  C   4.0    0.17    3.52    3.13   303.97187   123.60508   182.24328
   399  O   6.0   -0.30    1.28    1.80   303.02889   121.90811   180.98661
   400  C   4.0   -0.03    4.39    4.36   306.97842   121.89488   185.45581
   401  C   4.0    0.17    3.32    3.06   309.18940   123.23092   184.23883
   402  O   6.0   -0.27    1.23    1.80   309.29523   123.57107   181.91636
   403  N   5.0   -0.23    3.23    1.96   311.04511   123.93768   185.76006
   404  H   1.0    0.12    1.15    1.45   301.91207   120.53050   185.16669
   405  H   1.0    0.08    1.15    1.45   304.54256   124.88065   185.87344
   406  H   1.0    0.05    1.10    1.44   307.28456   121.74559   187.25672
   407  H   1.0    0.06    1.09    1.44   306.86504   120.19224   184.78874
   408  H   1.0    0.12    1.09    1.44   312.36981   124.65388   185.14779
   409  H   1.0    0.11    1.09    1.44   310.92606   123.68067   187.36066
   410  N   5.0   -0.16    3.51    2.08   304.51044   125.85386   181.29086
   411  C   4.0    0.04    4.46    4.47   304.08336   126.40566   178.63768
   412  C   4.0    0.09    3.21    3.04   306.40772   127.65666   177.41692
   413  O   6.0   -0.28    1.14    1.80   306.17151   128.86419   175.46105
   414  C   4.0   -0.01    4.36    4.32   301.71742   128.13476   178.17281
   415  C   4.0   -0.08    4.21    4.02   299.29480   126.79116   179.01374
   416  C   4.0   -0.08    4.24    4.09   302.01222   130.58384   179.65625
   417  H   1.0    0.11    1.14    1.45   305.12649   127.08785   182.15068
   418  H   1.0    0.07    1.14    1.45   303.76778   124.77860   177.85534
   419  H   1.0    0.06    1.12    1.45   301.60026   128.49947   176.37946
   420  H   1.0    0.04    1.05    1.44   297.85293   127.88342   178.71327
   421  H   1.0    0.06    1.05    1.44   299.09260   125.23970   178.05943
   422  H   1.0    0.05    1.06    1.44   299.40251   126.39810   180.80142
   423  H   1.0    0.04    1.06    1.44   300.55146   131.65343   179.36901
   424  H   1.0    0.05    1.06    1.44   302.14828   130.20401   181.44393
   425  H   1.0    0.06    1.06    1.44   303.52589   131.45690   179.10067
   426  N   5.0   -0.20    3.30    1.98   309.28200   109.10522   207.18010
   427  C   4.0    0.03    4.26    4.11   309.47664   108.43059   204.54394
   428  C   4.0    0.09    3.24    3.04   312.02777   109.35277   203.62553
   429  O   6.0   -0.26    1.15    1.80   313.19184   110.96849   204.83873
   430  C   4.0   -0.08    4.22    4.05   307.31101   109.63434   203.08885
   431  H   1.0    0.11    1.08    1.44   309.06846   110.68881   207.47868
   432  H   1.0    0.04    1.12    1.45   309.35570   106.62023   204.28882
   433  H   1.0    0.05    1.06    1.44   307.43951   109.18270   201.31628
   434  H   1.0    0.05    1.06    1.44   305.71419   109.03152   203.75781
   435  H   1.0    0.06    1.06    1.44   307.39605   111.45793   203.26270
   436  N   5.0   -0.20    3.28    1.98   301.92907   116.71703   178.83799
   437  C   4.0    0.04    4.37    4.33   299.72187   115.32242   179.61845
   438  C   4.0    0.07    3.25    3.04   297.95498   115.13722   177.35267
   439  O   6.0   -0.29    1.12    1.80   297.24255   117.06474   176.19805
   440  C   4.0    0.05    4.37    4.32   298.38962   116.61310   181.81431
   441  O   6.0   -0.27    2.18    1.85   300.10927   117.04774   183.86089
   442  C   4.0   -0.09    4.25    4.09   296.29958   114.94447   182.81209
   443  H   1.0    0.14    1.10    1.44   301.97443   118.24582   179.38602
   444  H   1.0    0.04    1.13    1.45   300.21887   113.65379   180.19482
   445  H   1.0    0.05    1.11    1.45   297.72254   118.20236   181.19259
   446  H   1.0    0.16    1.10    1.44   299.70676   116.13311   185.09488
   447  H   1.0    0.04    1.06    1.44   295.46243   115.78351   184.21049
   448  H   1.0    0.04    1.06    1.44   295.08449   114.62133   181.47794
   449  H   1.0    0.05    1.06    1.44   297.00823   113.35521   183.39034
   450  N   5.0   -0.16    3.44    2.04   289.68365   118.52739   177.21094
   451  C   4.0    0.02    4.41    4.40   289.49090   120.08830   179.51452
   452  C   4.0    0.07    3.19    3.03   286.75268   120.63255   180.31954
   453  O   6.0   -0.32    1.15    1.80   286.00624   119.82185   182.38312
   454  C   4.0   -0.05    4.48    4.51   290.91575   122.51093   178.72461
   455  C   4.0   -0.05    4.42    4.41   290.86473   122.53928   175.92971
   456  C   4.0   -0.01    4.43    4.43   291.23511   119.79162   175.30799
   457  H   1.0    0.05    1.12    1.45   290.18632   119.26249   180.99417
   458  H   1.0    0.04    1.09    1.44   290.10695   124.00571   179.41247
   459  H   1.0    0.04    1.09    1.44   292.63729   122.49582   179.35200
   460  H   1.0    0.05    1.09    1.44   289.27736   123.18179   175.27775
   461  H   1.0    0.05    1.09    1.44   292.19510   123.58808   175.22862
   462  H   1.0    0.05    1.08    1.44   290.68142   119.39666   173.60534
   463  H   1.0    0.06    1.08    1.44   292.99634   119.29840   175.42704
   464  N   5.0   -0.22    3.26    1.97   282.88253   114.92557   183.23728
   465  C   4.0    0.03    4.38    4.35   283.62897   114.37755   185.84699
   466  C   4.0    0.16    3.39    3.08   282.78237   116.44491   187.72916
   467  O   6.0   -0.30    1.23    1.80   281.73357   115.85343   189.70392
   468  C   4.0   -0.05    4.39    4.37   286.48245   113.90701   186.01517
   469  C   4.0   -0.06    4.38    4.35   287.39330   111.96815   184.16702
   470  C   4.0   -0.06    4.34    4.27   290.06915   111.17258   184.69615
   471  C   4.0   -0.04    4.30    4.21   290.91764   109.35844   182.68737
   472  N   5.0   -0.17    4.13    3.22   293.71632   109.49450   182.30186
   473  H   1.0    0.11    1.09    1.44   284.10329   114.87077   182.16580
   474  H   1.0    0.05    1.13    1.45   282.75213   112.84687   186.34210
   475  H   1.0    0.05    1.10    1.44   287.37063   115.48304   185.72038
   476  H   1.0    0.05    1.10    1.44   286.90386   113.36277   187.71404
   477  H   1.0    0.04    1.10    1.44   286.29726   110.50172   184.23127
   478  H   1.0    0.04    1.10    1.44   287.28370   112.64656   182.46816
   479  H   1.0    0.04    1.10    1.44   291.16897   112.63900   184.72827
   480  H   1.0    0.05    1.09    1.44   290.17876   110.38267   186.34777
   481  H   1.0    0.05    1.08    1.44   290.44332   107.65202   183.15791
   482  H   1.0    0.04    1.09    1.44   290.05971   109.73828   181.11322
   483  H   1.0    0.07    1.08    1.44   294.31537   107.95437   181.99195
   484  H   1.0    0.06    1.09    1.44   294.05459   110.49984   180.99606
   485  H   1.0    0.07    1.09    1.44   294.44387   110.11055   183.68703
   486  N   5.0   -0.17    3.45    2.05   283.07528   118.82597   186.95626
   487  C   4.0    0.03    4.41    4.40   282.35529   121.04640   188.47182
   488  C   4.0    0.09    3.27    3.05   279.59629   120.89900   189.32786
   489  O   6.0   -0.29    1.11    1.80   278.99914   121.24860   191.55207
   490  C   4.0   -0.03    4.43    4.42   282.81828   123.59564   187.06208
   491  C   4.0   -0.06    4.33    4.25   285.66609   124.11342   186.71815
   492  C   4.0   -0.08    4.28    4.15   281.58617   125.77449   188.44158
   493  C   4.0   -0.09    4.19    3.97   286.17254   126.45101   185.27251
   494  H   1.0    0.12    1.15    1.45   283.71023   119.21147   185.51062
   495  H   1.0    0.05    1.13    1.45   283.44566   121.01427   189.94391
   496  H   1.0    0.05    1.13    1.45   282.05294   123.44635   185.40290
   497  H   1.0    0.04    1.10    1.44   286.45978   124.23814   188.36599
   498  H   1.0    0.06    1.10    1.44   286.43899   122.69235   185.85644
   499  H   1.0    0.04    1.06    1.44   281.90176   127.33351   187.52884
   500  H   1.0    0.05    1.06    1.44   279.77960   125.48536   188.55119
   501  H   1.0    0.05    1.06    1.44   282.28726   125.90488   190.13100
   502  H   1.0    0.04    1.06    1.44   287.98290   126.68912   185.11000
   503  H   1.0    0.05    1.06    1.44   285.42232   126.31495   183.60577
   504  H   1.0    0.04    1.06    1.44   285.44499   127.88531   186.15312
   505  N   5.0   -0.22    3.25    1.97   278.23191   115.77028   194.31485
   506  C   4.0    0.03    4.25    4.10   278.93300   116.54885   196.84330
   507  C   4.0    0.08    3.21    3.04   276.75603   118.00583   198.06974
   508  O   6.0   -0.32    1.13    1.80   275.95101   117.40489   200.15599
   509  C   4.0   -0.08    4.23    4.06   281.32728   118.11543   196.75638
   510  H   1.0    0.13    1.10    1.44   279.28638   116.23326   193.16968
   511  H   1.0    0.05    1.13    1.45   279.26559   115.06730   197.86942
   512  H   1.0    0.04    1.06    1.44   281.78460   118.62944   198.45524
   513  H   1.0    0.06    1.06    1.44   282.68599   117.11766   196.03450
   514  H   1.0    0.06    1.06    1.44   281.04760   119.60265   195.72270
   515  N   5.0   -0.22    3.25    1.97   271.03772   114.37377   200.09552
   516  C   4.0    0.03    4.38    4.34   271.58763   113.25884   202.57673
   517  C   4.0    0.16    3.45    3.10   270.96780   115.08998   204.71590
   518  O   6.0   -0.27    1.25    1.80   269.77161   114.36243   206.54138
   519  C   4.0   -0.04    4.37    4.34   274.35230   112.42547   202.75059
   520  C   4.0   -0.04    4.27    4.14   275.29528   110.64156   200.66433
   521  C   4.0    0.16    3.27    3.05   278.18845   110.24850   200.82118
   522  O   6.0   -0.28    1.21    1.80   279.25614   109.94237   202.85641
   523  N   5.0   -0.24    3.22    1.96   279.46212   110.24283   198.65555
   524  H   1.0    0.11    1.09    1.44   272.32274   114.40779   199.09964
   525  H   1.0    0.05    1.13    1.45   270.51805   111.78107   202.75815
   526  H   1.0    0.07    1.10    1.44   275.40677   113.92591   202.74303
   527  H   1.0    0.06    1.09    1.44   274.60364   111.60155   204.36819
   528  H   1.0    0.05    1.08    1.44   274.44679   109.02396   200.80984
   529  H   1.0    0.04    1.09    1.44   274.85686   111.32942   199.02216
   530  H   1.0    0.11    1.09    1.44   278.67600   110.46015   197.24959
   531  H   1.0    0.13    1.09    1.44   281.07217   110.02173   198.66122
   532  N   5.0   -0.16    3.51    2.08   271.76149   117.44836   204.46835
   533  C   4.0    0.04    4.49    4.52   271.27961   119.34564   206.35240
   534  C   4.0    0.09    3.27    3.05   268.46770   119.70658   206.90231
   535  O   6.0   -0.27    1.12    1.80   267.62677   119.27383   209.00558
   536  C   4.0   -0.03    4.38    4.35   272.57596   121.89299   205.67777
   537  C   4.0   -0.08    4.25    4.11   271.73881   123.93768   207.49569
   538  C   4.0   -0.09    4.23    4.06   275.42567   121.59253   205.64565
   539  H   1.0    0.11    1.14    1.45   272.60242   117.98504   203.18522
   540  H   1.0    0.06    1.14    1.45   272.03172   118.72392   207.90387
   541  H   1.0    0.05    1.13    1.45   272.06196   122.40133   203.99403
   542  H   1.0    0.04    1.06    1.44   272.55895   125.51749   207.05916
   543  H   1.0    0.05    1.06    1.44   269.92090   124.14366   207.38986
   544  H   1.0    0.05    1.06    1.44   272.20179   123.46336   209.20400
   545  H   1.0    0.04    1.06    1.44   276.20612   123.19690   205.22235
   546  H   1.0    0.04    1.06    1.44   276.00203   121.05206   207.29916
   547  H   1.0    0.05    1.06    1.44   275.89432   120.33775   204.39465
   548  H   1.0    0.10    1.07    1.44   280.68552   135.69577   211.31261
   549  H   1.0    0.05    1.04    1.43   277.69818   132.81155   206.32205
   550  H   1.0    0.10    1.08    1.44   284.61955   134.24663   200.19885
   551  H   1.0    0.06    1.04    1.44   280.24071   134.69043   195.44177
   552  H   1.0    0.09    1.08    1.44   287.38441   138.25580   192.28032
   553  H   1.0    0.06    1.04    1.44   285.15415   134.19877   187.69701
   554  H   1.0    0.10    1.08    1.44   292.03982   134.89433   181.49269
   555  H   1.0    0.06    1.04    1.43   288.18645   134.48883   176.39305
   556  H   1.0    0.09    1.08    1.44   303.42594   137.40405   185.01304
   557  H   1.0    0.06    1.04    1.43   307.26112   138.10157   190.10234
   558  H   1.0    0.09    1.08    1.44   299.01661   138.93360   193.35488
   559  H   1.0    0.05    1.04    1.44   302.91312   136.21669   201.03264
   560  H   1.0    0.10    1.07    1.44   298.01726   138.37287   202.58004
   561  H   1.0    0.06    1.05    1.44   297.93479   133.79585   210.61862
   562  H   1.0    0.10    1.08    1.44   292.31083   133.49663   211.40645
   563  H   1.0    0.07    1.04    1.43   295.85720   128.76130   217.65057
   564  H   1.0    0.10    1.08    1.44   287.55230   127.40059   220.29418
   565  H   1.0    0.07    1.05    1.44   291.03660   123.27653   224.11487
   566  H   1.0    0.10    1.08    1.44   279.47391   111.23761   221.61235
   567  H   1.0    0.07    1.04    1.43   308.10778   127.48131   178.22322
   568  H   1.0    0.10    1.08    1.44   307.95474   108.30065   207.87552
   569  H   1.0    0.06    1.04    1.43   312.76926   108.65182   202.03496
   570  H   1.0    0.11    1.08    1.44   303.32643   115.93712   179.41393
   571  H   1.0    0.05    1.04    1.43   297.34480   113.44771   176.76591
   572  H   1.0    0.09    1.13    1.45   290.52310   117.09164   177.56663
   573  H   1.0    0.05    1.04    1.43   285.61322   121.62389   179.18379
   574  H   1.0    0.10    1.08    1.44   281.72362   113.78980   182.72784
   575  H   1.0    0.06    1.04    1.44   278.23704   120.51270   188.07316
   576  H   1.0    0.10    1.08    1.44   278.13101   114.07374   194.25070
   577  H   1.0    0.06    1.04    1.44   275.97164   119.46919   197.16732
   578  H   1.0    0.10    1.07    1.44   269.82079   113.47009   199.32416
   579  H   1.0    0.06    1.04    1.44   267.30615   120.30032   205.53507

  Z AO/shell   Hii/eV     exponent
  1     Wed Apr 25 08:07:45 CEST 2018   EN: 2.200 GM2: 0.406  GM3: 0.0800  RAES: 1.40
     1s    -10.707211    1.230000
  6     Wed Apr 25 08:07:45 CEST 2018   EN: 2.550 GM2: 0.538  GM3: 0.1500  RAES: 3.00
     2s    -13.970922    2.096432
     2p    -10.063292    1.800000
  7     Wed Apr 25 08:07:45 CEST 2018   EN: 3.040 GM2: 0.461  GM3:-0.0640  RAES: 1.90
     2s    -16.686243    2.339881
     2p    -12.523956    2.014332
  8     Wed Apr 25 08:07:45 CEST 2018   EN: 3.440 GM2: 0.452  GM3:-0.0517  RAES: 1.80
     2s    -20.229985    2.439742
     2p    -15.503117    2.137023
 no old-style atom pair restraining (fixing) potential

molecular fragmentation (1/2 indicates fragments):
111111111111111111122222222222222222222222222222222222222222222222222222
222222222222222222222222222222222222222222222222222222222222222222222222
222222222222222222222222222222222222222222222222222222222222222222222222
222222222222222222222222222222222222222222222222222222222222222222222222
222222222222222222222222222222222222222222222222222222222222222222222222
222222222222222222222222222222222222222222222222222222222222222222222222
222222222222222222222222222222222222222222222222222222222222222222222222
222222222222222222222222222222222222222222211222222222222222222222222222
222
# atoms in fragment 1/2:    21   558
 fragment masses (1/2) :      115.17     3661.41
CMA distance (Bohr)    :  18.290
constraining FC (au)   :  0.0500
           ------------------------------------------------- 
          |        Self-Consistent Charge Iterations        |
           ------------------------------------------------- 

 Ncao       : 1368
 Nao        : 1368
 Nshell     : 842
 Nel        : 1518
 T(el)      :   500.0
 intcut     :    35.0
 scfconv/Eh :  0.100E-06
   qconv/e  :  0.100E-04
 intneglect :  0.100E-08
 broydamp   :      0.400
 iter      E             dE          RMSdq      gap      omega  full diag
   1   -872.6980137 -0.872698E+03  0.463E+00    2.89       0.0  T
   2   -874.8785088 -0.218050E+01  0.215E+00    1.43       1.0  T
   3   -875.0119861 -0.133477E+00  0.128E+00    1.67       1.0  T
   4   -875.1587773 -0.146791E+00  0.238E-01    1.10       1.0  T
   5   -875.1675160 -0.873874E-02  0.111E-01    1.23       1.0  T
   6   -875.1687347 -0.121869E-02  0.478E-02    1.17       1.0  T
   7   -875.1689928 -0.258154E-03  0.189E-02    1.16       1.0  T
   8   -875.1690239 -0.310821E-04  0.893E-03    1.15       1.0  T
   9   -875.1690338 -0.988466E-05  0.384E-03    1.14       1.1  T
  10   -875.1690354 -0.159680E-05  0.161E-03    1.14       2.6  T
  11   -875.1690358 -0.390867E-06  0.701E-04    1.14       5.9  T
  12   -875.1690358 -0.411262E-07  0.289E-04    1.14      14.4  T
  13   -875.1690358 -0.960915E-08  0.126E-04    1.14      33.0  T
  14   -875.1690358 -0.158252E-08  0.528E-05    1.14      78.7  T
  15   -875.1690359 -0.285468E-09  0.206E-05    1.14     201.7  T
speedup  1.00
cpu  time for SCC   13.35 s
wall time for SCC   13.35 s

   *** convergence criteria satisfied after 15 iterations ***

          eigenvalues
 #    :         747        748        749        750        751        752        753        754
 occ. :        2.000      2.000      2.000      2.000      2.000      2.000      2.000      2.000
 eps  :       -10.066    -10.057    -10.012     -9.983     -9.876     -9.819     -9.745     -9.729
 #    :         755        756        757        758        759        760        761        762
 occ. :        2.000      2.000      2.000      2.000      2.000      0.000      0.000      0.000
 eps  :        -9.703     -9.695     -9.656     -9.625     -9.436     -8.297     -8.145     -8.006
 #    :         763        764        765        766        767        768        769        770
 occ. :        0.000      0.000      0.000      0.000      0.000      0.000      0.000      0.000
 eps  :        -7.990     -7.910     -7.825     -7.807     -7.680     -7.636     -7.602     -7.572


   #   Z            q   n(s)   n(p)   n(d)      C6AA      α(0)
   1   7 N     -0.421  1.288  4.133  0.000    30.960     8.264
   2   6 C      0.015  1.051  2.934  0.000    20.349     6.426
   3   6 C      0.199  1.094  2.707  0.000    23.761     7.983
   4   8 O     -0.362  1.741  4.620  0.000    20.928     6.133
   5   6 C     -0.038  1.045  2.993  0.000    21.218     6.551
   6   6 C     -0.081  1.001  3.081  0.000    22.041     6.682
   7   6 C     -0.152  0.972  3.179  0.000    23.458     6.901
   8   6 C     -0.147  0.972  3.174  0.000    23.372     6.890
   9   1 H      0.184  0.816  0.000  0.000     1.191     1.710
  10   1 H      0.066  0.934  0.000  0.000     2.128     2.281
  11   1 H      0.061  0.939  0.000  0.000     2.181     2.309
  12   1 H      0.043  0.957  0.000  0.000     2.409     2.427
  13   1 H      0.046  0.954  0.000  0.000     2.365     2.404
  14   1 H      0.065  0.935  0.000  0.000     2.138     2.287
  15   1 H      0.059  0.941  0.000  0.000     2.211     2.325
  16   1 H      0.056  0.944  0.000  0.000     2.248     2.345
  17   1 H      0.045  0.955  0.000  0.000     2.383     2.414
  18   1 H      0.058  0.942  0.000  0.000     2.224     2.332
  19   1 H      0.053  0.947  0.000  0.000     2.282     2.362
  20   7 N     -0.421  1.283  4.138  0.000    30.969     8.265
  21   6 C      0.024  1.033  2.943  0.000    20.174     6.397
  22   6 C      0.187  1.094  2.720  0.000    24.001     8.023
  23   8 O     -0.374  1.760  4.614  0.000    21.164     6.168
  24   6 C     -0.094  1.016  3.078  0.000    22.280     6.717
  25   6 C     -0.027  1.034  2.993  0.000    21.020     6.520
  26   6 C     -0.155  0.978  3.177  0.000    23.532     6.912
  27   6 C     -0.160  0.979  3.181  0.000    23.638     6.928
  28   1 H      0.198  0.802  0.000  0.000     1.117     1.655
  29   1 H      0.075  0.925  0.000  0.000     2.035     2.231
  30   1 H      0.060  0.940  0.000  0.000     2.201     2.320
  31   1 H      0.060  0.940  0.000  0.000     2.197     2.318
  32   1 H      0.061  0.939  0.000  0.000     2.191     2.315
  33   1 H      0.055  0.945  0.000  0.000     2.257     2.349
  34   1 H      0.049  0.951  0.000  0.000     2.335     2.389
  35   1 H      0.056  0.944  0.000  0.000     2.248     2.344
  36   1 H      0.050  0.950  0.000  0.000     2.314     2.379
  37   1 H      0.058  0.942  0.000  0.000     2.221     2.330
  38   1 H      0.056  0.944  0.000  0.000     2.241     2.341
  39   7 N     -0.414  1.283  4.131  0.000    30.774     8.239
  40   6 C      0.026  1.032  2.942  0.000    20.137     6.390
  41   6 C      0.201  1.093  2.706  0.000    23.718     7.976
  42   8 O     -0.386  1.754  4.632  0.000    21.407     6.203
  43   6 C     -0.044  1.042  3.002  0.000    21.315     6.566
  44   6 C     -0.159  0.981  3.178  0.000    23.608     6.924
  45   6 C     -0.152  0.976  3.176  0.000    23.462     6.902
  46   1 H      0.182  0.818  0.000  0.000     1.205     1.719
  47   1 H      0.067  0.933  0.000  0.000     2.122     2.278
  48   1 H      0.078  0.922  0.000  0.000     2.000     2.211
  49   1 H      0.067  0.933  0.000  0.000     2.113     2.273
  50   1 H      0.052  0.948  0.000  0.000     2.297     2.370
  51   1 H      0.060  0.940  0.000  0.000     2.203     2.321
  52   1 H      0.061  0.939  0.000  0.000     2.188     2.313
  53   1 H      0.059  0.941  0.000  0.000     2.213     2.326
  54   1 H      0.050  0.950  0.000  0.000     2.314     2.378
  55   7 N     -0.421  1.283  4.138  0.000    30.959     8.264
  56   6 C      0.032  1.030  2.938  0.000    20.053     6.378
  57   6 C      0.195  1.097  2.708  0.000    23.838     7.996
  58   8 O     -0.395  1.767  4.628  0.000    21.582     6.229
  59   6 C     -0.152  0.981  3.172  0.000    23.474     6.904
  60   1 H      0.200  0.800  0.000  0.000     1.107     1.648
  61   1 H      0.071  0.929  0.000  0.000     2.069     2.249
  62   1 H      0.065  0.935  0.000  0.000     2.141     2.288
  63   1 H      0.082  0.918  0.000  0.000     1.959     2.188
  64   1 H      0.069  0.931  0.000  0.000     2.092     2.261
  65   7 N     -0.413  1.280  4.132  0.000    30.724     8.232
  66   6 C      0.029  1.029  2.942  0.000    20.094     6.384
  67   6 C      0.189  1.102  2.709  0.000    23.953     8.015
  68   8 O     -0.389  1.755  4.633  0.000    21.458     6.211
  69   6 C     -0.087  1.014  3.073  0.000    22.141     6.697
  70   6 C     -0.127  1.014  3.113  0.000    22.927     6.815
  71   6 C      0.281  1.037  2.682  0.000    22.238     7.721
  72   8 O     -0.509  1.748  4.761  0.000    23.989     6.567
  73   7 N     -0.283  1.192  4.091  0.000    27.307     7.761
  74   1 H      0.192  0.808  0.000  0.000     1.145     1.676
  75   1 H      0.075  0.925  0.000  0.000     2.035     2.231
  76   1 H      0.080  0.920  0.000  0.000     1.980     2.200
  77   1 H      0.080  0.920  0.000  0.000     1.978     2.199
  78   1 H      0.091  0.909  0.000  0.000     1.865     2.135
  79   1 H      0.073  0.927  0.000  0.000     2.055     2.241
  80   1 H      0.232  0.768  0.000  0.000     0.956     1.531
  81   1 H      0.227  0.773  0.000  0.000     0.976     1.547
  82   7 N     -0.423  1.283  4.140  0.000    31.024     8.272
  83   6 C      0.012  1.045  2.942  0.000    20.380     6.429
  84   6 C      0.257  1.055  2.688  0.000    22.682     7.799
  85   8 O     -0.507  1.757  4.749  0.000    23.934     6.559
  86   6 C     -0.039  1.044  2.995  0.000    21.236     6.554
  87   6 C     -0.085  1.004  3.081  0.000    22.116     6.693
  88   6 C     -0.156  0.978  3.178  0.000    23.544     6.914
  89   6 C     -0.149  0.975  3.174  0.000    23.422     6.897
  90   1 H      0.179  0.821  0.000  0.000     1.219     1.730
  91   1 H      0.066  0.934  0.000  0.000     2.127     2.281
  92   1 H      0.055  0.945  0.000  0.000     2.263     2.352
  93   1 H      0.057  0.943  0.000  0.000     2.228     2.334
  94   1 H      0.045  0.955  0.000  0.000     2.379     2.412
  95   1 H      0.068  0.932  0.000  0.000     2.108     2.270
  96   1 H      0.045  0.955  0.000  0.000     2.387     2.416
  97   1 H      0.065  0.935  0.000  0.000     2.138     2.286
  98   1 H      0.057  0.943  0.000  0.000     2.237     2.339
  99   1 H      0.042  0.958  0.000  0.000     2.417     2.431
 100   1 H      0.062  0.938  0.000  0.000     2.177     2.307
 101   7 N     -0.172  1.205  3.967  0.000    24.722     7.385
 102   6 C     -0.004  1.050  2.954  0.000    20.656     6.472
 103   6 C      0.191  1.091  2.718  0.000    23.912     8.008
 104   8 O     -0.365  1.761  4.604  0.000    20.995     6.143
 105   6 C      0.098  1.036  2.867  0.000    19.072     6.237
 106   8 O     -0.487  1.689  4.797  0.000    22.610     6.419
 107   6 C     -0.166  0.979  3.186  0.000    23.752     6.946
 108   1 H      0.239  0.761  0.000  0.000     0.925     1.507
 109   1 H      0.097  0.903  0.000  0.000     1.811     2.104
 110   1 H      0.073  0.927  0.000  0.000     2.050     2.239
 111   1 H      0.331  0.669  0.000  0.000     0.634     1.250
 112   1 H      0.091  0.909  0.000  0.000     1.866     2.136
 113   1 H      0.065  0.935  0.000  0.000     2.141     2.288
 114   1 H      0.074  0.926  0.000  0.000     2.047     2.237
 115   7 N     -0.423  1.292  4.132  0.000    31.036     8.274
 116   6 C      0.007  1.038  2.954  0.000    20.462     6.442
 117   6 C      0.267  1.043  2.690  0.000    22.489     7.766
 118   8 O     -0.510  1.749  4.761  0.000    24.008     6.569
 119   6 C     -0.112  1.011  3.101  0.000    22.617     6.768
 120   6 C     -0.105  1.005  3.100  0.000    22.493     6.750
 121   6 C     -0.049  1.010  3.040  0.000    21.516     6.614
 122   7 N     -0.154  1.187  3.967  0.000    24.338     7.327
 123   6 C      0.222  1.022  2.757  0.000    23.329     7.908
 124   7 N     -0.261  1.168  4.093  0.000    26.762     7.683
 125   7 N     -0.265  1.176  4.089  0.000    26.871     7.699
 126   1 H      0.185  0.815  0.000  0.000     1.187     1.707
 127   1 H      0.070  0.930  0.000  0.000     2.080     2.255
 128   1 H      0.087  0.913  0.000  0.000     1.912     2.162
 129   1 H      0.065  0.935  0.000  0.000     2.143     2.289
 130   1 H      0.084  0.916  0.000  0.000     1.934     2.175
 131   1 H      0.084  0.916  0.000  0.000     1.937     2.176
 132   1 H      0.107  0.893  0.000  0.000     1.721     2.051
 133   1 H      0.087  0.913  0.000  0.000     1.908     2.160
 134   1 H      0.247  0.753  0.000  0.000     0.896     1.483
 135   1 H      0.235  0.765  0.000  0.000     0.942     1.521
 136   1 H      0.256  0.744  0.000  0.000     0.860     1.453
 137   1 H      0.259  0.741  0.000  0.000     0.849     1.443
 138   1 H      0.259  0.741  0.000  0.000     0.850     1.444
 139   7 N     -0.195  1.222  3.973  0.000    25.236     7.461
 140   6 C      0.015  1.044  2.941  0.000    20.325     6.420
 141   6 C      0.281  1.040  2.679  0.000    22.247     7.723
 142   8 O     -0.522  1.767  4.754  0.000    24.273     6.606
 143   6 C     -0.094  1.008  3.085  0.000    22.268     6.716
 144   6 C     -0.026  1.035  2.991  0.000    20.997     6.517
 145   6 C     -0.145  0.980  3.165  0.000    23.342     6.885
 146   6 C     -0.156  0.978  3.178  0.000    23.542     6.914
 147   1 H      0.238  0.762  0.000  0.000     0.931     1.511
 148   1 H      0.090  0.910  0.000  0.000     1.883     2.146
 149   1 H      0.064  0.936  0.000  0.000     2.154     2.295
 150   1 H      0.044  0.956  0.000  0.000     2.393     2.419
 151   1 H      0.075  0.925  0.000  0.000     2.026     2.226
 152   1 H      0.068  0.932  0.000  0.000     2.106     2.269
 153   1 H      0.049  0.951  0.000  0.000     2.326     2.385
 154   1 H      0.033  0.967  0.000  0.000     2.539     2.491
 155   1 H      0.070  0.930  0.000  0.000     2.085     2.258
 156   1 H      0.036  0.964  0.000  0.000     2.500     2.472
 157   1 H      0.060  0.940  0.000  0.000     2.204     2.321
 158   7 N     -0.184  1.213  3.971  0.000    24.987     7.424
 159   6 C      0.025  1.034  2.941  0.000    20.167     6.395
 160   6 C      0.203  1.081  2.715  0.000    23.675     7.968
 161   8 O     -0.360  1.757  4.604  0.000    20.906     6.130
 162   6 C     -0.134  1.020  3.114  0.000    23.053     6.833
 163   6 C      0.295  1.026  2.679  0.000    22.002     7.680
 164   8 O     -0.499  1.763  4.736  0.000    23.771     6.537
 165   7 N     -0.302  1.193  4.109  0.000    27.789     7.829
 166   1 H      0.241  0.759  0.000  0.000     0.919     1.502
 167   1 H      0.093  0.907  0.000  0.000     1.850     2.127
 168   1 H      0.118  0.882  0.000  0.000     1.630     1.996
 169   1 H      0.107  0.893  0.000  0.000     1.724     2.053
 170   1 H      0.235  0.765  0.000  0.000     0.944     1.522
 171   1 H      0.250  0.750  0.000  0.000     0.883     1.471
 172   7 N     -0.435  1.289  4.146  0.000    31.371     8.318
 173   6 C      0.027  1.030  2.943  0.000    20.115     6.385
 174   6 C      0.278  1.043  2.679  0.000    22.289     7.731
 175   8 O     -0.509  1.735  4.774  0.000    23.983     6.566
 176   6 C     -0.032  1.036  2.995  0.000    21.097     6.531
 177   6 C     -0.095  1.008  3.087  0.000    22.299     6.721
 178   6 C     -0.147  0.974  3.172  0.000    23.357     6.886
 179   6 C     -0.149  0.978  3.171  0.000    23.423     6.898
 180   1 H      0.191  0.809  0.000  0.000     1.151     1.680
 181   1 H      0.058  0.942  0.000  0.000     2.227     2.334
 182   1 H      0.045  0.955  0.000  0.000     2.384     2.414
 183   1 H      0.053  0.947  0.000  0.000     2.283     2.362
 184   1 H      0.072  0.928  0.000  0.000     2.060     2.244
 185   1 H      0.062  0.938  0.000  0.000     2.174     2.305
 186   1 H      0.019  0.981  0.000  0.000     2.744     2.590
 187   1 H      0.067  0.933  0.000  0.000     2.122     2.278
 188   1 H      0.070  0.930  0.000  0.000     2.082     2.257
 189   1 H      0.037  0.963  0.000  0.000     2.484     2.464
 190   1 H      0.057  0.943  0.000  0.000     2.228     2.334
 191   7 N     -0.197  1.217  3.980  0.000    25.277     7.467
 192   6 C      0.039  1.037  2.923  0.000    19.921     6.356
 193   6 C      0.195  1.093  2.713  0.000    23.847     7.997
 194   8 O     -0.377  1.761  4.616  0.000    21.220     6.176
 195   6 C     -0.107  1.020  3.087  0.000    22.531     6.756
 196   6 C      0.369  1.022  2.609  0.000    20.749     7.455
 197   8 O     -0.649  1.766  4.883  0.000    27.347     7.011
 198   8 O     -0.634  1.782  4.852  0.000    26.969     6.963
 199   1 H      0.217  0.783  0.000  0.000     1.025     1.586
 200   1 H      0.081  0.919  0.000  0.000     1.969     2.194
 201   1 H      0.063  0.937  0.000  0.000     2.161     2.299
 202   1 H      0.059  0.941  0.000  0.000     2.207     2.323
 203   7 N     -0.418  1.284  4.134  0.000    30.879     8.253
 204   6 C      0.022  1.029  2.948  0.000    20.210     6.403
 205   6 C      0.206  1.088  2.706  0.000    23.625     7.960
 206   8 O     -0.378  1.755  4.622  0.000    21.238     6.179
 207   6 C      0.059  1.001  2.940  0.000    19.769     6.364
 208   8 O     -0.511  1.683  4.828  0.000    23.139     6.494
 209   1 H      0.190  0.810  0.000  0.000     1.160     1.687
 210   1 H      0.076  0.924  0.000  0.000     2.022     2.223
 211   1 H      0.060  0.940  0.000  0.000     2.193     2.316
 212   1 H      0.066  0.934  0.000  0.000     2.134     2.284
 213   1 H      0.341  0.659  0.000  0.000     0.609     1.225
 214   7 N     -0.415  1.288  4.127  0.000    30.800     8.242
 215   6 C      0.022  1.029  2.949  0.000    20.205     6.401
 216   6 C      0.262  1.047  2.692  0.000    22.592     7.784
 217   8 O     -0.498  1.754  4.744  0.000    23.743     6.533
 218   6 C     -0.084  1.005  3.079  0.000    22.084     6.687
 219   6 C     -0.119  1.011  3.109  0.000    22.773     6.792
 220   6 C      0.272  1.046  2.682  0.000    22.399     7.749
 221   8 O     -0.513  1.761  4.752  0.000    24.084     6.580
 222   7 N     -0.297  1.201  4.097  0.000    27.662     7.811
 223   1 H      0.190  0.810  0.000  0.000     1.156     1.684
 224   1 H      0.054  0.946  0.000  0.000     2.269     2.356
 225   1 H      0.071  0.929  0.000  0.000     2.076     2.253
 226   1 H      0.071  0.929  0.000  0.000     2.079     2.254
 227   1 H      0.057  0.943  0.000  0.000     2.231     2.335
 228   1 H      0.076  0.924  0.000  0.000     2.016     2.220
 229   1 H      0.242  0.758  0.000  0.000     0.913     1.497
 230   1 H      0.244  0.756  0.000  0.000     0.906     1.491
 231   7 N     -0.179  1.204  3.974  0.000    24.866     7.406
 232   6 C     -0.002  1.041  2.961  0.000    20.602     6.461
 233   6 C      0.262  1.044  2.693  0.000    22.579     7.781
 234   8 O     -0.482  1.741  4.742  0.000    23.390     6.484
 235   6 C     -0.040  1.046  2.994  0.000    21.254     6.557
 236   6 C     -0.093  1.009  3.084  0.000    22.259     6.715
 237   6 C     -0.160  0.981  3.179  0.000    23.644     6.930
 238   6 C     -0.153  0.978  3.175  0.000    23.502     6.910
 239   1 H      0.219  0.781  0.000  0.000     1.013     1.576
 240   1 H      0.094  0.906  0.000  0.000     1.838     2.120
 241   1 H      0.070  0.930  0.000  0.000     2.085     2.258
 242   1 H      0.055  0.945  0.000  0.000     2.254     2.348
 243   1 H      0.073  0.927  0.000  0.000     2.051     2.240
 244   1 H      0.082  0.918  0.000  0.000     1.961     2.190
 245   1 H      0.050  0.950  0.000  0.000     2.317     2.380
 246   1 H      0.067  0.933  0.000  0.000     2.123     2.278
 247   1 H      0.054  0.946  0.000  0.000     2.271     2.357
 248   1 H      0.059  0.941  0.000  0.000     2.208     2.324
 249   1 H      0.050  0.950  0.000  0.000     2.313     2.378
 250   7 N     -0.183  1.206  3.977  0.000    24.972     7.422
 251   6 C      0.022  1.035  2.943  0.000    20.203     6.400
 252   6 C      0.269  1.039  2.692  0.000    22.458     7.760
 253   8 O     -0.465  1.734  4.730  0.000    23.013     6.432
 254   6 C     -0.126  1.014  3.112  0.000    22.893     6.809
 255   6 C      0.280  1.039  2.681  0.000    22.260     7.725
 256   8 O     -0.508  1.750  4.758  0.000    23.953     6.562
 257   7 N     -0.271  1.187  4.084  0.000    27.007     7.718
 258   1 H      0.229  0.771  0.000  0.000     0.971     1.544
 259   1 H      0.097  0.903  0.000  0.000     1.814     2.106
 260   1 H      0.103  0.897  0.000  0.000     1.760     2.075
 261   1 H      0.108  0.892  0.000  0.000     1.715     2.048
 262   1 H      0.234  0.766  0.000  0.000     0.949     1.526
 263   1 H      0.224  0.776  0.000  0.000     0.992     1.560
 264   7 N     -0.190  1.210  3.980  0.000    25.125     7.445
 265   6 C      0.011  1.041  2.948  0.000    20.396     6.431
 266   6 C      0.269  1.040  2.691  0.000    22.465     7.761
 267   8 O     -0.494  1.740  4.754  0.000    23.646     6.520
 268   6 C      0.072  0.989  2.939  0.000    19.556     6.330
 269   8 O     -0.448  1.646  4.802  0.000    21.811     6.305
 270   1 H      0.218  0.782  0.000  0.000     1.017     1.580
 271   1 H      0.110  0.890  0.000  0.000     1.695     2.036
 272   1 H      0.049  0.951  0.000  0.000     2.327     2.385
 273   1 H      0.056  0.944  0.000  0.000     2.251     2.346
 274   1 H      0.316  0.684  0.000  0.000     0.673     1.288
 275   7 N     -0.198  1.220  3.978  0.000    25.309     7.472
 276   6 C      0.024  1.034  2.942  0.000    20.179     6.396
 277   6 C      0.278  1.042  2.680  0.000    22.296     7.732
 278   8 O     -0.505  1.761  4.745  0.000    23.900     6.555
 279   6 C     -0.115  1.015  3.099  0.000    22.681     6.779
 280   6 C     -0.128  1.018  3.110  0.000    22.951     6.819
 281   6 C      0.278  1.041  2.681  0.000    22.297     7.731
 282   8 O     -0.507  1.764  4.744  0.000    23.948     6.561
 283   7 N     -0.285  1.188  4.097  0.000    27.352     7.767
 284   1 H      0.237  0.763  0.000  0.000     0.937     1.516
 285   1 H      0.083  0.917  0.000  0.000     1.949     2.183
 286   1 H      0.077  0.923  0.000  0.000     2.007     2.215
 287   1 H      0.106  0.894  0.000  0.000     1.729     2.056
 288   1 H      0.072  0.928  0.000  0.000     2.058     2.243
 289   1 H      0.098  0.902  0.000  0.000     1.802     2.099
 290   1 H      0.238  0.762  0.000  0.000     0.931     1.511
 291   1 H      0.238  0.762  0.000  0.000     0.930     1.511
 292   7 N     -0.185  1.211  3.974  0.000    25.014     7.428
 293   6 C      0.004  1.054  2.942  0.000    20.524     6.452
 294   6 C      0.280  1.040  2.680  0.000    22.259     7.725
 295   8 O     -0.499  1.751  4.748  0.000    23.763     6.536
 296   6 C      0.101  1.032  2.867  0.000    19.021     6.228
 297   8 O     -0.493  1.677  4.817  0.000    22.751     6.439
 298   6 C     -0.170  0.980  3.190  0.000    23.835     6.957
 299   1 H      0.223  0.777  0.000  0.000     0.995     1.562
 300   1 H      0.093  0.907  0.000  0.000     1.849     2.126
 301   1 H      0.070  0.930  0.000  0.000     2.083     2.257
 302   1 H      0.326  0.674  0.000  0.000     0.647     1.263
 303   1 H      0.096  0.904  0.000  0.000     1.819     2.109
 304   1 H      0.078  0.922  0.000  0.000     1.998     2.210
 305   1 H      0.063  0.937  0.000  0.000     2.162     2.299
 306   7 N     -0.203  1.216  3.987  0.000    25.411     7.487
 307   6 C      0.014  1.042  2.944  0.000    20.344     6.422
 308   6 C      0.270  1.041  2.689  0.000    22.441     7.757
 309   8 O     -0.485  1.736  4.749  0.000    23.456     6.493
 310   6 C     -0.096  1.012  3.084  0.000    22.320     6.723
 311   6 C     -0.030  1.032  2.998  0.000    21.070     6.528
 312   6 C     -0.157  0.977  3.179  0.000    23.560     6.915
 313   6 C     -0.156  0.978  3.178  0.000    23.549     6.914
 314   1 H      0.232  0.768  0.000  0.000     0.958     1.533
 315   1 H      0.100  0.900  0.000  0.000     1.782     2.087
 316   1 H      0.051  0.949  0.000  0.000     2.308     2.376
 317   1 H      0.084  0.916  0.000  0.000     1.934     2.175
 318   1 H      0.048  0.952  0.000  0.000     2.344     2.394
 319   1 H      0.075  0.925  0.000  0.000     2.031     2.228
 320   1 H      0.044  0.956  0.000  0.000     2.397     2.421
 321   1 H      0.071  0.929  0.000  0.000     2.078     2.254
 322   1 H      0.069  0.931  0.000  0.000     2.098     2.265
 323   1 H      0.063  0.937  0.000  0.000     2.159     2.297
 324   1 H      0.043  0.957  0.000  0.000     2.410     2.427
 325   7 N     -0.187  1.210  3.978  0.000    25.055     7.434
 326   6 C     -0.038  1.006  3.031  0.000    21.302     6.581
 327   6 C      0.274  1.047  2.680  0.000    22.373     7.745
 328   8 O     -0.494  1.744  4.750  0.000    23.643     6.519
 329   1 H      0.206  0.794  0.000  0.000     1.077     1.625
 330   1 H      0.089  0.911  0.000  0.000     1.891     2.150
 331   1 H      0.105  0.895  0.000  0.000     1.736     2.060
 332   7 N     -0.185  1.207  3.978  0.000    25.017     7.429
 333   6 C      0.009  1.041  2.951  0.000    20.436     6.436
 334   6 C      0.261  1.046  2.693  0.000    22.595     7.784
 335   8 O     -0.463  1.728  4.735  0.000    22.988     6.428
 336   6 C     -0.100  1.013  3.087  0.000    22.400     6.736
 337   6 C     -0.030  1.039  2.991  0.000    21.082     6.531
 338   6 C     -0.159  0.982  3.177  0.000    23.616     6.925
 339   6 C     -0.159  0.979  3.180  0.000    23.622     6.927
 340   1 H      0.204  0.796  0.000  0.000     1.085     1.631
 341   1 H      0.117  0.883  0.000  0.000     1.636     2.000
 342   1 H      0.053  0.947  0.000  0.000     2.282     2.362
 343   1 H      0.094  0.906  0.000  0.000     1.841     2.122
 344   1 H      0.046  0.954  0.000  0.000     2.374     2.409
 345   1 H      0.067  0.933  0.000  0.000     2.115     2.274
 346   1 H      0.054  0.946  0.000  0.000     2.267     2.354
 347   1 H      0.073  0.927  0.000  0.000     2.049     2.238
 348   1 H      0.065  0.935  0.000  0.000     2.145     2.290
 349   1 H      0.070  0.930  0.000  0.000     2.085     2.258
 350   1 H      0.049  0.951  0.000  0.000     2.333     2.388
 351   7 N     -0.214  1.215  3.999  0.000    25.660     7.523
 352   6 C      0.038  1.034  2.928  0.000    19.931     6.356
 353   6 C      0.281  1.039  2.680  0.000    22.241     7.723
 354   8 O     -0.492  1.746  4.746  0.000    23.600     6.513
 355   6 C     -0.116  1.017  3.099  0.000    22.707     6.783
 356   6 C      0.368  1.017  2.615  0.000    20.762     7.457
 357   8 O     -0.646  1.777  4.869  0.000    27.287     7.004
 358   8 O     -0.623  1.754  4.869  0.000    26.687     6.926
 359   1 H      0.209  0.791  0.000  0.000     1.059     1.612
 360   1 H      0.066  0.934  0.000  0.000     2.126     2.280
 361   1 H      0.047  0.953  0.000  0.000     2.361     2.403
 362   1 H      0.036  0.964  0.000  0.000     2.508     2.476
 363   7 N     -0.183  1.203  3.980  0.000    24.961     7.420
 364   6 C      0.000  1.041  2.959  0.000    20.567     6.455
 365   6 C      0.254  1.044  2.702  0.000    22.729     7.807
 366   8 O     -0.482  1.741  4.741  0.000    23.391     6.484
 367   6 C      0.105  1.022  2.873  0.000    18.935     6.209
 368   8 O     -0.492  1.672  4.820  0.000    22.718     6.434
 369   6 C     -0.166  0.980  3.187  0.000    23.759     6.945
 370   1 H      0.201  0.799  0.000  0.000     1.102     1.644
 371   1 H      0.098  0.902  0.000  0.000     1.801     2.099
 372   1 H      0.099  0.901  0.000  0.000     1.790     2.092
 373   1 H      0.310  0.690  0.000  0.000     0.690     1.305
 374   1 H      0.079  0.921  0.000  0.000     1.984     2.203
 375   1 H      0.069  0.931  0.000  0.000     2.096     2.264
 376   1 H      0.058  0.942  0.000  0.000     2.223     2.332
 377   7 N     -0.169  1.208  3.961  0.000    24.663     7.376
 378   6 C      0.003  1.043  2.954  0.000    20.523     6.450
 379   6 C      0.275  1.038  2.687  0.000    22.342     7.741
 380   8 O     -0.472  1.732  4.740  0.000    23.171     6.454
 381   6 C     -0.105  1.017  3.089  0.000    22.490     6.749
 382   6 C     -0.027  1.029  2.998  0.000    21.013     6.519
 383   6 C     -0.163  0.979  3.184  0.000    23.694     6.936
 384   6 C     -0.161  0.980  3.181  0.000    23.656     6.930
 385   1 H      0.208  0.792  0.000  0.000     1.065     1.617
 386   1 H      0.094  0.906  0.000  0.000     1.839     2.121
 387   1 H      0.071  0.929  0.000  0.000     2.073     2.251
 388   1 H      0.070  0.930  0.000  0.000     2.080     2.255
 389   1 H      0.047  0.953  0.000  0.000     2.355     2.400
 390   1 H      0.069  0.931  0.000  0.000     2.090     2.261
 391   1 H      0.048  0.952  0.000  0.000     2.340     2.392
 392   1 H      0.067  0.933  0.000  0.000     2.120     2.277
 393   1 H      0.073  0.927  0.000  0.000     2.053     2.241
 394   1 H      0.061  0.939  0.000  0.000     2.186     2.312
 395   1 H      0.058  0.942  0.000  0.000     2.218     2.329
 396   7 N     -0.187  1.213  3.974  0.000    25.050     7.433
 397   6 C      0.014  1.035  2.951  0.000    20.346     6.422
 398   6 C      0.280  1.034  2.687  0.000    22.269     7.728
 399   8 O     -0.482  1.737  4.744  0.000    23.381     6.483
 400   6 C     -0.122  1.015  3.107  0.000    22.808     6.796
 401   6 C      0.282  1.037  2.681  0.000    22.218     7.718
 402   8 O     -0.511  1.759  4.751  0.000    24.018     6.571
 403   7 N     -0.294  1.198  4.096  0.000    27.577     7.799
 404   1 H      0.230  0.770  0.000  0.000     0.967     1.540
 405   1 H      0.110  0.890  0.000  0.000     1.698     2.038
 406   1 H      0.076  0.924  0.000  0.000     2.025     2.225
 407   1 H      0.095  0.905  0.000  0.000     1.831     2.116
 408   1 H      0.247  0.753  0.000  0.000     0.896     1.483
 409   1 H      0.236  0.764  0.000  0.000     0.940     1.519
 410   7 N     -0.166  1.201  3.964  0.000    24.582     7.364
 411   6 C      0.003  1.048  2.949  0.000    20.533     6.452
 412   6 C      0.199  1.087  2.714  0.000    23.751     7.981
 413   8 O     -0.367  1.753  4.614  0.000    21.036     6.149
 414   6 C     -0.029  1.045  2.985  0.000    21.059     6.527
 415   6 C     -0.157  0.979  3.178  0.000    23.575     6.919
 416   6 C     -0.155  0.976  3.179  0.000    23.535     6.913
 417   1 H      0.218  0.782  0.000  0.000     1.019     1.581
 418   1 H      0.123  0.877  0.000  0.000     1.591     1.973
 419   1 H      0.077  0.923  0.000  0.000     2.010     2.217
 420   1 H      0.075  0.925  0.000  0.000     2.036     2.231
 421   1 H      0.061  0.939  0.000  0.000     2.185     2.311
 422   1 H      0.059  0.941  0.000  0.000     2.208     2.323
 423   1 H      0.074  0.926  0.000  0.000     2.043     2.235
 424   1 H      0.062  0.938  0.000  0.000     2.176     2.307
 425   1 H      0.049  0.951  0.000  0.000     2.326     2.385
 426   7 N     -0.406  1.275  4.131  0.000    30.533     8.207
 427   6 C      0.032  1.028  2.940  0.000    20.050     6.377
 428   6 C      0.193  1.087  2.719  0.000    23.870     8.002
 429   8 O     -0.372  1.761  4.611  0.000    21.131     6.163
 430   6 C     -0.138  0.978  3.161  0.000    23.192     6.862
 431   1 H      0.182  0.818  0.000  0.000     1.202     1.717
 432   1 H      0.083  0.917  0.000  0.000     1.944     2.180
 433   1 H      0.062  0.938  0.000  0.000     2.171     2.304
 434   1 H      0.061  0.939  0.000  0.000     2.185     2.311
 435   1 H      0.051  0.949  0.000  0.000     2.307     2.375
 436   7 N     -0.400  1.275  4.125  0.000    30.377     8.186
 437   6 C      0.017  1.032  2.951  0.000    20.293     6.415
 438   6 C      0.179  1.096  2.726  0.000    24.156     8.049
 439   8 O     -0.367  1.771  4.597  0.000    21.042     6.150
 440   6 C      0.103  1.023  2.874  0.000    18.969     6.215
 441   8 O     -0.500  1.687  4.812  0.000    22.883     6.458
 442   6 C     -0.186  0.985  3.202  0.000    24.179     7.007
 443   1 H      0.195  0.805  0.000  0.000     1.133     1.667
 444   1 H      0.072  0.928  0.000  0.000     2.064     2.246
 445   1 H      0.068  0.932  0.000  0.000     2.111     2.272
 446   1 H      0.325  0.675  0.000  0.000     0.650     1.266
 447   1 H      0.081  0.919  0.000  0.000     1.964     2.192
 448   1 H      0.077  0.923  0.000  0.000     2.005     2.214
 449   1 H      0.071  0.929  0.000  0.000     2.073     2.251
 450   7 N     -0.307  1.331  3.976  0.000    27.893     7.844
 451   6 C      0.012  1.046  2.942  0.000    20.371     6.424
 452   6 C      0.191  1.097  2.712  0.000    23.920     8.009
 453   8 O     -0.370  1.756  4.613  0.000    21.083     6.156
 454   6 C     -0.083  1.006  3.076  0.000    22.026     6.673
 455   6 C     -0.086  0.998  3.088  0.000    22.104     6.687
 456   6 C     -0.010  0.999  3.011  0.000    20.756     6.486
 457   1 H      0.073  0.927  0.000  0.000     2.053     2.240
 458   1 H      0.058  0.942  0.000  0.000     2.225     2.332
 459   1 H      0.068  0.932  0.000  0.000     2.105     2.268
 460   1 H      0.057  0.943  0.000  0.000     2.234     2.337
 461   1 H      0.056  0.944  0.000  0.000     2.244     2.342
 462   1 H      0.052  0.948  0.000  0.000     2.296     2.369
 463   1 H      0.046  0.954  0.000  0.000     2.369     2.407
 464   7 N     -0.421  1.283  4.137  0.000    30.952     8.263
 465   6 C      0.016  1.040  2.944  0.000    20.321     6.420
 466   6 C      0.264  1.052  2.684  0.000    22.538     7.773
 467   8 O     -0.518  1.758  4.759  0.000    24.182     6.593
 468   6 C     -0.099  1.005  3.094  0.000    22.373     6.731
 469   6 C     -0.093  1.000  3.094  0.000    22.258     6.713
 470   6 C     -0.118  1.006  3.112  0.000    22.743     6.787
 471   6 C     -0.077  1.020  3.057  0.000    22.031     6.694
 472   7 N     -0.138  1.144  3.994  0.000    23.969     7.271
 473   1 H      0.194  0.806  0.000  0.000     1.139     1.671
 474   1 H      0.053  0.947  0.000  0.000     2.281     2.362
 475   1 H      0.073  0.927  0.000  0.000     2.053     2.240
 476   1 H      0.056  0.944  0.000  0.000     2.248     2.344
 477   1 H      0.066  0.934  0.000  0.000     2.132     2.283
 478   1 H      0.075  0.925  0.000  0.000     2.031     2.228
 479   1 H      0.091  0.909  0.000  0.000     1.871     2.139
 480   1 H      0.083  0.917  0.000  0.000     1.949     2.183
 481   1 H      0.131  0.869  0.000  0.000     1.527     1.932
 482   1 H      0.139  0.861  0.000  0.000     1.471     1.896
 483   1 H      0.298  0.702  0.000  0.000     0.720     1.329
 484   1 H      0.282  0.718  0.000  0.000     0.768     1.372
 485   1 H      0.276  0.724  0.000  0.000     0.787     1.390
 486   7 N     -0.188  1.216  3.972  0.000    25.085     7.439
 487   6 C      0.007  1.047  2.946  0.000    20.465     6.443
 488   6 C      0.205  1.084  2.711  0.000    23.650     7.964
 489   8 O     -0.369  1.760  4.610  0.000    21.081     6.156
 490   6 C     -0.040  1.047  2.992  0.000    21.241     6.555
 491   6 C     -0.093  1.002  3.090  0.000    22.256     6.714
 492   6 C     -0.153  0.976  3.177  0.000    23.484     6.906
 493   6 C     -0.149  0.971  3.178  0.000    23.408     6.894
 494   1 H      0.243  0.757  0.000  0.000     0.911     1.495
 495   1 H      0.092  0.908  0.000  0.000     1.859     2.132
 496   1 H      0.072  0.928  0.000  0.000     2.068     2.249
 497   1 H      0.063  0.937  0.000  0.000     2.158     2.297
 498   1 H      0.064  0.936  0.000  0.000     2.156     2.296
 499   1 H      0.080  0.920  0.000  0.000     1.978     2.199
 500   1 H      0.046  0.954  0.000  0.000     2.372     2.408
 501   1 H      0.066  0.934  0.000  0.000     2.134     2.284
 502   1 H      0.063  0.937  0.000  0.000     2.168     2.303
 503   1 H      0.053  0.947  0.000  0.000     2.278     2.360
 504   1 H      0.059  0.941  0.000  0.000     2.216     2.328
 505   7 N     -0.407  1.274  4.133  0.000    30.580     8.213
 506   6 C      0.033  1.026  2.941  0.000    20.036     6.375
 507   6 C      0.189  1.099  2.712  0.000    23.949     8.014
 508   8 O     -0.373  1.750  4.623  0.000    21.144     6.165
 509   6 C     -0.151  0.979  3.172  0.000    23.453     6.901
 510   1 H      0.193  0.807  0.000  0.000     1.141     1.673
 511   1 H      0.053  0.947  0.000  0.000     2.285     2.364
 512   1 H      0.060  0.940  0.000  0.000     2.202     2.321
 513   1 H      0.072  0.928  0.000  0.000     2.065     2.247
 514   1 H      0.082  0.918  0.000  0.000     1.953     2.185
 515   7 N     -0.420  1.284  4.137  0.000    30.950     8.262
 516   6 C      0.018  1.038  2.944  0.000    20.285     6.414
 517   6 C      0.272  1.042  2.686  0.000    22.403     7.751
 518   8 O     -0.515  1.754  4.761  0.000    24.117     6.584
 519   6 C     -0.088  1.006  3.082  0.000    22.162     6.700
 520   6 C     -0.117  1.014  3.103  0.000    22.728     6.786
 521   6 C      0.284  1.042  2.673  0.000    22.185     7.712
 522   8 O     -0.507  1.762  4.745  0.000    23.944     6.561
 523   7 N     -0.294  1.191  4.104  0.000    27.589     7.801
 524   1 H      0.184  0.816  0.000  0.000     1.192     1.710
 525   1 H      0.057  0.943  0.000  0.000     2.239     2.340
 526   1 H      0.079  0.921  0.000  0.000     1.992     2.207
 527   1 H      0.060  0.940  0.000  0.000     2.197     2.318
 528   1 H      0.084  0.916  0.000  0.000     1.937     2.176
 529   1 H      0.073  0.927  0.000  0.000     2.048     2.238
 530   1 H      0.231  0.769  0.000  0.000     0.961     1.536
 531   1 H      0.219  0.781  0.000  0.000     1.014     1.577
 532   7 N     -0.173  1.203  3.970  0.000    24.741     7.387
 533   6 C      0.006  1.040  2.954  0.000    20.473     6.442
 534   6 C      0.209  1.081  2.710  0.000    23.566     7.950
 535   8 O     -0.367  1.760  4.607  0.000    21.031     6.148
 536   6 C     -0.037  1.040  2.997  0.000    21.197     6.548
 537   6 C     -0.156  0.977  3.179  0.000    23.559     6.916
 538   6 C     -0.162  0.979  3.183  0.000    23.669     6.933
 539   1 H      0.233  0.767  0.000  0.000     0.950     1.527
 540   1 H      0.096  0.904  0.000  0.000     1.819     2.109
 541   1 H      0.074  0.926  0.000  0.000     2.039     2.233
 542   1 H      0.082  0.918  0.000  0.000     1.959     2.189
 543   1 H      0.051  0.949  0.000  0.000     2.309     2.376
 544   1 H      0.063  0.937  0.000  0.000     2.166     2.301
 545   1 H      0.080  0.920  0.000  0.000     1.979     2.200
 546   1 H      0.062  0.938  0.000  0.000     2.177     2.307
 547   1 H      0.065  0.935  0.000  0.000     2.139     2.287
 548   1 H      0.182  0.818  0.000  0.000     1.203     1.718
 549   1 H      0.072  0.928  0.000  0.000     2.059     2.244
 550   1 H      0.177  0.823  0.000  0.000     1.233     1.740
 551   1 H      0.067  0.933  0.000  0.000     2.120     2.277
 552   1 H      0.185  0.815  0.000  0.000     1.185     1.705
 553   1 H      0.066  0.934  0.000  0.000     2.131     2.283
 554   1 H      0.179  0.821  0.000  0.000     1.220     1.730
 555   1 H      0.071  0.929  0.000  0.000     2.075     2.252
 556   1 H      0.187  0.813  0.000  0.000     1.172     1.696
 557   1 H      0.092  0.908  0.000  0.000     1.858     2.132
 558   1 H      0.186  0.814  0.000  0.000     1.183     1.703
 559   1 H      0.101  0.899  0.000  0.000     1.778     2.085
 560   1 H      0.190  0.810  0.000  0.000     1.156     1.684
 561   1 H      0.093  0.907  0.000  0.000     1.847     2.125
 562   1 H      0.190  0.810  0.000  0.000     1.157     1.685
 563   1 H      0.083  0.917  0.000  0.000     1.949     2.183
 564   1 H      0.195  0.805  0.000  0.000     1.131     1.666
 565   1 H      0.071  0.929  0.000  0.000     2.079     2.255
 566   1 H      0.194  0.806  0.000  0.000     1.138     1.671
 567   1 H      0.073  0.927  0.000  0.000     2.056     2.242
 568   1 H      0.180  0.820  0.000  0.000     1.212     1.724
 569   1 H      0.071  0.929  0.000  0.000     2.077     2.254
 570   1 H      0.181  0.819  0.000  0.000     1.209     1.722
 571   1 H      0.088  0.912  0.000  0.000     1.895     2.153
 572   1 H      0.177  0.823  0.000  0.000     1.228     1.736
 573   1 H      0.072  0.928  0.000  0.000     2.062     2.246
 574   1 H      0.175  0.825  0.000  0.000     1.242     1.746
 575   1 H      0.067  0.933  0.000  0.000     2.124     2.279
 576   1 H      0.167  0.833  0.000  0.000     1.288     1.778
 577   1 H      0.082  0.918  0.000  0.000     1.956     2.187
 578   1 H      0.182  0.818  0.000  0.000     1.204     1.719
 579   1 H      0.070  0.930  0.000  0.000     2.079     2.255

 Mol. C6AA /au·bohr⁶  :    2836896.031993
 Mol. C8AA /au·bohr⁸  :   61991917.694153
 Mol. α(0) /au        :       2503.624586

 
molecular dipole:
                 x           y           z       tot (Debye)
 q only:       -2.076      32.552     -24.339
   full:        0.271      31.275     -21.228      96.079
molecular quadrupole (traceless):
                xx          xy          yy          xz          yz          zz
 q only:     -747.328   14030.513   13978.486  -11264.173    5611.268  -13231.158
  q+dip:      150.485   13920.144   12411.579   -9188.902    5802.423  -12562.064
   full:      150.173   13920.501   12417.342   -9189.330    5803.848  -12567.516
speedup  1.00
cpu  time for grad   17.34 s
wall time for grad   17.34 s

SCC energy    :    -875.1952147
rep           :      18.8866034
ES            :       2.6464918
AES           :      -0.0768653
AXC           :       0.1515782
disp          :      -0.7100659
XB            :       0.0000000
fix           :       0.0000000
Gborn         :       0.0000000
Gsasa         :       0.0000000
Ghb           :       0.0000000
Gshift        :       0.0000000
Gsolv         :      -0.6072753     -381.07
Etot ala COSMO:    -875.1952147
grad norm     :       3.0999139
total E       :    -856.2382423
atomizationE  :     151.8902361    95312.56
(atE without considering molecular charge,
 total energy contains solvation terms)
H-L gap (eV)  :          1.1396

------------------------------------------------------------------------
 * finished run on 2019/03/07 at 11:38:04.954     
------------------------------------------------------------------------
 total:
 * wall-time:     0 d,  0 h,  0 min, 18.626 sec
 *  cpu-time:     0 d,  0 h,  0 min, 18.511 sec
 * ratio c/w:     0.994 speedup
 SCF:
 * wall-time:     0 d,  0 h,  0 min, 18.218 sec
 *  cpu-time:     0 d,  0 h,  0 min, 18.217 sec
 * ratio c/w:     1.000 speedup

