      -----------------------------------------------------------      
     |                   =====================                   |     
     |                           x T B                           |     
     |                   =====================                   |     
     |                         S. Grimme                         |     
     |          Mulliken Center for Theoretical Chemistry        |     
     |                    University of Bonn                     |     
     |                Version 6.1 RC1 (SAW190329)                |     
      -----------------------------------------------------------      

   This program is distributed in the hope that it will be useful,
   but WITHOUT ANY WARRANTY; without even the implied warranty of
   MERCHANTABILITY or FITNESS FOR A PARTICULAR PURPOSE.
   
   FOR NON-COMMERCIAL, ACADEMIA USE ONLY.
   
   Cite this work as:
   S. Grimme, C. Bannwarth, P. Shushkov, J. Comput. Theory Chem., 2017,
   13, 1989-2009. DOI: 10.1021/acs.jctc.7b00118
   C. Bannwarth, S. Ehlert and S. Grimme., J. Comput. Theory Chem., 2019,
   just accepted. DOI: 10.1021/acs.jctc.8b01176
   
   for sTDA-xTB:
   S. Grimme and C. Bannwarth, J. Chem. Phys., 2016, 145, 054103.
   DOI: 10.1063/1.4959605
   
   in the mass-spec context:
   V. Asgeirsson, C. Bauer and S. Grimme, Chem. Sci., 2017, 8, 4879.
   DOI: 10.1039/c7sc00601b
   
   for metadynamics refer to:
   S. Grimme, ChemRxiv, Preprint. DOI: 10.26434/chemrxiv.7660532.v1
   
   with help from (in alphabetical order)
   C. Bannwarth, F. Bohle, G. Brandenburg, E. Caldeweyher, M. Checinski,
   S. Dohm, S. Ehlert, S. Ehrlich, F. März, H. Neugebauer, J. Pisarek,
   P. Pracht, P. Shushkov, and S. Spicher.
   
 * started run on 2019/05/31 at 05:35:19.257     

           -------------------------------------------------
          |                Calculation Setup                |
           -------------------------------------------------

          program call               : /home/lum/install/xtb/xtb-190329/bin/xtb xtb_tmp.xyz --chrg 1 --grad --gfn 2 --etemp 500 --acc 0.1 --gbsa h2o --parallel 2
          hostname                   : cpu02
          coordinate file            : xtb_tmp.xyz
          omp threads                :                     2
          number of atoms            :                   427
          number of electrons        :                  1124
          charge                     :                     1
          spin                       :                   0.0
          first test random number   :      0.99220194590146


molecular fragmentation (1/2 indicates fragments):
111111111122222222222222222222222222222222222222222222222222222222222222
222222222222222222222222222222222222222222222222222222222222222222222222
222222222222222222222222222222222222222222222222222222222222222222222222
222222222222222222222222222222222222222222222222222222222222222222222222
222222222222222222222222222222222222222222222222222222222222222222222222
2222222222222222222222222222222222222222222222222112222222222222222
# atoms in fragment 1/2:    12   415
 fragment masses (1/2) :       73.09     2733.30
CMA distance (Bohr)    :  20.076
constraining FC (au)   :  0.0500

########################################################################
# WARNING! Please study the warnings concerning your input carefully
#  - XTBPATH is not set, using XTBHOME instead
#  - Process number higher than OMP_NUM_THREADS, I hope you know what you are doing.
########################################################################

           ------------------------------------------------- 
          |                 G F N 2 - x T B                 |
          | Geometry, Frequencies, Noncovalent interactions |
          |            JCTC 2018 parametrisation            |
           ------------------------------------------------- 
 
             k(s)              :                1.8500
             k(p)              :                2.2300
             k(d)              :                2.2300
             k(f)              :                2.0000
             kEN (H0ij)        :               -2.0000
             D4 a1             :                0.5200
             D4 a2             :                5.0000
             D4 s6             :                1.0000
             D4 s8             :                2.7000
             D4 s9             :                5.0000
             alphaj            :                2.0000

  Z AO/shell   Hii/eV     exponent
  1     Wed Apr 25 08:07:45 CEST 2018   EN: 2.200 GM2: 0.406  GM3: 0.0800  RAES: 1.40
     1s    -10.707211    1.230000
  6     Wed Apr 25 08:07:45 CEST 2018   EN: 2.550 GM2: 0.538  GM3: 0.1500  RAES: 3.00
     2s    -13.970922    2.096432
     2p    -10.063292    1.800000
  7     Wed Apr 25 08:07:45 CEST 2018   EN: 3.040 GM2: 0.461  GM3:-0.0640  RAES: 1.90
     2s    -16.686243    2.339881
     2p    -12.523956    2.014332
  8     Wed Apr 25 08:07:45 CEST 2018   EN: 3.440 GM2: 0.452  GM3:-0.0517  RAES: 1.80
     2s    -20.229985    2.439742
     2p    -15.503117    2.137023

 Solvent             : h2o
 Using internal parameter file: .param_gbsa2_h2o
 Gsolv ref. state (COSMO-RS): gsolv [1 M gas/solution]
 temperature (mdtemp)       :    298.150000000000     
 dielectric constant        :    80.2000000000000     
 rho                        :    1.00000000000000     
 mass                       :    18.0000000000000     
 surface tension            :    15.5689454083859     
 probe radius               :   0.975313790000000     
 vdW radii scaling          :    1.00000000000000     
 Gshift (Eh)                :   1.857443126794793E-003
 c1                         :    1.55243817000000     
 soset                      :   0.130326360000000     
 HB correction              :  T
 Number of grid points      :          230

            Z     q(EN)     CN     RAES       Cart. coordinates
     1  N   5.0   -0.71    3.00    1.93   363.50813   119.96344   207.58504
     2  C   4.0    0.06    3.98    3.58   361.59257   119.01515   205.86752
     3  C   4.0    0.07    3.00    3.02   361.98809   116.18229   205.40985
     4  O   6.0   -0.49    1.00    1.80   360.23484   114.68025   205.55631
     5  C   4.0   -0.22    3.98    3.59   361.69401   120.48666   203.39950
     6  H   1.0    0.26    1.00    1.43   364.69563   121.30769   206.94023
     7  H   1.0    0.11    0.99    1.43   359.73677   119.21922   206.76953
     8  H   1.0    0.09    0.99    1.43   360.24687   119.80102   202.11744
     9  H   1.0    0.10    0.99    1.43   361.38136   122.48536   203.76817
    10  H   1.0    0.11    0.99    1.43   363.53746   120.24982   202.52728
    11  N   5.0   -0.68    3.00    1.93   360.15977   112.18205   210.86708
    12  C   4.0    0.07    3.98    3.59   357.42718   111.94098   210.93516
    13  C   4.0    0.29    3.01    3.02   356.55446   109.90163   209.06798
    14  O   6.0   -0.45    1.00    1.80   355.10055   108.20575   209.69267
    15  C   4.0   -0.21    3.98    3.59   356.23319   114.47716   210.28684
    16  H   1.0    0.27    1.00    1.43   360.88616   113.93875   210.60992
    17  H   1.0    0.12    0.99    1.43   356.84129   111.30711   212.82349
    18  H   1.0    0.09    0.99    1.43   354.18829   114.30759   210.25987
    19  H   1.0    0.10    0.99    1.43   356.77585   115.87571   211.69014
    20  H   1.0    0.13    0.99    1.43   356.89267   115.08652   208.43969
    21  N   5.0   -0.49    3.01    1.93   357.43404   110.17095   206.72715
    22  C   4.0    0.06    3.99    3.60   356.75148   108.41991   204.73756
    23  C   4.0    0.08    3.00    3.02   357.40123   105.70676   205.49687
    24  O   6.0   -0.40    1.00    1.80   355.93546   103.94921   205.11774
    25  C   4.0   -0.14    3.99    3.60   358.12677   109.10737   202.29373
    26  C   4.0   -0.10    3.98    3.58   357.20501   111.56294   201.05526
    27  C   4.0   -0.23    3.99    3.60   358.90583   112.13829   198.79629
    28  C   4.0   -0.23    3.98    3.59   354.45734   111.37903   200.19765
    29  H   1.0    0.29    1.00    1.43   358.62948   111.60987   206.29429
    30  H   1.0    0.12    0.99    1.43   354.69594   108.45934   204.46609
    31  H   1.0    0.12    0.99    1.43   360.13581   109.26352   202.73613
    32  H   1.0    0.11    0.99    1.43   357.89923   107.55235   200.95922
    33  H   1.0    0.13    0.99    1.43   357.37466   113.10058   202.42327
    34  H   1.0    0.09    0.99    1.43   358.21335   113.78659   197.79030
    35  H   1.0    0.11    0.99    1.43   360.82753   112.50451   199.42124
    36  H   1.0    0.11    0.99    1.43   358.92045   110.53794   197.50773
    37  H   1.0    0.10    0.99    1.43   353.91712   113.07132   199.16721
    38  H   1.0    0.11    0.99    1.43   354.20032   109.75786   198.96193
    39  H   1.0    0.10    0.99    1.43   353.18601   111.18275   201.79676
    40  N   5.0   -0.69    3.00    1.93   353.02215   102.98534   209.96129
    41  C   4.0    0.08    3.98    3.58   350.70902   102.43107   208.62308
    42  C   4.0    0.10    3.00    3.02   350.88175   100.14560   206.84036
    43  O   6.0   -0.39    1.00    1.80   348.98758    99.40281   205.73074
    44  C   4.0   -0.19    3.99    3.60   349.89121   104.74309   207.11202
    45  H   1.0    0.33    1.00    1.43   353.98542   104.54954   209.41863
    46  H   1.0    0.12    0.99    1.43   349.25491   101.92037   210.01621
    47  H   1.0    0.12    0.99    1.43   348.16847   104.30701   206.08497
    48  H   1.0    0.11    0.99    1.43   349.57359   106.33346   208.36965
    49  H   1.0    0.14    0.99    1.43   351.37782   105.21840   205.77568
    50  N   5.0   -0.68    3.00    1.93   351.04366   137.00263   191.49375
    51  C   4.0    0.07    3.99    3.60   352.74575   134.87726   191.36368
    52  C   4.0    0.28    3.01    3.02   351.35909   132.40507   191.90341
    53  O   6.0   -0.41    1.00    1.80   349.55710   132.23888   193.35379
    54  C   4.0   -0.14    3.99    3.60   354.87164   135.14311   193.31095
    55  C   4.0   -0.10    3.98    3.58   356.44241   137.56204   193.01957
    56  C   4.0   -0.22    3.98    3.59   358.39495   137.68096   195.14295
    57  C   4.0   -0.22    3.98    3.59   357.76026   137.68588   190.45772
    58  H   1.0    0.28    1.00    1.43   350.66099   137.65849   193.24252
    59  H   1.0    0.10    0.99    1.43   353.50635   134.78140   189.44730
    60  H   1.0    0.14    0.99    1.43   354.02397   135.10834   195.19645
    61  H   1.0    0.11    0.99    1.43   356.11687   133.50712   193.13558
    62  H   1.0    0.11    0.99    1.43   355.18445   139.19320   193.19953
    63  H   1.0    0.11    0.99    1.43   359.41625   139.46315   195.09382
    64  H   1.0    0.11    0.99    1.43   357.49639   137.48895   196.98306
    65  H   1.0    0.11    0.99    1.43   359.75652   136.15549   194.93624
    66  H   1.0    0.11    0.99    1.43   358.98484   139.33235   190.38247
    67  H   1.0    0.11    0.99    1.43   358.91078   136.00842   190.17052
    68  H   1.0    0.10    0.99    1.43   356.39445   137.81418   188.93226
    69  N   5.0   -0.50    3.01    1.93   352.34871   130.43222   190.68369
    70  C   4.0    0.08    4.00    3.61   351.65411   127.86509   191.23217
    71  C   4.0    0.27    3.02    3.02   354.05734   126.28489   191.29303
    72  O   6.0   -0.42    1.00    1.80   355.90151   126.80808   189.99063
    73  C   4.0   -0.19    3.98    3.59   349.84582   126.75407   189.26138
    74  H   1.0    0.25    1.00    1.43   353.77500   130.68273   189.42949
    75  H   1.0    0.16    0.99    1.43   350.71730   127.83725   193.07337
    76  H   1.0    0.13    0.99    1.43   349.40612   124.81282   189.76749
    77  H   1.0    0.12    0.99    1.43   348.10764   127.84714   189.24550
    78  H   1.0    0.12    0.99    1.43   350.67648   126.80087   187.38368
    79  N   5.0   -0.49    3.01    1.93   353.95893   124.33039   192.88179
    80  C   4.0    0.07    4.00    3.62   355.75924   122.27594   192.70773
    81  C   4.0    0.07    3.00    3.02   354.65353   120.40442   190.79635
    82  O   6.0   -0.45    1.00    1.80   352.50928   119.54210   191.04814
    83  C   4.0   -0.09    3.98    3.58   356.28785   121.05385   195.27605
    84  C   4.0   -0.24    3.99    3.60   358.14286   118.87814   194.91056
    85  C   4.0   -0.22    3.99    3.60   357.41515   123.01270   197.06280
    86  H   1.0    0.28    1.00    1.43   352.31688   124.03112   193.83375
    87  H   1.0    0.13    0.99    1.43   357.51285   123.05679   191.94818
    88  H   1.0    0.11    0.99    1.43   354.50848   120.33289   196.04877
    89  H   1.0    0.09    0.99    1.43   358.67883   118.09881   196.73300
    90  H   1.0    0.11    0.99    1.43   357.32300   117.37830   193.76867
    91  H   1.0    0.10    0.99    1.43   359.82150   119.58219   193.95544
    92  H   1.0    0.09    0.99    1.43   357.68453   122.19746   198.92556
    93  H   1.0    0.11    0.99    1.43   359.23386   123.63174   196.33855
    94  H   1.0    0.11    0.99    1.43   356.18462   124.64567   197.22060
    95  N   5.0   -0.71    3.00    1.93   347.36795   120.28805   192.69524
    96  C   4.0    0.08    3.98    3.59   346.63246   120.90504   195.26110
    97  C   4.0    0.29    3.02    3.02   346.98165   123.74510   195.67503
    98  O   6.0   -0.46    1.00    1.80   349.00930   124.75042   195.17195
    99  C   4.0   -0.12    3.99    3.60   348.30293   119.48749   197.17331
   100  C   4.0   -0.05    3.03    3.02   347.85122   116.68964   197.09036
   101  C   4.0   -0.11    3.03    3.02   349.09826   115.16720   195.34724
   102  C   4.0   -0.11    3.03    3.02   346.14738   115.58168   198.75077
   103  C   4.0   -0.09    3.03    3.02   348.65848   112.59316   195.26276
   104  C   4.0   -0.11    3.03    3.02   345.72165   113.00583   198.70651
   105  C   4.0    0.09    3.03    3.02   346.98179   111.49715   196.96482
   106  O   6.0   -0.49    1.99    1.83   346.55680   108.95402   196.83412
   107  H   1.0    0.32    1.00    1.43   349.23931   120.45164   192.27060
   108  H   1.0    0.13    0.99    1.43   344.65299   120.39741   195.52468
   109  H   1.0    0.11    0.99    1.43   350.27496   119.91138   196.74040
   110  H   1.0    0.11    0.99    1.43   347.84721   120.22517   199.04026
   111  H   1.0    0.13    1.00    1.43   350.43380   115.99749   194.04684
   112  H   1.0    0.13    1.00    1.43   345.14045   116.74495   200.09154
   113  H   1.0    0.13    1.00    1.43   349.61992   111.41288   193.90680
   114  H   1.0    0.11    1.00    1.43   344.41575   112.17362   200.03461
   115  H   1.0    0.25    0.99    1.43   345.71286   108.38833   198.36348
   116  N   5.0   -0.49    3.01    1.93   344.96174   125.04470   196.47943
   117  C   4.0    0.10    4.00    3.62   345.27121   127.71199   197.03723
   118  C   4.0    0.31    3.01    3.02   347.41680   128.05870   198.95759
   119  O   6.0   -0.43    1.00    1.80   347.61581   126.67381   200.80689
   120  C   4.0   -0.01    3.98    3.58   342.80093   128.81651   198.06883
   121  O   6.0   -0.46    1.98    1.82   342.08327   127.50691   200.26017
   122  H   1.0    0.29    1.00    1.43   343.60651   124.11190   197.46373
   123  H   1.0    0.12    0.99    1.43   345.78642   128.70292   195.29261
   124  H   1.0    0.12    0.99    1.43   343.10069   130.83430   198.45866
   125  H   1.0    0.10    0.99    1.43   341.33074   128.64186   196.60842
   126  H   1.0    0.30    0.99    1.43   340.56013   128.31083   201.00103
   127  N   5.0   -0.48    3.01    1.93   349.02274   129.93774   198.45182
   128  C   4.0    0.09    4.00    3.62   351.20708   130.37311   200.02982
   129  C   4.0    0.28    3.01    3.02   351.63125   133.19707   200.36346
   130  O   6.0   -0.41    1.00    1.80   351.07106   134.75462   198.75081
   131  C   4.0   -0.19    3.98    3.59   353.55497   129.15889   198.86403
   132  H   1.0    0.29    1.00    1.43   348.90745   131.00113   196.85679
   133  H   1.0    0.16    0.99    1.43   350.83790   129.53096   201.88091
   134  H   1.0    0.13    0.99    1.43   355.14710   129.36591   200.14001
   135  H   1.0    0.12    0.99    1.43   353.18920   127.15859   198.57616
   136  H   1.0    0.12    0.99    1.43   353.98035   130.04696   197.05856
   137  N   5.0   -0.47    3.01    1.93   352.68373   133.77952   202.58508
   138  C   4.0    0.08    3.99    3.60   353.15540   136.35711   203.32395
   139  C   4.0    0.05    3.00    3.02   355.93044   136.67471   204.01065
   140  O   6.0   -0.42    1.00    1.80   357.11573   135.01932   205.11149
   141  C   4.0    0.06    3.98    3.58   351.44902   137.07392   205.62084
   142  O   6.0   -0.45    1.99    1.82   348.92962   136.39348   205.13909
   143  C   4.0   -0.20    3.98    3.59   351.50455   139.91456   206.10816
   144  H   1.0    0.30    1.00    1.43   353.25615   132.38446   203.76546
   145  H   1.0    0.14    0.99    1.43   352.63425   137.53240   201.70255
   146  H   1.0    0.14    0.99    1.43   352.17885   136.04458   207.27599
   147  H   1.0    0.33    0.99    1.43   348.70735   134.56372   205.31367
   148  H   1.0    0.13    0.99    1.43   350.26351   140.33227   207.68790
   149  H   1.0    0.10    0.99    1.43   353.39867   140.56116   206.55620
   150  H   1.0    0.12    0.99    1.43   350.79653   140.90662   204.45564
   151  N   5.0   -0.69    3.00    1.93   359.02898   129.94772   206.82252
   152  C   4.0    0.08    3.98    3.58   357.50706   128.13440   208.17172
   153  C   4.0    0.29    3.01    3.02   355.18791   127.49088   206.55844
   154  O   6.0   -0.42    1.00    1.80   354.37610   128.97390   204.98732
   155  C   4.0   -0.02    3.98    3.58   356.73497   129.26187   210.78073
   156  O   6.0   -0.44    1.99    1.82   356.39398   131.88588   210.71906
   157  H   1.0    0.34    1.00    1.43   358.14918   131.59585   206.38185
   158  H   1.0    0.10    0.99    1.43   358.64791   126.43656   208.47273
   159  H   1.0    0.14    0.99    1.43   354.92881   128.44968   211.37445
   160  H   1.0    0.10    0.99    1.43   358.19019   128.75149   212.16896
   161  H   1.0    0.26    0.99    1.43   358.03182   132.71451   210.52483
   162  N   5.0   -0.51    3.01    1.93   354.23732   125.15728   206.89411
   163  C   4.0    0.08    4.00    3.63   351.84798   124.47075   205.73905
   164  C   4.0    0.29    3.01    3.02   349.72508   125.27852   207.52382
   165  O   6.0   -0.41    1.00    1.80   349.98424   125.21598   209.82903
   166  C   4.0   -0.09    3.98    3.59   351.76895   121.62888   205.14636
   167  C   4.0   -0.16    3.98    3.59   353.82501   121.01327   203.19772
   168  C   4.0   -0.22    3.98    3.59   349.14861   120.92401   204.17672
   169  C   4.0   -0.24    3.98    3.58   354.27252   118.18696   202.86513
   170  H   1.0    0.23    1.00    1.43   354.65236   124.21974   208.50425
   171  H   1.0    0.14    0.99    1.43   351.68200   125.54824   203.98359
   172  H   1.0    0.11    0.99    1.43   352.15155   120.60023   206.90314
   173  H   1.0    0.10    0.99    1.43   353.27587   121.85924   201.39837
   174  H   1.0    0.11    0.99    1.43   355.57934   121.91241   203.80322
   175  H   1.0    0.09    0.99    1.43   349.14513   118.98824   203.49744
   176  H   1.0    0.14    0.99    1.43   347.73709   121.10863   205.65811
   177  H   1.0    0.13    0.99    1.43   348.61286   122.17968   202.63869
   178  H   1.0    0.09    0.99    1.43   355.85975   117.87254   201.60176
   179  H   1.0    0.10    0.99    1.43   354.69632   117.30862   204.67323
   180  H   1.0    0.09    0.99    1.43   352.62772   117.26306   202.05755
   181  N   5.0   -0.47    3.01    1.93   347.63333   126.08880   206.37587
   182  C   4.0    0.09    4.00    3.61   345.47705   126.96492   207.79955
   183  C   4.0    0.28    3.01    3.02   344.05219   124.65905   208.87032
   184  O   6.0   -0.44    1.00    1.80   344.21379   122.58186   207.87722
   185  C   4.0   -0.09    3.99    3.60   343.82699   128.61548   206.11170
   186  C   4.0    0.29    3.00    3.02   345.17976   131.00894   205.27249
   187  O   6.0   -0.40    1.00    1.80   347.41478   131.43472   205.70065
   188  N   5.0   -0.64    3.01    1.93   343.69382   132.61961   204.01851
   189  H   1.0    0.28    1.00    1.43   347.54419   126.17858   204.46432
   190  H   1.0    0.15    0.99    1.43   346.19181   128.06968   209.40587
   191  H   1.0    0.15    0.99    1.43   343.32594   127.58137   204.39550
   192  H   1.0    0.12    0.99    1.43   342.08925   129.13869   207.08280
   193  H   1.0    0.30    1.00    1.43   344.40623   134.28126   203.41302
   194  H   1.0    0.29    1.00    1.43   341.87305   132.18801   203.65359
   195  N   5.0   -0.49    3.01    1.93   342.78816   125.07872   211.02418
   196  C   4.0    0.10    3.99    3.61   341.41650   123.11066   212.33834
   197  C   4.0    0.30    3.01    3.02   338.71617   123.98328   212.90691
   198  O   6.0   -0.41    1.00    1.80   337.98449   126.09472   212.32647
   199  C   4.0    0.05    3.98    3.58   342.80763   122.24940   214.77781
   200  O   6.0   -0.45    1.99    1.82   342.24065   123.75486   216.90746
   201  C   4.0   -0.19    3.98    3.59   345.64469   122.01564   214.31637
   202  H   1.0    0.25    1.00    1.43   342.45699   126.86659   211.60607
   203  H   1.0    0.17    0.99    1.43   341.29407   121.48754   211.05914
   204  H   1.0    0.15    0.99    1.43   342.05595   120.38366   215.23139
   205  H   1.0    0.27    0.99    1.43   343.00423   125.39904   216.68783
   206  H   1.0    0.12    0.99    1.43   346.54879   121.20572   215.96848
   207  H   1.0    0.12    0.99    1.43   345.96346   120.77804   212.71186
   208  H   1.0    0.14    0.99    1.43   346.52591   123.82110   213.87948
   209  N   5.0   -0.47    3.00    1.93   337.34673   122.27552   214.21705
   210  C   4.0    0.10    3.99    3.60   334.68445   122.58514   214.74867
   211  C   4.0    0.09    3.00    3.02   333.95360   122.38918   217.55212
   212  O   6.0   -0.37    1.00    1.80   331.72797   122.49804   218.15599
   213  C   4.0    0.05    3.99    3.60   333.12966   120.50662   213.43439
   214  O   6.0   -0.46    1.99    1.82   334.19415   118.19143   214.24603
   215  C   4.0   -0.20    3.98    3.59   333.12107   120.77430   210.57529
   216  H   1.0    0.28    1.00    1.43   337.91566   120.44744   214.11020
   217  H   1.0    0.15    0.99    1.43   334.07278   124.46361   214.12995
   218  H   1.0    0.15    0.99    1.43   331.18147   120.67793   214.14853
   219  H   1.0    0.24    0.99    1.43   333.28705   116.82749   213.43928
   220  H   1.0    0.10    0.99    1.43   331.94388   119.31850   209.73500
   221  H   1.0    0.11    0.99    1.43   332.35284   122.61202   210.07666
   222  H   1.0    0.17    0.99    1.43   335.02302   120.63338   209.81128
   223  N   5.0   -0.69    3.00    1.93   339.94307   113.47208   215.88923
   224  C   4.0    0.06    3.98    3.59   340.34161   112.62675   213.31324
   225  C   4.0    0.28    3.01    3.02   340.98921   114.94583   211.68534
   226  O   6.0   -0.43    1.00    1.80   340.77636   117.09194   212.51530
   227  C   4.0   -0.22    3.98    3.59   338.00590   111.22203   212.34886
   228  H   1.0    0.30    1.00    1.43   339.04682   115.15281   216.04858
   229  H   1.0    0.11    0.99    1.43   341.97153   111.34960   213.33223
   230  H   1.0    0.10    0.99    1.43   338.14379   110.80647   210.34656
   231  H   1.0    0.10    0.99    1.43   337.80553   109.44365   213.35247
   232  H   1.0    0.11    0.99    1.43   336.32938   112.36551   212.65442
   233  N   5.0   -0.49    3.01    1.93   341.91466   114.36588   209.40389
   234  C   4.0    0.07    3.99    3.60   342.89228   116.17431   207.60937
   235  C   4.0    0.28    3.01    3.02   340.84891   116.91798   205.69166
   236  O   6.0   -0.42    1.00    1.80   339.06702   115.53417   205.20573
   237  C   4.0   -0.14    3.99    3.60   345.13083   115.01124   206.17693
   238  C   4.0   -0.10    3.98    3.58   347.19363   113.88631   207.88041
   239  C   4.0   -0.24    3.98    3.59   349.29787   112.78552   206.23503
   240  C   4.0   -0.22    3.98    3.59   348.26255   115.84213   209.70875
   241  H   1.0    0.23    1.00    1.43   341.84084   112.55311   208.81887
   242  H   1.0    0.14    0.99    1.43   343.45580   117.86553   208.65299
   243  H   1.0    0.11    0.99    1.43   344.39507   113.51755   204.95754
   244  H   1.0    0.10    0.99    1.43   345.94634   116.47956   204.98747
   245  H   1.0    0.11    0.99    1.43   346.37369   112.35403   209.00212
   246  H   1.0    0.11    0.99    1.43   350.70140   111.84502   207.40653
   247  H   1.0    0.10    0.99    1.43   348.53789   111.40876   204.91543
   248  H   1.0    0.09    0.99    1.43   350.22804   114.27923   205.17662
   249  H   1.0    0.10    0.99    1.43   349.81327   115.02812   210.78428
   250  H   1.0    0.10    0.99    1.43   348.95652   117.48960   208.69669
   251  H   1.0    0.12    0.99    1.43   346.83372   116.46030   211.05083
   252  N   5.0   -0.48    3.01    1.93   341.32438   119.09758   204.48190
   253  C   4.0    0.09    3.99    3.61   339.46838   120.26991   202.83524
   254  C   4.0    0.28    3.01    3.02   340.30194   119.94845   200.06928
   255  O   6.0   -0.45    1.00    1.80   342.12419   121.07644   199.19898
   256  C   4.0   -0.09    3.99    3.60   339.23241   123.08998   203.39425
   257  C   4.0    0.29    3.00    3.02   338.51781   123.64192   206.11759
   258  O   6.0   -0.39    1.00    1.80   338.22579   121.98774   207.70435
   259  N   5.0   -0.65    3.00    1.93   338.24929   126.10283   206.63913
   260  H   1.0    0.28    1.00    1.43   342.65248   120.26203   205.21531
   261  H   1.0    0.15    0.99    1.43   337.66649   119.29806   203.15065
   262  H   1.0    0.15    0.99    1.43   341.02661   124.01936   202.96994
   263  H   1.0    0.11    0.99    1.43   337.81058   123.93201   202.16332
   264  H   1.0    0.33    1.00    1.43   337.77840   126.61042   208.42033
   265  H   1.0    0.31    1.00    1.43   338.28145   127.44043   205.25945
   266  N   5.0   -0.48    3.01    1.93   338.95994   118.26938   198.75126
   267  C   4.0    0.07    3.99    3.61   339.35657   117.82855   196.07339
   268  C   4.0    0.27    3.01    3.02   337.68148   119.63828   194.57319
   269  O   6.0   -0.46    1.00    1.80   335.76886   120.55969   195.51010
   270  C   4.0   -0.14    3.98    3.59   338.71717   115.05704   195.51216
   271  C   4.0   -0.16    3.98    3.58   339.38600   114.24963   192.82310
   272  C   4.0   -0.15    3.98    3.59   338.61721   111.51284   192.27988
   273  C   4.0   -0.06    3.98    3.58   340.06013   109.52873   193.78820
   274  N   5.0   -0.70    3.97    2.80   342.73345   109.43752   192.96445
   275  H   1.0    0.29    1.00    1.43   337.28815   117.64701   199.46073
   276  H   1.0    0.12    0.99    1.43   341.33874   118.20640   195.62723
   277  H   1.0    0.12    0.99    1.43   339.75778   113.94081   196.89650
   278  H   1.0    0.12    0.99    1.43   336.70312   114.77301   195.84046
   279  H   1.0    0.14    0.99    1.43   338.36276   115.43802   191.48861
   280  H   1.0    0.11    0.99    1.43   341.39547   114.57223   192.48625
   281  H   1.0    0.10    0.99    1.43   336.61169   111.31878   192.70033
   282  H   1.0    0.12    0.99    1.43   338.87560   111.12870   190.27164
   283  H   1.0    0.11    0.99    1.43   339.97905   109.95863   195.80119
   284  H   1.0    0.11    0.99    1.43   339.22118   107.68054   193.44860
   285  H   1.0    0.23    0.99    1.43   342.87036   108.83609   190.99787
   286  H   1.0    0.25    1.00    1.43   343.51706   111.20134   193.12455
   287  H   1.0    0.27    1.00    1.43   343.80199   108.22105   194.04469
   288  N   5.0   -0.48    3.01    1.93   338.37511   120.14477   192.20328
   289  C   4.0    0.07    3.99    3.61   336.78585   121.68629   190.58399
   290  C   4.0    0.07    3.00    3.02   335.17835   119.96269   188.88887
   291  O   6.0   -0.41    1.00    1.80   336.03780   118.05564   187.91267
   292  C   4.0   -0.14    3.99    3.60   338.36762   123.45362   188.93319
   293  C   4.0   -0.10    3.98    3.58   339.78154   125.49100   190.43495
   294  C   4.0   -0.23    3.98    3.59   341.64695   126.85713   188.70635
   295  C   4.0   -0.21    3.98    3.59   337.96861   127.41129   191.60102
   296  H   1.0    0.23    1.00    1.43   340.05374   119.51103   191.52204
   297  H   1.0    0.15    0.99    1.43   335.50924   122.76155   191.80309
   298  H   1.0    0.12    0.99    1.43   339.73237   122.30372   187.89746
   299  H   1.0    0.10    0.99    1.43   337.12114   124.34646   187.55113
   300  H   1.0    0.13    0.99    1.43   340.83546   124.57536   191.96669
   301  H   1.0    0.11    0.99    1.43   342.63925   128.31248   189.76533
   302  H   1.0    0.11    0.99    1.43   343.03000   125.54637   187.94297
   303  H   1.0    0.10    0.99    1.43   340.63720   127.73892   187.14893
   304  H   1.0    0.10    0.99    1.43   339.01453   128.87941   192.59124
   305  H   1.0    0.12    0.99    1.43   336.82207   128.31604   190.15334
   306  H   1.0    0.12    0.99    1.43   336.69345   126.54263   192.96067
   307  N   5.0   -0.72    3.00    1.93   330.21481   127.34317   184.84261
   308  C   4.0    0.07    3.98    3.59   331.88653   128.73375   186.48850
   309  C   4.0    0.27    3.01    3.02   330.85805   128.99075   189.18467
   310  O   6.0   -0.43    1.00    1.80   331.77582   130.49799   190.68146
   311  C   4.0   -0.15    3.98    3.59   332.51292   131.36185   185.42778
   312  C   4.0   -0.15    3.98    3.59   330.13452   132.82561   184.69316
   313  C   4.0   -0.15    3.98    3.59   330.65780   135.66027   184.53968
   314  C   4.0   -0.06    3.98    3.58   328.40244   137.14979   183.54995
   315  N   5.0   -0.72    3.98    2.81   326.20270   136.97163   185.28944
   316  H   1.0    0.26    1.00    1.43   328.38395   127.88655   184.79454
   317  H   1.0    0.11    0.99    1.43   333.63895   127.62805   186.62880
   318  H   1.0    0.12    0.99    1.43   333.51658   132.37169   186.91903
   319  H   1.0    0.10    0.99    1.43   333.75614   131.17469   183.79661
   320  H   1.0    0.10    0.99    1.43   329.44730   132.15586   182.86559
   321  H   1.0    0.12    0.99    1.43   328.67467   132.45006   186.10026
   322  H   1.0    0.12    0.99    1.43   331.20005   136.34826   186.40614
   323  H   1.0    0.10    0.99    1.43   332.24417   135.97738   183.26388
   324  H   1.0    0.11    0.99    1.43   328.91969   139.13514   183.35359
   325  H   1.0    0.11    0.99    1.43   327.82934   136.42452   181.70704
   326  H   1.0    0.24    1.00    1.43   324.77263   138.13441   184.69170
   327  H   1.0    0.23    0.99    1.43   325.46707   135.11447   185.36456
   328  H   1.0    0.25    1.00    1.43   326.72258   137.46919   187.09233
   329  N   5.0   -0.47    3.01    1.93   328.89818   127.49251   189.74651
   330  C   4.0    0.08    3.99    3.61   327.99422   127.28304   192.32236
   331  C   4.0    0.27    3.02    3.02   329.94570   125.75941   193.80381
   332  O   6.0   -0.42    1.00    1.80   330.92901   123.90179   192.83049
   333  C   4.0    0.04    3.98    3.58   325.44082   125.86298   192.30115
   334  O   6.0   -0.47    1.99    1.82   323.59319   127.18053   190.92618
   335  C   4.0   -0.20    3.98    3.59   324.40098   125.47872   194.96237
   336  H   1.0    0.25    1.00    1.43   328.50861   125.99883   188.60579
   337  H   1.0    0.13    0.99    1.43   327.77097   129.18087   193.11168
   338  H   1.0    0.12    0.99    1.43   325.81390   124.01132   191.41717
   339  H   1.0    0.26    0.99    1.43   324.16666   127.50924   189.19391
   340  H   1.0    0.11    0.99    1.43   322.61441   124.47775   194.83353
   341  H   1.0    0.13    0.99    1.43   325.69935   124.41402   196.14156
   342  H   1.0    0.12    0.99    1.43   324.04578   127.30693   195.82794
   343  N   5.0   -0.49    3.01    1.93   330.55064   126.55246   196.13004
   344  C   4.0    0.07    4.00    3.62   332.06511   124.91958   197.73340
   345  C   4.0    0.28    3.01    3.02   330.35733   122.72993   198.57178
   346  O   6.0   -0.48    1.00    1.80   328.32530   123.15007   199.62915
   347  C   4.0   -0.14    3.98    3.59   333.10078   126.34300   200.01675
   348  C   4.0   -0.12    3.98    3.58   335.24788   128.14751   199.34324
   349  C   4.0    0.31    2.99    3.02   335.90203   129.78440   201.68835
   350  O   6.0   -0.38    1.00    1.80   334.20536   131.11704   202.58235
   351  O   6.0   -0.50    1.00    1.80   338.12681   129.62441   202.54409
   352  H   1.0    0.24    1.00    1.43   329.59225   127.96256   196.98013
   353  H   1.0    0.15    0.99    1.43   333.61797   124.16368   196.59796
   354  H   1.0    0.13    0.99    1.43   331.59104   127.42854   200.91392
   355  H   1.0    0.11    0.99    1.43   333.77835   124.96545   201.40172
   356  H   1.0    0.11    0.99    1.43   336.91939   127.11031   198.72634
   357  H   1.0    0.13    0.99    1.43   334.64614   129.42318   197.83792
   358  N   5.0   -0.48    3.01    1.93   331.16627   120.43924   197.96185
   359  C   4.0    0.08    4.00    3.61   329.86418   118.15969   198.70809
   360  C   4.0    0.26    3.02    3.02   331.60832   116.70508   200.49047
   361  O   6.0   -0.45    1.00    1.80   333.89025   117.07786   200.55392
   362  C   4.0   -0.08    3.98    3.58   329.06575   116.54052   196.40862
   363  C   4.0   -0.21    3.98    3.59   327.40053   118.09377   194.63510
   364  C   4.0   -0.20    3.98    3.59   331.36637   115.51828   195.00298
   365  H   1.0    0.30    1.00    1.43   332.90362   120.23497   197.15996
   366  H   1.0    0.13    0.99    1.43   328.17510   118.75485   199.75035
   367  H   1.0    0.11    0.99    1.43   327.96905   114.95036   197.15318
   368  H   1.0    0.10    0.99    1.43   326.71108   116.91282   193.10521
   369  H   1.0    0.10    0.99    1.43   325.78677   118.87638   195.63907
   370  H   1.0    0.14    0.99    1.43   328.47038   119.65947   193.83515
   371  H   1.0    0.11    0.99    1.43   330.76335   114.39896   193.39321
   372  H   1.0    0.14    0.99    1.43   332.52802   117.06899   194.31791
   373  H   1.0    0.12    0.99    1.43   332.48367   114.34203   196.26039
   374  N   5.0   -0.49    3.01    1.93   330.47210   114.96529   201.93368
   375  C   4.0    0.08    4.00    3.61   331.90984   113.65376   203.85821
   376  C   4.0    0.06    3.00    3.02   330.99608   110.94170   204.15741
   377  O   6.0   -0.40    1.00    1.80   328.75619   110.40379   204.30448
   378  C   4.0   -0.08    3.98    3.58   331.77878   115.07254   206.41467
   379  C   4.0   -0.19    3.98    3.59   329.10506   115.11629   207.49683
   380  C   4.0   -0.22    3.98    3.59   333.66814   113.92889   208.26387
   381  H   1.0    0.25    1.00    1.43   328.55986   114.83853   201.95589
   382  H   1.0    0.14    0.99    1.43   333.88427   113.68845   203.23710
   383  H   1.0    0.13    0.99    1.43   332.37060   117.01645   206.00368
   384  H   1.0    0.11    0.99    1.43   329.05525   116.20852   209.23842
   385  H   1.0    0.13    0.99    1.43   327.80619   115.98124   206.15841
   386  H   1.0    0.14    0.99    1.43   328.46596   113.20877   207.91065
   387  H   1.0    0.10    0.99    1.43   333.65654   115.00588   210.01048
   388  H   1.0    0.11    0.99    1.43   333.20740   111.97191   208.68869
   389  H   1.0    0.14    0.99    1.43   335.56065   114.04004   207.47172
   390  N   5.0   -0.69    3.00    1.93   321.33500   118.15323   202.49495
   391  C   4.0    0.06    3.98    3.59   322.29354   120.70574   202.12536
   392  C   4.0    0.28    3.01    3.02   323.55993   121.57325   204.57861
   393  O   6.0   -0.36    1.00    1.80   322.53698   121.22776   206.63376
   394  C   4.0   -0.21    3.98    3.59   320.13209   122.49791   201.47972
   395  H   1.0    0.28    1.00    1.43   319.62451   118.01465   203.33058
   396  H   1.0    0.11    0.99    1.43   323.70301   120.65073   200.61591
   397  H   1.0    0.11    0.99    1.43   320.90087   124.33020   200.97186
   398  H   1.0    0.10    0.99    1.43   319.07105   121.75758   199.88720
   399  H   1.0    0.13    0.99    1.43   318.89660   122.71538   203.10691
   400  N   5.0   -0.50    3.01    1.93   325.74648   122.81201   204.33786
   401  C   4.0    0.07    3.99    3.60   327.17519   123.55346   206.55799
   402  C   4.0    0.10    3.00    3.02   325.48722   124.84883   208.50804
   403  O   6.0   -0.37    1.00    1.80   325.62992   124.34333   210.76718
   404  C   4.0   -0.20    3.99    3.60   329.31462   125.34009   205.83489
   405  H   1.0    0.28    1.00    1.43   326.63608   122.95072   202.63367
   406  H   1.0    0.13    0.99    1.43   327.96816   121.87262   207.48775
   407  H   1.0    0.12    0.99    1.43   330.27659   126.02928   207.51650
   408  H   1.0    0.11    0.99    1.43   330.68499   124.35352   204.66756
   409  H   1.0    0.13    0.99    1.43   328.61130   126.96228   204.79128
   410  H   1.0    0.29    1.00    1.43   362.75836   120.65083   208.94809
   411  H   1.0    0.14    1.00    1.43   363.70733   115.52543   204.98111
   412  H   1.0    0.30    1.00    1.43   360.81474   111.63550   212.33842
   413  H   1.0    0.15    1.00    1.43   359.05695   105.32821   206.32535
   414  H   1.0    0.31    1.00    1.43   352.68323   103.20711   211.61311
   415  H   1.0    0.16    1.00    1.43   352.53589    99.26765   206.58720
   416  H   1.0    0.29    1.00    1.43   351.70346   138.31195   190.63183
   417  H   1.0    0.13    1.00    1.43   355.67933   119.85926   189.30585
   418  H   1.0    0.30    1.00    1.43   346.95763   118.67192   192.36008
   419  H   1.0    0.12    1.00    1.43   356.83804   138.27050   203.56256
   420  H   1.0    0.29    1.00    1.43   360.38415   130.36288   207.76258
   421  H   1.0    0.16    1.00    1.43   335.29520   122.17437   218.86553
   422  H   1.0    0.30    1.00    1.43   338.99670   112.33004   216.72151
   423  H   1.0    0.13    1.00    1.43   333.36773   120.38833   188.55489
   424  H   1.0    0.29    1.00    1.43   330.76599   127.46597   183.23834
   425  H   1.0    0.12    1.00    1.43   332.24632   109.52707   204.23990
   426  H   1.0    0.29    1.00    1.43   321.18795   117.37830   200.98816
   427  H   1.0    0.15    1.00    1.43   324.22705   126.14402   207.95531

           ------------------------------------------------- 
          |        Self-Consistent Charge Iterations        |
           ------------------------------------------------- 

          ...................................................
          :                      SETUP                      :
          :.................................................:
          :  # basis functions                1015          :
          :  # atomic orbitals                1015          :
          :  # shells                          623          :
          :  # electrons                      1124          :
          :  max. iterations                   250          :
          :  Hamiltonian                  GFN2-xTB          :
          :  restarted?                      false          :
          :  GBSA solvation                   true          :
          :  PC potential                    false          :
          :  electronic temp.          500.0000000     K    :
          :  accuracy                    0.1000000          :
          :  -> integral cutoff          0.3500000E+02      :
          :  -> integral neglect         0.1000000E-08      :
          :  -> SCF convergence          0.1000000E-06 Eh   :
          :  -> wf. convergence          0.1000000E-04 e    :
          :  Broyden damping             0.4000000          :
          ...................................................

 iter      E             dE          RMSdq      gap      omega  full diag
   1   -643.5528561 -0.643553E+03  0.416E+00    1.71       0.0  T
   2   -645.2116821 -0.165883E+01  0.213E+00    1.56       1.0  T
   3   -645.2676424 -0.559603E-01  0.116E+00    1.83       1.0  T
   4   -645.2921530 -0.245106E-01  0.274E-01    1.25       1.0  T
   5   -645.3091076 -0.169547E-01  0.103E-01    1.38       1.0  T
   6   -645.3096354 -0.527745E-03  0.475E-02    1.35       1.0  T
   7   -645.3097002 -0.648072E-04  0.212E-02    1.34       1.0  T
   8   -645.3097524 -0.522304E-04  0.842E-03    1.33       1.0  T
   9   -645.3097587 -0.628252E-05  0.459E-03    1.33       1.1  T
  10   -645.3097604 -0.173367E-05  0.186E-03    1.33       2.6  T
  11   -645.3097607 -0.285216E-06  0.781E-04    1.33       6.2  T
  12   -645.3097608 -0.626959E-07  0.390E-04    1.33      12.4  T
  13   -645.3097608 -0.146159E-07  0.176E-04    1.33      27.5  T
  14   -645.3097608 -0.280659E-08  0.720E-05    1.33      67.2  T
  15   -645.3097608 -0.587193E-09  0.288E-05    1.33     167.7  T

   *** convergence criteria satisfied after 15 iterations ***

         #    Occupation            Energy/Eh            Energy/eV
      -------------------------------------------------------------
         1        2.0000           -0.7403387             -20.1456
       ...           ...                  ...                  ...
       556        2.0000           -0.3708471             -10.0913
       557        2.0000           -0.3692282             -10.0472
       558        2.0000           -0.3638309              -9.9003
       559        2.0000           -0.3623222              -9.8593
       560        2.0000           -0.3618509              -9.8465
       561        2.0000           -0.3579591              -9.7406
       562        2.0000           -0.3497664              -9.5176 (HOMO)
       563        0.0000           -0.3010525              -8.1921 (LUMO)
       564                         -0.2988830              -8.1330
       565                         -0.2937051              -7.9921
       566                         -0.2929973              -7.9729
       567                         -0.2895244              -7.8784
       ...                                ...                  ...
      1015                          0.6586483              17.9227
      -------------------------------------------------------------
                  HL-Gap            0.0487139 Eh            1.3256 eV
             Fermi-level           -0.3255940 Eh           -8.8599 eV

 SCC (total)                   0 d,  0 h,  0 min,  6.339 sec
 SCC setup                      ...        0 min,  0.081 sec (  1.286%)
 Dispersion                     ...        0 min,  0.073 sec (  1.156%)
 integral evaluation            ...        0 min,  0.221 sec (  3.494%)
 zeroth order Hamiltonian       ...        0 min,  0.004 sec (  0.065%)
 iterations                     ...        0 min,  4.882 sec ( 77.011%)
 molecular gradient             ...        0 min,  1.043 sec ( 16.458%)
 printout                       ...        0 min,  0.034 sec (  0.529%)

         :::::::::::::::::::::::::::::::::::::::::::::::::::::
         ::                     SUMMARY                     ::
         :::::::::::::::::::::::::::::::::::::::::::::::::::::
         :: total energy             -637.533869064192 Eh   ::
         :: total w/o Gsasa/hb       -637.459465006203 Eh   ::
         :: gradient norm               0.670765799330 Eh/α ::
         :: HOMO-LUMO gap               1.325572120092 eV   ::
         ::.................................................::
         :: SCC energy               -645.327662981971 Eh   ::
         :: -> isotropic ES             1.851538913492 Eh   ::
         :: -> anisotropic ES          -0.072570621252 Eh   ::
         :: -> anisotropic XC           0.212741227223 Eh   ::
         :: -> dispersion              -0.532158940462 Eh   ::
         :: -> Gsolv                   -0.420308236905 Eh   ::
         ::    -> Gborn                -0.345904178917 Eh   ::
         ::    -> Gsasa                -0.019759619104 Eh   ::
         ::    -> Ghb                  -0.056501882012 Eh   ::
         ::    -> Gshift                0.001857443127 Eh   ::
         :: repulsion energy            7.738519889995 Eh   ::
         :: add. restraining            0.000000000000 Eh   ::
         :::::::::::::::::::::::::::::::::::::::::::::::::::::

           -------------------------------------------------
          |                Property Printout                |
           -------------------------------------------------

    * Orbital Energies and Occupations

         #    Occupation            Energy/Eh            Energy/eV
      -------------------------------------------------------------
         1        2.0000           -0.7403387             -20.1456
       ...           ...                  ...                  ...
       550        2.0000           -0.3929664             -10.6932
       551        2.0000           -0.3902990             -10.6206
       552        2.0000           -0.3864440             -10.5157
       553        2.0000           -0.3803317             -10.3494
       554        2.0000           -0.3772716             -10.2661
       555        2.0000           -0.3709926             -10.0952
       556        2.0000           -0.3708471             -10.0913
       557        2.0000           -0.3692282             -10.0472
       558        2.0000           -0.3638309              -9.9003
       559        2.0000           -0.3623222              -9.8593
       560        2.0000           -0.3618509              -9.8465
       561        2.0000           -0.3579591              -9.7406
       562        2.0000           -0.3497664              -9.5176 (HOMO)
       563        0.0000           -0.3010525              -8.1921 (LUMO)
       564                         -0.2988830              -8.1330
       565                         -0.2937051              -7.9921
       566                         -0.2929973              -7.9729
       567                         -0.2895244              -7.8784
       568                         -0.2874511              -7.8219
       569                         -0.2861750              -7.7872
       570                         -0.2781205              -7.5680
       571                         -0.2703962              -7.3579
       572                         -0.2402838              -6.5385
       573                         -0.2387544              -6.4968
       ...                                ...                  ...
      1015                          0.6586483              17.9227
      -------------------------------------------------------------
                  HL-Gap            0.0487139 Eh            1.3256 eV
             Fermi-level           -0.3255940 Eh           -8.8599 eV

   #   Z        covCN         q      C6AA      α(0)
   1   7 N      2.637    -0.395    30.227     8.165
   2   6 C      3.781     0.043    19.878     6.351
   3   6 C      2.765     0.196    23.824     7.994
   4   8 O      0.856    -0.354    20.783     6.112
   5   6 C      3.757    -0.123    22.910     6.824
   6   1 H      0.860     0.170     1.271     1.766
   7   1 H      0.924     0.049     2.339     2.392
   8   1 H      0.925     0.057     2.234     2.338
   9   1 H      0.925     0.060     2.203     2.321
  10   1 H      0.925     0.063     2.159     2.298
  11   7 N      2.636    -0.394    30.205     8.162
  12   6 C      3.785     0.037    19.966     6.365
  13   6 C      2.758     0.266    22.502     7.768
  14   8 O      0.858    -0.514    24.091     6.581
  15   6 C      3.757    -0.122    22.890     6.821
  16   1 H      0.860     0.160     1.334     1.809
  17   1 H      0.923     0.022     2.711     2.575
  18   1 H      0.925     0.043     2.406     2.426
  19   1 H      0.925     0.047     2.352     2.398
  20   1 H      0.925     0.070     2.085     2.258
  21   7 N      2.691    -0.173    24.735     7.387
  22   6 C      3.794     0.029    20.086     6.382
  23   6 C      2.766     0.204    23.664     7.967
  24   8 O      0.856    -0.367    21.039     6.150
  25   6 C      3.812    -0.076    21.944     6.668
  26   6 C      3.849    -0.016    20.830     6.492
  27   6 C      3.759    -0.120    22.853     6.815
  28   6 C      3.756    -0.123    22.911     6.825
  29   1 H      0.860     0.244     0.906     1.491
  30   1 H      0.924     0.083     1.946     2.181
  31   1 H      0.924     0.060     2.203     2.321
  32   1 H      0.924     0.061     2.185     2.312
  33   1 H      0.924     0.051     2.307     2.375
  34   1 H      0.925     0.051     2.307     2.375
  35   1 H      0.925     0.037     2.495     2.470
  36   1 H      0.925     0.047     2.359     2.402
  37   1 H      0.925     0.052     2.298     2.371
  38   1 H      0.925     0.051     2.313     2.378
  39   1 H      0.925     0.040     2.454     2.450
  40   7 N      2.635    -0.401    30.402     8.189
  41   6 C      3.781     0.048    19.791     6.337
  42   6 C      2.764     0.202    23.698     7.972
  43   8 O      0.856    -0.386    21.407     6.203
  44   6 C      3.758    -0.114    22.729     6.797
  45   1 H      0.860     0.171     1.265     1.762
  46   1 H      0.923     0.052     2.296     2.369
  47   1 H      0.925     0.059     2.211     2.325
  48   1 H      0.925     0.055     2.256     2.349
  49   1 H      0.925     0.058     2.224     2.332
  50   7 N      2.636    -0.385    29.959     8.129
  51   6 C      3.790     0.033    20.030     6.374
  52   6 C      2.760     0.271    22.428     7.755
  53   8 O      0.858    -0.493    23.622     6.516
  54   6 C      3.812    -0.066    21.761     6.640
  55   6 C      3.849    -0.008    20.683     6.469
  56   6 C      3.757    -0.113    22.707     6.794
  57   6 C      3.756    -0.116    22.766     6.803
  58   1 H      0.860     0.157     1.354     1.823
  59   1 H      0.924     0.039     2.456     2.451
  60   1 H      0.924     0.037     2.495     2.470
  61   1 H      0.924     0.025     2.661     2.551
  62   1 H      0.924     0.030     2.587     2.515
  63   1 H      0.925     0.044     2.390     2.418
  64   1 H      0.925     0.027     2.626     2.534
  65   1 H      0.925     0.041     2.436     2.441
  66   1 H      0.925     0.046     2.373     2.409
  67   1 H      0.925     0.042     2.427     2.436
  68   1 H      0.925     0.037     2.485     2.465
  69   7 N      2.696    -0.178    24.848     7.403
  70   6 C      3.799     0.018    20.281     6.412
  71   6 C      2.764     0.269    22.458     7.761
  72   8 O      0.858    -0.497    23.726     6.531
  73   6 C      3.756    -0.123    22.915     6.825
  74   1 H      0.860     0.204     1.085     1.632
  75   1 H      0.924     0.084     1.940     2.178
  76   1 H      0.925     0.070     2.090     2.261
  77   1 H      0.925     0.064     2.158     2.297
  78   1 H      0.925     0.060     2.194     2.317
  79   7 N      2.696    -0.175    24.794     7.395
  80   6 C      3.802     0.023    20.184     6.396
  81   6 C      2.769     0.196    23.809     7.991
  82   8 O      0.856    -0.348    20.678     6.097
  83   6 C      3.852    -0.012    20.746     6.478
  84   6 C      3.759    -0.124    22.921     6.825
  85   6 C      3.759    -0.125    22.943     6.829
  86   1 H      0.860     0.226     0.984     1.554
  87   1 H      0.924     0.082     1.955     2.187
  88   1 H      0.924     0.052     2.294     2.369
  89   1 H      0.925     0.064     2.155     2.296
  90   1 H      0.925     0.048     2.347     2.396
  91   1 H      0.925     0.053     2.284     2.363
  92   1 H      0.925     0.061     2.189     2.314
  93   1 H      0.925     0.053     2.281     2.362
  94   1 H      0.925     0.039     2.466     2.456
  95   7 N      2.636    -0.396    30.273     8.172
  96   6 C      3.787     0.035    20.001     6.370
  97   6 C      2.766     0.276    22.334     7.740
  98   8 O      0.859    -0.491    23.578     6.510
  99   6 C      3.813    -0.066    21.755     6.639
 100   6 C      2.970     0.001    28.010     8.681
 101   6 C      2.924    -0.042    29.046     8.838
 102   6 C      2.925    -0.040    28.989     8.830
 103   6 C      2.917    -0.068    29.684     8.934
 104   6 C      2.917    -0.078    29.953     8.975
 105   6 C      2.847     0.129    25.161     8.221
 106   8 O      1.658    -0.426    21.364     6.240
 107   1 H      0.860     0.175     1.245     1.748
 108   1 H      0.924     0.046     2.369     2.407
 109   1 H      0.924     0.041     2.433     2.439
 110   1 H      0.925     0.032     2.563     2.504
 111   1 H      0.926     0.052     2.294     2.368
 112   1 H      0.926     0.024     2.673     2.557
 113   1 H      0.926     0.073     2.054     2.241
 114   1 H      0.926     0.049     2.338     2.391
 115   1 H      0.804     0.352     0.583     1.199
 116   7 N      2.689    -0.178    24.858     7.405
 117   6 C      3.802     0.027    20.115     6.385
 118   6 C      2.759     0.284    22.189     7.714
 119   8 O      0.858    -0.494    23.651     6.520
 120   6 C      3.677     0.090    19.305     6.294
 121   8 O      1.652    -0.492    22.726     6.435
 122   1 H      0.860     0.228     0.973     1.545
 123   1 H      0.924     0.062     2.174     2.306
 124   1 H      0.923     0.018     2.772     2.604
 125   1 H      0.923     0.035     2.510     2.478
 126   1 H      0.801     0.324     0.653     1.269
 127   7 N      2.691    -0.178    24.861     7.405
 128   6 C      3.803     0.030    20.065     6.377
 129   6 C      2.760     0.273    22.387     7.748
 130   8 O      0.858    -0.484    23.424     6.489
 131   6 C      3.757    -0.115    22.752     6.801
 132   1 H      0.860     0.224     0.992     1.560
 133   1 H      0.924     0.071     2.071     2.250
 134   1 H      0.925     0.072     2.062     2.245
 135   1 H      0.925     0.064     2.153     2.295
 136   1 H      0.925     0.046     2.364     2.405
 137   7 N      2.695    -0.171    24.698     7.381
 138   6 C      3.792     0.012    20.391     6.431
 139   6 C      2.767     0.192    23.903     8.007
 140   8 O      0.856    -0.353    20.765     6.109
 141   6 C      3.725     0.128    18.604     6.159
 142   8 O      1.655    -0.474    22.344     6.381
 143   6 C      3.753    -0.135    23.155     6.862
 144   1 H      0.860     0.222     0.999     1.565
 145   1 H      0.924     0.094     1.845     2.124
 146   1 H      0.923     0.024     2.679     2.560
 147   1 H      0.803     0.321     0.661     1.277
 148   1 H      0.925     0.073     2.054     2.241
 149   1 H      0.925     0.057     2.232     2.336
 150   1 H      0.925     0.072     2.066     2.248
 151   7 N      2.638    -0.389    30.072     8.144
 152   6 C      3.782     0.016    20.324     6.422
 153   6 C      2.758     0.274    22.368     7.745
 154   8 O      0.858    -0.473    23.195     6.457
 155   6 C      3.674     0.075    19.556     6.337
 156   8 O      1.654    -0.477    22.410     6.390
 157   1 H      0.860     0.181     1.210     1.723
 158   1 H      0.924     0.050     2.320     2.382
 159   1 H      0.924     0.033     2.549     2.497
 160   1 H      0.923     0.032     2.557     2.501
 161   1 H      0.803     0.334     0.628     1.245
 162   7 N      2.691    -0.181    24.928     7.415
 163   6 C      3.806     0.019    20.256     6.407
 164   6 C      2.760     0.276    22.339     7.740
 165   8 O      0.858    -0.512    24.050     6.575
 166   6 C      3.853    -0.020    20.889     6.501
 167   6 C      3.804    -0.067    21.778     6.644
 168   6 C      3.756    -0.117    22.794     6.807
 169   6 C      3.752    -0.111    22.679     6.791
 170   1 H      0.860     0.203     1.089     1.635
 171   1 H      0.924     0.071     2.072     2.251
 172   1 H      0.924     0.044     2.402     2.424
 173   1 H      0.924     0.043     2.413     2.429
 174   1 H      0.924     0.043     2.414     2.430
 175   1 H      0.925     0.065     2.143     2.289
 176   1 H      0.925     0.036     2.498     2.472
 177   1 H      0.925     0.041     2.433     2.439
 178   1 H      0.925     0.052     2.299     2.371
 179   1 H      0.925     0.045     2.378     2.411
 180   1 H      0.925     0.049     2.333     2.389
 181   7 N      2.693    -0.167    24.616     7.369
 182   6 C      3.798     0.038    19.946     6.359
 183   6 C      2.753     0.275    22.354     7.742
 184   8 O      0.858    -0.467    23.064     6.439
 185   6 C      3.813    -0.109    22.577     6.763
 186   6 C      2.743     0.294    22.013     7.682
 187   8 O      0.859    -0.489    23.533     6.504
 188   7 N      2.640    -0.275    27.114     7.734
 189   1 H      0.860     0.227     0.980     1.551
 190   1 H      0.923     0.063     2.159     2.298
 191   1 H      0.924     0.100     1.782     2.088
 192   1 H      0.925     0.076     2.025     2.225
 193   1 H      0.860     0.234     0.947     1.524
 194   1 H      0.860     0.226     0.980     1.551
 195   7 N      2.688    -0.169    24.649     7.374
 196   6 C      3.794     0.006    20.493     6.446
 197   6 C      2.752     0.286    22.151     7.707
 198   8 O      0.858    -0.489    23.538     6.505
 199   6 C      3.724     0.104    18.963     6.218
 200   8 O      1.655    -0.480    22.465     6.398
 201   6 C      3.752    -0.126    22.986     6.837
 202   1 H      0.860     0.199     1.109     1.650
 203   1 H      0.924     0.103     1.758     2.073
 204   1 H      0.924     0.074     2.044     2.236
 205   1 H      0.805     0.329     0.641     1.258
 206   1 H      0.925     0.070     2.089     2.260
 207   1 H      0.925     0.050     2.315     2.379
 208   1 H      0.925     0.049     2.332     2.388
 209   7 N      2.688    -0.167    24.610     7.368
 210   6 C      3.790     0.023    20.201     6.401
 211   6 C      2.770     0.204    23.668     7.968
 212   8 O      0.856    -0.357    20.835     6.120
 213   6 C      3.735     0.120    18.703     6.172
 214   8 O      1.656    -0.472    22.305     6.376
 215   6 C      3.752    -0.133    23.124     6.857
 216   1 H      0.860     0.226     0.982     1.553
 217   1 H      0.924     0.096     1.826     2.113
 218   1 H      0.923     0.043     2.407     2.426
 219   1 H      0.805     0.326     0.648     1.264
 220   1 H      0.925     0.060     2.197     2.318
 221   1 H      0.925     0.040     2.445     2.445
 222   1 H      0.925     0.073     2.048     2.238
 223   7 N      2.637    -0.394    30.198     8.161
 224   6 C      3.785     0.028    20.125     6.390
 225   6 C      2.752     0.272    22.402     7.750
 226   8 O      0.858    -0.498    23.745     6.533
 227   6 C      3.755    -0.130    23.046     6.845
 228   1 H      0.860     0.152     1.390     1.847
 229   1 H      0.924     0.052     2.296     2.369
 230   1 H      0.925     0.052     2.292     2.368
 231   1 H      0.925     0.059     2.213     2.326
 232   1 H      0.925     0.046     2.368     2.406
 233   7 N      2.691    -0.171    24.700     7.381
 234   6 C      3.793     0.021    20.232     6.405
 235   6 C      2.756     0.274    22.361     7.744
 236   8 O      0.858    -0.468    23.094     6.443
 237   6 C      3.811    -0.080    22.014     6.678
 238   6 C      3.849    -0.012    20.761     6.481
 239   6 C      3.757    -0.117    22.797     6.808
 240   6 C      3.755    -0.109    22.645     6.785
 241   1 H      0.860     0.211     1.051     1.606
 242   1 H      0.924     0.064     2.151     2.294
 243   1 H      0.924     0.063     2.166     2.301
 244   1 H      0.925     0.061     2.188     2.313
 245   1 H      0.924     0.037     2.491     2.468
 246   1 H      0.925     0.039     2.463     2.454
 247   1 H      0.925     0.053     2.282     2.362
 248   1 H      0.925     0.052     2.291     2.367
 249   1 H      0.925     0.039     2.464     2.455
 250   1 H      0.925     0.041     2.441     2.443
 251   1 H      0.925     0.022     2.705     2.572
 252   7 N      2.691    -0.177    24.825     7.400
 253   6 C      3.796     0.033    20.030     6.373
 254   6 C      2.757     0.268    22.470     7.762
 255   8 O      0.859    -0.480    23.339     6.477
 256   6 C      3.813    -0.093    22.269     6.717
 257   6 C      2.743     0.289    22.094     7.696
 258   8 O      0.859    -0.498    23.742     6.533
 259   7 N      2.639    -0.308    27.923     7.848
 260   1 H      0.860     0.207     1.073     1.623
 261   1 H      0.924     0.072     2.064     2.247
 262   1 H      0.924     0.085     1.926     2.170
 263   1 H      0.924     0.057     2.237     2.339
 264   1 H      0.860     0.211     1.050     1.605
 265   1 H      0.860     0.223     0.995     1.563
 266   7 N      2.693    -0.168    24.625     7.370
 267   6 C      3.795     0.012    20.374     6.428
 268   6 C      2.760     0.268    22.478     7.764
 269   8 O      0.859    -0.494    23.644     6.519
 270   6 C      3.807    -0.091    22.227     6.711
 271   6 C      3.801    -0.088    22.179     6.705
 272   6 C      3.803    -0.098    22.371     6.734
 273   6 C      3.731    -0.055    21.652     6.642
 274   7 N      3.476    -0.136    23.938     7.267
 275   1 H      0.860     0.234     0.948     1.525
 276   1 H      0.924     0.077     2.008     2.216
 277   1 H      0.924     0.083     1.953     2.186
 278   1 H      0.924     0.067     2.115     2.274
 279   1 H      0.925     0.066     2.130     2.282
 280   1 H      0.924     0.062     2.179     2.309
 281   1 H      0.925     0.087     1.913     2.163
 282   1 H      0.924     0.092     1.858     2.132
 283   1 H      0.925     0.114     1.663     2.017
 284   1 H      0.925     0.125     1.577     1.964
 285   1 H      0.850     0.304     0.704     1.315
 286   1 H      0.859     0.270     0.810     1.409
 287   1 H      0.859     0.294     0.731     1.339
 288   7 N      2.689    -0.155    24.345     7.328
 289   6 C      3.795     0.021    20.220     6.403
 290   6 C      2.766     0.198    23.771     7.985
 291   8 O      0.856    -0.341    20.532     6.075
 292   6 C      3.809    -0.076    21.950     6.669
 293   6 C      3.849    -0.012    20.751     6.479
 294   6 C      3.757    -0.121    22.875     6.819
 295   6 C      3.756    -0.104    22.535     6.769
 296   1 H      0.860     0.222     0.999     1.566
 297   1 H      0.924     0.092     1.864     2.135
 298   1 H      0.924     0.077     2.007     2.216
 299   1 H      0.924     0.062     2.180     2.309
 300   1 H      0.924     0.035     2.518     2.482
 301   1 H      0.925     0.035     2.514     2.480
 302   1 H      0.925     0.054     2.273     2.357
 303   1 H      0.925     0.053     2.283     2.363
 304   1 H      0.925     0.027     2.631     2.536
 305   1 H      0.925     0.044     2.394     2.420
 306   1 H      0.925     0.022     2.707     2.573
 307   7 N      2.634    -0.399    30.341     8.181
 308   6 C      3.786     0.027    20.140     6.392
 309   6 C      2.757     0.272    22.407     7.752
 310   8 O      0.858    -0.497    23.720     6.530
 311   6 C      3.806    -0.078    21.977     6.674
 312   6 C      3.802    -0.076    21.957     6.671
 313   6 C      3.803    -0.090    22.211     6.710
 314   6 C      3.731    -0.049    21.556     6.627
 315   7 N      3.481    -0.144    24.107     7.292
 316   1 H      0.860     0.164     1.310     1.793
 317   1 H      0.923     0.050     2.325     2.385
 318   1 H      0.924     0.051     2.308     2.376
 319   1 H      0.925     0.047     2.356     2.400
 320   1 H      0.924     0.062     2.174     2.306
 321   1 H      0.924     0.043     2.411     2.428
 322   1 H      0.924     0.068     2.108     2.271
 323   1 H      0.924     0.081     1.969     2.194
 324   1 H      0.924     0.118     1.628     1.995
 325   1 H      0.924     0.121     1.605     1.981
 326   1 H      0.859     0.302     0.706     1.317
 327   1 H      0.856     0.292     0.739     1.347
 328   1 H      0.859     0.292     0.739     1.346
 329   7 N      2.694    -0.180    24.900     7.411
 330   6 C      3.797     0.006    20.487     6.445
 331   6 C      2.766     0.269    22.465     7.762
 332   8 O      0.859    -0.476    23.249     6.465
 333   6 C      3.728     0.118    18.751     6.182
 334   8 O      1.655    -0.468    22.205     6.361
 335   6 C      3.753    -0.126    22.982     6.836
 336   1 H      0.860     0.221     1.007     1.572
 337   1 H      0.924     0.072     2.065     2.247
 338   1 H      0.923     0.032     2.562     2.503
 339   1 H      0.803     0.342     0.607     1.224
 340   1 H      0.925     0.072     2.069     2.249
 341   1 H      0.925     0.044     2.398     2.422
 342   1 H      0.925     0.057     2.237     2.339
 343   7 N      2.691    -0.175    24.784     7.394
 344   6 C      3.803     0.023    20.181     6.396
 345   6 C      2.759     0.265    22.536     7.774
 346   8 O      0.858    -0.509    23.983     6.566
 347   6 C      3.807    -0.046    21.389     6.584
 348   6 C      3.799    -0.097    22.353     6.732
 349   6 C      2.686     0.368    20.757     7.456
 350   8 O      0.856    -0.601    26.136     6.854
 351   8 O      0.856    -0.629    26.836     6.945
 352   1 H      0.860     0.201     1.102     1.645
 353   1 H      0.924     0.082     1.957     2.188
 354   1 H      0.924     0.051     2.304     2.374
 355   1 H      0.924     0.020     2.739     2.588
 356   1 H      0.924     0.029     2.594     2.519
 357   1 H      0.924     0.043     2.414     2.430
 358   7 N      2.692    -0.163    24.530     7.356
 359   6 C      3.799     0.014    20.339     6.421
 360   6 C      2.763     0.266    22.513     7.770
 361   8 O      0.859    -0.471    23.145     6.450
 362   6 C      3.850    -0.021    20.910     6.504
 363   6 C      3.756    -0.118    22.814     6.810
 364   6 C      3.755    -0.123    22.922     6.827
 365   1 H      0.860     0.249     0.889     1.477
 366   1 H      0.924     0.060     2.194     2.317
 367   1 H      0.924     0.052     2.292     2.367
 368   1 H      0.925     0.065     2.146     2.291
 369   1 H      0.925     0.035     2.520     2.483
 370   1 H      0.925     0.049     2.335     2.390
 371   1 H      0.925     0.070     2.089     2.260
 372   1 H      0.925     0.052     2.292     2.368
 373   1 H      0.925     0.047     2.360     2.402
 374   7 N      2.689    -0.161    24.477     7.348
 375   6 C      3.799     0.014    20.335     6.421
 376   6 C      2.766     0.201    23.716     7.975
 377   8 O      0.856    -0.352    20.755     6.108
 378   6 C      3.851    -0.010    20.723     6.475
 379   6 C      3.754    -0.113    22.721     6.797
 380   6 C      3.755    -0.124    22.930     6.828
 381   1 H      0.860     0.206     1.076     1.625
 382   1 H      0.924     0.107     1.727     2.055
 383   1 H      0.924     0.040     2.453     2.449
 384   1 H      0.925     0.036     2.506     2.476
 385   1 H      0.925     0.041     2.441     2.443
 386   1 H      0.925     0.057     2.233     2.337
 387   1 H      0.925     0.039     2.459     2.452
 388   1 H      0.925     0.051     2.310     2.377
 389   1 H      0.925     0.069     2.096     2.264
 390   7 N      2.637    -0.394    30.208     8.163
 391   6 C      3.785     0.036    19.992     6.369
 392   6 C      2.761     0.272    22.404     7.751
 393   8 O      0.859    -0.495    23.667     6.523
 394   6 C      3.757    -0.121    22.876     6.819
 395   1 H      0.860     0.162     1.322     1.801
 396   1 H      0.924     0.044     2.395     2.420
 397   1 H      0.925     0.047     2.360     2.402
 398   1 H      0.925     0.064     2.150     2.293
 399   1 H      0.925     0.046     2.376     2.410
 400   7 N      2.688    -0.193    25.193     7.455
 401   6 C      3.794     0.040    19.914     6.355
 402   6 C      2.767     0.212    23.506     7.940
 403   8 O      0.856    -0.382    21.317     6.190
 404   6 C      3.758    -0.115    22.753     6.801
 405   1 H      0.860     0.235     0.945     1.523
 406   1 H      0.923     0.069     2.098     2.265
 407   1 H      0.925     0.054     2.275     2.358
 408   1 H      0.925     0.062     2.178     2.308
 409   1 H      0.925     0.068     2.105     2.269
 410   1 H      0.862     0.176     1.235     1.741
 411   1 H      0.930     0.080     1.984     2.202
 412   1 H      0.862     0.175     1.241     1.745
 413   1 H      0.930     0.064     2.149     2.292
 414   1 H      0.862     0.173     1.252     1.753
 415   1 H      0.930     0.069     2.094     2.263
 416   1 H      0.862     0.183     1.195     1.712
 417   1 H      0.930     0.082     1.959     2.188
 418   1 H      0.862     0.191     1.153     1.682
 419   1 H      0.930     0.088     1.900     2.155
 420   1 H      0.862     0.185     1.187     1.707
 421   1 H      0.930     0.090     1.877     2.143
 422   1 H      0.862     0.185     1.183     1.704
 423   1 H      0.930     0.081     1.969     2.194
 424   1 H      0.862     0.194     1.136     1.670
 425   1 H      0.930     0.091     1.869     2.138
 426   1 H      0.862     0.191     1.152     1.681
 427   1 H      0.930     0.072     2.067     2.248

 Mol. C6AA /au·bohr⁶  :    1569552.196520
 Mol. C8AA /au·bohr⁸  :   34312272.369767
 Mol. α(0) /au        :       1866.673492


Wiberg/Mayer (AO) data.
largest (>0.10) Wiberg bond orders for each atom
          total WBO             WBO to atom ...
     1  N   2.996        C    2 1.008    H  410 0.958    H    6 0.953
     2  C   3.985        N    1 1.008    C    5 0.980    C    3 0.973    H    7 0.962
     3  C   3.888        O    4 1.881    C    2 0.973    H  411 0.953
     4  O   2.069        C    3 1.881
     5  C   3.989        H   10 0.983    C    2 0.980    H    8 0.980    H    9 0.979
     6  H   0.971        N    1 0.953
     7  H   0.998        C    2 0.962
     8  H   0.997        C    5 0.980
     9  H   0.996        C    5 0.979
    10  H   0.996        C    5 0.983
    11  N   2.991        C   12 1.010    H  412 0.959    H   16 0.955
    12  C   3.985        N   11 1.010    C   15 0.996    H   17 0.966    C   13 0.933
    13  C   3.945        O   14 1.604    N   21 1.330    C   12 0.933
    14  O   1.943        C   13 1.604    N   21 0.199
    15  C   3.991        C   12 0.996    H   19 0.983    H   18 0.981    H   20 0.974
    16  H   0.974        N   11 0.955
    17  H   0.999        C   12 0.966
    18  H   0.998        C   15 0.981
    19  H   0.997        C   15 0.983
    20  H   0.995        C   15 0.974
    21  N   3.482        C   13 1.330    C   22 0.980    H   29 0.878    O   14 0.199
    22  C   3.966        N   21 0.980    C   23 0.974    C   25 0.965    H   30 0.941
    23  C   3.901        O   24 1.888    C   22 0.974    H  413 0.955
    24  O   2.038        C   23 1.888
    25  C   3.982        C   26 0.988    H   31 0.971    H   32 0.970    C   22 0.965
    26  C   3.992        C   28 1.010    C   27 1.006    C   25 0.988    H   33 0.960
    27  C   3.993        C   26 1.006    H   35 0.987    H   36 0.986    H   34 0.981
    28  C   3.994        C   26 1.010    H   38 0.985    H   37 0.983    H   39 0.982
    29  H   0.940        N   21 0.878
    30  H   0.993        C   22 0.941
    31  H   0.996        C   25 0.971
    32  H   0.995        C   25 0.970
    33  H   0.997        C   26 0.960
    34  H   0.996        C   27 0.981
    35  H   0.999        C   27 0.987
    36  H   0.998        C   27 0.986
    37  H   0.997        C   28 0.983
    38  H   0.997        C   28 0.985
    39  H   0.998        C   28 0.982
    40  N   2.993        C   41 1.025    H  414 0.959    H   45 0.936
    41  C   3.987        N   40 1.025    C   42 0.980    C   44 0.975    H   46 0.940
    42  C   3.889        O   43 1.883    C   41 0.980    H  415 0.954
    43  O   2.024        C   42 1.883
    44  C   3.991        H   47 0.984    H   48 0.983    H   49 0.981    C   41 0.975
    45  H   0.971        N   40 0.936
    46  H   0.997        C   41 0.940
    47  H   0.997        C   44 0.984
    48  H   0.997        C   44 0.983
    49  H   0.997        C   44 0.981
    50  N   3.000        C   51 1.023    H   58 0.958    H  416 0.953
    51  C   3.988        N   50 1.023    C   54 0.965    H   59 0.957    C   52 0.943
    52  C   3.942        O   53 1.621    N   69 1.298    C   51 0.943
    53  O   1.956        C   52 1.621    N   69 0.191
    54  C   3.994        C   55 0.992    H   61 0.975    H   60 0.971    C   51 0.965
    55  C   3.995        C   57 1.010    C   56 1.007    C   54 0.992    H   62 0.967
    56  C   3.995        C   55 1.007    H   64 0.987    H   65 0.986    H   63 0.986
    57  C   3.996        C   55 1.010    H   67 0.986    H   66 0.985    H   68 0.984
    58  H   0.975        N   50 0.958
    59  H   0.998        C   51 0.957
    60  H   0.999        C   54 0.971
    61  H   0.999        C   54 0.975
    62  H   0.999        C   55 0.967
    63  H   0.997        C   56 0.986
    64  H   0.999        C   56 0.987
    65  H   0.998        C   56 0.986
    66  H   0.998        C   57 0.985
    67  H   0.998        C   57 0.986
    68  H   0.999        C   57 0.984
    69  N   3.468        C   52 1.298    C   70 0.984    H   74 0.920    O   53 0.191
    70  C   3.963        N   69 0.984    C   73 0.975    C   71 0.944    H   75 0.942
    71  C   3.952        O   72 1.626    N   79 1.307    C   70 0.944
    72  O   1.946        C   71 1.626    N   79 0.194
    73  C   3.986        H   78 0.985    H   77 0.981    H   76 0.980    C   70 0.975
    74  H   0.958        N   69 0.920
    75  H   0.993        C   70 0.942
    76  H   0.995        C   73 0.980
    77  H   0.995        C   73 0.981
    78  H   0.996        C   73 0.985
    79  N   3.474        C   71 1.307    C   80 0.970    H   86 0.889    O   72 0.194
    80  C   3.958        N   79 0.970    C   81 0.968    H   87 0.955    C   83 0.953
    81  C   3.897        O   82 1.887    C   80 0.968    H  417 0.953
    82  O   2.064        C   81 1.887
    83  C   3.986        C   85 1.008    C   84 1.006    H   88 0.960    C   80 0.953
    84  C   3.991        C   83 1.006    H   91 0.984    H   90 0.982    H   89 0.980
    85  C   3.992        C   83 1.008    H   93 0.984    H   94 0.979    H   92 0.978
    86  H   0.949        N   79 0.889
    87  H   0.993        C   80 0.955
    88  H   0.997        C   83 0.960
    89  H   0.995        C   84 0.980
    90  H   0.998        C   84 0.982
    91  H   0.997        C   84 0.984
    92  H   0.996        C   85 0.978
    93  H   0.997        C   85 0.984
    94  H   0.998        C   85 0.979
    95  N   2.998        C   96 1.022    H  418 0.947    H  107 0.926
    96  C   3.985        N   95 1.022    H  108 0.954    C   99 0.946    C   97 0.945
    97  C   3.930        O   98 1.615    N  116 1.289    C   96 0.945
    98  O   1.967        C   97 1.615    N  116 0.179
    99  C   3.993        C  100 1.013    H  110 0.966    H  109 0.965    C   96 0.946
   100  C   3.988        C  102 1.407    C  101 1.402    C   99 1.013
   101  C   3.989        C  103 1.453    C  100 1.402    H  111 0.965    C  104 0.105
   102  C   3.991        C  104 1.450    C  100 1.407    H  112 0.968    C  103 0.108
   103  C   3.985        C  101 1.453    C  105 1.372    H  113 0.965    C  102 0.108
   104  C   3.986        C  102 1.450    C  105 1.376    H  114 0.964    C  101 0.105
   105  C   3.944        C  104 1.376    C  103 1.372    O  106 1.060
   106  O   2.091        C  105 1.060    H  115 0.855
   107  H   0.969        N   95 0.926
   108  H   0.997        C   96 0.954
   109  H   0.998        C   99 0.965
   110  H   0.999        C   99 0.966
   111  H   0.997        C  101 0.965
   112  H   0.999        C  102 0.968
   113  H   0.994        C  103 0.965
   114  H   0.997        C  104 0.964
   115  H   0.876        O  106 0.855
   116  N   3.440        C   97 1.289    C  117 0.990    H  122 0.895    O   98 0.179
   117  C   3.978        N  116 0.990    C  120 0.977    H  123 0.955    C  118 0.932
   118  C   3.947        O  119 1.606    N  127 1.322    C  117 0.932
   119  O   1.952        C  118 1.606    N  127 0.196
   120  C   3.966        O  121 1.010    C  117 0.977    H  124 0.969    H  125 0.961
   121  O   1.927        C  120 1.010    H  126 0.800
   122  H   0.947        N  116 0.895
   123  H   0.996        C  117 0.955
   124  H   0.999        C  120 0.969
   125  H   0.998        C  120 0.961
   126  H   0.895        O  121 0.800
   127  N   3.484        C  118 1.322    C  128 0.985    H  132 0.895    O  119 0.196
   128  C   3.966        N  127 0.985    C  131 0.977    H  133 0.949    C  129 0.943
   129  C   3.950        O  130 1.634    N  137 1.299    C  128 0.943
   130  O   1.959        C  129 1.634    N  137 0.199
   131  C   3.988        H  136 0.986    H  134 0.980    C  128 0.977    H  135 0.977
   132  H   0.950        N  127 0.895
   133  H   0.995        C  128 0.949
   134  H   0.994        C  131 0.980
   135  H   0.995        C  131 0.977
   136  H   0.998        C  131 0.986
   137  N   3.477        C  129 1.299    C  138 0.990    H  144 0.900    O  130 0.199
   138  C   3.965        C  139 0.992    N  137 0.990    H  145 0.947    C  141 0.904
   139  C   3.907        O  140 1.884    C  138 0.992    H  419 0.951
   140  O   2.058        C  139 1.884
   141  C   3.955        O  142 1.010    C  143 1.003    H  146 0.963    C  138 0.904
   142  O   1.964        C  141 1.010    H  147 0.833
   143  C   3.987        C  141 1.003    H  149 0.983    H  150 0.982    H  148 0.981
   144  H   0.951        N  137 0.900
   145  H   0.991        C  138 0.947
   146  H   0.999        C  141 0.963
   147  H   0.897        O  142 0.833
   148  H   0.994        C  143 0.981
   149  H   0.997        C  143 0.983
   150  H   0.995        C  143 0.982
   151  N   3.000        C  152 1.035    H  420 0.951    H  157 0.932
   152  C   3.989        N  151 1.035    H  158 0.959    C  153 0.947    C  155 0.938
   153  C   3.942        O  154 1.648    N  162 1.273    C  152 0.947
   154  O   1.984        C  153 1.648    N  162 0.184
   155  C   3.955        O  156 1.012    H  159 0.973    H  160 0.970    C  152 0.938
   156  O   1.952        C  155 1.012    H  161 0.868
   157  H   0.967        N  151 0.932
   158  H   0.997        C  152 0.959
   159  H   0.999        C  155 0.973
   160  H   0.999        C  155 0.970
   161  H   0.889        O  156 0.868
   162  N   3.437        C  153 1.273    C  163 0.979    H  170 0.924    O  154 0.184
   163  C   3.961        N  162 0.979    C  166 0.959    H  171 0.950    C  164 0.937
   164  C   3.943        O  165 1.618    N  181 1.311    C  163 0.937
   165  O   1.927        C  164 1.618    N  181 0.195
   166  C   3.985        C  168 1.008    C  167 0.992    H  172 0.964    C  163 0.959
   167  C   3.992        C  169 1.019    C  166 0.992    H  173 0.975    H  174 0.973
   168  C   3.991        C  166 1.008    H  177 0.978    H  176 0.978    H  175 0.974
   169  C   3.993        C  167 1.019    H  179 0.985    H  178 0.982    H  180 0.982
   170  H   0.958        N  162 0.924
   171  H   0.995        C  163 0.950
   172  H   0.998        C  166 0.964
   173  H   0.998        C  167 0.975
   174  H   0.998        C  167 0.973
   175  H   0.995        C  168 0.974
   176  H   0.999        C  168 0.978
   177  H   0.998        C  168 0.978
   178  H   0.997        C  169 0.982
   179  H   0.998        C  169 0.985
   180  H   0.998        C  169 0.982
   181  N   3.482        C  164 1.311    C  182 0.994    H  189 0.892    O  165 0.195
   182  C   3.976        N  181 0.994    C  185 0.988    H  190 0.948    C  183 0.926
   183  C   3.947        O  184 1.634    N  195 1.298    C  182 0.926
   184  O   1.977        C  183 1.634    N  195 0.192
   185  C   3.990        C  182 0.988    C  186 0.969    H  192 0.955    H  191 0.937
   186  C   3.946        O  187 1.616    N  188 1.328    C  185 0.969
   187  O   1.976        C  186 1.616    N  188 0.197
   188  N   3.412        C  186 1.328    H  194 0.926    H  193 0.922    O  187 0.197
   189  H   0.948        N  181 0.892
   190  H   0.995        C  182 0.948
   191  H   0.990        C  185 0.937
   192  H   0.994        C  185 0.955
   193  H   0.944        N  188 0.922
   194  H   0.949        N  188 0.926
   195  N   3.471        C  183 1.298    C  196 0.987    H  202 0.926    O  184 0.192
   196  C   3.958        N  195 0.987    C  197 0.947    C  199 0.936    H  203 0.930
   197  C   3.947        O  198 1.630    N  209 1.286    C  196 0.947
   198  O   1.961        C  197 1.630    N  209 0.184
   199  C   3.950        C  201 1.001    O  200 0.996    H  204 0.954    C  196 0.936
   200  O   1.948        C  199 0.996    H  205 0.876
   201  C   3.991        C  199 1.001    H  208 0.983    H  206 0.982    H  207 0.981
   202  H   0.960        N  195 0.926
   203  H   0.989        C  196 0.930
   204  H   0.994        C  199 0.954
   205  H   0.892        O  200 0.876
   206  H   0.994        C  201 0.982
   207  H   0.997        C  201 0.981
   208  H   0.998        C  201 0.983
   209  N   3.454        C  197 1.286    C  210 0.999    H  216 0.909    O  198 0.184
   210  C   3.971        N  209 0.999    C  211 0.975    C  213 0.943    H  217 0.929
   211  C   3.900        O  212 1.903    C  210 0.975    H  421 0.950
   212  O   2.053        C  211 1.903
   213  C   3.954        C  215 1.003    O  214 0.988    H  218 0.956    C  210 0.943
   214  O   1.944        C  213 0.988    H  219 0.869
   215  C   3.989        C  213 1.003    H  221 0.982    H  220 0.972    H  222 0.972
   216  H   0.949        N  209 0.909
   217  H   0.991        C  210 0.929
   218  H   0.997        C  213 0.956
   219  H   0.894        O  214 0.869
   220  H   0.996        C  215 0.972
   221  H   0.998        C  215 0.982
   222  H   0.995        C  215 0.972
   223  N   2.988        C  224 1.022    H  228 0.956    H  422 0.952
   224  C   3.986        N  223 1.022    C  227 0.986    H  229 0.951    C  225 0.941
   225  C   3.940        O  226 1.636    N  233 1.293    C  224 0.941
   226  O   1.963        C  225 1.636    N  233 0.191
   227  C   3.992        C  224 0.986    H  232 0.984    H  231 0.983    H  230 0.981
   228  H   0.977        N  223 0.956
   229  H   0.997        C  224 0.951
   230  H   0.997        C  227 0.981
   231  H   0.996        C  227 0.983
   232  H   0.998        C  227 0.984
   233  N   3.466        C  225 1.293    C  234 0.988    H  241 0.921    O  226 0.191
   234  C   3.966        N  233 0.988    C  237 0.970    H  242 0.948    C  235 0.932
   235  C   3.947        O  236 1.647    N  252 1.284    C  234 0.932
   236  O   1.963        C  235 1.647    N  252 0.190
   237  C   3.985        C  238 0.992    H  243 0.972    C  234 0.970    H  244 0.967
   238  C   3.994        C  240 1.010    C  239 1.006    C  237 0.992    H  245 0.967
   239  C   3.993        C  238 1.006    H  246 0.985    H  247 0.985    H  248 0.983
   240  C   3.995        C  238 1.010    H  250 0.984    H  251 0.983    H  249 0.982
   241  H   0.955        N  233 0.921
   242  H   0.996        C  234 0.948
   243  H   0.996        C  237 0.972
   244  H   0.996        C  237 0.967
   245  H   0.998        C  238 0.967
   246  H   0.998        C  239 0.985
   247  H   0.997        C  239 0.985
   248  H   0.997        C  239 0.983
   249  H   0.998        C  240 0.982
   250  H   0.998        C  240 0.984
   251  H   1.000        C  240 0.983
   252  N   3.454        C  235 1.284    C  253 0.979    H  260 0.910    O  236 0.190
   253  C   3.967        C  256 0.990    N  252 0.979    H  261 0.954    C  254 0.924
   254  C   3.954        O  255 1.622    N  266 1.327    C  253 0.924
   255  O   1.966        C  254 1.622    N  266 0.203
   256  C   3.993        C  253 0.990    C  257 0.967    H  263 0.952    H  262 0.945
   257  C   3.944        O  258 1.628    N  259 1.312    C  256 0.967
   258  O   1.945        C  257 1.628    N  259 0.196
   259  N   3.391        C  257 1.312    H  264 0.917    H  265 0.888    O  258 0.196
   260  H   0.957        N  252 0.910
   261  H   0.994        C  253 0.954
   262  H   0.993        C  256 0.945
   263  H   0.996        C  256 0.952
   264  H   0.954        N  259 0.917
   265  H   0.950        N  259 0.888
   266  N   3.480        C  254 1.327    C  267 0.978    H  275 0.888    O  255 0.203
   267  C   3.957        N  266 0.978    C  270 0.966    H  276 0.943    C  268 0.941
   268  C   3.945        O  269 1.596    N  288 1.317    C  267 0.941
   269  O   1.978        C  268 1.596    N  288 0.192
   270  C   3.977        C  271 1.006    H  278 0.967    C  267 0.966    H  277 0.964
   271  C   3.989        C  270 1.006    C  272 1.006    H  280 0.968    H  279 0.968
   272  C   3.984        C  273 1.012    C  271 1.006    H  282 0.966    H  281 0.965
   273  C   3.916        C  272 1.012    H  284 0.963    H  283 0.959    N  274 0.959
   274  N   3.670        C  273 0.959    H  286 0.902    H  285 0.890    H  287 0.882
   275  H   0.945        N  266 0.888
   276  H   0.994        C  267 0.943
   277  H   0.993        C  270 0.964
   278  H   0.995        C  270 0.967
   279  H   0.996        C  271 0.968
   280  H   0.996        C  271 0.968
   281  H   0.992        C  272 0.965
   282  H   0.991        C  272 0.966
   283  H   0.987        C  273 0.959
   284  H   0.984        C  273 0.963
   285  H   0.908        N  274 0.890
   286  H   0.927        N  274 0.902
   287  H   0.913        N  274 0.882
   288  N   3.491        C  268 1.317    C  289 0.979    H  296 0.916    O  269 0.192
   289  C   3.962        N  288 0.979    C  290 0.967    C  292 0.964    H  297 0.941
   290  C   3.905        O  291 1.913    C  289 0.967    H  423 0.953
   291  O   2.053        C  290 1.913
   292  C   3.985        C  293 0.991    H  298 0.968    H  299 0.968    C  289 0.964
   293  C   3.995        C  295 1.010    C  294 1.006    C  292 0.991    H  300 0.967
   294  C   3.992        C  293 1.006    H  303 0.985    H  301 0.985    H  302 0.985
   295  C   3.995        C  293 1.010    H  304 0.984    H  305 0.983    H  306 0.982
   296  H   0.950        N  288 0.916
   297  H   0.992        C  289 0.941
   298  H   0.994        C  292 0.968
   299  H   0.995        C  292 0.968
   300  H   0.999        C  293 0.967
   301  H   0.997        C  294 0.985
   302  H   0.997        C  294 0.985
   303  H   0.997        C  294 0.985
   304  H   0.999        C  295 0.984
   305  H   0.998        C  295 0.983
   306  H   1.000        C  295 0.982
   307  N   2.995        C  308 1.023    H  316 0.953    H  424 0.947
   308  C   3.984        N  307 1.023    C  311 0.974    C  309 0.946    H  317 0.937
   309  C   3.938        O  310 1.649    N  329 1.269    C  308 0.946
   310  O   1.954        C  309 1.649    N  329 0.184
   311  C   3.992        C  312 1.007    H  319 0.977    C  308 0.974    H  318 0.971
   312  C   3.995        C  313 1.007    C  311 1.007    H  320 0.975    H  321 0.972
   313  C   3.987        C  314 1.013    C  312 1.007    H  322 0.971    H  323 0.966
   314  C   3.913        C  313 1.013    H  324 0.964    H  325 0.963    N  315 0.953
   315  N   3.666        C  314 0.953    H  328 0.899    H  326 0.895    H  327 0.895
   316  H   0.973        N  307 0.953
   317  H   0.997        C  308 0.937
   318  H   0.997        C  311 0.971
   319  H   0.997        C  311 0.977
   320  H   0.996        C  312 0.975
   321  H   0.998        C  312 0.972
   322  H   0.995        C  313 0.971
   323  H   0.993        C  313 0.966
   324  H   0.986        C  314 0.964
   325  H   0.985        C  314 0.963
   326  H   0.909        N  315 0.895
   327  H   0.915        N  315 0.895
   328  H   0.915        N  315 0.899
   329  N   3.435        C  309 1.269    C  330 0.986    H  336 0.909    O  310 0.184
   330  C   3.972        N  329 0.986    H  337 0.956    C  333 0.948    C  331 0.938
   331  C   3.946        O  332 1.638    N  343 1.288    C  330 0.938
   332  O   1.954        C  331 1.638    N  343 0.193
   333  C   3.960        C  335 1.005    O  334 1.004    H  338 0.956    C  330 0.948
   334  O   1.948        C  333 1.004    H  339 0.863
   335  C   3.990        C  333 1.005    H  342 0.984    H  340 0.981    H  341 0.979
   336  H   0.951        N  329 0.909
   337  H   0.995        C  330 0.956
   338  H   0.999        C  333 0.956
   339  H   0.883        O  334 0.863
   340  H   0.994        C  335 0.981
   341  H   0.998        C  335 0.979
   342  H   0.997        C  335 0.984
   343  N   3.466        C  331 1.288    C  344 0.977    H  352 0.927    O  332 0.193
   344  C   3.964        C  347 0.985    N  343 0.977    H  353 0.948    C  345 0.928
   345  C   3.951        O  346 1.570    N  358 1.362    C  344 0.928
   346  O   1.937        C  345 1.570    N  358 0.200
   347  C   3.993        C  348 0.999    C  344 0.985    H  355 0.969    H  354 0.969
   348  C   3.992        C  347 0.999    H  356 0.978    H  357 0.968    C  349 0.924
   349  C   3.929        O  350 1.565    O  351 1.405    C  348 0.924
   350  O   1.853        C  349 1.565    O  351 0.201
   351  O   1.842        C  349 1.405    O  350 0.201
   352  H   0.960        N  343 0.927
   353  H   0.993        C  344 0.948
   354  H   0.997        C  347 0.969
   355  H   0.999        C  347 0.969
   356  H   0.999        C  348 0.978
   357  H   0.998        C  348 0.968
   358  N   3.508        C  345 1.362    C  359 0.986    H  365 0.859    O  346 0.200
   359  C   3.962        N  358 0.986    H  366 0.948    C  362 0.947    C  360 0.940
   360  C   3.950        O  361 1.625    N  374 1.298    C  359 0.940
   361  O   1.981        C  360 1.625    N  374 0.194
   362  C   3.985        C  364 1.009    C  363 1.008    H  367 0.965    C  359 0.947
   363  C   3.992        C  362 1.008    H  369 0.986    H  370 0.983    H  368 0.982
   364  C   3.992        C  362 1.009    H  371 0.982    H  372 0.981    H  373 0.981
   365  H   0.938        N  358 0.859
   366  H   0.996        C  359 0.948
   367  H   0.997        C  362 0.965
   368  H   0.995        C  363 0.982
   369  H   0.999        C  363 0.986
   370  H   0.998        C  363 0.983
   371  H   0.995        C  364 0.982
   372  H   0.997        C  364 0.981
   373  H   0.998        C  364 0.981
   374  N   3.474        C  360 1.298    C  375 0.980    H  381 0.924    O  361 0.194
   375  C   3.960        C  376 0.984    N  374 0.980    H  382 0.948    C  378 0.931
   376  C   3.903        O  377 1.908    C  375 0.984    H  425 0.951
   377  O   2.052        C  376 1.908
   378  C   3.989        C  379 1.012    C  380 1.008    H  383 0.961    C  375 0.931
   379  C   3.994        C  378 1.012    H  385 0.983    H  386 0.982    H  384 0.979
   380  C   3.991        C  378 1.008    H  388 0.984    H  389 0.977    H  387 0.974
   381  H   0.957        N  374 0.924
   382  H   0.989        C  375 0.948
   383  H   0.998        C  378 0.961
   384  H   0.999        C  379 0.979
   385  H   0.998        C  379 0.983
   386  H   0.997        C  379 0.982
   387  H   0.998        C  380 0.974
   388  H   0.997        C  380 0.984
   389  H   0.995        C  380 0.977
   390  N   2.992        C  391 1.015    H  395 0.958    H  426 0.952
   391  C   3.987        N  390 1.015    C  394 0.985    H  396 0.963    C  392 0.939
   392  C   3.937        O  393 1.629    N  400 1.300    C  391 0.939
   393  O   1.975        C  392 1.629    N  400 0.194
   394  C   3.992        H  399 0.986    H  397 0.985    C  391 0.985    H  398 0.981
   395  H   0.974        N  390 0.958
   396  H   0.998        C  391 0.963
   397  H   0.998        C  394 0.985
   398  H   0.995        C  394 0.981
   399  H   0.998        C  394 0.986
   400  N   3.452        C  392 1.300    C  401 0.981    H  405 0.876    O  393 0.194
   401  C   3.975        C  404 0.983    N  400 0.981    C  402 0.975    H  406 0.949
   402  C   3.903        O  403 1.879    C  401 0.975    H  427 0.954
   403  O   2.029        C  402 1.879
   404  C   3.987        C  401 0.983    H  409 0.982    H  407 0.981    H  408 0.976
   405  H   0.945        N  400 0.876
   406  H   0.995        C  401 0.949
   407  H   0.996        C  404 0.981
   408  H   0.996        C  404 0.976
   409  H   0.995        C  404 0.982
   410  H   0.969        N    1 0.958
   411  H   0.994        C    3 0.953
   412  H   0.969        N   11 0.959
   413  H   0.996        C   23 0.955
   414  H   0.970        N   40 0.959
   415  H   0.995        C   42 0.954
   416  H   0.966        N   50 0.953
   417  H   0.993        C   81 0.953
   418  H   0.963        N   95 0.947
   419  H   0.992        C  139 0.951
   420  H   0.965        N  151 0.951
   421  H   0.992        C  211 0.950
   422  H   0.965        N  223 0.952
   423  H   0.993        C  290 0.953
   424  H   0.962        N  307 0.947
   425  H   0.991        C  376 0.951
   426  H   0.963        N  390 0.952
   427  H   0.995        C  402 0.954
 
molecular dipole:
                 x           y           z       tot (Debye)
 q only:      336.526     118.223     166.812
   full:      336.332     121.282     168.125    1004.236
molecular quadrupole (traceless):
                xx          xy          yy          xz          yz          zz
 q only:    92933.685   59369.795  -56009.257   84464.195   29197.448  -36924.428
  q+dip:    92198.551   60921.445  -55489.579   85105.681   30353.287  -36708.971
   full:    92196.716   60921.100  -55490.028   85108.905   30352.542  -36706.688


           -------------------------------------------------
          | TOTAL ENERGY             -637.533869064192 Eh   |
          | GRADIENT NORM               0.670765799330 Eh/α |
          | HOMO-LUMO GAP               1.325572120092 eV   |
           -------------------------------------------------

------------------------------------------------------------------------
 * finished run on 2019/05/31 at 05:35:26.153     
------------------------------------------------------------------------
 total:
 * wall-time:     0 d,  0 h,  0 min,  6.895 sec
 *  cpu-time:     0 d,  0 h,  0 min, 12.844 sec
 * ratio c/w:     1.863 speedup
 SCF:
 * wall-time:     0 d,  0 h,  0 min,  6.340 sec
 *  cpu-time:     0 d,  0 h,  0 min, 11.996 sec
 * ratio c/w:     1.892 speedup

