      -----------------------------------------------------------      
     |                   =====================                   |     
     |                           x T B                           |     
     |                   =====================                   |     
     |                         S. Grimme                         |     
     |          Mulliken Center for Theoretical Chemistry        |     
     |                    University of Bonn                     |     
     |                Version 6.1 RC1 (SAW190329)                |     
      -----------------------------------------------------------      

   This program is distributed in the hope that it will be useful,
   but WITHOUT ANY WARRANTY; without even the implied warranty of
   MERCHANTABILITY or FITNESS FOR A PARTICULAR PURPOSE.
   
   FOR NON-COMMERCIAL, ACADEMIA USE ONLY.
   
   Cite this work as:
   S. Grimme, C. Bannwarth, P. Shushkov, J. Comput. Theory Chem., 2017,
   13, 1989-2009. DOI: 10.1021/acs.jctc.7b00118
   C. Bannwarth, S. Ehlert and S. Grimme., J. Comput. Theory Chem., 2019,
   just accepted. DOI: 10.1021/acs.jctc.8b01176
   
   for sTDA-xTB:
   S. Grimme and C. Bannwarth, J. Chem. Phys., 2016, 145, 054103.
   DOI: 10.1063/1.4959605
   
   in the mass-spec context:
   V. Asgeirsson, C. Bauer and S. Grimme, Chem. Sci., 2017, 8, 4879.
   DOI: 10.1039/c7sc00601b
   
   for metadynamics refer to:
   S. Grimme, ChemRxiv, Preprint. DOI: 10.26434/chemrxiv.7660532.v1
   
   with help from (in alphabetical order)
   C. Bannwarth, F. Bohle, G. Brandenburg, E. Caldeweyher, M. Checinski,
   S. Dohm, S. Ehlert, S. Ehrlich, F. März, H. Neugebauer, J. Pisarek,
   P. Pracht, P. Shushkov, and S. Spicher.
   
 * started run on 2019/05/31 at 07:35:56.946     

           -------------------------------------------------
          |                Calculation Setup                |
           -------------------------------------------------

          program call               : /home/lum/install/xtb/xtb-190329/bin/xtb xtb_tmp.xyz --chrg -1 --grad --gfn 2 --etemp 500 --acc 0.1 --gbsa h2o --parallel 1
          hostname                   : cu05
          coordinate file            : xtb_tmp.xyz
          omp threads                :                     1
          number of atoms            :                   558
          number of electrons        :                  1486
          charge                     :                    -1
          spin                       :                   0.0
          first test random number   :      0.80695904912032


molecular fragmentation (1/2 indicates fragments):
111111111111111111112222222222222222222222222222222222222222222222222222
222222222222222222222222222222222222222222222222222222222222222222222222
222222222222222222222222222222222222222222222222222222222222222222222222
222222222222222222222222222222222222222222222222222222222222222222222222
222222222222222222222222222222222222222222222222222222222222222222222222
222222222222222222222222222222222222222222222222222222222222222222222222
222222222222222222222222222222222222222222222222222222222222222222222222
222222222222222222222222222222221122222222222222222222
# atoms in fragment 1/2:    22   536
 fragment masses (1/2) :      149.19     3618.43
CMA distance (Bohr)    :  22.946
constraining FC (au)   :  0.0500

########################################################################
# WARNING! Please study the warnings concerning your input carefully
#  - XTBPATH is not set, using XTBHOME instead
########################################################################

           ------------------------------------------------- 
          |                 G F N 2 - x T B                 |
          | Geometry, Frequencies, Noncovalent interactions |
          |            JCTC 2018 parametrisation            |
           ------------------------------------------------- 
 
             k(s)              :                1.8500
             k(p)              :                2.2300
             k(d)              :                2.2300
             k(f)              :                2.0000
             kEN (H0ij)        :               -2.0000
             D4 a1             :                0.5200
             D4 a2             :                5.0000
             D4 s6             :                1.0000
             D4 s8             :                2.7000
             D4 s9             :                5.0000
             alphaj            :                2.0000

  Z AO/shell   Hii/eV     exponent
  1     Wed Apr 25 08:07:45 CEST 2018   EN: 2.200 GM2: 0.406  GM3: 0.0800  RAES: 1.40
     1s    -10.707211    1.230000
  6     Wed Apr 25 08:07:45 CEST 2018   EN: 2.550 GM2: 0.538  GM3: 0.1500  RAES: 3.00
     2s    -13.970922    2.096432
     2p    -10.063292    1.800000
  7     Wed Apr 25 08:07:45 CEST 2018   EN: 3.040 GM2: 0.461  GM3:-0.0640  RAES: 1.90
     2s    -16.686243    2.339881
     2p    -12.523956    2.014332
  8     Wed Apr 25 08:07:45 CEST 2018   EN: 3.440 GM2: 0.452  GM3:-0.0517  RAES: 1.80
     2s    -20.229985    2.439742
     2p    -15.503117    2.137023
 16     Tue Apr 24 11:44:34 CEST 2018   EN: 2.580 GM2: 0.340  GM3:-0.0502  RAES: 3.10
     3s    -20.029654    1.981333
     3p    -11.377694    2.025643
     3d     -0.420282    1.702555

 Solvent             : h2o
 Using internal parameter file: .param_gbsa2_h2o
 Gsolv ref. state (COSMO-RS): gsolv [1 M gas/solution]
 temperature (mdtemp)       :    298.150000000000     
 dielectric constant        :    80.2000000000000     
 rho                        :    1.00000000000000     
 mass                       :    18.0000000000000     
 surface tension            :    15.5689454083859     
 probe radius               :   0.975313790000000     
 vdW radii scaling          :    1.00000000000000     
 Gshift (Eh)                :   1.857443126794793E-003
 c1                         :    1.55243817000000     
 soset                      :   0.130326360000000     
 HB correction              :  T
 Number of grid points      :          230

            Z     q(EN)     CN     RAES       Cart. coordinates
     1  N   5.0   -0.72    3.00    1.93    82.27039    92.14306    80.41818
     2  C   4.0    0.07    3.98    3.58    80.99985    91.70102    78.02811
     3  C   4.0    0.08    3.00    3.02    81.74640    89.10072    77.00002
     4  O   6.0   -0.48    1.00    1.80    80.14774    87.55525    76.32812
     5  C   4.0   -0.13    3.99    3.60    81.74633    93.82269    76.19422
     6  C   4.0   -0.03    3.03    3.02    81.23810    93.19793    73.46772
     7  C   4.0   -0.09    3.03    3.02    78.89568    93.67380    72.38390
     8  C   4.0   -0.10    3.03    3.02    83.14789    92.17368    71.98241
     9  C   4.0   -0.11    3.03    3.02    78.47958    93.12872    69.85894
    10  C   4.0   -0.11    3.03    3.02    82.71968    91.59944    69.46861
    11  C   4.0   -0.11    3.03    3.02    80.38082    92.07908    68.39934
    12  H   1.0    0.27    1.00    1.43    82.89187    93.92062    80.77870
    13  H   1.0    0.12    0.99    1.43    78.93889    91.67374    78.28700
    14  H   1.0    0.12    0.99    1.43    80.69693    95.50688    76.75761
    15  H   1.0    0.11    0.99    1.43    83.76613    94.14531    76.43323
    16  H   1.0    0.15    0.99    1.43    77.39345    94.47419    73.51466
    17  H   1.0    0.10    1.00    1.43    84.98864    91.82521    72.79091
    18  H   1.0    0.11    0.99    1.43    76.65766    93.53244    69.02720
    19  H   1.0    0.10    1.00    1.43    84.22114    90.79042    68.34827
    20  H   1.0    0.10    1.00    1.43    80.03547    91.65210    66.43500
    21  N   5.0   -0.70    3.00    1.93    79.82938    83.30267    80.97413
    22  C   4.0    0.08    4.01    3.64    77.19106    82.88350    80.42080
    23  C   4.0    0.28    3.02    3.02    76.85142    81.54149    77.88197
    24  O   6.0   -0.48    1.00    1.80    75.48709    79.67476    77.70324
    25  C   4.0   -0.13    3.98    3.59    75.74940    85.37293    80.35379
    26  S   6.0   -0.22    2.02    3.10    75.57947    86.86396    83.44270
    27  H   1.0    0.27    1.00    1.43    80.43880    85.11585    81.13184
    28  H   1.0    0.11    0.99    1.43    76.37787    81.63235    81.86765
    29  H   1.0    0.13    0.99    1.43    76.64610    86.67677    79.03486
    30  H   1.0    0.10    0.99    1.43    73.80218    85.03085    79.77494
    31  H   1.0    0.11    1.00    1.43    78.00639    87.53612    83.52721
    32  N   5.0   -0.50    3.01    1.93    78.08989    82.54385    75.93527
    33  C   4.0    0.09    3.99    3.61    77.79840    81.45315    73.44393
    34  C   4.0    0.10    3.00    3.02    78.32323    78.61411    73.57512
    35  O   6.0   -0.45    1.00    1.80    76.99040    77.07326    72.46915
    36  C   4.0    0.03    3.97    3.58    79.40389    82.84490    71.43567
    37  O   6.0   -0.51    1.99    1.82    77.88368    82.99874    69.24781
    38  C   4.0   -0.22    3.98    3.58    81.95103    81.62494    70.86363
    39  H   1.0    0.29    1.00    1.43    79.07556    84.18463    76.11542
    40  H   1.0    0.15    0.99    1.43    75.82069    81.64849    72.83027
    41  H   1.0    0.12    0.99    1.43    79.72623    84.77359    72.16904
    42  H   1.0    0.24    0.99    1.43    78.95203    83.30259    67.79861
    43  H   1.0    0.09    0.99    1.43    82.95741    82.76670    69.48132
    44  H   1.0    0.10    0.99    1.43    83.08734    81.50659    72.56669
    45  H   1.0    0.11    0.99    1.43    81.69050    79.73818    70.09159
    46  N   5.0   -0.70    3.00    1.93    73.48236    74.66607    77.71151
    47  C   4.0    0.08    3.98    3.59    71.10192    74.50765    76.37270
    48  C   4.0    0.28    3.01    3.02    71.22736    72.71105    74.10982
    49  O   6.0   -0.45    1.00    1.80    69.62648    71.08533    73.75469
    50  C   4.0   -0.20    3.99    3.60    70.32963    77.12486    75.45557
    51  H   1.0    0.32    1.00    1.43    74.36635    76.36216    77.71715
    52  H   1.0    0.14    0.99    1.43    69.65942    73.74880    77.65961
    53  H   1.0    0.09    0.99    1.43    68.53770    77.02429    74.45905
    54  H   1.0    0.11    0.99    1.43    70.13246    78.39010    77.06192
    55  H   1.0    0.13    0.99    1.43    71.76212    77.88124    74.19023
    56  N   5.0   -0.48    3.01    1.93    73.13773    73.13175    72.49828
    57  C   4.0    0.07    3.99    3.60    73.19903    71.95535    70.03795
    58  C   4.0    0.07    3.00    3.02    74.94190    69.66519    69.84685
    59  O   6.0   -0.42    1.00    1.80    74.69409    68.19661    68.05743
    60  C   4.0   -0.12    3.99    3.61    73.99079    73.85640    68.00467
    61  C   4.0   -0.03    3.02    3.02    72.06321    75.84349    67.32800
    62  C   4.0   -0.09    3.03    3.02    69.61431    75.89672    68.26258
    63  C   4.0   -0.09    3.04    3.02    72.80761    77.71155    65.63119
    64  C   4.0   -0.11    3.03    3.02    67.95014    77.77920    67.51928
    65  C   4.0   -0.11    3.03    3.02    71.16150    79.60198    64.90560
    66  C   4.0   -0.11    3.03    3.02    68.72426    79.64169    65.85701
    67  H   1.0    0.30    1.00    1.43    74.38458    74.55294    72.81134
    68  H   1.0    0.14    0.99    1.43    71.29380    71.22784    69.64641
    69  H   1.0    0.13    0.99    1.43    75.70695    74.80559    68.65629
    70  H   1.0    0.12    0.99    1.43    74.46084    72.79898    66.29206
    71  H   1.0    0.12    1.00    1.43    68.96569    74.49220    69.59273
    72  H   1.0    0.11    1.00    1.43    74.70909    77.67786    64.89228
    73  H   1.0    0.12    0.99    1.43    66.04644    77.78222    68.26148
    74  H   1.0    0.10    1.00    1.43    71.78110    81.04380    63.60349
    75  H   1.0    0.10    1.00    1.43    67.44451    81.13658    65.31994
    76  N   5.0   -0.72    3.00    1.93    43.82518    68.85260    51.19803
    77  C   4.0    0.07    3.98    3.59    43.64154    69.85725    53.74281
    78  C   4.0    0.29    3.01    3.02    43.05324    72.67905    53.69057
    79  O   6.0   -0.45    1.00    1.80    41.40686    73.61760    55.06025
    80  C   4.0   -0.14    3.99    3.60    46.13058    69.34889    55.14482
    81  C   4.0   -0.03    3.12    3.03    46.00415    69.99983    57.88713
    82  C   4.0    0.02    3.23    3.04    45.25141    68.42067    59.79010
    83  C   4.0    0.02    3.18    3.03    46.68033    72.33421    59.06024
    84  N   5.0   -0.47    3.10    1.94    45.44347    69.59946    62.07230
    85  C   4.0    0.12    3.23    3.04    46.31382    71.99433    61.69615
    86  C   4.0   -0.11    3.02    3.02    47.58613    74.64992    58.17403
    87  C   4.0   -0.10    3.02    3.02    46.86294    73.89910    63.42189
    88  C   4.0   -0.11    3.03    3.02    48.12762    76.52604    59.89435
    89  C   4.0   -0.12    3.03    3.02    47.78299    76.15185    62.49092
    90  H   1.0    0.24    1.00    1.43    45.46545    68.01188    50.67242
    91  H   1.0    0.11    0.99    1.43    42.06372    68.92428    54.71430
    92  H   1.0    0.10    0.99    1.43    46.55663    67.34014    54.94084
    93  H   1.0    0.10    0.99    1.43    47.61389    70.43976    54.22019
    94  H   1.0    0.11    1.00    1.43    44.61101    66.50409    59.65149
    95  H   1.0    0.24    1.00    1.43    44.91548    68.85357    63.75525
    96  H   1.0    0.11    1.00    1.43    47.87324    74.95635    56.17677
    97  H   1.0    0.12    1.00    1.43    46.61710    73.61211    65.42566
    98  H   1.0    0.11    0.99    1.43    48.85114    78.32733    59.25347
    99  H   1.0    0.11    0.99    1.43    48.25764    77.66611    63.77868
   100  N   5.0   -0.49    3.01    1.93    44.43915    74.05032    52.12141
   101  C   4.0    0.06    3.99    3.61    44.04512    76.73992    51.86807
   102  C   4.0    0.08    3.00    3.02    41.32460    77.33621    51.13332
   103  O   6.0   -0.43    1.00    1.80    40.23236    79.16955    52.05525
   104  C   4.0   -0.15    3.99    3.60    45.81824    77.86901    49.88764
   105  C   4.0   -0.11    3.98    3.58    48.56377    78.04968    50.79392
   106  C   4.0   -0.24    3.98    3.59    50.29686    78.60644    48.55461
   107  C   4.0   -0.23    3.98    3.59    48.87064    80.09005    52.80845
   108  H   1.0    0.23    1.00    1.43    45.79264    73.22925    51.03416
   109  H   1.0    0.12    0.99    1.43    44.35065    77.64098    53.71216
   110  H   1.0    0.10    0.99    1.43    45.69926    76.68388    48.20356
   111  H   1.0    0.11    0.99    1.43    45.13918    79.75379    49.39355
   112  H   1.0    0.10    0.99    1.43    49.09950    76.21772    51.58928
   113  H   1.0    0.09    0.99    1.43    52.23740    78.81800    49.19037
   114  H   1.0    0.09    0.99    1.43    50.22890    77.07263    47.18860
   115  H   1.0    0.09    0.99    1.43    49.72707    80.34653    47.62207
   116  H   1.0    0.09    0.99    1.43    50.80354    80.14016    53.49424
   117  H   1.0    0.10    0.99    1.43    48.40443    81.93457    52.03164
   118  H   1.0    0.10    0.99    1.43    47.64903    79.75406    54.42450
   119  N   5.0   -0.69    3.00    1.93    37.30026    76.84232    56.73095
   120  C   4.0    0.07    3.98    3.58    37.86743    78.97620    58.36373
   121  C   4.0    0.08    3.00    3.02    36.41739    81.30360    57.44910
   122  O   6.0   -0.43    1.00    1.80    35.14141    82.60417    58.88785
   123  C   4.0   -0.13    3.99    3.60    40.70759    79.51801    58.32900
   124  C   4.0   -0.10    3.98    3.58    41.44658    81.72242    60.08193
   125  C   4.0   -0.23    3.98    3.59    42.39992    80.73979    62.62168
   126  C   4.0   -0.23    3.98    3.59    43.44985    83.38561    58.83542
   127  H   1.0    0.32    1.00    1.43    38.79525    75.87266    56.01907
   128  H   1.0    0.12    0.99    1.43    37.21881    78.56392    60.29157
   129  H   1.0    0.12    0.99    1.43    41.71701    77.80802    58.88927
   130  H   1.0    0.14    0.99    1.43    41.23601    79.96512    56.38721
   131  H   1.0    0.13    0.99    1.43    39.76976    82.88761    60.41889
   132  H   1.0    0.10    0.99    1.43    42.85383    82.30460    63.87194
   133  H   1.0    0.10    0.99    1.43    40.98175    79.56832    63.53551
   134  H   1.0    0.11    0.99    1.43    44.09832    79.61643    62.34720
   135  H   1.0    0.10    0.99    1.43    43.90292    84.97943    60.04768
   136  H   1.0    0.10    0.99    1.43    45.18166    82.32587    58.51938
   137  H   1.0    0.10    0.99    1.43    42.77281    84.11394    57.03577
   138  N   5.0   -0.73    3.00    1.93    54.72813    62.21975    57.13070
   139  C   4.0    0.06    3.98    3.59    53.00134    63.66862    58.69052
   140  C   4.0    0.28    3.01    3.02    54.51541    64.94351    60.80529
   141  O   6.0   -0.47    1.00    1.80    54.25532    67.18496    61.32448
   142  C   4.0   -0.13    3.99    3.60    50.89836    61.99117    59.76626
   143  C   4.0   -0.04    3.02    3.02    48.58868    61.86274    58.09245
   144  C   4.0   -0.10    3.03    3.02    48.78124    61.78096    55.47355
   145  C   4.0   -0.10    3.03    3.02    46.19451    61.85175    59.18178
   146  C   4.0   -0.12    3.03    3.02    46.62861    61.72591    53.98313
   147  C   4.0   -0.11    3.03    3.02    44.03968    61.79678    57.69541
   148  C   4.0   -0.11    3.03    3.02    44.25576    61.74459    55.08710
   149  H   1.0    0.25    1.00    1.43    54.41396    60.34137    56.91246
   150  H   1.0    0.10    0.99    1.43    52.17535    65.20286    57.56266
   151  H   1.0    0.11    0.99    1.43    51.69353    60.10811    60.07129
   152  H   1.0    0.11    0.99    1.43    50.34582    62.75626    61.59855
   153  H   1.0    0.10    1.00    1.43    50.61165    61.79095    54.57437
   154  H   1.0    0.11    1.00    1.43    46.01353    61.94521    61.21103
   155  H   1.0    0.10    1.00    1.43    46.81488    61.71671    51.95119
   156  H   1.0    0.11    1.00    1.43    42.18855    61.86331    58.55283
   157  H   1.0    0.10    1.00    1.43    42.58379    61.75680    53.92000
   158  N   5.0   -0.49    3.00    1.93    56.07995    63.40752    62.05662
   159  C   4.0    0.01    4.00    3.61    57.71834    64.35863    64.01437
   160  C   4.0    0.28    3.01    3.02    59.17585    66.74904    63.27533
   161  O   6.0   -0.47    1.00    1.80    59.33419    68.51591    64.77499
   162  H   1.0    0.24    1.00    1.43    56.26727    61.57288    61.53420
   163  H   1.0    0.12    0.99    1.43    56.59297    64.86410    65.68057
   164  H   1.0    0.10    0.99    1.43    59.07144    62.87664    64.48915
   165  N   5.0   -0.49    3.01    1.93    60.37787    66.67054    61.07306
   166  C   4.0    0.08    4.00    3.61    61.96126    68.73943    60.22184
   167  C   4.0    0.29    3.02    3.02    60.42843    71.16907    60.06802
   168  O   6.0   -0.47    1.00    1.80    61.19665    73.12149    61.04306
   169  C   4.0   -0.10    3.98    3.58    63.24584    68.11434    57.67870
   170  C   4.0   -0.17    3.98    3.59    65.85912    66.94677    58.12505
   171  C   4.0   -0.23    3.98    3.59    63.54400    70.43476    55.97741
   172  C   4.0   -0.23    3.98    3.59    65.80220    64.69347    59.90716
   173  H   1.0    0.23    1.00    1.43    60.21277    65.11514    59.96663
   174  H   1.0    0.12    0.99    1.43    63.40325    69.11046    61.66849
   175  H   1.0    0.10    0.99    1.43    62.03386    66.74420    56.71236
   176  H   1.0    0.09    0.99    1.43    66.61621    66.34543    56.30356
   177  H   1.0    0.10    0.99    1.43    67.11368    68.40933    58.86511
   178  H   1.0    0.09    0.99    1.43    64.73475    69.95877    54.37198
   179  H   1.0    0.10    0.99    1.43    61.73416    71.08254    55.26176
   180  H   1.0    0.11    0.99    1.43    64.42994    71.97735    57.00558
   181  H   1.0    0.10    0.99    1.43    67.60827    63.71938    59.88312
   182  H   1.0    0.11    0.99    1.43    65.38619    65.26865    61.83131
   183  H   1.0    0.10    0.99    1.43    64.33858    63.38472    59.32386
   184  N   5.0   -0.49    3.01    1.93    58.32086    71.05520    58.68709
   185  C   4.0    0.08    4.01    3.63    56.95026    73.37172    58.20010
   186  C   4.0    0.30    3.01    3.02    55.71703    74.33519    60.63003
   187  O   6.0   -0.46    1.00    1.80    55.69784    76.58270    61.18098
   188  C   4.0   -0.10    3.98    3.59    55.12623    73.04340    55.97281
   189  C   4.0   -0.17    3.98    3.59    54.18257    75.60372    55.00425
   190  C   4.0   -0.22    3.98    3.59    52.91039    71.34193    56.67243
   191  C   4.0   -0.25    3.98    3.58    56.25234    77.23881    53.84038
   192  H   1.0    0.24    1.00    1.43    57.71802    69.39061    57.96502
   193  H   1.0    0.12    0.99    1.43    58.36784    74.80907    57.71730
   194  H   1.0    0.10    0.99    1.43    56.21226    72.13324    54.46061
   195  H   1.0    0.09    0.99    1.43    52.74126    75.24040    53.57450
   196  H   1.0    0.12    0.99    1.43    53.29101    76.62460    56.55829
   197  H   1.0    0.09    0.99    1.43    51.73676    71.02393    55.01892
   198  H   1.0    0.12    0.99    1.43    53.56220    69.52647    57.37321
   199  H   1.0    0.13    0.99    1.43    51.74859    72.22974    58.11230
   200  H   1.0    0.09    0.99    1.43    55.41739    78.85129    52.87948
   201  H   1.0    0.10    0.99    1.43    57.52887    77.96236    55.27788
   202  H   1.0    0.09    0.99    1.43    57.35240    76.16965    52.47208
   203  N   5.0   -0.49    3.01    1.93    54.71591    72.54691    62.10693
   204  C   4.0    0.10    4.00    3.62    53.62700    73.20510    64.52046
   205  C   4.0    0.32    3.01    3.02    55.61107    74.59948    66.10165
   206  O   6.0   -0.45    1.00    1.80    55.17085    76.64721    67.08567
   207  C   4.0   -0.01    3.98    3.59    52.67165    70.82373    65.84718
   208  O   6.0   -0.50    1.99    1.83    51.36573    71.55641    68.04307
   209  H   1.0    0.30    1.00    1.43    54.67738    70.70282    61.58984
   210  H   1.0    0.14    0.99    1.43    52.03112    74.50905    64.26644
   211  H   1.0    0.13    0.99    1.43    51.42017    69.81662    64.53462
   212  H   1.0    0.13    0.99    1.43    54.28430    69.60132    66.31348
   213  H   1.0    0.25    0.99    1.43    50.58697    70.08616    68.78759
   214  N   5.0   -0.47    3.00    1.93    57.83604    73.42125    66.24585
   215  C   4.0    0.02    3.99    3.61    59.93986    74.40598    67.68130
   216  C   4.0    0.29    3.01    3.02    60.66231    77.08153    66.87704
   217  O   6.0   -0.46    1.00    1.80    60.98069    78.78424    68.42131
   218  H   1.0    0.30    1.00    1.43    58.08468    71.68566    65.46517
   219  H   1.0    0.11    0.99    1.43    59.48253    74.45273    69.69802
   220  H   1.0    0.10    0.99    1.43    61.55132    73.15835    67.37890
   221  N   5.0   -0.48    3.01    1.93    60.96618    77.39834    64.39851
   222  C   4.0    0.08    4.00    3.63    61.68276    79.84975    63.40412
   223  C   4.0    0.30    3.01    3.02    59.91844    81.84137    64.52945
   224  O   6.0   -0.47    1.00    1.80    60.72026    83.71644    65.62573
   225  C   4.0   -0.09    3.98    3.58    61.59426    79.89022    60.50254
   226  C   4.0   -0.23    3.98    3.59    61.77889    82.60274    59.52941
   227  C   4.0   -0.23    3.98    3.59    63.74247    78.30260    59.41018
   228  H   1.0    0.30    1.00    1.43    60.83161    75.91323    63.19006
   229  H   1.0    0.11    0.99    1.43    63.59842    80.31401    64.05715
   230  H   1.0    0.13    0.99    1.43    59.77660    79.08618    59.92858
   231  H   1.0    0.09    0.99    1.43    61.77661    82.61623    57.47665
   232  H   1.0    0.11    0.99    1.43    60.20646    83.74740    60.19394
   233  H   1.0    0.10    0.99    1.43    63.52211    83.46994    60.18574
   234  H   1.0    0.09    0.99    1.43    63.67581    78.36520    57.35882
   235  H   1.0    0.10    0.99    1.43    65.55621    79.04343    60.02608
   236  H   1.0    0.14    0.99    1.43    63.59403    76.35080    60.02094
   237  N   5.0   -0.48    3.01    1.93    57.46478    81.41649    64.11153
   238  C   4.0    0.08    4.00    3.62    55.54672    83.18734    64.93141
   239  C   4.0    0.29    3.01    3.02    55.70519    83.62779    67.79341
   240  O   6.0   -0.39    1.00    1.80    55.74939    85.75586    68.70450
   241  C   4.0   -0.13    3.99    3.60    52.90937    82.24847    64.15447
   242  C   4.0   -0.04    3.03    3.02    52.24009    83.20432    61.55976
   243  C   4.0   -0.09    3.03    3.02    53.55332    82.36205    59.44471
   244  C   4.0   -0.10    3.03    3.02    50.38877    85.04038    61.25926
   245  C   4.0   -0.12    3.03    3.02    53.05748    83.37821    57.08822
   246  C   4.0   -0.11    3.03    3.02    49.86288    86.02774    58.89353
   247  C   4.0   -0.11    3.03    3.02    51.21200    85.21283    56.80709
   248  H   1.0    0.29    1.00    1.43    56.89108    79.75658    63.34718
   249  H   1.0    0.13    0.99    1.43    55.93207    85.03531    64.06095
   250  H   1.0    0.13    0.99    1.43    52.91467    80.18446    64.21431
   251  H   1.0    0.11    0.99    1.43    51.53141    82.92869    65.52976
   252  H   1.0    0.13    1.00    1.43    54.95557    80.89780    59.65213
   253  H   1.0    0.11    0.99    1.43    49.35398    85.70043    62.89304
   254  H   1.0    0.10    1.00    1.43    54.13176    82.74886    55.47251
   255  H   1.0    0.10    1.00    1.43    48.40872    87.44495    58.69049
   256  H   1.0    0.10    1.00    1.43    50.83190    86.01282    54.97139
   257  N   5.0   -0.48    3.01    1.93    55.76279    81.50286    69.14996
   258  C   4.0    0.09    3.99    3.60    55.85824    81.45823    71.87915
   259  C   4.0    0.31    3.01    3.02    57.64324    83.47508    72.90919
   260  O   6.0   -0.40    1.00    1.80    57.03130    84.87456    74.64272
   261  C   4.0   -0.01    3.98    3.59    56.72030    78.78860    72.70046
   262  O   6.0   -0.49    1.99    1.82    56.66989    78.37920    75.31590
   263  H   1.0    0.30    1.00    1.43    55.66015    79.79966    68.27069
   264  H   1.0    0.14    0.99    1.43    53.98560    81.85154    72.68761
   265  H   1.0    0.14    0.99    1.43    55.39067    77.44500    71.84901
   266  H   1.0    0.14    0.99    1.43    58.60399    78.46281    71.91368
   267  H   1.0    0.30    0.99    1.43    58.29276    78.80655    76.07448
   268  N   5.0   -0.48    3.01    1.93    59.95561    83.48857    71.86513
   269  C   4.0    0.08    4.00    3.62    61.97037    84.91602    73.01852
   270  C   4.0    0.28    3.01    3.02    62.69777    87.34066    71.64605
   271  O   6.0   -0.47    1.00    1.80    63.63627    89.10264    72.85578
   272  C   4.0   -0.09    3.98    3.58    64.32742    83.22179    73.38265
   273  C   4.0   -0.22    3.98    3.59    65.85442    82.99522    70.94807
   274  C   4.0   -0.23    3.98    3.59    65.95568    84.17735    75.56101
   275  H   1.0    0.29    1.00    1.43    60.37195    82.23796    70.47970
   276  H   1.0    0.14    0.99    1.43    61.26424    85.49183    74.88415
   277  H   1.0    0.13    0.99    1.43    63.60428    81.35182    73.89689
   278  H   1.0    0.10    0.99    1.43    67.35755    81.61502    71.18632
   279  H   1.0    0.13    0.99    1.43    64.65053    82.38661    69.39846
   280  H   1.0    0.11    0.99    1.43    66.71258    84.79778    70.45827
   281  H   1.0    0.10    0.99    1.43    67.69035    83.08349    75.66934
   282  H   1.0    0.11    0.99    1.43    66.43297    86.15846    75.30071
   283  H   1.0    0.11    0.99    1.43    64.94674    83.98330    77.33953
   284  N   5.0   -0.48    3.00    1.93    62.37645    87.46410    69.16259
   285  C   4.0    0.07    3.99    3.61    63.58737    89.42032    67.65749
   286  C   4.0    0.30    3.01    3.02    63.67308    91.96268    69.02433
   287  O   6.0   -0.45    1.00    1.80    65.67184    93.10188    69.30906
   288  C   4.0   -0.09    3.98    3.58    62.38817    89.53443    65.00458
   289  C   4.0   -0.16    3.98    3.59    63.75745    91.42209    63.28474
   290  C   4.0   -0.20    3.98    3.59    59.55773    90.10629    65.04294
   291  C   4.0   -0.24    3.98    3.58    66.52521    90.77945    62.79858
   292  H   1.0    0.30    1.00    1.43    61.59653    86.00903    68.18330
   293  H   1.0    0.11    0.99    1.43    65.58308    88.88321    67.42152
   294  H   1.0    0.12    0.99    1.43    62.62768    87.63118    64.22585
   295  H   1.0    0.10    0.99    1.43    62.75161    91.45745    61.48552
   296  H   1.0    0.13    0.99    1.43    63.61826    93.31033    64.10865
   297  H   1.0    0.10    0.99    1.43    58.76890    89.68461    63.19310
   298  H   1.0    0.15    0.99    1.43    58.57543    88.93204    66.41807
   299  H   1.0    0.14    0.99    1.43    59.18917    92.09227    65.42741
   300  H   1.0    0.09    0.99    1.43    67.26164    91.96674    61.29352
   301  H   1.0    0.11    0.99    1.43    67.65686    91.11136    64.48044
   302  H   1.0    0.09    0.99    1.43    66.72073    88.81287    62.23750
   303  N   5.0   -0.46    3.01    1.93    61.46189    92.91962    69.81145
   304  C   4.0    0.08    4.00    3.62    61.33016    95.47761    70.78533
   305  C   4.0    0.30    3.01    3.02    63.04986    95.80024    73.09469
   306  O   6.0   -0.42    1.00    1.80    64.58417    97.52860    73.25522
   307  C   4.0   -0.11    3.99    3.60    58.62088    96.15880    71.49736
   308  C   4.0    0.27    3.00    3.02    56.92860    96.32943    69.16140
   309  O   6.0   -0.42    1.00    1.80    57.72944    96.10206    67.01412
   310  N   5.0   -0.66    3.00    1.93    54.48562    96.72679    69.68483
   311  H   1.0    0.26    1.00    1.43    59.84062    91.99453    69.43321
   312  H   1.0    0.14    0.99    1.43    62.01989    96.79538    69.33494
   313  H   1.0    0.11    0.99    1.43    57.86189    94.75132    72.80011
   314  H   1.0    0.12    0.99    1.43    58.63213    97.98702    72.45646
   315  H   1.0    0.28    1.00    1.43    53.24435    96.87103    68.24726
   316  H   1.0    0.26    1.00    1.43    53.87232    96.93422    71.47155
   317  N   5.0   -0.48    3.01    1.93    62.64199    94.12621    74.94055
   318  C   4.0    0.08    4.00    3.62    63.96068    94.35473    77.32167
   319  C   4.0    0.28    3.01    3.02    66.77204    93.82996    77.00773
   320  O   6.0   -0.46    1.00    1.80    68.35922    94.76470    78.42463
   321  C   4.0   -0.09    3.98    3.59    62.77291    92.69544    79.38985
   322  C   4.0   -0.15    3.98    3.59    63.39059    89.90112    78.96201
   323  C   4.0   -0.21    3.98    3.59    59.94065    93.22331    79.55837
   324  C   4.0   -0.23    3.98    3.58    62.02928    88.15979    80.80505
   325  H   1.0    0.27    1.00    1.43    61.69220    92.51396    74.57135
   326  H   1.0    0.16    0.99    1.43    63.78708    96.34374    77.90218
   327  H   1.0    0.10    0.99    1.43    63.64546    93.29708    81.16840
   328  H   1.0    0.14    0.99    1.43    62.89719    89.36420    77.03514
   329  H   1.0    0.11    0.99    1.43    65.43029    89.65437    79.16888
   330  H   1.0    0.13    0.99    1.43    59.19484    92.54671    81.34584
   331  H   1.0    0.13    0.99    1.43    59.62265    95.25144    79.44598
   332  H   1.0    0.12    0.99    1.43    58.92955    92.30234    78.02604
   333  H   1.0    0.11    0.99    1.43    62.74373    86.24370    80.59903
   334  H   1.0    0.11    0.99    1.43    62.32739    88.79462    82.73818
   335  H   1.0    0.12    0.99    1.43    60.01742    88.14947    80.40093
   336  N   5.0   -0.48    3.01    1.93    67.39011    92.27664    75.12359
   337  C   4.0    0.07    4.00    3.61    70.00783    91.77041    74.51426
   338  C   4.0    0.29    3.01    3.02    71.32622    94.27912    73.95442
   339  O   6.0   -0.44    1.00    1.80    73.32423    94.86996    74.95652
   340  C   4.0   -0.14    3.99    3.60    70.14229    89.94060    72.29059
   341  C   4.0   -0.10    3.98    3.58    72.82680    89.10161    71.60953
   342  C   4.0   -0.21    3.98    3.59    74.02849    87.56234    73.72986
   343  C   4.0   -0.23    3.99    3.59    72.74880    87.55179    69.17697
   344  H   1.0    0.30    1.00    1.43    66.03798    91.47114    74.03526
   345  H   1.0    0.12    0.99    1.43    70.93462    90.98071    76.19506
   346  H   1.0    0.11    0.99    1.43    69.01494    88.28010    72.77208
   347  H   1.0    0.13    0.99    1.43    69.25588    90.85581    70.66735
   348  H   1.0    0.12    0.99    1.43    73.97914    90.79112    71.30878
   349  H   1.0    0.13    0.99    1.43    75.90422    86.95598    73.16740
   350  H   1.0    0.11    0.99    1.43    74.22093    88.69573    75.43058
   351  H   1.0    0.10    0.99    1.43    72.88672    85.90543    74.15054
   352  H   1.0    0.12    0.99    1.43    74.61063    86.80978    68.74488
   353  H   1.0    0.10    0.99    1.43    71.46202    85.96341    69.39289
   354  H   1.0    0.09    0.99    1.43    72.11265    88.71026    67.60437
   355  N   5.0   -0.48    3.01    1.93    70.14619    95.75176    72.27047
   356  C   4.0    0.07    3.99    3.61    71.09016    98.26389    71.71726
   357  C   4.0    0.30    3.01    3.02    71.33410    99.81439    74.14917
   358  O   6.0   -0.44    1.00    1.80    73.26516   101.00667    74.62893
   359  C   4.0   -0.21    3.98    3.59    69.36368    99.58841    69.83943
   360  H   1.0    0.29    1.00    1.43    68.46574    95.23967    71.51233
   361  H   1.0    0.12    0.99    1.43    73.01557    98.09673    70.95359
   362  H   1.0    0.11    0.99    1.43    70.06879   101.47504    69.44684
   363  H   1.0    0.11    0.99    1.43    69.28230    98.51564    68.09000
   364  H   1.0    0.15    0.99    1.43    67.47013    99.73954    70.62526
   365  N   5.0   -0.46    3.01    1.93    69.34702    99.77442    75.70023
   366  C   4.0    0.09    4.00    3.62    69.34868   101.30328    77.97636
   367  C   4.0    0.28    3.01    3.02    71.72899   100.81603    79.53628
   368  O   6.0   -0.41    1.00    1.80    72.84889   102.53997    80.62196
   369  C   4.0   -0.10    3.98    3.59    67.03177   100.74036    79.57694
   370  C   4.0    0.32    2.99    3.02    64.52309   101.55299    78.21080
   371  O   6.0   -0.38    1.00    1.80    64.56855   103.57049    77.01308
   372  O   6.0   -0.41    1.00    1.80    62.68669   100.10931    78.49960
   373  H   1.0    0.30    1.00    1.43    67.69013    98.98911    75.15149
   374  H   1.0    0.15    0.99    1.43    69.31673   103.31826    77.46172
   375  H   1.0    0.13    0.99    1.43    66.94533    98.73423    80.03306
   376  H   1.0    0.11    0.99    1.43    67.13457   101.82309    81.33222
   377  N   5.0   -0.47    3.01    1.93    72.42723    98.40008    79.66047
   378  C   4.0    0.08    3.99    3.60    74.51233    97.43532    81.14237
   379  C   4.0    0.28    3.01    3.02    77.13231    98.36679    80.30250
   380  O   6.0   -0.44    1.00    1.80    79.02767    97.63941    81.41206
   381  C   4.0   -0.20    3.99    3.60    74.44702    94.55840    81.06522
   382  H   1.0    0.31    1.00    1.43    71.31430    97.08673    78.82696
   383  H   1.0    0.13    0.99    1.43    74.30347    98.09491    83.10594
   384  H   1.0    0.11    0.99    1.43    76.06411    93.79948    82.07335
   385  H   1.0    0.12    0.99    1.43    72.71993    93.86121    81.93068
   386  H   1.0    0.14    0.99    1.43    74.51006    93.94518    79.10286
   387  N   5.0   -0.47    3.00    1.93    77.22188    99.99680    78.37921
   388  C   4.0    0.07    3.99    3.60    79.54876   101.23073    77.64957
   389  C   4.0    0.08    3.00    3.02    80.10112   103.57577    79.25761
   390  O   6.0   -0.42    1.00    1.80    82.25750   104.42525    79.35216
   391  C   4.0   -0.13    3.99    3.60    79.51851   101.96258    74.83100
   392  C   4.0   -0.11    3.98    3.58    81.48978   100.55166    73.23818
   393  C   4.0   -0.23    3.98    3.59    80.78982   100.68924    70.44409
   394  C   4.0   -0.22    3.98    3.59    84.11989   101.65110    73.68343
   395  H   1.0    0.31    1.00    1.43    75.64536   100.42468    77.38680
   396  H   1.0    0.14    0.99    1.43    81.08454    99.88887    78.03763
   397  H   1.0    0.14    0.99    1.43    77.62915   101.56955    74.10933
   398  H   1.0    0.12    0.99    1.43    79.83509   103.99196    74.63641
   399  H   1.0    0.11    0.99    1.43    81.46492    98.55906    73.78729
   400  H   1.0    0.10    0.99    1.43    82.17796    99.69070    69.30574
   401  H   1.0    0.10    0.99    1.43    78.95687    99.81411    70.12851
   402  H   1.0    0.10    0.99    1.43    80.68762   102.64422    69.81935
   403  H   1.0    0.10    0.99    1.43    85.54584   100.45202    72.82174
   404  H   1.0    0.11    0.99    1.43    84.23668   103.52365    72.84540
   405  H   1.0    0.13    0.99    1.43    84.46682   101.82421    75.69801
   406  N   5.0   -0.72    3.00    1.93    66.03876    88.80061    97.26378
   407  C   4.0    0.07    3.99    3.59    64.33333    88.89917    95.12145
   408  C   4.0    0.29    3.01    3.02    65.49039    87.75836    92.72259
   409  O   6.0   -0.46    1.00    1.80    64.44876    86.02281    91.60313
   410  C   4.0   -0.13    3.99    3.60    63.56187    91.64560    94.58293
   411  C   4.0   -0.03    3.03    3.02    62.05216    91.72723    92.17561
   412  C   4.0   -0.09    3.03    3.02    63.13879    92.42148    89.88899
   413  C   4.0   -0.10    3.03    3.02    59.54763    90.94453    92.19202
   414  C   4.0   -0.08    3.03    3.02    61.78669    92.28165    87.66021
   415  C   4.0   -0.10    3.03    3.02    58.17619    90.80502    89.97614
   416  C   4.0    0.10    3.03    3.02    59.29663    91.44079    87.68501
   417  O   6.0   -0.50    1.99    1.83    58.03266    91.26775    85.45957
   418  H   1.0    0.24    1.00    1.43    65.67799    90.07623    98.65911
   419  H   1.0    0.11    0.99    1.43    62.63188    87.78125    95.53527
   420  H   1.0    0.09    0.99    1.43    62.44507    92.34750    96.17268
   421  H   1.0    0.11    0.99    1.43    65.26957    92.79146    94.43074
   422  H   1.0    0.12    1.00    1.43    65.06232    93.09808    89.82997
   423  H   1.0    0.11    0.99    1.43    58.65497    90.47644    93.96813
   424  H   1.0    0.12    1.00    1.43    62.64391    92.81827    85.89116
   425  H   1.0    0.11    0.99    1.43    56.23218    90.18469    90.03385
   426  H   1.0    0.25    0.99    1.43    56.29088    90.80309    85.76491
   427  N   5.0   -0.49    3.01    1.93    67.57881    88.87900    91.82726
   428  C   4.0    0.06    3.99    3.61    68.50449    88.25130    89.32029
   429  C   4.0    0.08    3.00    3.02    69.14641    85.44145    89.14791
   430  O   6.0   -0.46    1.00    1.80    68.46452    84.13694    87.36802
   431  C   4.0   -0.14    3.99    3.60    70.85694    89.81266    88.65462
   432  C   4.0   -0.04    3.03    3.02    70.19603    92.45185    87.82197
   433  C   4.0   -0.10    3.03    3.02    68.85644    92.81273    85.58913
   434  C   4.0   -0.10    3.03    3.02    70.94204    94.55172    89.20650
   435  C   4.0   -0.10    3.03    3.02    68.27346    95.21969    84.75695
   436  C   4.0   -0.10    3.03    3.02    70.38586    96.96741    88.35973
   437  C   4.0   -0.10    3.03    3.02    69.04899    97.30555    86.13689
   438  H   1.0    0.23    1.00    1.43    68.32517    90.40154    92.69887
   439  H   1.0    0.13    0.99    1.43    66.99286    88.59471    87.94100
   440  H   1.0    0.10    0.99    1.43    72.13468    89.86141    90.27023
   441  H   1.0    0.12    0.99    1.43    71.83388    88.86536    87.10187
   442  H   1.0    0.11    0.99    1.43    68.29436    91.19986    84.47078
   443  H   1.0    0.11    0.99    1.43    72.01889    94.30502    90.92306
   444  H   1.0    0.13    1.00    1.43    67.26103    95.48196    83.00456
   445  H   1.0    0.11    0.99    1.43    71.03626    98.60663    89.39042
   446  H   1.0    0.12    0.99    1.43    68.63397    99.18534    85.45507
   447  N   5.0   -0.71    3.00    1.93    63.62317    81.10786    89.18505
   448  C   4.0    0.10    3.98    3.59    62.29870    81.12731    86.79851
   449  C   4.0    0.30    3.01    3.02    63.76165    79.72020    84.73713
   450  O   6.0   -0.47    1.00    1.80    62.67685    78.42974    83.13527
   451  C   4.0   -0.01    3.98    3.58    61.73598    83.85042    85.98123
   452  O   6.0   -0.48    1.99    1.83    59.63817    83.75754    84.36065
   453  H   1.0    0.32    1.00    1.43    64.22301    82.79388    89.87638
   454  H   1.0    0.13    0.99    1.43    60.47759    80.15091    86.99417
   455  H   1.0    0.13    0.99    1.43    61.30844    84.97856    87.67476
   456  H   1.0    0.12    0.99    1.43    63.40106    84.66578    85.05338
   457  H   1.0    0.25    0.99    1.43    59.40524    85.37416    83.55258
   458  N   5.0   -0.48    3.01    1.93    66.25674    79.98619    84.81016
   459  C   4.0    0.06    3.99    3.60    67.88020    78.62489    83.06990
   460  C   4.0    0.08    3.00    3.02    67.44159    75.77857    83.39963
   461  O   6.0   -0.44    1.00    1.80    67.04603    74.40112    81.57211
   462  C   4.0   -0.21    3.98    3.59    70.62376    79.33937    83.53257
   463  H   1.0    0.30    1.00    1.43    67.08803    81.23283    86.01383
   464  H   1.0    0.13    0.99    1.43    67.32445    79.08185    81.12223
   465  H   1.0    0.11    0.99    1.43    71.82329    78.42879    82.13714
   466  H   1.0    0.12    0.99    1.43    70.82888    81.37945    83.39634
   467  H   1.0    0.11    0.99    1.43    71.17787    78.73581    85.41493
   468  N   5.0   -0.70    3.00    1.93    61.12178    73.74434    80.97019
   469  C   4.0    0.09    3.98    3.59    61.23522    73.60606    78.24186
   470  C   4.0    0.07    3.00    3.02    62.36135    71.07893    77.39779
   471  O   6.0   -0.48    1.00    1.80    61.25065    69.69954    75.89892
   472  C   4.0    0.05    3.98    3.58    62.81463    75.81375    77.18105
   473  O   6.0   -0.52    1.99    1.82    61.61306    78.16008    77.61488
   474  C   4.0   -0.20    3.98    3.59    63.18205    75.47955    74.34294
   475  H   1.0    0.33    1.00    1.43    62.05721    75.17558    81.83573
   476  H   1.0    0.12    0.99    1.43    59.30681    73.71141    77.47431
   477  H   1.0    0.14    0.99    1.43    64.66091    75.79486    78.13168
   478  H   1.0    0.31    0.99    1.43    61.58560    78.48693    79.41721
   479  H   1.0    0.11    0.99    1.43    63.97152    77.19251    73.53325
   480  H   1.0    0.11    0.99    1.43    64.44419    73.90253    73.97606
   481  H   1.0    0.11    0.99    1.43    61.37249    75.10065    73.45174
   482  N   5.0   -0.70    3.00    1.93    57.88078    65.76192    78.25042
   483  C   4.0    0.08    3.99    3.60    55.90928    65.78315    76.35021
   484  C   4.0    0.28    3.01    3.02    56.86794    64.46786    73.96816
   485  O   6.0   -0.49    1.00    1.80    55.56094    62.98478    72.74683
   486  C   4.0   -0.08    3.98    3.58    55.10296    68.51736    75.74759
   487  C   4.0   -0.16    3.98    3.58    53.58963    69.69663    77.92587
   488  C   4.0   -0.21    3.98    3.59    53.65020    68.66586    73.25764
   489  C   4.0   -0.24    3.98    3.58    50.98698    68.54605    78.38433
   490  H   1.0    0.28    1.00    1.43    58.44622    67.42535    79.01123
   491  H   1.0    0.10    0.99    1.43    54.28148    64.68254    77.01864
   492  H   1.0    0.14    0.99    1.43    56.84727    69.60858    75.53873
   493  H   1.0    0.11    0.99    1.43    54.70137    69.56048    79.65485
   494  H   1.0    0.11    0.99    1.43    53.34708    71.70120    77.50025
   495  H   1.0    0.11    0.99    1.43    53.00255    70.58992    72.93934
   496  H   1.0    0.12    0.99    1.43    54.85066    68.12729    71.67963
   497  H   1.0    0.10    0.99    1.43    52.02543    67.41206    73.29912
   498  H   1.0    0.10    0.99    1.43    50.12309    69.42685    80.02790
   499  H   1.0    0.10    0.99    1.43    49.74469    68.84944    76.77851
   500  H   1.0    0.10    0.99    1.43    51.09944    66.52747    78.75032
   501  N   5.0   -0.48    3.01    1.93    59.19620    65.10961    73.26073
   502  C   4.0    0.07    4.00    3.61    60.29038    64.09776    70.95809
   503  C   4.0    0.08    3.00    3.02    60.35390    61.21333    71.15941
   504  O   6.0   -0.43    1.00    1.80    59.58629    59.82246    69.45392
   505  C   4.0   -0.09    3.98    3.58    62.94629    65.18549    70.49185
   506  C   4.0   -0.15    3.98    3.59    62.75345    68.03890    70.00636
   507  C   4.0   -0.22    3.98    3.59    64.17900    63.83259    68.25816
   508  C   4.0   -0.22    3.98    3.58    65.30901    69.33612    69.71578
   509  H   1.0    0.29    1.00    1.43    60.16575    66.46359    74.21149
   510  H   1.0    0.13    0.99    1.43    59.06813    64.57724    69.35060
   511  H   1.0    0.12    0.99    1.43    64.06591    64.85601    72.19957
   512  H   1.0    0.14    0.99    1.43    61.63122    68.35400    68.30415
   513  H   1.0    0.13    0.99    1.43    61.76103    68.93482    71.57402
   514  H   1.0    0.10    0.99    1.43    66.16172    64.33219    68.13331
   515  H   1.0    0.12    0.99    1.43    64.05554    61.79216    68.45099
   516  H   1.0    0.11    0.99    1.43    63.24556    64.37332    66.50626
   517  H   1.0    0.10    0.99    1.43    65.02222    71.36370    69.52194
   518  H   1.0    0.14    0.99    1.43    66.49262    69.01710    71.36356
   519  H   1.0    0.11    0.99    1.43    66.28835    68.68260    68.03641
   520  N   5.0   -0.69    3.00    1.93    54.02508    57.74208    70.98842
   521  C   4.0    0.08    3.98    3.59    53.06596    57.47145    68.44182
   522  C   4.0    0.08    3.00    3.02    54.40954    55.34353    67.03148
   523  O   6.0   -0.42    1.00    1.80    53.21145    53.80732    65.78198
   524  C   4.0   -0.12    3.98    3.59    53.27111    59.97996    66.98938
   525  C   4.0    0.08    3.22    3.04    51.10076    61.62755    67.67854
   526  N   5.0   -0.47    3.15    1.95    51.10245    63.14198    69.77245
   527  C   4.0    0.05    3.35    3.07    48.70114    61.79274    66.72100
   528  C   4.0    0.16    3.41    3.08    48.77174    64.14923    69.97523
   529  N   5.0   -0.39    2.10    1.90    47.28344    63.37097    68.16386
   530  H   1.0    0.32    1.00    1.43    54.77849    59.42333    71.51158
   531  H   1.0    0.13    0.99    1.43    51.07832    56.88614    68.57399
   532  H   1.0    0.14    0.99    1.43    55.06121    60.87655    67.47814
   533  H   1.0    0.10    0.99    1.43    53.28473    59.60281    64.96329
   534  H   1.0    0.27    1.00    1.43    52.59383    63.38351    70.95146
   535  H   1.0    0.10    1.00    1.43    47.91385    60.94361    65.06432
   536  H   1.0    0.10    1.00    1.43    48.21173    65.42528    71.44392
   537  H   1.0    0.30    1.00    1.43    81.21594    91.76954    81.69927
   538  H   1.0    0.13    1.00    1.43    83.57065    88.62701    76.86302
   539  H   1.0    0.29    1.00    1.43    80.22044    82.57426    82.46042
   540  H   1.0    0.14    1.00    1.43    79.78610    77.96924    74.58269
   541  H   1.0    0.30    1.00    1.43    73.24032    74.27307    79.34843
   542  H   1.0    0.14    1.00    1.43    76.26448    69.37179    71.16434
   543  H   1.0    0.29    1.00    1.43    42.63058    67.66382    50.96939
   544  H   1.0    0.14    1.00    1.43    40.41710    76.23427    49.89508
   545  H   1.0    0.30    1.00    1.43    36.37981    75.69898    57.59008
   546  H   1.0    0.15    1.00    1.43    36.49066    81.80764    55.62931
   547  H   1.0    0.28    1.00    1.43    54.72439    62.84428    55.54876
   548  H   1.0    0.15    1.00    1.43    78.70719   104.40795    80.22482
   549  H   1.0    0.29    1.00    1.43    65.95797    87.26173    97.98342
   550  H   1.0    0.13    1.00    1.43    70.15364    84.61658    90.51763
   551  H   1.0    0.30    1.00    1.43    62.61215    80.46128    90.39018
   552  H   1.0    0.14    1.00    1.43    67.47443    75.01127    85.12626
   553  H   1.0    0.30    1.00    1.43    59.50273    73.91179    81.46333
   554  H   1.0    0.15    1.00    1.43    64.03692    70.51980    78.06930
   555  H   1.0    0.29    1.00    1.43    57.37650    64.83080    79.58132
   556  H   1.0    0.14    1.00    1.43    61.03644    60.38970    72.71723
   557  H   1.0    0.30    1.00    1.43    52.76801    57.46778    72.10067
   558  H   1.0    0.15    1.00    1.43    56.29099    55.19119    67.12101

           ------------------------------------------------- 
          |        Self-Consistent Charge Iterations        |
           ------------------------------------------------- 

          ...................................................
          :                      SETUP                      :
          :.................................................:
          :  # basis functions                1365          :
          :  # atomic orbitals                1364          :
          :  # shells                          826          :
          :  # electrons                      1486          :
          :  max. iterations                   250          :
          :  Hamiltonian                  GFN2-xTB          :
          :  restarted?                      false          :
          :  GBSA solvation                   true          :
          :  PC potential                    false          :
          :  electronic temp.          500.0000000     K    :
          :  accuracy                    0.1000000          :
          :  -> integral cutoff          0.3500000E+02      :
          :  -> integral neglect         0.1000000E-08      :
          :  -> SCF convergence          0.1000000E-06 Eh   :
          :  -> wf. convergence          0.1000000E-04 e    :
          :  Broyden damping             0.4000000          :
          ...................................................

 iter      E             dE          RMSdq      gap      omega  full diag
   1   -843.3075413 -0.843308E+03  0.414E+00    1.93       0.0  T
   2   -845.2228344 -0.191529E+01  0.221E+00    1.54       1.0  T
   3   -845.2954937 -0.726594E-01  0.118E+00    1.97       1.0  T
   4   -845.3391111 -0.436174E-01  0.275E-01    1.36       1.0  T
   5   -845.3642961 -0.251850E-01  0.106E-01    1.47       1.0  T
   6   -845.3651878 -0.891697E-03  0.543E-02    1.48       1.0  T
   7   -845.3655608 -0.373029E-03  0.255E-02    1.47       1.0  T
   8   -845.3656508 -0.899959E-04  0.991E-03    1.47       1.0  T
   9   -845.3656606 -0.976945E-05  0.533E-03    1.47       1.0  T
  10   -845.3656645 -0.396763E-05  0.269E-03    1.46       1.6  T
  11   -845.3656655 -0.942708E-06  0.132E-03    1.46       3.2  T
  12   -845.3656657 -0.254034E-06  0.609E-04    1.46       6.9  T
  13   -845.3656658 -0.409769E-07  0.297E-04    1.46      14.3  T
  14   -845.3656658 -0.154887E-07  0.148E-04    1.46      28.6  T
  15   -845.3656658 -0.239186E-08  0.605E-05    1.46      70.0  T
  16   -845.3656658 -0.584009E-09  0.257E-05    1.46     164.7  T

   *** convergence criteria satisfied after 16 iterations ***

         #    Occupation            Energy/Eh            Energy/eV
      -------------------------------------------------------------
         1        2.0000           -0.7375524             -20.0698
       ...           ...                  ...                  ...
       737        2.0000           -0.3691840             -10.0460
       738        2.0000           -0.3670495              -9.9879
       739        2.0000           -0.3658768              -9.9560
       740        2.0000           -0.3624112              -9.8617
       741        2.0000           -0.3584744              -9.7546
       742        2.0000           -0.3538035              -9.6275
       743        2.0000           -0.3504349              -9.5358 (HOMO)
       744                         -0.2966775              -8.0730 (LUMO)
       745                         -0.2959022              -8.0519
       746                         -0.2931201              -7.9762
       747                         -0.2900021              -7.8914
       748                         -0.2891519              -7.8682
       ...                                ...                  ...
      1364                          0.7174799              19.5236
      -------------------------------------------------------------
                  HL-Gap            0.0537574 Eh            1.4628 eV
             Fermi-level           -0.3239056 Eh           -8.8139 eV

 SCC (total)                   0 d,  0 h,  0 min, 35.869 sec
 SCC setup                      ...        0 min,  0.282 sec (  0.787%)
 Dispersion                     ...        0 min,  0.408 sec (  1.138%)
 integral evaluation            ...        0 min,  1.068 sec (  2.979%)
 zeroth order Hamiltonian       ...        0 min,  0.012 sec (  0.033%)
 iterations                     ...        0 min, 27.514 sec ( 76.708%)
 molecular gradient             ...        0 min,  6.332 sec ( 17.654%)
 printout                       ...        0 min,  0.251 sec (  0.701%)

         :::::::::::::::::::::::::::::::::::::::::::::::::::::
         ::                     SUMMARY                     ::
         :::::::::::::::::::::::::::::::::::::::::::::::::::::
         :: total energy             -834.373065394803 Eh   ::
         :: total w/o Gsasa/hb       -834.294981907828 Eh   ::
         :: gradient norm               0.739233415430 Eh/α ::
         :: HOMO-LUMO gap               1.462813630474 eV   ::
         ::.................................................::
         :: SCC energy               -845.395092252995 Eh   ::
         :: -> isotropic ES             1.978047272121 Eh   ::
         :: -> anisotropic ES          -0.063878842354 Eh   ::
         :: -> anisotropic XC           0.315918371249 Eh   ::
         :: -> dispersion              -0.774420758180 Eh   ::
         :: -> Gsolv                   -0.370858427268 Eh   ::
         ::    -> Gborn                -0.292774940293 Eh   ::
         ::    -> Gsasa                -0.031283891120 Eh   ::
         ::    -> Ghb                  -0.048657038981 Eh   ::
         ::    -> Gshift                0.001857443127 Eh   ::
         :: repulsion energy           10.939500879234 Eh   ::
         :: add. restraining            0.000000000000 Eh   ::
         :::::::::::::::::::::::::::::::::::::::::::::::::::::

           -------------------------------------------------
          |                Property Printout                |
           -------------------------------------------------

    * Orbital Energies and Occupations

         #    Occupation            Energy/Eh            Energy/eV
      -------------------------------------------------------------
         1        2.0000           -0.7375524             -20.0698
       ...           ...                  ...                  ...
       731        2.0000           -0.3800166             -10.3408
       732        2.0000           -0.3775480             -10.2736
       733        2.0000           -0.3737144             -10.1693
       734        2.0000           -0.3726703             -10.1409
       735        2.0000           -0.3724564             -10.1351
       736        2.0000           -0.3694749             -10.0539
       737        2.0000           -0.3691840             -10.0460
       738        2.0000           -0.3670495              -9.9879
       739        2.0000           -0.3658768              -9.9560
       740        2.0000           -0.3624112              -9.8617
       741        2.0000           -0.3584744              -9.7546
       742        2.0000           -0.3538035              -9.6275
       743        2.0000           -0.3504349              -9.5358 (HOMO)
       744                         -0.2966775              -8.0730 (LUMO)
       745                         -0.2959022              -8.0519
       746                         -0.2931201              -7.9762
       747                         -0.2900021              -7.8914
       748                         -0.2891519              -7.8682
       749                         -0.2884952              -7.8504
       750                         -0.2868845              -7.8065
       751                         -0.2850799              -7.7574
       752                         -0.2829219              -7.6987
       753                         -0.2809658              -7.6455
       754                         -0.2759993              -7.5103
       ...                                ...                  ...
      1364                          0.7174799              19.5236
      -------------------------------------------------------------
                  HL-Gap            0.0537574 Eh            1.4628 eV
             Fermi-level           -0.3239056 Eh           -8.8139 eV

   #   Z        covCN         q      C6AA      α(0)
   1   7 N      2.637    -0.375    29.674     8.090
   2   6 C      3.782     0.050    19.760     6.332
   3   6 C      2.765     0.199    23.759     7.983
   4   8 O      0.856    -0.370    21.087     6.157
   5   6 C      3.813    -0.069    21.806     6.647
   6   6 C      2.969     0.005    27.898     8.664
   7   6 C      2.923    -0.036    28.891     8.815
   8   6 C      2.925    -0.046    29.145     8.853
   9   6 C      2.920    -0.028    28.697     8.785
  10   6 C      2.919    -0.035    28.881     8.813
  11   6 C      2.920    -0.036    28.900     8.816
  12   1 H      0.860     0.171     1.265     1.762
  13   1 H      0.923     0.027     2.626     2.534
  14   1 H      0.924     0.045     2.387     2.416
  15   1 H      0.925     0.070     2.090     2.261
  16   1 H      0.925     0.027     2.631     2.537
  17   1 H      0.926     0.046     2.365     2.405
  18   1 H      0.926     0.019     2.751     2.594
  19   1 H      0.926     0.051     2.309     2.376
  20   1 H      0.926     0.045     2.385     2.415
  21   7 N      2.636    -0.382    29.889     8.120
  22   6 C      3.815     0.032    20.019     6.368
  23   6 C      2.764     0.265    22.529     7.773
  24   8 O      0.859    -0.487    23.501     6.500
  25   6 C      3.802    -0.011    20.770     6.488
  26  16 S      1.922    -0.298   153.961    20.884
  27   1 H      0.860     0.157     1.357     1.825
  28   1 H      0.923     0.055     2.256     2.349
  29   1 H      0.925     0.062     2.171     2.304
  30   1 H      0.925     0.044     2.400     2.423
  31   1 H      0.923     0.179     1.214     1.723
  32   7 N      2.689    -0.173    24.754     7.389
  33   6 C      3.797     0.020    20.244     6.407
  34   6 C      2.765     0.210    23.543     7.946
  35   8 O      0.856    -0.358    20.863     6.124
  36   6 C      3.723     0.116    18.787     6.190
  37   8 O      1.656    -0.478    22.417     6.392
  38   6 C      3.751    -0.144    23.338     6.889
  39   1 H      0.860     0.237     0.936     1.516
  40   1 H      0.923     0.095     1.833     2.117
  41   1 H      0.922     0.042     2.424     2.435
  42   1 H      0.805     0.345     0.601     1.218
  43   1 H      0.925     0.072     2.069     2.249
  44   1 H      0.925     0.068     2.112     2.273
  45   1 H      0.925     0.061     2.189     2.314
  46   7 N      2.636    -0.410    30.642     8.221
  47   6 C      3.785     0.037    19.960     6.364
  48   6 C      2.758     0.269    22.461     7.761
  49   8 O      0.859    -0.504    23.884     6.552
  50   6 C      3.758    -0.111    22.664     6.787
  51   1 H      0.860     0.186     1.179     1.701
  52   1 H      0.923     0.032     2.555     2.500
  53   1 H      0.925     0.035     2.520     2.482
  54   1 H      0.925     0.043     2.403     2.424
  55   1 H      0.925     0.051     2.306     2.375
  56   7 N      2.688    -0.176    24.802     7.397
  57   6 C      3.794     0.027    20.121     6.388
  58   6 C      2.767     0.199    23.758     7.983
  59   8 O      0.856    -0.371    21.101     6.159
  60   6 C      3.815    -0.080    22.010     6.677
  61   6 C      2.967     0.019    27.583     8.615
  62   6 C      2.923    -0.041    29.016     8.834
  63   6 C      2.929    -0.041    29.014     8.834
  64   6 C      2.919    -0.034    28.837     8.806
  65   6 C      2.918    -0.033    28.822     8.804
  66   6 C      2.921    -0.036    28.887     8.814
  67   1 H      0.860     0.227     0.978     1.549
  68   1 H      0.923     0.100     1.783     2.088
  69   1 H      0.924     0.084     1.936     2.176
  70   1 H      0.924     0.082     1.957     2.188
  71   1 H      0.926     0.028     2.611     2.527
  72   1 H      0.926     0.051     2.306     2.375
  73   1 H      0.925     0.019     2.754     2.595
  74   1 H      0.926     0.048     2.339     2.392
  75   1 H      0.926     0.024     2.667     2.554
  76   7 N      2.636    -0.396    30.254     8.169
  77   6 C      3.788     0.035    20.001     6.370
  78   6 C      2.760     0.272    22.409     7.752
  79   8 O      0.859    -0.513    24.083     6.580
  80   6 C      3.809    -0.069    21.815     6.649
  81   6 C      3.055    -0.037    28.864     8.811
  82   6 C      3.043    -0.008    28.186     8.708
  83   6 C      3.113    -0.019    28.323     8.718
  84   7 N      2.773    -0.110    23.403     7.185
  85   6 C      3.096     0.043    26.922     8.504
  86   6 C      2.911    -0.042    29.055     8.839
  87   6 C      2.908    -0.057    29.424     8.894
  88   6 C      2.918    -0.044    29.101     8.846
  89   6 C      2.923    -0.041    29.022     8.835
  90   1 H      0.860     0.171     1.268     1.764
  91   1 H      0.924     0.034     2.534     2.489
  92   1 H      0.924     0.052     2.291     2.367
  93   1 H      0.924     0.053     2.277     2.360
  94   1 H      0.926     0.043     2.408     2.427
  95   1 H      0.860     0.187     1.172     1.696
  96   1 H      0.926     0.038     2.473     2.459
  97   1 H      0.926     0.025     2.652     2.547
  98   1 H      0.925     0.021     2.715     2.577
  99   1 H      0.925     0.012     2.865     2.647
 100   7 N      2.691    -0.159    24.437     7.342
 101   6 C      3.797     0.030    20.077     6.380
 102   6 C      2.768     0.204    23.665     7.967
 103   8 O      0.856    -0.368    21.061     6.153
 104   6 C      3.812    -0.077    21.968     6.671
 105   6 C      3.850    -0.010    20.724     6.475
 106   6 C      3.757    -0.121    22.871     6.819
 107   6 C      3.756    -0.115    22.754     6.801
 108   1 H      0.860     0.222     0.998     1.565
 109   1 H      0.923     0.083     1.949     2.183
 110   1 H      0.924     0.068     2.109     2.271
 111   1 H      0.924     0.062     2.177     2.307
 112   1 H      0.924     0.039     2.457     2.451
 113   1 H      0.925     0.053     2.281     2.362
 114   1 H      0.925     0.047     2.353     2.399
 115   1 H      0.925     0.044     2.401     2.423
 116   1 H      0.925     0.050     2.315     2.379
 117   1 H      0.925     0.041     2.430     2.438
 118   1 H      0.925     0.031     2.576     2.510
 119   7 N      2.636    -0.402    30.422     8.192
 120   6 C      3.782     0.049    19.771     6.334
 121   6 C      2.767     0.206    23.623     7.960
 122   8 O      0.856    -0.395    21.576     6.228
 123   6 C      3.809    -0.070    21.834     6.651
 124   6 C      3.849    -0.011    20.745     6.478
 125   6 C      3.756    -0.109    22.642     6.785
 126   6 C      3.756    -0.110    22.651     6.786
 127   1 H      0.860     0.184     1.192     1.710
 128   1 H      0.923     0.029     2.603     2.523
 129   1 H      0.924     0.051     2.307     2.375
 130   1 H      0.924     0.061     2.187     2.313
 131   1 H      0.924     0.021     2.723     2.580
 132   1 H      0.925     0.035     2.520     2.482
 133   1 H      0.925     0.032     2.559     2.502
 134   1 H      0.925     0.041     2.430     2.438
 135   1 H      0.925     0.037     2.494     2.470
 136   1 H      0.925     0.041     2.433     2.439
 137   1 H      0.925     0.040     2.455     2.450
 138   7 N      2.636    -0.394    30.216     8.164
 139   6 C      3.787     0.026    20.152     6.394
 140   6 C      2.759     0.263    22.573     7.780
 141   8 O      0.858    -0.493    23.619     6.516
 142   6 C      3.809    -0.075    21.919     6.664
 143   6 C      2.966     0.012    27.742     8.639
 144   6 C      2.923    -0.044    29.090     8.845
 145   6 C      2.925    -0.038    28.947     8.823
 146   6 C      2.918    -0.036    28.890     8.814
 147   6 C      2.917    -0.031    28.778     8.797
 148   6 C      2.919    -0.035    28.879     8.812
 149   1 H      0.860     0.169     1.280     1.772
 150   1 H      0.923     0.052     2.291     2.367
 151   1 H      0.924     0.059     2.215     2.327
 152   1 H      0.924     0.044     2.392     2.419
 153   1 H      0.926     0.047     2.359     2.402
 154   1 H      0.926     0.029     2.594     2.518
 155   1 H      0.926     0.041     2.429     2.437
 156   1 H      0.926     0.030     2.591     2.517
 157   1 H      0.926     0.032     2.553     2.499
 158   7 N      2.686    -0.163    24.536     7.357
 159   6 C      3.748    -0.032    21.209     6.569
 160   6 C      2.753     0.274    22.361     7.743
 161   8 O      0.858    -0.491    23.584     6.511
 162   1 H      0.860     0.226     0.982     1.553
 163   1 H      0.924     0.075     2.031     2.229
 164   1 H      0.924     0.102     1.767     2.078
 165   7 N      2.689    -0.169    24.647     7.373
 166   6 C      3.800     0.010    20.415     6.433
 167   6 C      2.765     0.278    22.294     7.732
 168   8 O      0.859    -0.481    23.378     6.483
 169   6 C      3.852    -0.031    21.094     6.532
 170   6 C      3.806    -0.070    21.833     6.652
 171   6 C      3.755    -0.125    22.953     6.831
 172   6 C      3.753    -0.120    22.858     6.818
 173   1 H      0.860     0.220     1.011     1.575
 174   1 H      0.923     0.087     1.907     2.160
 175   1 H      0.924     0.060     2.195     2.317
 176   1 H      0.924     0.057     2.234     2.337
 177   1 H      0.924     0.047     2.356     2.401
 178   1 H      0.925     0.066     2.132     2.283
 179   1 H      0.925     0.047     2.356     2.400
 180   1 H      0.925     0.046     2.366     2.405
 181   1 H      0.925     0.050     2.318     2.381
 182   1 H      0.925     0.035     2.514     2.479
 183   1 H      0.925     0.046     2.368     2.407
 184   7 N      2.690    -0.177    24.823     7.400
 185   6 C      3.808     0.013    20.350     6.422
 186   6 C      2.759     0.281    22.245     7.724
 187   8 O      0.859    -0.492    23.618     6.516
 188   6 C      3.853    -0.030    21.076     6.530
 189   6 C      3.804    -0.065    21.742     6.638
 190   6 C      3.756    -0.126    22.979     6.835
 191   6 C      3.751    -0.112    22.713     6.797
 192   1 H      0.860     0.209     1.061     1.614
 193   1 H      0.923     0.088     1.899     2.155
 194   1 H      0.924     0.065     2.140     2.288
 195   1 H      0.924     0.058     2.227     2.333
 196   1 H      0.924     0.038     2.477     2.461
 197   1 H      0.925     0.060     2.201     2.320
 198   1 H      0.925     0.048     2.341     2.393
 199   1 H      0.925     0.040     2.443     2.444
 200   1 H      0.925     0.045     2.389     2.417
 201   1 H      0.925     0.033     2.549     2.497
 202   1 H      0.925     0.050     2.317     2.380
 203   7 N      2.693    -0.195    25.241     7.462
 204   6 C      3.801     0.025    20.160     6.393
 205   6 C      2.756     0.285    22.164     7.709
 206   8 O      0.858    -0.494    23.648     6.520
 207   6 C      3.678     0.077    19.500     6.326
 208   8 O      1.656    -0.467    22.184     6.358
 209   1 H      0.860     0.236     0.939     1.518
 210   1 H      0.923     0.076     2.021     2.223
 211   1 H      0.924     0.055     2.263     2.353
 212   1 H      0.923     0.039     2.467     2.456
 213   1 H      0.805     0.327     0.646     1.262
 214   7 N      2.687    -0.177    24.824     7.400
 215   6 C      3.746    -0.026    21.108     6.553
 216   6 C      2.757     0.279    22.278     7.729
 217   8 O      0.859    -0.507    23.929     6.559
 218   1 H      0.860     0.235     0.943     1.521
 219   1 H      0.924     0.070     2.081     2.256
 220   1 H      0.924     0.097     1.811     2.105
 221   7 N      2.692    -0.183    24.974     7.422
 222   6 C      3.806     0.022    20.199     6.398
 223   6 C      2.759     0.285    22.167     7.710
 224   8 O      0.858    -0.498    23.739     6.532
 225   6 C      3.852    -0.020    20.889     6.501
 226   6 C      3.756    -0.118    22.804     6.809
 227   6 C      3.757    -0.129    23.026     6.842
 228   1 H      0.860     0.238     0.933     1.513
 229   1 H      0.923     0.067     2.118     2.276
 230   1 H      0.924     0.049     2.331     2.387
 231   1 H      0.925     0.068     2.105     2.269
 232   1 H      0.925     0.030     2.593     2.518
 233   1 H      0.925     0.046     2.369     2.407
 234   1 H      0.925     0.063     2.166     2.302
 235   1 H      0.925     0.049     2.331     2.387
 236   1 H      0.925     0.064     2.153     2.295
 237   7 N      2.691    -0.183    24.969     7.421
 238   6 C      3.800     0.031    20.057     6.377
 239   6 C      2.753     0.281    22.249     7.724
 240   8 O      0.858    -0.507    23.936     6.560
 241   6 C      3.810    -0.072    21.865     6.656
 242   6 C      2.971     0.011    27.773     8.644
 243   6 C      2.924    -0.042    29.032     8.836
 244   6 C      2.924    -0.039    28.962     8.825
 245   6 C      2.919    -0.032    28.809     8.802
 246   6 C      2.919    -0.032    28.790     8.799
 247   6 C      2.920    -0.035    28.874     8.812
 248   1 H      0.860     0.224     0.993     1.561
 249   1 H      0.923     0.066     2.128     2.281
 250   1 H      0.924     0.067     2.122     2.278
 251   1 H      0.924     0.043     2.404     2.425
 252   1 H      0.926     0.050     2.318     2.381
 253   1 H      0.925     0.023     2.686     2.563
 254   1 H      0.926     0.052     2.292     2.368
 255   1 H      0.926     0.037     2.490     2.468
 256   1 H      0.926     0.047     2.355     2.400
 257   7 N      2.692    -0.199    25.332     7.475
 258   6 C      3.792     0.016    20.314     6.418
 259   6 C      2.759     0.289    22.095     7.698
 260   8 O      0.858    -0.497    23.711     6.529
 261   6 C      3.678     0.072    19.592     6.340
 262   8 O      1.655    -0.468    22.224     6.364
 263   1 H      0.860     0.237     0.937     1.517
 264   1 H      0.923     0.061     2.186     2.312
 265   1 H      0.924     0.062     2.180     2.309
 266   1 H      0.924     0.050     2.317     2.380
 267   1 H      0.804     0.328     0.642     1.258
 268   7 N      2.689    -0.187    25.047     7.433
 269   6 C      3.800     0.024    20.169     6.394
 270   6 C      2.756     0.275    22.355     7.742
 271   8 O      0.859    -0.516    24.138     6.587
 272   6 C      3.852    -0.016    20.820     6.490
 273   6 C      3.754    -0.115    22.764     6.803
 274   6 C      3.755    -0.112    22.701     6.794
 275   1 H      0.860     0.213     1.041     1.598
 276   1 H      0.923     0.078     2.005     2.214
 277   1 H      0.924     0.052     2.291     2.367
 278   1 H      0.925     0.059     2.206     2.322
 279   1 H      0.925     0.050     2.319     2.381
 280   1 H      0.925     0.036     2.501     2.473
 281   1 H      0.925     0.056     2.241     2.341
 282   1 H      0.925     0.043     2.408     2.427
 283   1 H      0.925     0.040     2.447     2.446
 284   7 N      2.687    -0.177    24.823     7.400
 285   6 C      3.797     0.023    20.185     6.397
 286   6 C      2.756     0.293    22.036     7.687
 287   8 O      0.859    -0.500    23.781     6.538
 288   6 C      3.851    -0.026    21.009     6.519
 289   6 C      3.803    -0.064    21.723     6.635
 290   6 C      3.754    -0.122    22.898     6.823
 291   6 C      3.751    -0.116    22.780     6.807
 292   1 H      0.860     0.238     0.931     1.511
 293   1 H      0.923     0.071     2.073     2.251
 294   1 H      0.924     0.068     2.110     2.272
 295   1 H      0.924     0.058     2.224     2.332
 296   1 H      0.924     0.025     2.659     2.550
 297   1 H      0.925     0.054     2.271     2.356
 298   1 H      0.925     0.042     2.423     2.434
 299   1 H      0.925     0.049     2.328     2.386
 300   1 H      0.925     0.054     2.266     2.354
 301   1 H      0.925     0.033     2.551     2.498
 302   1 H      0.925     0.053     2.286     2.364
 303   7 N      2.689    -0.182    24.943     7.418
 304   6 C      3.800     0.039    19.914     6.354
 305   6 C      2.760     0.285    22.170     7.711
 306   8 O      0.858    -0.506    23.918     6.557
 307   6 C      3.811    -0.108    22.557     6.760
 308   6 C      2.743     0.289    22.097     7.697
 309   8 O      0.859    -0.480    23.341     6.477
 310   7 N      2.639    -0.289    27.463     7.783
 311   1 H      0.860     0.207     1.070     1.621
 312   1 H      0.923     0.071     2.077     2.254
 313   1 H      0.924     0.076     2.025     2.225
 314   1 H      0.924     0.077     2.014     2.219
 315   1 H      0.860     0.250     0.884     1.473
 316   1 H      0.860     0.233     0.952     1.528
 317   7 N      2.690    -0.180    24.891     7.410
 318   6 C      3.805     0.026    20.137     6.388
 319   6 C      2.758     0.277    22.306     7.734
 320   8 O      0.859    -0.515    24.130     6.586
 321   6 C      3.853    -0.010    20.720     6.474
 322   6 C      3.803    -0.062    21.688     6.630
 323   6 C      3.755    -0.123    22.906     6.824
 324   6 C      3.752    -0.106    22.596     6.779
 325   1 H      0.860     0.212     1.048     1.604
 326   1 H      0.923     0.076     2.025     2.226
 327   1 H      0.924     0.034     2.532     2.488
 328   1 H      0.924     0.047     2.354     2.399
 329   1 H      0.924     0.025     2.655     2.548
 330   1 H      0.925     0.077     2.012     2.218
 331   1 H      0.925     0.039     2.457     2.451
 332   1 H      0.925     0.042     2.421     2.433
 333   1 H      0.925     0.043     2.414     2.430
 334   1 H      0.925     0.042     2.418     2.432
 335   1 H      0.925     0.048     2.344     2.394
 336   7 N      2.694    -0.196    25.265     7.465
 337   6 C      3.800     0.035    19.988     6.366
 338   6 C      2.760     0.281    22.240     7.723
 339   8 O      0.859    -0.485    23.450     6.493
 340   6 C      3.811    -0.074    21.902     6.661
 341   6 C      3.850    -0.008    20.690     6.470
 342   6 C      3.756    -0.113    22.708     6.794
 343   6 C      3.758    -0.121    22.864     6.817
 344   1 H      0.860     0.227     0.980     1.551
 345   1 H      0.923     0.062     2.171     2.304
 346   1 H      0.924     0.052     2.289     2.366
 347   1 H      0.924     0.052     2.296     2.370
 348   1 H      0.924     0.028     2.611     2.527
 349   1 H      0.925     0.059     2.208     2.324
 350   1 H      0.925     0.026     2.647     2.544
 351   1 H      0.925     0.040     2.453     2.449
 352   1 H      0.925     0.069     2.092     2.262
 353   1 H      0.925     0.045     2.387     2.416
 354   1 H      0.925     0.038     2.475     2.460
 355   7 N      2.691    -0.186    25.035     7.431
 356   6 C      3.797     0.036    19.976     6.364
 357   6 C      2.760     0.283    22.212     7.718
 358   8 O      0.859    -0.495    23.667     6.523
 359   6 C      3.757    -0.130    23.043     6.844
 360   1 H      0.860     0.211     1.049     1.605
 361   1 H      0.923     0.076     2.025     2.225
 362   1 H      0.925     0.067     2.117     2.275
 363   1 H      0.925     0.084     1.943     2.180
 364   1 H      0.925     0.056     2.252     2.347
 365   7 N      2.690    -0.184    24.998     7.426
 366   6 C      3.802     0.051    19.722     6.323
 367   6 C      2.754     0.280    22.256     7.725
 368   8 O      0.858    -0.517    24.156     6.590
 369   6 C      3.803    -0.091    22.230     6.713
 370   6 C      2.682     0.375    20.646     7.436
 371   8 O      0.856    -0.632    26.908     6.955
 372   8 O      0.856    -0.625    26.754     6.935
 373   1 H      0.860     0.199     1.109     1.650
 374   1 H      0.923     0.045     2.386     2.416
 375   1 H      0.925     0.035     2.514     2.480
 376   1 H      0.924     0.022     2.706     2.572
 377   7 N      2.691    -0.184    24.985     7.424
 378   6 C      3.789     0.037    19.967     6.364
 379   6 C      2.756     0.274    22.359     7.743
 380   8 O      0.859    -0.488    23.528     6.503
 381   6 C      3.759    -0.115    22.746     6.799
 382   1 H      0.860     0.217     1.024     1.586
 383   1 H      0.923     0.059     2.216     2.328
 384   1 H      0.925     0.077     2.012     2.218
 385   1 H      0.925     0.056     2.241     2.341
 386   1 H      0.925     0.064     2.156     2.296
 387   7 N      2.687    -0.178    24.865     7.406
 388   6 C      3.792     0.032    20.043     6.376
 389   6 C      2.764     0.205    23.652     7.964
 390   8 O      0.856    -0.358    20.856     6.123
 391   6 C      3.808    -0.071    21.858     6.655
 392   6 C      3.849    -0.010    20.724     6.475
 393   6 C      3.756    -0.115    22.750     6.801
 394   6 C      3.756    -0.123    22.903     6.824
 395   1 H      0.860     0.205     1.083     1.630
 396   1 H      0.923     0.101     1.773     2.082
 397   1 H      0.924     0.067     2.118     2.276
 398   1 H      0.924     0.051     2.302     2.373
 399   1 H      0.924     0.037     2.486     2.465
 400   1 H      0.925     0.056     2.241     2.341
 401   1 H      0.925     0.030     2.592     2.518
 402   1 H      0.925     0.044     2.402     2.424
 403   1 H      0.925     0.055     2.262     2.352
 404   1 H      0.925     0.045     2.383     2.414
 405   1 H      0.925     0.047     2.356     2.401
 406   7 N      2.634    -0.393    30.185     8.160
 407   6 C      3.788     0.038    19.949     6.361
 408   6 C      2.758     0.273    22.389     7.749
 409   8 O      0.859    -0.495    23.681     6.524
 410   6 C      3.813    -0.080    22.016     6.679
 411   6 C      2.972    -0.003    28.100     8.695
 412   6 C      2.924    -0.045    29.123     8.850
 413   6 C      2.925    -0.042    29.033     8.836
 414   6 C      2.918    -0.059    29.459     8.901
 415   6 C      2.918    -0.076    29.893     8.966
 416   6 C      2.846     0.141    24.916     8.181
 417   8 O      1.659    -0.437    21.575     6.270
 418   1 H      0.860     0.175     1.243     1.747
 419   1 H      0.923     0.027     2.629     2.536
 420   1 H      0.924     0.064     2.150     2.293
 421   1 H      0.924     0.061     2.186     2.312
 422   1 H      0.926     0.039     2.468     2.457
 423   1 H      0.926     0.049     2.338     2.391
 424   1 H      0.926     0.030     2.593     2.518
 425   1 H      0.926     0.045     2.390     2.417
 426   1 H      0.805     0.347     0.594     1.211
 427   7 N      2.688    -0.166    24.599     7.366
 428   6 C      3.796     0.033    20.024     6.372
 429   6 C      2.767     0.205    23.642     7.963
 430   8 O      0.856    -0.355    20.806     6.115
 431   6 C      3.812    -0.082    22.049     6.684
 432   6 C      2.969     0.014    27.686     8.631
 433   6 C      2.925    -0.035    28.873     8.812
 434   6 C      2.923    -0.043    29.079     8.843
 435   6 C      2.918    -0.024    28.602     8.770
 436   6 C      2.919    -0.032    28.790     8.799
 437   6 C      2.920    -0.029    28.720     8.788
 438   1 H      0.860     0.224     0.994     1.561
 439   1 H      0.923     0.073     2.053     2.241
 440   1 H      0.924     0.090     1.882     2.146
 441   1 H      0.924     0.080     1.983     2.202
[...]
   224  O   1.958        C  223 1.605    N  237 0.189
   225  C   3.986        C  227 1.007    C  226 1.007    C  222 0.966    H  230 0.961
   226  C   3.992        C  225 1.007    H  233 0.986    H  232 0.984    H  231 0.982
   227  C   3.990        C  225 1.007    H  235 0.985    H  234 0.982    H  236 0.974
   228  H   0.943        N  221 0.879
   229  H   0.995        C  222 0.945
   230  H   0.997        C  225 0.961
   231  H   0.995        C  226 0.982
   232  H   0.999        C  226 0.984
   233  H   0.998        C  226 0.986
   234  H   0.995        C  227 0.982
   235  H   0.997        C  227 0.985
   236  H   0.996        C  227 0.974
   237  N   3.469        C  223 1.306    C  238 0.983    H  248 0.899    O  224 0.189
   238  C   3.968        N  237 0.983    C  241 0.967    H  249 0.953    C  239 0.929
   239  C   3.943        O  240 1.621    N  257 1.312    C  238 0.929
   240  O   1.947        C  239 1.621    N  257 0.198
   241  C   3.986        C  242 1.006    H  251 0.972    C  238 0.967    H  250 0.959
   242  C   3.986        C  244 1.419    C  243 1.407    C  241 1.006    C  247 0.110
   243  C   3.989        C  245 1.450    C  242 1.407    H  252 0.963    C  246 0.112
   244  C   3.991        C  246 1.440    C  242 1.419    H  253 0.969    C  245 0.110
   245  C   3.991        C  243 1.450    C  247 1.434    H  254 0.966    C  244 0.110
   246  C   3.992        C  247 1.442    C  244 1.440    H  255 0.970    C  243 0.112
   247  C   3.990        C  246 1.442    C  245 1.434    H  256 0.970    C  242 0.110
   248  H   0.950        N  237 0.899
   249  H   0.995        C  238 0.953
   250  H   0.995        C  241 0.959
   251  H   0.997        C  241 0.972
   252  H   0.997        C  243 0.963
   253  H   0.999        C  244 0.969
   254  H   0.997        C  245 0.966
   255  H   0.998        C  246 0.970
   256  H   0.997        C  247 0.970
   257  N   3.463        C  239 1.312    C  258 0.984    H  263 0.873    O  240 0.198
   258  C   3.968        N  257 0.984    C  261 0.955    H  264 0.953    C  259 0.944
   259  C   3.948        O  260 1.637    N  268 1.288    C  258 0.944
   260  O   1.949        C  259 1.637    N  268 0.192
   261  C   3.956        O  262 1.019    H  265 0.964    H  266 0.960    C  258 0.955
   262  O   1.949        C  261 1.019    H  267 0.852
   263  H   0.944        N  257 0.873
   264  H   0.996        C  258 0.953
   265  H   0.996        C  261 0.964
   266  H   0.997        C  261 0.960
   267  H   0.892        O  262 0.852
   268  N   3.460        C  259 1.288    C  269 0.986    H  275 0.909    O  260 0.192
   269  C   3.960        N  268 0.986    C  270 0.949    C  272 0.946    H  276 0.945
   270  C   3.946        O  271 1.553    N  284 1.351    C  269 0.949
   271  O   1.947        C  270 1.553    N  284 0.189
   272  C   3.987        C  273 1.010    C  274 1.009    H  277 0.958    C  269 0.946
   273  C   3.993        C  272 1.010    H  280 0.982    H  278 0.981    H  279 0.980
   274  C   3.994        C  272 1.009    H  283 0.984    H  281 0.983    H  282 0.979
   275  H   0.954        N  268 0.909
   276  H   0.993        C  269 0.945
   277  H   0.996        C  272 0.958
   278  H   0.996        C  273 0.981
   279  H   0.997        C  273 0.980
   280  H   0.999        C  273 0.982
   281  H   0.996        C  274 0.983
   282  H   0.998        C  274 0.979
   283  H   0.998        C  274 0.984
   284  N   3.490        C  270 1.351    C  285 0.970    H  292 0.880    O  271 0.189
   285  C   3.959        N  284 0.970    C  288 0.962    C  286 0.947    H  293 0.946
   286  C   3.941        O  287 1.615    N  303 1.281    C  285 0.947
   287  O   1.947        C  286 1.615    N  303 0.181
   288  C   3.984        C  290 1.009    C  289 0.995    C  285 0.962    H  294 0.957
   289  C   3.994        C  291 1.019    C  288 0.995    H  296 0.977    H  295 0.974
   290  C   3.993        C  288 1.009    H  297 0.982    H  298 0.979    H  299 0.977
   291  C   3.994        C  289 1.019    H  301 0.986    H  302 0.986    H  300 0.985
   292  H   0.943        N  284 0.880
   293  H   0.995        C  285 0.946
   294  H   0.995        C  288 0.957
   295  H   0.996        C  289 0.974
   296  H   0.999        C  289 0.977
   297  H   0.997        C  290 0.982
   298  H   0.998        C  290 0.979
   299  H   0.998        C  290 0.977
   300  H   0.997        C  291 0.985
   301  H   0.999        C  291 0.986
   302  H   0.997        C  291 0.986
   303  N   3.451        C  286 1.281    C  304 0.982    H  311 0.918    O  287 0.181
   304  C   3.970        C  307 0.989    N  303 0.982    H  312 0.952    C  305 0.933
   305  C   3.943        O  306 1.616    N  317 1.307    C  304 0.933
   306  O   1.956        C  305 1.616    N  317 0.192
   307  C   3.990        C  304 0.989    H  313 0.958    C  308 0.957    H  314 0.955
   308  C   3.954        O  309 1.653    N  310 1.315    C  307 0.957
   309  O   1.965        C  308 1.653    N  310 0.204
   310  N   3.395        C  308 1.315    H  316 0.928    H  315 0.916    O  309 0.204
   311  H   0.957        N  303 0.918
   312  H   0.995        C  304 0.952
   313  H   0.994        C  307 0.958
   314  H   0.994        C  307 0.955
   315  H   0.937        N  310 0.916
   316  H   0.946        N  310 0.928
   317  N   3.470        C  305 1.307    C  318 0.977    H  325 0.909    O  306 0.192
   318  C   3.956        N  317 0.977    C  321 0.959    C  319 0.944    H  326 0.930
   319  C   3.947        O  320 1.587    N  336 1.323    C  318 0.944
   320  O   1.933        C  319 1.587    N  336 0.191
   321  C   3.986        C  323 1.006    C  322 0.996    H  327 0.964    C  318 0.959
   322  C   3.994        C  324 1.016    C  321 0.996    H  329 0.976    H  328 0.964
   323  C   3.991        C  321 1.006    H  331 0.985    H  332 0.985    H  330 0.976
   324  C   3.995        C  322 1.016    H  334 0.984    H  335 0.983    H  333 0.982
   325  H   0.955        N  317 0.909
   326  H   0.994        C  318 0.930
   327  H   0.998        C  321 0.964
   328  H   0.998        C  322 0.964
   329  H   0.999        C  322 0.976
   330  H   0.994        C  323 0.976
   331  H   0.998        C  323 0.985
   332  H   0.998        C  323 0.985
   333  H   0.998        C  324 0.982
   334  H   0.998        C  324 0.984
   335  H   0.998        C  324 0.983
   336  N   3.471        C  319 1.323    C  337 0.970    H  344 0.885    O  320 0.191
   337  C   3.959        C  340 0.981    N  336 0.970    H  345 0.950    C  338 0.936
   338  C   3.944        O  339 1.627    N  355 1.299    C  337 0.936
   339  O   1.956        C  338 1.627    N  355 0.193
   340  C   3.983        C  341 0.992    C  337 0.981    H  347 0.966    H  346 0.963
   341  C   3.992        C  342 1.009    C  343 1.007    C  340 0.992    H  348 0.964
   342  C   3.995        C  341 1.009    H  351 0.986    H  350 0.982    H  349 0.980
   343  C   3.992        C  341 1.007    H  354 0.987    H  353 0.985    H  352 0.981
   344  H   0.948        N  336 0.885
   345  H   0.996        C  337 0.950
   346  H   0.997        C  340 0.963
   347  H   0.997        C  340 0.966
   348  H   0.999        C  341 0.964
   349  H   0.996        C  342 0.980
   350  H   0.999        C  342 0.982
   351  H   0.998        C  342 0.986
   352  H   0.995        C  343 0.981
   353  H   0.998        C  343 0.985
   354  H   0.999        C  343 0.987
   355  N   3.465        C  338 1.299    C  356 0.979    H  360 0.910    O  339 0.193
   356  C   3.967        C  359 0.997    N  355 0.979    H  361 0.953    C  357 0.936
   357  C   3.940        O  358 1.600    N  365 1.317    C  356 0.936
   358  O   1.949        C  357 1.600    N  365 0.190
   359  C   3.984        C  356 0.997    H  362 0.982    H  364 0.979    H  363 0.978
   360  H   0.955        N  355 0.910
   361  H   0.994        C  356 0.953
   362  H   0.995        C  359 0.982
   363  H   0.993        C  359 0.978
   364  H   0.997        C  359 0.979
   365  N   3.477        C  357 1.317    C  366 0.975    H  373 0.909    O  358 0.190
   366  C   3.966        C  369 0.983    N  365 0.975    H  374 0.951    C  367 0.938
   367  C   3.953        O  368 1.603    N  377 1.318    C  366 0.938
   368  O   1.911        C  367 1.603    N  377 0.196
   369  C   3.980        C  366 0.983    H  375 0.969    H  376 0.965    C  370 0.895
   370  C   3.937        O  371 1.518    O  372 1.497    C  369 0.895
   371  O   1.816        C  370 1.518    O  372 0.217
   372  O   1.816        C  370 1.497    O  371 0.217
   373  H   0.960        N  365 0.909
   374  H   0.998        C  366 0.951
   375  H   0.999        C  369 0.969
   376  H   0.999        C  369 0.965
   377  N   3.478        C  367 1.318    C  378 0.977    H  382 0.898    O  368 0.196
   378  C   3.959        C  381 0.997    N  377 0.977    H  383 0.941    C  379 0.936
   379  C   3.953        O  380 1.618    N  387 1.319    C  378 0.936
   380  O   1.934        C  379 1.618    N  387 0.197
   381  C   3.984        C  378 0.997    H  385 0.981    H  384 0.979    H  386 0.977
   382  H   0.953        N  377 0.898
   383  H   0.996        C  378 0.941
   384  H   0.993        C  381 0.979
   385  H   0.996        C  381 0.981
   386  H   0.996        C  381 0.977
   387  N   3.484        C  379 1.319    C  388 0.984    H  395 0.897    O  380 0.197
   388  C   3.959        N  387 0.984    C  389 0.980    C  391 0.954    H  396 0.930
   389  C   3.905        O  390 1.891    C  388 0.980    H  548 0.956
   390  O   2.041        C  389 1.891
   391  C   3.979        C  392 0.991    H  398 0.972    H  397 0.961    C  388 0.954
   392  C   3.991        C  394 1.010    C  393 1.007    C  391 0.991    H  399 0.963
   393  C   3.995        C  392 1.007    H  401 0.987    H  402 0.986    H  400 0.984
   394  C   3.994        C  392 1.010    H  403 0.986    H  404 0.986    H  405 0.983
   395  H   0.958        N  387 0.897
   396  H   0.989        C  388 0.930
   397  H   0.995        C  391 0.961
   398  H   0.997        C  391 0.972
   399  H   0.999        C  392 0.963
   400  H   0.996        C  393 0.984
   401  H   0.999        C  393 0.987
   402  H   0.998        C  393 0.986
   403  H   0.997        C  394 0.986
   404  H   0.998        C  394 0.986
   405  H   0.998        C  394 0.983
   406  N   2.983        C  407 1.014    H  549 0.955    H  418 0.950
   407  C   3.985        N  406 1.014    C  410 0.967    H  419 0.961    C  408 0.936
   408  C   3.938        O  409 1.624    N  427 1.299    C  407 0.936
   409  O   1.968        C  408 1.624    N  427 0.192
   410  C   3.992        C  411 1.009    H  421 0.969    C  407 0.967    H  420 0.966
   411  C   3.988        C  413 1.407    C  412 1.406    C  410 1.009
   412  C   3.990        C  414 1.455    C  411 1.406    H  422 0.966    C  415 0.105
   413  C   3.991        C  415 1.454    C  411 1.407    H  423 0.968    C  414 0.108
   414  C   3.990        C  412 1.455    C  416 1.367    H  424 0.967    C  413 0.108
   415  C   3.986        C  413 1.454    C  416 1.369    H  425 0.965    C  412 0.105
   416  C   3.937        C  415 1.369    C  414 1.367    O  417 1.070
   417  O   2.093        C  416 1.070    H  426 0.858
   418  H   0.969        N  406 0.950
   419  H   0.999        C  407 0.961
   420  H   0.995        C  410 0.966
   421  H   0.996        C  410 0.969
   422  H   0.998        C  412 0.966
   423  H   0.998        C  413 0.968
   424  H   0.999        C  414 0.967
   425  H   0.998        C  415 0.965
   426  H   0.879        O  417 0.858
   427  N   3.465        C  408 1.299    C  428 0.978    H  438 0.916    O  409 0.192
   428  C   3.969        N  427 0.978    C  429 0.976    C  431 0.956    H  439 0.947
   429  C   3.895        O  430 1.878    C  428 0.976    H  550 0.950
   430  O   2.066        C  429 1.878
   431  C   3.982        C  432 1.007    H  440 0.966    C  428 0.956    H  441 0.955
   432  C   3.988        C  434 1.419    C  433 1.403    C  431 1.007    C  437 0.110
   433  C   3.991        C  435 1.452    C  432 1.403    H  442 0.968    C  436 0.112
   434  C   3.986        C  436 1.435    C  432 1.419    H  443 0.965    C  435 0.110
   435  C   3.992        C  433 1.452    C  437 1.430    H  444 0.965    C  434 0.110
   436  C   3.989        C  437 1.445    C  434 1.435    H  445 0.970    C  433 0.112
   437  C   3.991        C  436 1.445    C  435 1.430    H  446 0.972    C  432 0.110
   438  H   0.950        N  427 0.916
   439  H   0.995        C  428 0.947
   440  H   0.992        C  431 0.966
   441  H   0.993        C  431 0.955
   442  H   0.999        C  433 0.968
   443  H   0.996        C  434 0.965
   444  H   1.000        C  435 0.965
   445  H   0.998        C  436 0.970
   446  H   0.999        C  437 0.972
   447  N   2.989        C  448 1.022    H  551 0.954    H  453 0.930
   448  C   3.987        N  447 1.022    C  451 0.968    H  454 0.960    C  449 0.939
   449  C   3.946        O  450 1.579    N  458 1.338    C  448 0.939
   450  O   1.938        C  449 1.579    N  458 0.192
   451  C   3.956        O  452 1.000    H  456 0.969    C  448 0.968    H  455 0.963
   452  O   1.935        C  451 1.000    H  457 0.875
   453  H   0.969        N  447 0.930
   454  H   0.997        C  448 0.960
   455  H   0.999        C  451 0.963
   456  H   1.000        C  451 0.969
   457  H   0.899        O  452 0.875
   458  N   3.486        C  449 1.338    C  459 0.974    H  463 0.875    O  450 0.192
   459  C   3.967        C  462 0.985    N  458 0.974    C  460 0.969    H  464 0.950
   460  C   3.899        O  461 1.900    C  459 0.969    H  552 0.953
   461  O   2.051        C  460 1.900
   462  C   3.981        C  459 0.985    H  467 0.981    H  465 0.980    H  466 0.976
   463  H   0.939        N  458 0.875
   464  H   0.995        C  459 0.950
   465  H   0.994        C  462 0.980
   466  H   0.994        C  462 0.976
   467  H   0.994        C  462 0.981
   468  N   2.997        C  469 1.013    H  553 0.955    H  475 0.922
   469  C   3.985        N  468 1.013    C  470 0.979    H  476 0.961    C  472 0.937
   470  C   3.894        O  471 1.870    C  469 0.979    H  554 0.954
   471  O   2.052        C  470 1.870
   472  C   3.950        C  474 1.005    O  473 0.986    H  477 0.954    C  469 0.937
   473  O   1.979        C  472 0.986    H  478 0.860
   474  C   3.993        C  472 1.005    H  480 0.979    H  481 0.979    H  479 0.977
   475  H   0.968        N  468 0.922
   476  H   0.997        C  469 0.961
   477  H   0.998        C  472 0.954
   478  H   0.894        O  473 0.860
   479  H   0.997        C  474 0.977
   480  H   0.997        C  474 0.979
   481  H   0.998        C  474 0.979
   482  N   2.997        C  483 1.014    H  555 0.955    H  490 0.954
   483  C   3.984        N  482 1.014    C  486 0.961    H  491 0.957    C  484 0.943
   484  C   3.942        O  485 1.567    N  501 1.337    C  483 0.943
   485  O   1.942        C  484 1.567    N  501 0.188
   486  C   3.992        C  488 1.008    C  487 0.994    C  483 0.961    H  492 0.959
   487  C   3.996        C  489 1.020    C  486 0.994    H  494 0.976    H  493 0.975
   488  C   3.996        C  486 1.008    H  496 0.984    H  495 0.983    H  497 0.982
   489  C   3.996        C  487 1.020    H  498 0.986    H  499 0.986    H  500 0.983
   490  H   0.977        N  482 0.954
   491  H   0.998        C  483 0.957
   492  H   0.998        C  486 0.959
   493  H   0.999        C  487 0.975
   494  H   0.998        C  487 0.976
   495  H   0.998        C  488 0.983
   496  H   0.999        C  488 0.984
   497  H   0.998        C  488 0.982
   498  H   0.998        C  489 0.986
   499  H   0.998        C  489 0.986
   500  H   0.999        C  489 0.983
   501  N   3.492        C  484 1.337    C  502 0.976    H  509 0.891    O  485 0.188
   502  C   3.964        C  503 0.976    N  501 0.976    C  505 0.952    H  510 0.945
   503  C   3.904        O  504 1.891    C  502 0.976    H  556 0.955
   504  O   2.038        C  503 1.891
   505  C   3.985        C  507 1.007    C  506 0.993    H  511 0.965    C  502 0.952
   506  C   3.993        C  508 1.017    C  505 0.993    H  512 0.966    H  513 0.966
   507  C   3.992        C  505 1.007    H  516 0.983    H  514 0.982    H  515 0.981
   508  C   3.992        C  506 1.017    H  519 0.985    H  518 0.982    H  517 0.982
   509  H   0.945        N  501 0.891
   510  H   0.994        C  502 0.945
   511  H   0.997        C  505 0.965
   512  H   0.997        C  506 0.966
   513  H   0.998        C  506 0.966
   514  H   0.996        C  507 0.982
   515  H   0.998        C  507 0.981
   516  H   0.998        C  507 0.983
   517  H   0.998        C  508 0.982
   518  H   0.997        C  508 0.982
   519  H   0.998        C  508 0.985
   520  N   3.004        C  521 1.018    H  557 0.957    H  530 0.933
   521  C   3.986        N  520 1.018    C  522 0.974    H  531 0.960    C  524 0.941
   522  C   3.888        O  523 1.891    C  521 0.974    H  558 0.952
   523  O   2.028        C  522 1.891
   524  C   3.993        C  525 1.019    H  533 0.967    H  532 0.962    C  521 0.941
   525  C   3.944        C  527 1.536    N  526 1.207    C  524 1.019    C  528 0.108
   526  N   3.596        C  528 1.278    C  525 1.207    H  534 0.891    N  529 0.104
   527  C   3.970        C  525 1.536    N  529 1.301    H  535 0.967
   528  C   3.956        N  529 1.532    N  526 1.278    H  536 0.964    C  525 0.108
   529  N   3.008        C  528 1.532    C  527 1.301    N  526 0.104
   530  H   0.969        N  520 0.933
   531  H   0.998        C  521 0.960
   532  H   0.995        C  524 0.962
   533  H   0.997        C  524 0.967
   534  H   0.956        N  526 0.891
   535  H   0.999        C  527 0.967
   536  H   0.999        C  528 0.964
   537  H   0.971        N    1 0.958
   538  H   0.991        C    3 0.951
   539  H   0.962        N   21 0.951
   540  H   0.993        C   34 0.952
   541  H   0.972        N   46 0.961
   542  H   0.994        C   58 0.953
   543  H   0.968        N   76 0.958
   544  H   0.995        C  102 0.954
   545  H   0.969        N  119 0.958
   546  H   0.995        C  121 0.954
   547  H   0.965        N  138 0.952
   548  H   0.996        C  389 0.956
   549  H   0.966        N  406 0.955
   550  H   0.992        C  429 0.950
   551  H   0.965        N  447 0.954
   552  H   0.993        C  460 0.953
   553  H   0.967        N  468 0.955
   554  H   0.994        C  470 0.954
   555  H   0.966        N  482 0.955
   556  H   0.994        C  503 0.955
   557  H   0.969        N  520 0.957
   558  H   0.993        C  522 0.952
 
molecular dipole:
                 x           y           z       tot (Debye)
 q only:      -56.388    -110.648     -86.224
   full:      -59.482    -110.551     -83.626     383.408
molecular quadrupole (traceless):
                xx          xy          yy          xz          yz          zz
 q only:     6169.586   -9793.722   -6862.263   -7452.654  -13643.916     692.677
  q+dip:     5526.220  -10157.079   -6806.920   -7576.649  -13283.429    1280.700
   full:     5525.072  -10155.069   -6806.534   -7579.764  -13288.407    1281.463


           -------------------------------------------------
          | TOTAL ENERGY             -834.373065394803 Eh   |
          | GRADIENT NORM               0.739233415430 Eh/α |
          | HOMO-LUMO GAP               1.462813630474 eV   |
           -------------------------------------------------

------------------------------------------------------------------------
 * finished run on 2019/05/31 at 07:36:34.577     
------------------------------------------------------------------------
 total:
 * wall-time:     0 d,  0 h,  0 min, 37.631 sec
 *  cpu-time:     0 d,  0 h,  0 min, 17.953 sec
 * ratio c/w:     0.477 speedup
 SCF:
 * wall-time:     0 d,  0 h,  0 min, 35.875 sec
 *  cpu-time:     0 d,  0 h,  0 min, 17.225 sec
 * ratio c/w:     0.480 speedup

