      -----------------------------------------------------------      
     |                   =====================                   |     
     |                           x T B                           |     
     |                   =====================                   |     
     |                         S. Grimme                         |     
     |          Mulliken Center for Theoretical Chemistry        |     
     |                    University of Bonn                     |     
     |                 Version 6.0.1 (SAW181210)                 |     
      -----------------------------------------------------------      

   This program is distributed in the hope that it will be useful,
   but WITHOUT ANY WARRANTY; without even the implied warranty of
   MERCHANTABILITY or FITNESS FOR A PARTICULAR PURPOSE.
   
   FOR NON-COMMERCIAL, ACADEMIA USE ONLY.
   
   Cite this work as:
   S. Grimme, C. Bannwarth, P. Shushkov, J. Comput. Theory Chem., 2017,
   13, 1989-2009.
   C. Bannwarth, S. Ehlert and S. Grimme., ChemRxiv, 2018, preprint.
   http://doi.org/10.26434/chemrxiv.7246238.v1
   
   for sTDA-xTB:
   S. Grimme and C. Bannwarth, J. Chem. Phys., 2016, 145, 054103.
   
   in the mass-spec context:
   V. Asgeirsson, C. Bauer and S. Grimme, Chem. Sci., 2017, 8, 4879.
   
   if GBSA is used:
   P. Shushkov, F. März and S. Grimme, unpublished.
   
   for ANC optimizer:
   S. Grimme, unpublished.
   Rational Function algorithm used in ANCopt:
   F. Eckert, P. Pulay, H.-J. Werner, J. Comput. Chem., 1997, 18, 1473.
   
   with help from (in alphabetical order)
   C. Bannwarth, F. Bohle, G. Brandenburg, E. Caldeweyher, M. Checinski,
   S. Dohm, S. Ehlert, S. Ehrlich, F. März, H. Neugebauer, J. Pisarek,
   P. Pracht, P. Shushkov, and S. Spicher.
   
 * started run on 2019/03/07 at 11:37:46.360     
========================================================================
 # omp threads = 1
========================================================================
number of atoms            : 508
number of electrons        : 1406
charge                     : 1
spin                       : .0
first test random number   : .9871
           ------------------------------------------------- 
          |                 G F N 2 - x T B                 |
          | Geometry, Frequencies, Noncovalent interactions |
          |            JCTC 2018 parametrisation            |
           ------------------------------------------------- 
 
      method parameters     
 k(s)        :  1.8500
 k(p)        :  2.2300
 k(d)        :  2.2300
 k(f)        :  2.0000
 kEN (H0ij)  : -2.0000
 D4 a1       :  0.5200
 D4 a2       :  5.0000
 D4 s6       :  1.0000
 D4 s8       :  2.7000
 D4 s9       :  5.0000
 alphaj      :  2.0000

 Solvent             : h2o
 Using internal parameter file: .param_gbsa2_h2o
 Gsolv ref. state (COSMO-RS): gsolv [1 M gas/solution]
 temperature (mdtemp)       :    298.150000000000     
 dielectric constant        :    80.2000000000000     
 rho                        :    1.00000000000000     
 mass                       :    18.0000000000000     
 surface tension            :    15.5689454083859     
 probe radius               :   0.975313790000000     
 vdW radii scaling          :    1.00000000000000     
 Gshift (Eh)                :   1.857443126794793E-003
 c1                         :    1.55243817000000     
 soset                      :   0.130326360000000     
 HB correction              :  T

            Z     q(EN)     CN     RAES       Cart. coordinates
     1  N   5.0   -0.20    3.24    1.97   354.34818   125.98236   206.96468
     2  C   4.0    0.03    4.41    4.40   351.87264   125.26426   205.93666
     3  C   4.0    0.16    3.44    3.09   349.77505   126.08252   207.76025
     4  O   6.0   -0.27    1.24    1.80   350.18323   126.16944   210.04493
     5  C   4.0   -0.03    4.38    4.34   351.67233   122.34275   205.47179
     6  C   4.0   -0.05    4.28    4.16   353.90221   121.38277   203.88442
     7  C   4.0   -0.08    4.21    4.02   349.04939   121.65678   204.30016
     8  C   4.0   -0.08    4.14    3.89   353.45812   118.77872   202.68823
     9  H   1.0    0.11    1.08    1.44   355.21746   124.74081   207.55238
    10  H   1.0    0.04    1.12    1.45   351.67989   126.11464   204.32473
    11  H   1.0    0.05    1.12    1.45   351.77815   121.47725   207.08373
    12  H   1.0    0.05    1.09    1.44   354.25181   122.59597   202.55595
    13  H   1.0    0.05    1.09    1.44   355.39509   121.30340   204.94456
    14  H   1.0    0.04    1.05    1.44   348.95679   119.84642   204.02426
    15  H   1.0    0.06    1.06    1.44   347.71335   122.16889   205.44723
    16  H   1.0    0.05    1.05    1.44   348.84719   122.52794   202.69956
    17  H   1.0    0.05    1.05    1.44   354.93400   118.29118   201.71691
    18  H   1.0    0.04    1.05    1.44   353.15954   117.54284   204.00725
    19  H   1.0    0.05    1.06    1.44   351.99925   118.85431   201.58274
    20  N   5.0   -0.15    3.48    2.07   347.61509   126.81951   206.73035
    21  C   4.0    0.04    4.48    4.51   345.49104   127.67177   208.31205
    22  C   4.0    0.16    3.43    3.09   344.12287   125.34741   209.40620
    23  O   6.0   -0.30    1.25    1.80   344.03406   123.38399   208.17221
    24  C   4.0   -0.03    4.39    4.36   343.66367   129.29127   206.75681
    25  C   4.0    0.17    3.30    3.05   344.38744   132.05405   206.73413
    26  O   6.0   -0.25    1.20    1.80   344.68223   133.28615   208.70511
    27  N   5.0   -0.22    3.23    1.96   344.61987   133.12930   204.47402
    28  H   1.0    0.09    1.13    1.45   347.32596   126.84596   205.13164
    29  H   1.0    0.07    1.13    1.45   346.12787   128.70168   209.68966
    30  H   1.0    0.05    1.10    1.44   343.61643   128.66388   205.03527
    31  H   1.0    0.06    1.10    1.44   341.97048   129.11553   207.43711
    32  H   1.0    0.13    1.09    1.44   344.98081   134.70911   204.35874
    33  H   1.0    0.12    1.09    1.44   344.40822   132.24491   203.12664
    34  N   5.0   -0.14    3.49    2.07   343.14022   125.55717   211.70600
    35  C   4.0    0.05    4.54    4.59   341.86087   123.44446   212.97400
    36  C   4.0    0.15    3.43    3.09   339.20959   124.09641   213.91320
    37  O   6.0   -0.27    1.26    1.80   338.56141   126.28472   214.20422
    38  C   4.0    0.05    4.33    4.26   343.52761   122.50715   215.14152
    39  O   6.0   -0.26    2.16    1.85   344.59720   124.64443   216.45866
    40  C   4.0   -0.07    4.21    4.02   345.67623   120.94813   214.05871
    41  H   1.0    0.12    1.13    1.45   343.19124   126.92344   212.58283
    42  H   1.0    0.07    1.14    1.45   341.62277   122.11598   211.73434
    43  H   1.0    0.04    1.11    1.44   342.51850   121.49993   216.29425
    44  H   1.0    0.14    1.08    1.44   345.50993   124.12854   217.65108
    45  H   1.0    0.05    1.06    1.44   346.74392   120.34531   215.42309
    46  H   1.0    0.05    1.06    1.44   344.99215   119.51572   213.14219
    47  H   1.0    0.07    1.06    1.44   346.67023   121.98370   212.91920
    48  N   5.0   -0.16    3.48    2.06   337.61088   122.19346   214.32327
    49  C   4.0    0.04    4.56    4.62   335.02762   122.68290   215.17931
    50  C   4.0    0.16    3.45    3.10   334.67236   123.08163   218.00634
    51  O   6.0   -0.26    1.24    1.80   333.24372   124.76538   218.73956
    52  C   4.0    0.05    4.36    4.31   333.19081   120.59286   214.40075
    53  O   6.0   -0.28    2.16    1.85   334.22071   118.18346   215.05648
    54  C   4.0   -0.08    4.21    4.01   332.67680   120.74404   211.58884
    55  H   1.0    0.11    1.13    1.45   337.97749   120.62310   214.11918
    56  H   1.0    0.07    1.15    1.45   334.66291   124.27027   214.33839
    57  H   1.0    0.05    1.11    1.45   331.60344   120.81207   215.29081
    58  H   1.0    0.13    1.08    1.44   333.20593   117.04018   214.62940
    59  H   1.0    0.04    1.06    1.44   331.51084   119.41367   211.10695
    60  H   1.0    0.05    1.06    1.44   331.94170   122.37487   211.18821
    61  H   1.0    0.08    1.07    1.44   334.24906   120.53995   210.66854
    62  N   5.0   -0.16    3.46    2.05   335.80997   121.43946   219.55214
    63  C   4.0    0.04    4.44    4.45   335.63990   121.56229   222.31681
    64  C   4.0    0.17    3.45    3.09   333.00373   121.05018   223.35805
    65  O   6.0   -0.27    1.26    1.80   331.99650   122.55251   224.84148
    66  C   4.0   -0.03    4.39    4.36   336.56586   124.17011   223.29569
    67  C   4.0   -0.04    4.24    4.08   337.51828   124.25893   226.06603
    68  C   4.0   -0.05    4.25    4.10   340.00894   122.76605   226.42318
    69  C   4.0   -0.04    4.24    4.08   342.25205   124.15311   225.23644
    70  N   5.0   -0.16    4.11    3.19   342.24071   124.04728   222.36594
    71  H   1.0    0.10    1.13    1.45   336.71704   120.20358   219.01357
    72  H   1.0    0.05    1.13    1.45   336.72649   120.21870   222.92719
    73  H   1.0    0.05    1.10    1.44   337.92079   124.74648   222.20343
    74  H   1.0    0.08    1.09    1.44   335.19203   125.37009   223.12183
    75  H   1.0    0.06    1.08    1.44   337.77718   126.00315   226.56491
    76  H   1.0    0.07    1.08    1.44   336.23138   123.56918   227.17529
    77  H   1.0    0.05    1.08    1.44   340.32075   122.51093   228.21086
    78  H   1.0    0.05    1.09    1.44   339.84265   121.10498   225.66540
    79  H   1.0    0.05    1.08    1.44   342.22937   125.90488   225.77501
    80  H   1.0    0.05    1.08    1.44   343.81296   123.41989   225.86005
    81  H   1.0    0.07    1.08    1.44   343.80162   123.76382   221.80847
    82  H   1.0    0.07    1.09    1.44   341.22970   122.80573   221.85383
    83  H   1.0    0.08    1.08    1.44   341.68513   125.51182   221.75178
    84  N   5.0   -0.14    3.52    2.09   331.86233   118.98659   222.52468
    85  C   4.0    0.04    4.47    4.50   329.34900   118.27039   223.33537
    86  C   4.0    0.17    3.45    3.09   329.46616   116.99104   225.95831
    87  O   6.0   -0.25    1.27    1.80   331.41825   116.98348   227.17152
    88  C   4.0   -0.04    4.43    4.42   328.11312   116.47137   221.40029
    89  C   4.0   -0.01    3.59    3.16   329.38868   113.93914   221.11683
    90  C   4.0   -0.04    3.51    3.12   328.40035   111.79241   222.28468
    91  C   4.0   -0.04    3.51    3.12   331.54297   113.66324   219.60505
    92  C   4.0   -0.04    3.46    3.10   329.48506   109.45293   221.94075
    93  C   4.0   -0.05    3.46    3.10   332.67869   111.29919   219.23089
    94  C   4.0    0.07    3.49    3.11   331.64123   109.20537   220.41763
    95  O   6.0   -0.28    2.15    1.85   332.78074   106.88101   220.06237
    96  H   1.0    0.10    1.15    1.45   332.53319   117.95480   221.46265
    97  H   1.0    0.06    1.13    1.45   328.32666   119.78595   223.45253
    98  H   1.0    0.06    1.10    1.44   326.36890   116.19547   221.88973
    99  H   1.0    0.06    1.10    1.44   328.08666   117.29907   219.76568
   100  H   1.0    0.07    1.10    1.44   326.98306   111.94359   223.31458
   101  H   1.0    0.06    1.10    1.44   332.23650   115.08053   218.83215
   102  H   1.0    0.07    1.10    1.44   328.78964   108.03752   222.71743
   103  H   1.0    0.06    1.09    1.44   334.09788   111.13856   218.20855
   104  H   1.0    0.14    1.10    1.44   334.03741   107.04731   219.10805
   105  N   5.0   -0.15    3.48    2.07   327.39124   115.81752   226.75956
   106  C   4.0    0.04    4.53    4.58   327.32321   114.60054   229.23510
   107  C   4.0    0.15    3.43    3.09   326.33299   111.85855   229.14250
   108  O   6.0   -0.27    1.26    1.80   324.07288   111.43903   228.72298
   109  C   4.0    0.06    4.35    4.29   325.77931   116.20303   231.12860
   110  O   6.0   -0.25    2.15    1.85   326.70716   118.77117   231.17018
   111  C   4.0   -0.08    4.25    4.11   325.98151   115.17691   233.69485
   112  H   1.0    0.11    1.13    1.45   326.01363   115.70414   225.90540
   113  H   1.0    0.06    1.15    1.45   329.05987   114.49850   229.81335
   114  H   1.0    0.06    1.11    1.45   324.02942   116.16334   230.58436
   115  H   1.0    0.15    1.08    1.44   325.85489   119.62532   232.20197
   116  H   1.0    0.06    1.06    1.44   324.99885   116.21059   234.84569
   117  H   1.0    0.05    1.07    1.44   325.34089   113.45915   233.71942
   118  H   1.0    0.06    1.06    1.44   327.73895   115.18069   234.21830
   119  N   5.0   -0.16    3.43    2.04   328.03564   110.03496   229.40328
   120  C   4.0    0.03    4.41    4.40   327.37801   107.31943   229.46942
   121  C   4.0    0.15    3.41    3.08   326.04387   106.25929   227.11482
   122  O   6.0   -0.29    1.29    1.80   324.71539   107.59344   225.75422
   123  C   4.0   -0.07    4.24    4.07   325.83222   106.73361   231.79378
   124  H   1.0    0.09    1.13    1.45   329.62868   110.32220   229.55068
   125  H   1.0    0.03    1.14    1.45   329.00129   106.46905   229.50911
   126  H   1.0    0.05    1.06    1.44   325.41270   104.94971   231.81646
   127  H   1.0    0.05    1.06    1.44   326.79976   107.15124   233.29423
   128  H   1.0    0.07    1.06    1.44   324.28831   107.72194   231.76733
   129  N   5.0   -0.18    3.51    2.08   326.42937   103.81021   226.68019
   130  C   4.0    0.04    4.39    4.36   325.34278   102.44015   224.53724
   131  C   4.0    0.09    3.25    3.04   324.29776    99.93816   225.55202
   132  O   6.0   -0.24    1.11    1.80   322.24552    99.05943   224.80369
   133  C   4.0   -0.04    4.36    4.31   327.35723   101.99040   222.52090
   134  C   4.0    0.25    3.17    3.03   326.53142   100.13469   220.50267
   135  O   6.0   -0.26    1.20    1.80   324.30343   100.11957   219.74867
   136  O   6.0   -0.27    1.19    1.80   328.14902    98.68716   219.62017
   137  H   1.0    0.08    1.16    1.45   327.34967   102.87857   227.64206
   138  H   1.0    0.07    1.13    1.45   323.99729   103.40580   223.75111
   139  H   1.0    0.05    1.09    1.44   327.78241   103.58911   221.73099
   140  H   1.0    0.05    1.10    1.44   328.88224   101.36679   223.32403
   141  N   5.0   -0.22    3.24    1.97   334.94259   107.48572   234.16161
   142  C   4.0    0.03    4.37    4.33   334.92180   109.56064   232.30779
   143  C   4.0    0.16    3.47    3.10   336.81341   108.95971   230.24799
   144  O   6.0   -0.28    1.25    1.80   338.82597   107.95059   230.80357
   145  C   4.0    0.03    4.25    4.10   335.56242   112.08343   233.53800
   146  O   6.0   -0.26    2.08    1.84   334.96715   114.12622   231.86559
   147  H   1.0    0.11    1.08    1.44   335.96871   107.67658   235.40694
   148  H   1.0    0.04    1.13    1.45   333.23616   109.71182   231.60103
   149  H   1.0    0.05    1.07    1.44   334.62700   112.26862   235.10270
   150  H   1.0    0.06    1.07    1.44   337.34254   112.13067   233.96886
   151  H   1.0    0.15    1.07    1.44   335.32620   115.50572   232.56479
   152  N   5.0   -0.15    3.52    2.09   336.13689   109.47938   227.88394
   153  C   4.0    0.04    4.51    4.55   337.76773   108.94459   225.77879
   154  C   4.0    0.16    3.47    3.10   337.89056   111.24628   224.04213
   155  O   6.0   -0.27    1.25    1.80   336.45248   113.03963   224.36905
   156  C   4.0   -0.05    4.43    4.43   336.82853   106.66747   224.22921
   157  C   4.0   -0.05    4.34    4.27   336.60177   104.21083   225.63328
   158  C   4.0   -0.05    4.37    4.33   333.88812   103.51541   225.92619
   159  C   4.0   -0.04    4.30    4.19   333.60655   100.84334   226.95798
   160  N   5.0   -0.17    4.17    3.36   330.89857   100.31988   227.37183
   161  H   1.0    0.11    1.14    1.45   334.71582   110.15213   227.47576
   162  H   1.0    0.06    1.14    1.45   339.42502   108.54586   226.45531
   163  H   1.0    0.06    1.12    1.45   335.18825   107.08510   223.52623
   164  H   1.0    0.05    1.10    1.44   337.96993   106.42181   222.81570
   165  H   1.0    0.05    1.10    1.44   337.49183   102.88802   224.72810
   166  H   1.0    0.06    1.10    1.44   337.39167   104.35634   227.28112
   167  H   1.0    0.05    1.10    1.44   333.06609   104.70216   227.05624
   168  H   1.0    0.05    1.10    1.44   333.04152   103.64202   224.30669
   169  H   1.0    0.05    1.08    1.44   334.31520    99.63013   225.78068
   170  H   1.0    0.05    1.08    1.44   334.53441   100.66948   228.53023
   171  H   1.0    0.07    1.09    1.44   330.60378   100.16114   229.01967
   172  H   1.0    0.06    1.14    1.45   329.98206   101.58978   226.75767
   173  H   1.0    0.08    1.09    1.44   330.47527    98.89314   226.58759
   174  N   5.0   -0.16    3.53    2.10   339.60832   111.14234   222.23177
   175  C   4.0    0.04    4.53    4.58   339.96548   113.13600   220.45543
   176  C   4.0    0.14    3.48    3.11   340.72326   111.99461   217.91375
   177  O   6.0   -0.29    1.23    1.80   342.21803   110.18803   217.78903
   178  C   4.0    0.06    4.32    4.23   342.08575   115.00116   221.37384
   179  O   6.0   -0.26    2.13    1.84   341.19380   116.41090   223.51679
   180  C   4.0   -0.08    4.23    4.06   342.86243   116.78317   219.31592
   181  H   1.0    0.11    1.15    1.45   340.60609   109.87812   222.01445
   182  H   1.0    0.06    1.13    1.45   338.40078   114.07709   220.29102
   183  H   1.0    0.05    1.11    1.45   343.55218   114.00717   221.84627
   184  H   1.0    0.14    1.08    1.44   342.32952   117.40489   224.00811
   185  H   1.0    0.04    1.06    1.44   344.17012   117.90567   219.93953
   186  H   1.0    0.06    1.07    1.44   343.50871   115.82886   217.89107
   187  H   1.0    0.05    1.06    1.44   341.41301   117.77150   218.78302
   188  N   5.0   -0.16    3.53    2.10   339.63856   113.01695   215.88796
   189  C   4.0    0.03    4.48    4.51   340.22815   112.21949   213.33116
   190  C   4.0    0.15    3.48    3.11   341.12955   114.47015   211.87229
   191  O   6.0   -0.30    1.26    1.80   340.74216   116.59609   212.72645
   192  C   4.0   -0.07    4.25    4.09   337.93591   111.06864   212.07638
   193  H   1.0    0.10    1.14    1.45   338.53118   114.20370   215.96922
   194  H   1.0    0.06    1.14    1.45   341.53962   110.93825   213.37463
   195  H   1.0    0.06    1.06    1.44   338.36677   110.54897   210.37185
   196  H   1.0    0.06    1.06    1.44   337.38033   109.60977   213.03637
   197  H   1.0    0.05    1.06    1.44   336.58665   112.30830   212.01213
   198  N   5.0   -0.16    3.55    2.12   342.26716   113.99961   209.68966
   199  C   4.0    0.03    4.51    4.54   343.21959   115.97248   208.03048
   200  C   4.0    0.17    3.46    3.10   341.04262   116.84176   206.35996
   201  O   6.0   -0.29    1.26    1.80   339.04329   115.64178   206.29193
   202  C   4.0   -0.06    4.45    4.46   345.44001   114.91801   206.52248
   203  C   4.0   -0.03    4.33    4.25   347.59241   113.77473   208.15898
   204  C   4.0   -0.08    4.21    4.03   349.66544   112.58987   206.57161
   205  C   4.0   -0.08    4.25    4.11   348.64121   115.79863   209.85029
   206  H   1.0    0.09    1.14    1.45   342.51094   112.49728   209.12085
   207  H   1.0    0.05    1.13    1.45   343.83942   117.42568   208.96023
   208  H   1.0    0.05    1.09    1.44   344.81640   113.62544   205.38109
   209  H   1.0    0.04    1.09    1.44   346.13732   116.25783   205.48502
   210  H   1.0    0.05    1.13    1.45   346.88565   112.41980   209.17188
   211  H   1.0    0.05    1.06    1.44   350.96179   111.90390   207.67143
   212  H   1.0    0.05    1.06    1.44   348.95868   111.24250   205.54738
   213  H   1.0    0.04    1.06    1.44   350.40243   113.86355   205.47935
   214  H   1.0    0.05    1.06    1.44   349.98669   115.09943   210.88019
   215  H   1.0    0.04    1.06    1.44   349.30261   117.16868   208.82795
   216  H   1.0    0.05    1.06    1.44   347.31084   116.43735   210.93688
   217  N   5.0   -0.15    3.46    2.05   341.48860   118.89211   204.97668
   218  C   4.0    0.05    4.42    4.41   339.47226   119.87666   203.30428
   219  C   4.0    0.09    3.21    3.04   340.28673   119.90878   200.53772
   220  O   6.0   -0.28    1.13    1.80   341.98748   121.29962   199.84986
   221  C   4.0   -0.02    4.41    4.40   338.71070   122.57140   204.07151
   222  C   4.0    0.17    3.32    3.06   337.79607   122.75849   206.74169
   223  O   6.0   -0.29    1.27    1.80   337.05341   120.89711   207.87174
   224  N   5.0   -0.23    3.24    1.97   337.92646   125.01860   207.82072
   225  H   1.0    0.11    1.12    1.45   342.88321   119.72737   204.96157
   226  H   1.0    0.07    1.14    1.45   338.04363   118.74282   203.49136
   227  H   1.0    0.06    1.10    1.44   340.14878   123.68634   203.85041
   228  H   1.0    0.05    1.09    1.44   337.39356   123.16667   202.94334
   229  H   1.0    0.13    1.09    1.44   337.47671   125.20568   209.37219
   230  H   1.0    0.12    1.09    1.44   338.45937   126.29605   206.96846
   231  N   5.0   -0.22    3.27    1.97   330.07843   126.22613   195.81529
   232  C   4.0    0.03    4.42    4.41   331.69604   124.79939   197.48392
   233  C   4.0    0.15    3.45    3.09   330.30142   122.52227   198.47414
   234  O   6.0   -0.31    1.26    1.80   328.39469   122.77361   199.78561
   235  C   4.0   -0.05    4.42    4.41   332.64468   126.49826   199.64199
   236  C   4.0   -0.04    4.32    4.23   334.14134   128.73191   198.80106
   237  C   4.0    0.25    3.16    3.03   335.28085   130.13220   201.01771
   238  O   6.0   -0.27    1.17    1.80   333.90135   130.89565   202.81106
   239  O   6.0   -0.27    1.18    1.80   337.60521   130.41755   200.99314
   240  H   1.0    0.11    1.08    1.44   329.42081   127.57351   196.44079
   241  H   1.0    0.04    1.14    1.45   333.16057   124.20224   196.55795
   242  H   1.0    0.06    1.10    1.44   331.20093   127.08596   200.60764
   243  H   1.0    0.05    1.10    1.44   333.67458   125.49103   200.77582
   244  H   1.0    0.06    1.10    1.44   335.47549   128.18389   197.67100
   245  H   1.0    0.05    1.10    1.44   333.06420   129.86764   197.84675
   246  N   5.0   -0.16    3.54    2.10   331.20282   120.29806   197.70124
   247  C   4.0    0.04    4.57    4.63   330.10867   117.90000   198.47603
   248  C   4.0    0.16    3.50    3.11   331.94170   116.72081   200.32040
   249  O   6.0   -0.30    1.26    1.80   334.21126   117.09876   200.12198
   250  C   4.0   -0.02    4.36    4.31   329.62490   116.09909   196.19513
   251  C   4.0   -0.07    4.20    4.00   327.80320   117.35765   194.29595
   252  C   4.0   -0.07    4.24    4.09   332.08154   115.32620   194.94602
   253  H   1.0    0.10    1.13    1.45   332.47838   120.14878   196.70346
   254  H   1.0    0.07    1.13    1.45   328.46839   118.18346   199.24326
   255  H   1.0    0.06    1.13    1.45   328.83499   114.56653   196.81685
   256  H   1.0    0.05    1.05    1.44   327.51218   116.22570   192.88433
   257  H   1.0    0.06    1.05    1.44   326.20827   117.72048   195.12554
   258  H   1.0    0.05    1.05    1.44   328.54208   118.92045   193.68368
   259  H   1.0    0.05    1.06    1.44   331.72627   114.20937   193.53628
   260  H   1.0    0.05    1.06    1.44   332.95459   116.81908   194.33753
   261  H   1.0    0.06    1.06    1.44   333.13979   114.45503   196.16300
   262  N   5.0   -0.16    3.58    2.14   330.88723   115.28651   202.08918
   263  C   4.0    0.04    4.62    4.68   332.35177   114.05819   204.02048
   264  C   4.0    0.15    3.54    3.13   331.45982   111.33509   204.16599
   265  O   6.0   -0.30    1.32    1.80   329.19404   110.80408   203.78427
   266  C   4.0   -0.02    4.45    4.46   331.86800   115.30163   206.57350
   267  C   4.0   -0.08    4.29    4.18   329.09010   115.11644   207.27270
   268  C   4.0   -0.08    4.27    4.14   333.52340   114.13945   208.57283
   269  H   1.0    0.13    1.17    1.46   329.28853   115.00683   202.18745
   270  H   1.0    0.06    1.13    1.45   334.13756   114.17346   203.62364
   271  H   1.0    0.06    1.13    1.45   332.29508   117.07986   206.45445
   272  H   1.0    0.04    1.06    1.44   328.81420   115.91579   208.89976
   273  H   1.0    0.06    1.06    1.44   328.08099   115.96303   205.99903
   274  H   1.0    0.06    1.07    1.44   328.59878   113.35332   207.36719
   275  H   1.0    0.04    1.06    1.44   333.19459   114.94825   210.18477
   276  H   1.0    0.05    1.07    1.44   333.15868   112.34799   208.70322
   277  H   1.0    0.07    1.06    1.44   335.28463   114.37188   208.12119
   278  N   5.0   -0.17    3.48    2.06   333.18892   109.61166   204.74047
   279  C   4.0    0.05    4.48    4.51   332.56342   106.92636   204.90676
   280  C   4.0    0.17    3.47    3.10   332.43870   106.18748   207.66954
   281  O   6.0   -0.30    1.26    1.80   334.28496   106.32165   209.01881
   282  C   4.0    0.03    4.24    4.07   334.45693   105.30498   203.44223
   283  O   6.0   -0.25    2.08    1.84   333.98072   102.67070   203.88253
   284  H   1.0    0.10    1.13    1.45   334.74794   109.95748   205.04282
   285  H   1.0    0.07    1.14    1.45   330.93070   106.62779   204.13009
   286  H   1.0    0.05    1.07    1.44   334.33409   105.66970   201.65077
   287  H   1.0    0.05    1.07    1.44   336.16524   105.72450   203.95812
   288  H   1.0    0.15    1.07    1.44   335.02762   101.79954   203.06806
   289  N   5.0   -0.15    3.52    2.09   330.17481   105.61300   208.54827
   290  C   4.0    0.04    4.56    4.62   329.82332   104.78719   211.16932
   291  C   4.0    0.16    3.49    3.11   328.76507   102.13024   211.14853
   292  O   6.0   -0.29    1.28    1.80   326.71850   101.64836   210.12052
   293  C   4.0   -0.02    4.41    4.40   328.07532   106.59944   212.67732
   294  C   4.0   -0.06    4.29    4.18   329.13546   109.31876   212.58094
   295  C   4.0   -0.08    4.24    4.09   327.73895   105.67159   215.39474
   296  C   4.0   -0.09    4.15    3.90   327.76352   111.11211   214.39508
   297  H   1.0    0.13    1.15    1.45   328.80854   105.68292   207.67143
   298  H   1.0    0.06    1.14    1.45   331.44659   104.81365   212.01969
   299  H   1.0    0.05    1.13    1.45   326.41425   106.61456   211.90253
   300  H   1.0    0.05    1.09    1.44   330.92125   109.28663   212.99668
   301  H   1.0    0.05    1.09    1.44   328.99373   109.96315   210.87074
   302  H   1.0    0.05    1.06    1.44   326.64291   106.82621   216.30370
   303  H   1.0    0.06    1.06    1.44   326.98684   103.99918   215.38152
   304  H   1.0    0.05    1.06    1.44   329.37167   105.59978   216.22433
   305  H   1.0    0.04    1.05    1.44   328.49295   112.78829   214.26658
   306  H   1.0    0.04    1.06    1.44   325.98529   111.18581   213.95477
   307  H   1.0    0.05    1.06    1.44   327.94304   110.49984   216.11284
   308  N   5.0   -0.15    3.40    2.02   330.18993   100.33311   212.14252
   309  C   4.0    0.03    4.37    4.32   329.33388    97.70072   212.15953
   310  C   4.0    0.17    3.40    3.08   329.29420    96.63681   209.52147
   311  O   6.0   -0.26    1.22    1.80   331.28219    95.88092   208.51803
   312  H   1.0    0.10    1.12    1.45   331.64879   100.58255   212.81527
   313  H   1.0    0.06    1.09    1.44   330.44315    96.69539   213.21589
   314  H   1.0    0.06    1.09    1.44   327.65769    97.59868   212.89464
   315  N   5.0   -0.16    3.49    2.07   327.07188    96.58389   208.37630
   316  C   4.0    0.02    4.39    4.36   326.77519    95.64848   205.85163
   317  C   4.0    0.15    3.39    3.08   325.08956    97.33411   204.30394
   318  O   6.0   -0.28    1.22    1.80   323.90092    96.53476   202.42744
   319  H   1.0    0.10    1.14    1.45   325.69049    97.09790   209.06227
   320  H   1.0    0.07    1.10    1.44   328.41736    95.51998   205.04849
   321  H   1.0    0.06    1.09    1.44   326.07032    93.95717   205.90265
   322  N   5.0   -0.15    3.57    2.13   324.90814    99.67548   205.09763
   323  C   4.0    0.04    4.49    4.53   323.34156   101.53686   203.82017
   324  C   4.0    0.16    3.46    3.10   324.87035   103.96327   203.41388
   325  O   6.0   -0.29    1.30    1.80   326.67315   104.54531   204.72724
   326  C   4.0   -0.05    4.36    4.31   320.96239   102.09433   205.39053
   327  C   4.0   -0.05    4.30    4.20   319.09156    99.88335   205.72313
   328  C   4.0   -0.05    4.29    4.17   316.84846   100.67893   207.29727
   329  C   4.0   -0.03    4.29    4.17   315.00598    98.49252   207.58262
   330  N   5.0   -0.16    4.11    3.18   315.93572    96.23240   208.97156
   331  H   1.0    0.13    1.16    1.46   325.69049   100.24807   206.40154
   332  H   1.0    0.06    1.14    1.45   322.81810   100.87546   202.19312
   333  H   1.0    0.06    1.09    1.44   321.48963   102.65936   207.05349
   334  H   1.0    0.05    1.09    1.44   320.07044   103.49084   204.60819
   335  H   1.0    0.05    1.09    1.44   318.52087    99.30321   204.08095
   336  H   1.0    0.05    1.09    1.44   319.94005    98.46984   206.52437
   337  H   1.0    0.06    1.09    1.44   317.41349   101.23829   208.94889
   338  H   1.0    0.05    1.09    1.44   316.00753   102.10378   206.50736
   339  H   1.0    0.05    1.09    1.44   313.50931    99.11424   208.43866
   340  H   1.0    0.05    1.09    1.44   314.48441    97.96150   205.90832
   341  H   1.0    0.08    1.09    1.44   314.69417    95.10424   209.10385
   342  H   1.0    0.08    1.09    1.44   317.22641    95.55021   208.13442
   343  H   1.0    0.08    1.09    1.44   316.44406    96.68783   210.50791
   344  N   5.0   -0.17    3.52    2.09   324.15792   105.29364   201.45423
   345  C   4.0    0.05    4.55    4.60   325.46750   107.63312   200.84007
   346  C   4.0    0.17    3.47    3.10   323.65525   109.78930   201.25581
   347  O   6.0   -0.29    1.24    1.80   321.70128   110.04063   199.95379
   348  C   4.0    0.06    4.26    4.12   326.55031   107.59155   198.05651
   349  O   6.0   -0.26    2.12    1.84   327.85233   109.92536   197.52549
   350  C   4.0   -0.07    4.20    3.99   324.39414   107.26840   196.13088
   351  H   1.0    0.10    1.13    1.45   322.93905   104.89869   200.45457
   352  H   1.0    0.08    1.15    1.45   326.92448   107.84099   201.93234
   353  H   1.0    0.05    1.10    1.44   327.71249   106.18181   197.91667
   354  H   1.0    0.14    1.08    1.44   328.42492   109.88756   196.04584
   355  H   1.0    0.05    1.05    1.44   325.08767   107.24573   194.43390
   356  H   1.0    0.05    1.05    1.44   323.51730   105.69048   196.45213
   357  H   1.0    0.07    1.06    1.44   323.21684   108.66491   196.29150
   358  N   5.0   -0.14    3.58    2.14   324.09178   111.11778   203.32506
   359  C   4.0    0.03    4.51    4.55   322.56488   113.22293   204.15087
   360  C   4.0    0.15    3.45    3.09   323.72328   115.64745   203.09830
   361  O   6.0   -0.30    1.30    1.80   325.51285   115.56997   201.64510
   362  C   4.0   -0.05    4.43    4.43   322.43638   113.23427   207.03082
   363  C   4.0   -0.01    3.59    3.16   321.22884   110.92880   208.18166
   364  C   4.0   -0.04    3.51    3.12   318.67583   110.39023   207.72057
   365  C   4.0   -0.05    3.50    3.12   322.57433   109.32632   209.78415
   366  C   4.0   -0.04    3.45    3.10   317.48908   108.34366   208.85062
   367  C   4.0   -0.05    3.49    3.11   321.41026   107.28730   210.91798
   368  C   4.0    0.07    3.50    3.11   318.86669   106.80920   210.46445
   369  O   6.0   -0.27    2.13    1.84   317.72529   104.77963   211.68899
   370  H   1.0    0.11    1.17    1.46   325.33522   110.80030   204.32284
   371  H   1.0    0.06    1.13    1.45   320.84523   113.08687   203.52915
   372  H   1.0    0.04    1.10    1.44   324.13713   113.39867   207.69411
   373  H   1.0    0.04    1.10    1.44   321.50474   114.71770   207.57128
   374  H   1.0    0.06    1.10    1.44   317.75931   111.42580   206.63586
   375  H   1.0    0.05    1.10    1.44   324.27697   109.63623   210.09217
   376  H   1.0    0.06    1.09    1.44   315.79399   108.00729   208.52937
   377  H   1.0    0.06    1.10    1.44   322.32678   106.23283   211.98568
   378  H   1.0    0.15    1.10    1.44   318.79677   104.03508   212.59417
   379  N   5.0   -0.16    3.53    2.10   322.65559   117.78662   203.82206
   380  C   4.0    0.04    4.41    4.40   323.62502   120.24326   202.98680
   381  C   4.0    0.16    3.48    3.10   324.87791   121.41678   205.31872
   382  O   6.0   -0.30    1.29    1.80   324.18249   120.76294   207.44278
   383  C   4.0   -0.08    4.19    3.98   321.40081   121.92134   202.08162
   384  H   1.0    0.09    1.13    1.45   321.36113   117.87166   204.80094
   385  H   1.0    0.07    1.12    1.45   324.80610   120.08453   201.59407
   386  H   1.0    0.06    1.05    1.44   322.04521   123.54650   201.52982
   387  H   1.0    0.05    1.05    1.44   320.54287   121.09931   200.68701
   388  H   1.0    0.05    1.05    1.44   320.22162   122.17078   203.46301
   389  N   5.0   -0.17    3.50    2.08   326.65236   123.14210   204.89543
   390  C   4.0    0.03    4.46    4.48   327.99784   124.34964   206.99113
   391  C   4.0    0.17    3.51    3.12   326.07977   125.31907   208.90731
   392  O   6.0   -0.30    1.26    1.80   326.08355   124.59908   211.06538
   393  C   4.0   -0.08    4.26    4.13   329.56632   126.50014   205.98580
   394  H   1.0    0.11    1.15    1.45   327.10778   123.64288   203.41766
   395  H   1.0    0.05    1.12    1.45   329.10522   123.14021   207.81127
   396  H   1.0    0.06    1.06    1.44   330.46016   127.30517   207.36908
   397  H   1.0    0.05    1.06    1.44   330.77763   125.85764   204.76881
   398  H   1.0    0.06    1.06    1.44   328.47405   127.72658   205.17133
   399  N   5.0   -0.15    3.53    2.10   324.49051   127.04628   208.07206
   400  C   4.0    0.04    4.43    4.43   322.50252   128.26704   209.55927
   401  C   4.0    0.16    3.46    3.10   320.90381   126.45101   211.14097
   402  O   6.0   -0.29    1.26    1.80   320.97184   126.53038   213.44833
   403  C   4.0    0.02    4.25    4.10   320.75830   129.75425   207.75080
   404  O   6.0   -0.28    2.10    1.84   320.19894   128.25192   205.55305
   405  H   1.0    0.10    1.15    1.45   324.53209   127.57918   206.53760
   406  H   1.0    0.06    1.13    1.45   323.35101   129.36686   210.75547
   407  H   1.0    0.05    1.07    1.44   319.20495   130.20590   208.61063
   408  H   1.0    0.05    1.07    1.44   321.56711   131.32084   207.24813
   409  H   1.0    0.14    1.07    1.44   319.24841   129.07017   204.57984
   410  N   5.0   -0.16    3.52    2.09   319.57722   124.71057   209.90131
   411  C   4.0    0.04    4.49    4.52   318.00497   122.86431   211.14853
   412  C   4.0    0.16    3.42    3.08   319.27109   121.13143   213.10440
   413  O   6.0   -0.29    1.21    1.80   317.97285   120.04673   214.73901
   414  C   4.0   -0.05    4.39    4.36   316.67272   121.18813   209.18888
   415  C   4.0   -0.06    4.32    4.24   314.71874   122.53739   207.55994
   416  C   4.0   -0.05    4.33    4.26   312.60414   123.61453   209.16432
   417  C   4.0   -0.04    4.32    4.24   310.61803   124.86553   207.52592
   418  N   5.0   -0.16    4.17    3.36   311.66683   126.92911   206.05383
   419  H   1.0    0.10    1.14    1.45   319.57722   124.58018   208.28181
   420  H   1.0    0.06    1.14    1.45   316.84468   123.90744   212.11040
   421  H   1.0    0.05    1.09    1.44   317.94072   120.44924   208.09095
   422  H   1.0    0.05    1.10    1.44   315.85068   119.80296   210.06383
   423  H   1.0    0.05    1.09    1.44   315.52754   123.88665   206.61886
   424  H   1.0    0.04    1.09    1.44   314.02521   121.36576   206.33162
   425  H   1.0    0.05    1.09    1.44   311.83691   122.27661   210.15453
   426  H   1.0    0.05    1.09    1.44   313.28633   124.83530   210.34917
   427  H   1.0    0.05    1.09    1.44   309.88293   123.62209   206.39776
   428  H   1.0    0.05    1.09    1.44   309.26121   125.49670   208.58417
   429  H   1.0    0.08    1.09    1.44   310.41772   127.88909   205.46423
   430  H   1.0    0.07    1.10    1.44   312.67595   127.85886   207.02893
   431  H   1.0    0.07    1.10    1.44   312.55122   126.30739   204.76503
   432  N   5.0   -0.15    3.51    2.08   321.77876   120.86687   212.95889
   433  C   4.0    0.04    4.38    4.34   323.17904   119.21903   214.73712
   434  C   4.0    0.16    3.42    3.09   324.27130   120.87254   216.88007
   435  O   6.0   -0.31    1.29    1.80   324.67382   119.96547   218.99656
   436  C   4.0   -0.08    4.18    3.95   325.29176   117.74882   213.35573
   437  H   1.0    0.12    1.13    1.45   322.71039   121.61331   211.85718
   438  H   1.0    0.06    1.12    1.45   322.03765   117.97370   215.45143
   439  H   1.0    0.04    1.05    1.44   326.18182   116.68491   214.55382
   440  H   1.0    0.05    1.05    1.44   324.55287   116.70381   212.04426
   441  H   1.0    0.06    1.05    1.44   326.46906   118.93368   212.60173
   442  N   5.0   -0.14    3.50    2.07   324.55476   123.32918   216.36795
   443  C   4.0    0.05    4.49    4.52   325.59600   125.10553   218.22555
   444  C   4.0    0.18    3.52    3.12   324.31855   124.78427   220.79369
   445  O   6.0   -0.26    1.28    1.80   322.03387   125.08474   221.03180
   446  C   4.0   -0.03    4.39    4.36   325.39569   127.85508   217.31848
   447  C   4.0   -0.03    4.27    4.13   327.79564   129.10986   216.46433
   448  C   4.0    0.26    3.14    3.03   329.61356   129.73536   218.63373
   449  O   6.0   -0.25    1.20    1.80   329.82710   128.24247   220.44976
   450  O   6.0   -0.24    1.18    1.80   330.87401   131.71390   218.54681
   451  H   1.0    0.13    1.15    1.45   324.15225   124.00760   214.94688
   452  H   1.0    0.06    1.14    1.45   327.37612   124.71246   218.41075
   453  H   1.0    0.07    1.11    1.45   324.19949   127.91177   215.93143
   454  H   1.0    0.07    1.11    1.44   324.68515   128.85474   218.68098
   455  H   1.0    0.06    1.09    1.44   328.64791   128.01382   215.26813
   456  H   1.0    0.06    1.09    1.44   327.37612   130.65565   215.57238
   457  N   5.0   -0.15    3.42    2.03   325.78875   123.96224   222.63995
   458  C   4.0    0.03    4.34    4.27   324.83255   123.62587   225.20242
   459  C   4.0    0.17    3.39    3.08   322.31166   122.22747   225.41974
   460  O   6.0   -0.27    1.23    1.80   320.87547   122.67345   227.19041
   461  H   1.0    0.11    1.13    1.45   327.35912   123.58430   222.45287
   462  H   1.0    0.06    1.09    1.44   326.08922   122.71313   226.17752
   463  H   1.0    0.07    1.09    1.44   324.64925   125.27749   225.97532
   464  N   5.0   -0.14    3.55    2.11   321.76553   120.57396   223.61127
   465  C   4.0    0.05    4.42    4.41   319.43738   119.16423   223.66418
   466  C   4.0    0.09    3.28    3.05   319.85501   116.69247   225.08148
   467  O   6.0   -0.29    1.14    1.80   321.31010   115.08242   224.26323
   468  C   4.0   -0.02    4.39    4.37   318.58701   118.51605   220.95621
   469  C   4.0    0.06    3.77    3.30   316.60846   116.53184   220.78991
   470  N   5.0   -0.14    2.61    1.91   314.08379   117.07230   221.00156
   471  C   4.0   -0.00    3.67    3.21   316.79177   114.03173   220.38173
   472  C   4.0    0.06    3.62    3.18   312.75531   114.98227   220.72377
   473  N   5.0   -0.13    3.52    2.09   314.34079   113.08120   220.37606
   474  H   1.0    0.12    1.16    1.45   322.72929   120.25082   222.34327
   475  H   1.0    0.07    1.13    1.45   318.16560   120.18279   224.50322
   476  H   1.0    0.07    1.10    1.44   317.95962   120.04106   220.15685
   477  H   1.0    0.06    1.10    1.44   320.04966   117.96992   219.99623
   478  H   1.0    0.06    1.08    1.44   318.27331   113.11333   220.14929
   479  H   1.0    0.06    1.07    1.44   311.00354   114.86510   220.76534
   480  H   1.0    0.09    1.11    1.45   313.92694   111.52218   220.18142
   481  N   5.0   -0.22    3.23    1.96   319.02731   110.28819   226.25689
   482  C   4.0    0.04    4.30    4.21   317.98985   108.07910   225.00589
   483  C   4.0    0.09    3.20    3.04   316.87303   106.11756   226.79546
   484  O   6.0   -0.26    1.12    1.80   315.24030   104.65113   226.00744
   485  C   4.0   -0.03    4.41    4.39   319.90415   106.82999   223.21254
   486  C   4.0   -0.01    3.60    3.17   320.48240   108.37956   220.89385
   487  C   4.0   -0.03    3.53    3.13   322.45906   110.14646   220.89574
   488  C   4.0   -0.04    3.53    3.13   319.10479   108.08666   218.71121
   489  C   4.0   -0.05    3.45    3.09   322.96550   111.58076   218.77168
   490  C   4.0   -0.04    3.46    3.10   319.61502   109.47749   216.57960
   491  C   4.0   -0.05    3.45    3.10   321.56711   111.22360   216.59472
   492  H   1.0    0.14    1.09    1.44   320.62980   110.46204   226.05469
   493  H   1.0    0.06    1.14    1.45   316.59335   108.73483   224.01567
   494  H   1.0    0.07    1.12    1.45   321.46317   106.52007   224.12717
   495  H   1.0    0.06    1.10    1.44   319.25408   105.19726   222.69098
   496  H   1.0    0.08    1.10    1.44   323.43793   110.35433   222.33949
   497  H   1.0    0.06    1.10    1.44   317.79332   106.91691   218.67720
   498  H   1.0    0.06    1.10    1.44   324.24485   112.78451   218.80759
   499  H   1.0    0.06    1.10    1.44   318.65126   109.24695   215.12829
   500  H   1.0    0.05    1.10    1.44   321.93371   112.14957   215.14719
   501  H   1.0    0.10    1.08    1.44   355.28254   126.70607   205.74165
   502  H   1.0    0.06    1.04    1.44   325.26850    98.96549   226.84920
   503  H   1.0    0.10    1.07    1.44   333.39155   107.31280   234.83759
   504  H   1.0    0.07    1.04    1.44   339.42392   118.78675   199.28566
   505  H   1.0    0.10    1.08    1.44   330.96593   126.72350   194.45238
   506  H   1.0    0.06    1.04    1.44   318.93765   116.36521   226.70086
   507  H   1.0    0.11    1.08    1.44   318.28551   111.68964   225.64190
   508  H   1.0    0.07    1.04    1.43   317.46460   106.02859   228.58800

  Z AO/shell   Hii/eV     exponent
  1     Wed Apr 25 08:07:45 CEST 2018   EN: 2.200 GM2: 0.406  GM3: 0.0800  RAES: 1.40
     1s    -10.707211    1.230000
  6     Wed Apr 25 08:07:45 CEST 2018   EN: 2.550 GM2: 0.538  GM3: 0.1500  RAES: 3.00
     2s    -13.970922    2.096432
     2p    -10.063292    1.800000
  7     Wed Apr 25 08:07:45 CEST 2018   EN: 3.040 GM2: 0.461  GM3:-0.0640  RAES: 1.90
     2s    -16.686243    2.339881
     2p    -12.523956    2.014332
  8     Wed Apr 25 08:07:45 CEST 2018   EN: 3.440 GM2: 0.452  GM3:-0.0517  RAES: 1.80
     2s    -20.229985    2.439742
     2p    -15.503117    2.137023
 no old-style atom pair restraining (fixing) potential

molecular fragmentation (1/2 indicates fragments):
111111111111111111111111111111111111111111111111111111111111111111111111
111111111111111111111111111111111111111111111111111111111111111111112222
222222222222222222222222222222222222222222222222222222222222222222222222
222222222222222222222222222222222222222222222222222222222222222222222222
222222222222222222222222222222222222222222222222222222222222222222222222
222222222222222222222222222222222222222222222222222222222222222222222222
222222222222222222222222222222222222222222222222222222222222222222221122
2222
# atoms in fragment 1/2:   142   366
 fragment masses (1/2) :     1010.11     2554.90
CMA distance (Bohr)    :  10.911
constraining FC (au)   :  0.0500
           ------------------------------------------------- 
          |        Self-Consistent Charge Iterations        |
           ------------------------------------------------- 

 Ncao       : 1261
 Nao        : 1261
 Nshell     : 759
 Nel        : 1406
 T(el)      :   500.0
 intcut     :    35.0
 scfconv/Eh :  0.100E-06
   qconv/e  :  0.100E-04
 intneglect :  0.100E-08
 broydamp   :      0.400
 iter      E             dE          RMSdq      gap      omega  full diag
   1   -812.7786457 -0.812779E+03  0.466E+00    2.94       0.0  T
   2   -814.8047463 -0.202610E+01  0.220E+00    1.48       1.0  T
   3   -814.9159249 -0.111179E+00  0.124E+00    1.71       1.0  T
   4   -815.0218354 -0.105911E+00  0.274E-01    0.78       1.0  T
   5   -815.0325943 -0.107588E-01  0.128E-01    1.00       1.0  T
   6   -815.0338798 -0.128557E-02  0.583E-02    1.02       1.0  T
   7   -815.0343341 -0.454259E-03  0.227E-02    1.03       1.0  T
   8   -815.0343747 -0.405979E-04  0.117E-02    1.05       1.0  T
   9   -815.0343920 -0.172800E-04  0.507E-03    1.05       1.0  T
  10   -815.0343953 -0.332715E-05  0.215E-03    1.05       2.1  T
  11   -815.0343958 -0.479869E-06  0.945E-04    1.05       4.7  T
  12   -815.0343959 -0.887301E-07  0.450E-04    1.05       9.9  T
  13   -815.0343959 -0.281242E-07  0.206E-04    1.05      21.6  T
  14   -815.0343959 -0.502996E-08  0.979E-05    1.05      45.3  T
  15   -815.0343959 -0.117848E-08  0.469E-05    1.05      94.5  T
speedup  1.00
cpu  time for SCC   11.19 s
wall time for SCC   11.19 s

   *** convergence criteria satisfied after 15 iterations ***

          eigenvalues
 #    :         691        692        693        694        695        696        697        698
 occ. :        2.000      2.000      2.000      2.000      2.000      2.000      2.000      2.000
 eps  :       -10.347    -10.334    -10.205    -10.203    -10.179     -9.971     -9.936     -9.891
 #    :         699        700        701        702        703        704        705        706
 occ. :        2.000      2.000      2.000      2.000      2.000      0.000      0.000      0.000
 eps  :        -9.875     -9.830     -9.643     -9.590     -9.471     -8.420     -8.324     -8.029
 #    :         707        708        709        710        711        712        713        714
 occ. :        0.000      0.000      0.000      0.000      0.000      0.000      0.000      0.000
 eps  :        -7.574     -6.675     -6.631     -6.631     -6.622     -6.575     -6.550     -6.516


   #   Z            q   n(s)   n(p)   n(d)      C6AA      α(0)
   1   7 N     -0.414  1.290  4.125  0.000    30.773     8.239
   2   6 C      0.014  1.044  2.942  0.000    20.349     6.425
   3   6 C      0.271  1.047  2.682  0.000    22.417     7.753
   4   8 O     -0.487  1.749  4.738  0.000    23.505     6.500
   5   6 C     -0.041  1.051  2.990  0.000    21.279     6.561
   6   6 C     -0.083  1.004  3.079  0.000    22.073     6.687
   7   6 C     -0.158  0.981  3.176  0.000    23.600     6.925
   8   6 C     -0.149  0.977  3.172  0.000    23.426     6.899
   9   1 H      0.188  0.812  0.000  0.000     1.169     1.693
  10   1 H      0.049  0.951  0.000  0.000     2.328     2.386
  11   1 H      0.055  0.945  0.000  0.000     2.257     2.349
  12   1 H      0.045  0.955  0.000  0.000     2.378     2.411
  13   1 H      0.049  0.951  0.000  0.000     2.329     2.387
  14   1 H      0.069  0.931  0.000  0.000     2.100     2.266
  15   1 H      0.051  0.949  0.000  0.000     2.306     2.374
  16   1 H      0.050  0.950  0.000  0.000     2.317     2.380
  17   1 H      0.055  0.945  0.000  0.000     2.256     2.348
  18   1 H      0.056  0.944  0.000  0.000     2.247     2.344
  19   1 H      0.058  0.942  0.000  0.000     2.220     2.330
  20   7 N     -0.190  1.209  3.982  0.000    25.131     7.445
  21   6 C      0.018  1.039  2.943  0.000    20.266     6.410
  22   6 C      0.264  1.045  2.690  0.000    22.543     7.775
  23   8 O     -0.478  1.733  4.744  0.000    23.293     6.471
  24   6 C     -0.117  1.013  3.105  0.000    22.727     6.784
  25   6 C      0.283  1.037  2.680  0.000    22.201     7.715
  26   8 O     -0.504  1.761  4.744  0.000    23.877     6.551
  27   7 N     -0.296  1.200  4.096  0.000    27.623     7.806
  28   1 H      0.214  0.786  0.000  0.000     1.037     1.595
  29   1 H      0.097  0.903  0.000  0.000     1.815     2.106
  30   1 H      0.084  0.916  0.000  0.000     1.941     2.179
  31   1 H      0.083  0.917  0.000  0.000     1.949     2.183
  32   1 H      0.247  0.753  0.000  0.000     0.896     1.482
  33   1 H      0.236  0.764  0.000  0.000     0.941     1.520
  34   7 N     -0.162  1.201  3.962  0.000    24.512     7.353
  35   6 C     -0.002  1.041  2.961  0.000    20.616     6.464
  36   6 C      0.264  1.040  2.696  0.000    22.555     7.777
  37   8 O     -0.493  1.756  4.737  0.000    23.620     6.516
  38   6 C      0.092  1.031  2.877  0.000    19.142     6.245
  39   8 O     -0.507  1.699  4.808  0.000    23.037     6.479
  40   6 C     -0.169  0.982  3.186  0.000    23.814     6.954
  41   1 H      0.223  0.777  0.000  0.000     0.997     1.564
  42   1 H      0.109  0.891  0.000  0.000     1.703     2.041
  43   1 H      0.069  0.931  0.000  0.000     2.092     2.262
  44   1 H      0.353  0.647  0.000  0.000     0.582     1.197
  45   1 H      0.093  0.907  0.000  0.000     1.851     2.127
  46   1 H      0.072  0.928  0.000  0.000     2.061     2.245
  47   1 H      0.071  0.929  0.000  0.000     2.078     2.254
  48   7 N     -0.188  1.207  3.981  0.000    25.069     7.436
  49   6 C      0.003  1.042  2.955  0.000    20.522     6.449
  50   6 C      0.271  1.038  2.691  0.000    22.427     7.755
  51   8 O     -0.485  1.786  4.699  0.000    23.444     6.492
  52   6 C      0.103  1.023  2.874  0.000    18.962     6.213
  53   8 O     -0.475  1.661  4.813  0.000    22.354     6.383
  54   6 C     -0.172  0.981  3.192  0.000    23.890     6.965
  55   1 H      0.237  0.763  0.000  0.000     0.933     1.513
  56   1 H      0.087  0.913  0.000  0.000     1.907     2.159
  57   1 H      0.044  0.956  0.000  0.000     2.401     2.423
  58   1 H      0.334  0.666  0.000  0.000     0.627     1.244
  59   1 H      0.077  0.923  0.000  0.000     2.007     2.215
  60   1 H      0.046  0.954  0.000  0.000     2.367     2.406
  61   1 H      0.100  0.900  0.000  0.000     1.783     2.088
  62   7 N     -0.197  1.206  3.990  0.000    25.273     7.466
  63   6 C     -0.006  1.048  2.959  0.000    20.700     6.479
  64   6 C      0.280  1.036  2.684  0.000    22.265     7.727
  65   8 O     -0.499  1.765  4.734  0.000    23.756     6.535
  66   6 C     -0.100  1.012  3.088  0.000    22.398     6.737
  67   6 C     -0.106  1.016  3.090  0.000    22.525     6.756
  68   6 C     -0.125  1.018  3.108  0.000    22.896     6.811
  69   6 C     -0.082  1.029  3.053  0.000    22.154     6.716
  70   7 N     -0.127  1.139  3.987  0.000    23.743     7.237
  71   1 H      0.230  0.770  0.000  0.000     0.963     1.537
  72   1 H      0.114  0.886  0.000  0.000     1.661     2.016
  73   1 H      0.069  0.931  0.000  0.000     2.097     2.264
  74   1 H      0.070  0.930  0.000  0.000     2.081     2.256
  75   1 H      0.082  0.918  0.000  0.000     1.957     2.187
  76   1 H      0.074  0.926  0.000  0.000     2.036     2.231
  77   1 H      0.117  0.883  0.000  0.000     1.641     2.003
  78   1 H      0.101  0.899  0.000  0.000     1.777     2.084
  79   1 H      0.137  0.863  0.000  0.000     1.485     1.905
  80   1 H      0.150  0.850  0.000  0.000     1.391     1.844
  81   1 H      0.288  0.712  0.000  0.000     0.749     1.356
  82   1 H      0.267  0.733  0.000  0.000     0.820     1.418
  83   1 H      0.272  0.728  0.000  0.000     0.802     1.403
  84   7 N     -0.179  1.199  3.980  0.000    24.881     7.408
  85   6 C      0.016  1.037  2.947  0.000    20.310     6.417
  86   6 C      0.276  1.040  2.684  0.000    22.331     7.738
  87   8 O     -0.455  1.739  4.716  0.000    22.814     6.404
  88   6 C     -0.104  1.011  3.093  0.000    22.459     6.744
  89   6 C     -0.015  1.085  2.930  0.000    28.379     8.738
  90   6 C     -0.052  1.061  2.992  0.000    29.303     8.877
  91   6 C     -0.066  1.061  3.005  0.000    29.635     8.927
  92   6 C     -0.074  1.049  3.025  0.000    29.844     8.958
  93   6 C     -0.091  1.054  3.036  0.000    30.273     9.022
  94   6 C      0.127  1.053  2.820  0.000    25.211     8.229
  95   8 O     -0.429  1.667  4.762  0.000    21.424     6.249
  96   1 H      0.222  0.778  0.000  0.000     1.002     1.568
  97   1 H      0.067  0.933  0.000  0.000     2.113     2.273
  98   1 H      0.080  0.920  0.000  0.000     1.981     2.201
  99   1 H      0.081  0.919  0.000  0.000     1.971     2.196
 100   1 H      0.067  0.933  0.000  0.000     2.113     2.273
 101   1 H      0.064  0.936  0.000  0.000     2.156     2.296
 102   1 H      0.079  0.921  0.000  0.000     1.985     2.203
 103   1 H      0.077  0.923  0.000  0.000     2.007     2.215
 104   1 H      0.342  0.658  0.000  0.000     0.607     1.223
 105   7 N     -0.182  1.200  3.982  0.000    24.946     7.418
 106   6 C     -0.004  1.045  2.959  0.000    20.647     6.469
 107   6 C      0.262  1.043  2.695  0.000    22.582     7.781
 108   8 O     -0.449  1.755  4.694  0.000    22.685     6.386
 109   6 C      0.113  1.017  2.870  0.000    18.823     6.193
 110   8 O     -0.521  1.697  4.824  0.000    23.354     6.524
 111   6 C     -0.166  0.975  3.190  0.000    23.749     6.944
 112   1 H      0.202  0.798  0.000  0.000     1.098     1.641
 113   1 H      0.100  0.900  0.000  0.000     1.788     2.091
 114   1 H      0.046  0.954  0.000  0.000     2.370     2.407
 115   1 H      0.335  0.665  0.000  0.000     0.625     1.241
 116   1 H      0.075  0.925  0.000  0.000     2.035     2.230
 117   1 H      0.073  0.927  0.000  0.000     2.053     2.241
 118   1 H      0.080  0.920  0.000  0.000     1.977     2.198
 119   7 N     -0.172  1.200  3.972  0.000    24.722     7.385
 120   6 C      0.002  1.041  2.956  0.000    20.546     6.454
 121   6 C      0.264  1.041  2.695  0.000    22.546     7.775
 122   8 O     -0.443  1.758  4.685  0.000    22.557     6.368
 123   6 C     -0.166  0.980  3.186  0.000    23.756     6.945
 124   1 H      0.211  0.789  0.000  0.000     1.051     1.606
 125   1 H      0.095  0.905  0.000  0.000     1.834     2.118
 126   1 H      0.091  0.909  0.000  0.000     1.867     2.136
 127   1 H      0.093  0.907  0.000  0.000     1.846     2.125
 128   1 H      0.081  0.919  0.000  0.000     1.966     2.192
 129   7 N     -0.209  1.208  4.001  0.000    25.553     7.508
 130   6 C      0.016  1.044  2.940  0.000    20.309     6.417
 131   6 C      0.181  1.090  2.729  0.000    24.103     8.040
 132   8 O     -0.360  1.784  4.576  0.000    20.896     6.129
 133   6 C     -0.130  1.023  3.107  0.000    22.988     6.824
 134   6 C      0.371  1.012  2.617  0.000    20.717     7.449
 135   8 O     -0.646  1.779  4.868  0.000    27.285     7.003
 136   8 O     -0.639  1.765  4.874  0.000    27.101     6.980
 137   1 H      0.213  0.787  0.000  0.000     1.043     1.600
 138   1 H      0.110  0.890  0.000  0.000     1.697     2.037
 139   1 H      0.084  0.916  0.000  0.000     1.935     2.175
 140   1 H      0.072  0.928  0.000  0.000     2.064     2.247
 141   7 N     -0.405  1.283  4.122  0.000    30.509     8.203
 142   6 C      0.011  1.035  2.954  0.000    20.407     6.433
 143   6 C      0.270  1.040  2.690  0.000    22.439     7.758
 144   8 O     -0.485  1.746  4.738  0.000    23.448     6.492
 145   6 C      0.058  0.996  2.946  0.000    19.791     6.367
 146   8 O     -0.512  1.691  4.821  0.000    23.149     6.495
 147   1 H      0.183  0.817  0.000  0.000     1.198     1.714
 148   1 H      0.063  0.937  0.000  0.000     2.163     2.300
 149   1 H      0.055  0.945  0.000  0.000     2.256     2.349
 150   1 H      0.047  0.953  0.000  0.000     2.358     2.401
 151   1 H      0.336  0.664  0.000  0.000     0.620     1.237
 152   7 N     -0.162  1.192  3.970  0.000    24.510     7.353
 153   6 C     -0.006  1.040  2.966  0.000    20.686     6.475
 154   6 C      0.264  1.038  2.698  0.000    22.552     7.777
 155   8 O     -0.472  1.756  4.716  0.000    23.171     6.454
 156   6 C     -0.115  1.012  3.103  0.000    22.676     6.776
 157   6 C     -0.102  0.999  3.103  0.000    22.426     6.739
 158   6 C     -0.123  1.011  3.112  0.000    22.830     6.799
 159   6 C     -0.085  1.021  3.064  0.000    22.191     6.719
 160   7 N     -0.127  1.136  3.991  0.000    23.741     7.237
 161   1 H      0.207  0.793  0.000  0.000     1.072     1.622
 162   1 H      0.103  0.897  0.000  0.000     1.759     2.074
 163   1 H      0.086  0.914  0.000  0.000     1.913     2.163
 164   1 H      0.078  0.922  0.000  0.000     2.002     2.213
 165   1 H      0.087  0.913  0.000  0.000     1.911     2.161
 166   1 H      0.085  0.915  0.000  0.000     1.929     2.172
 167   1 H      0.081  0.919  0.000  0.000     1.967     2.193
 168   1 H      0.093  0.907  0.000  0.000     1.847     2.125
 169   1 H      0.139  0.861  0.000  0.000     1.468     1.894
 170   1 H      0.146  0.854  0.000  0.000     1.417     1.861
 171   1 H      0.298  0.702  0.000  0.000     0.720     1.329
 172   1 H      0.245  0.755  0.000  0.000     0.905     1.490
 173   1 H      0.284  0.716  0.000  0.000     0.763     1.368
 174   7 N     -0.173  1.192  3.982  0.000    24.747     7.388
 175   6 C     -0.005  1.041  2.963  0.000    20.661     6.471
 176   6 C      0.255  1.045  2.700  0.000    22.716     7.805
 177   8 O     -0.485  1.756  4.729  0.000    23.457     6.494
 178   6 C      0.095  1.030  2.875  0.000    19.105     6.240
 179   8 O     -0.501  1.693  4.808  0.000    22.908     6.461
 180   6 C     -0.178  0.980  3.198  0.000    24.010     6.983
 181   1 H      0.222  0.778  0.000  0.000     0.999     1.566
 182   1 H      0.096  0.904  0.000  0.000     1.822     2.111
 183   1 H      0.065  0.935  0.000  0.000     2.136     2.285
 184   1 H      0.345  0.655  0.000  0.000     0.600     1.216
 185   1 H      0.089  0.911  0.000  0.000     1.888     2.149
 186   1 H      0.068  0.932  0.000  0.000     2.103     2.268
 187   1 H      0.066  0.934  0.000  0.000     2.127     2.281
 188   7 N     -0.162  1.199  3.963  0.000    24.497     7.351
 189   6 C      0.004  1.031  2.965  0.000    20.511     6.447
 190   6 C      0.264  1.037  2.699  0.000    22.547     7.776
 191   8 O     -0.494  1.743  4.751  0.000    23.645     6.520
 192   6 C     -0.167  0.983  3.184  0.000    23.765     6.946
 193   1 H      0.220  0.780  0.000  0.000     1.011     1.575
 194   1 H      0.104  0.896  0.000  0.000     1.752     2.070
 195   1 H      0.081  0.919  0.000  0.000     1.972     2.196
 196   1 H      0.092  0.908  0.000  0.000     1.856     2.130
 197   1 H      0.079  0.921  0.000  0.000     1.987     2.204
 198   7 N     -0.170  1.198  3.972  0.000    24.677     7.378
 199   6 C      0.006  1.037  2.957  0.000    20.484     6.444
 200   6 C      0.270  1.043  2.687  0.000    22.442     7.758
 201   8 O     -0.472  1.744  4.728  0.000    23.183     6.455
 202   6 C     -0.108  1.016  3.092  0.000    22.541     6.757
 203   6 C     -0.031  1.033  2.998  0.000    21.085     6.531
 204   6 C     -0.155  0.978  3.177  0.000    23.532     6.912
 205   6 C     -0.158  0.976  3.182  0.000    23.591     6.920
 206   1 H      0.221  0.779  0.000  0.000     1.003     1.568
 207   1 H      0.095  0.905  0.000  0.000     1.830     2.116
 208   1 H      0.067  0.933  0.000  0.000     2.118     2.275
 209   1 H      0.070  0.930  0.000  0.000     2.088     2.260
 210   1 H      0.058  0.942  0.000  0.000     2.218     2.329
 211   1 H      0.066  0.934  0.000  0.000     2.132     2.283
 212   1 H      0.056  0.944  0.000  0.000     2.245     2.343
 213   1 H      0.055  0.945  0.000  0.000     2.259     2.350
 214   1 H      0.066  0.934  0.000  0.000     2.129     2.282
 215   1 H      0.056  0.944  0.000  0.000     2.243     2.342
 216   1 H      0.052  0.948  0.000  0.000     2.296     2.369
 217   7 N     -0.174  1.206  3.968  0.000    24.774     7.392
 218   6 C      0.020  1.036  2.944  0.000    20.237     6.405
 219   6 C      0.196  1.088  2.715  0.000    23.815     7.992
 220   8 O     -0.342  1.749  4.593  0.000    20.559     6.079
 221   6 C     -0.110  1.008  3.101  0.000    22.576     6.761
 222   6 C      0.289  1.029  2.682  0.000    22.109     7.699
 223   8 O     -0.459  1.730  4.729  0.000    22.887     6.414
 224   7 N     -0.293  1.185  4.108  0.000    27.555     7.796
 225   1 H      0.218  0.782  0.000  0.000     1.020     1.582
 226   1 H      0.117  0.883  0.000  0.000     1.636     2.000
 227   1 H      0.091  0.909  0.000  0.000     1.873     2.140
 228   1 H      0.079  0.921  0.000  0.000     1.986     2.204
 229   1 H      0.218  0.782  0.000  0.000     1.018     1.581
 230   1 H      0.208  0.792  0.000  0.000     1.068     1.619
 231   7 N     -0.408  1.270  4.137  0.000    30.585     8.214
 232   6 C      0.025  1.030  2.946  0.000    20.165     6.394
 233   6 C      0.261  1.048  2.691  0.000    22.596     7.784
 234   8 O     -0.496  1.735  4.761  0.000    23.704     6.528
 235   6 C     -0.063  0.998  3.065  0.000    21.692     6.628
 236   6 C     -0.107  1.007  3.100  0.000    22.521     6.754
 237   6 C      0.364  1.025  2.612  0.000    20.832     7.470
 238   8 O     -0.674  1.784  4.890  0.000    28.013     7.096
 239   8 O     -0.653  1.768  4.885  0.000    27.463     7.026
 240   1 H      0.186  0.814  0.000  0.000     1.182     1.703
 241   1 H      0.039  0.961  0.000  0.000     2.461     2.453
 242   1 H      0.053  0.947  0.000  0.000     2.279     2.361
 243   1 H      0.017  0.983  0.000  0.000     2.776     2.605
 244   1 H      0.037  0.963  0.000  0.000     2.492     2.468
 245   1 H      0.041  0.959  0.000  0.000     2.431     2.438
 246   7 N     -0.176  1.208  3.968  0.000    24.811     7.398
 247   6 C      0.000  1.043  2.956  0.000    20.570     6.457
 248   6 C      0.269  1.039  2.693  0.000    22.460     7.761
 249   8 O     -0.505  1.743  4.762  0.000    23.905     6.555
 250   6 C     -0.035  1.043  2.991  0.000    21.158     6.542
 251   6 C     -0.158  0.981  3.177  0.000    23.598     6.923
 252   6 C     -0.153  0.975  3.178  0.000    23.500     6.908
 253   1 H      0.211  0.789  0.000  0.000     1.051     1.606
 254   1 H      0.097  0.903  0.000  0.000     1.814     2.106
 255   1 H      0.077  0.923  0.000  0.000     2.011     2.217
 256   1 H      0.073  0.927  0.000  0.000     2.050     2.239
 257   1 H      0.063  0.937  0.000  0.000     2.166     2.301
 258   1 H      0.058  0.942  0.000  0.000     2.224     2.332
 259   1 H      0.070  0.930  0.000  0.000     2.090     2.261
 260   1 H      0.054  0.946  0.000  0.000     2.272     2.357
 261   1 H      0.053  0.947  0.000  0.000     2.280     2.361
 262   7 N     -0.183  1.209  3.974  0.000    24.960     7.420
 263   6 C      0.010  1.034  2.956  0.000    20.402     6.429
 264   6 C      0.264  1.046  2.690  0.000    22.548     7.777
 265   8 O     -0.484  1.747  4.737  0.000    23.423     6.489
 266   6 C     -0.032  1.033  2.999  0.000    21.099     6.532
 267   6 C     -0.151  0.974  3.177  0.000    23.449     6.900
 268   6 C     -0.167  0.978  3.189  0.000    23.781     6.948
 269   1 H      0.235  0.765  0.000  0.000     0.944     1.522
 270   1 H      0.087  0.913  0.000  0.000     1.908     2.160
 271   1 H      0.058  0.942  0.000  0.000     2.220     2.330
 272   1 H      0.062  0.938  0.000  0.000     2.180     2.309
 273   1 H      0.049  0.951  0.000  0.000     2.328     2.386
 274   1 H      0.064  0.936  0.000  0.000     2.149     2.292
 275   1 H      0.069  0.931  0.000  0.000     2.093     2.262
 276   1 H      0.061  0.939  0.000  0.000     2.185     2.312
 277   1 H      0.079  0.921  0.000  0.000     1.991     2.206
 278   7 N     -0.181  1.210  3.972  0.000    24.928     7.415
 279   6 C      0.002  1.037  2.961  0.000    20.548     6.453
 280   6 C      0.278  1.032  2.690  0.000    22.300     7.733
 281   8 O     -0.474  1.729  4.746  0.000    23.222     6.461
 282   6 C      0.057  0.996  2.947  0.000    19.809     6.371
 283   8 O     -0.511  1.691  4.820  0.000    23.129     6.492
 284   1 H      0.220  0.780  0.000  0.000     1.009     1.573
 285   1 H      0.101  0.899  0.000  0.000     1.772     2.082
 286   1 H      0.063  0.937  0.000  0.000     2.161     2.299
 287   1 H      0.066  0.934  0.000  0.000     2.131     2.282
 288   1 H      0.353  0.647  0.000  0.000     0.581     1.197
 289   7 N     -0.177  1.211  3.965  0.000    24.821     7.399
 290   6 C      0.002  1.042  2.956  0.000    20.541     6.452
 291   6 C      0.265  1.044  2.691  0.000    22.530     7.773
 292   8 O     -0.488  1.735  4.753  0.000    23.527     6.503
 293   6 C     -0.041  1.046  2.995  0.000    21.271     6.559
 294   6 C     -0.092  1.008  3.084  0.000    22.247     6.714
 295   6 C     -0.148  0.975  3.173  0.000    23.402     6.894
 296   6 C     -0.156  0.978  3.177  0.000    23.555     6.917
 297   1 H      0.229  0.771  0.000  0.000     0.970     1.543
 298   1 H      0.087  0.913  0.000  0.000     1.904     2.158
 299   1 H      0.074  0.926  0.000  0.000     2.042     2.234
 300   1 H      0.057  0.943  0.000  0.000     2.237     2.339
 301   1 H      0.046  0.954  0.000  0.000     2.365     2.405
 302   1 H      0.074  0.926  0.000  0.000     2.047     2.237
 303   1 H      0.045  0.955  0.000  0.000     2.379     2.412
 304   1 H      0.061  0.939  0.000  0.000     2.185     2.312
 305   1 H      0.051  0.949  0.000  0.000     2.312     2.378
 306   1 H      0.063  0.937  0.000  0.000     2.161     2.299
 307   1 H      0.062  0.938  0.000  0.000     2.180     2.309
 308   7 N     -0.175  1.210  3.964  0.000    24.779     7.393
 309   6 C     -0.043  1.005  3.038  0.000    21.398     6.594
 310   6 C      0.272  1.036  2.692  0.000    22.402     7.751
 311   8 O     -0.506  1.764  4.743  0.000    23.923     6.558
 312   1 H      0.224  0.776  0.000  0.000     0.989     1.558
 313   1 H      0.104  0.896  0.000  0.000     1.748     2.068
 314   1 H      0.097  0.903  0.000  0.000     1.812     2.105
 315   7 N     -0.172  1.201  3.971  0.000    24.713     7.383
 316   6 C     -0.054  1.005  3.050  0.000    21.587     6.622
 317   6 C      0.264  1.035  2.701  0.000    22.546     7.776
 318   8 O     -0.509  1.758  4.752  0.000    23.993     6.567
 319   1 H      0.234  0.766  0.000  0.000     0.949     1.526
 320   1 H      0.111  0.889  0.000  0.000     1.685     2.030
 321   1 H      0.117  0.883  0.000  0.000     1.639     2.002
 322   7 N     -0.158  1.197  3.961  0.000    24.425     7.340
 323   6 C     -0.003  1.042  2.961  0.000    20.632     6.466
 324   6 C      0.270  1.036  2.694  0.000    22.448     7.759
 325   8 O     -0.486  1.741  4.745  0.000    23.477     6.496
 326   6 C     -0.104  1.012  3.091  0.000    22.462     6.745
 327   6 C     -0.107  1.008  3.099  0.000    22.533     6.756
 328   6 C     -0.116  1.009  3.107  0.000    22.706     6.782
 329   6 C     -0.079  1.015  3.064  0.000    22.076     6.702
 330   7 N     -0.141  1.143  3.998  0.000    24.042     7.282
 331   1 H      0.226  0.774  0.000  0.000     0.982     1.552
 332   1 H      0.099  0.901  0.000  0.000     1.789     2.091
 333   1 H      0.079  0.921  0.000  0.000     1.992     2.207
 334   1 H      0.077  0.923  0.000  0.000     2.011     2.217
 335   1 H      0.081  0.919  0.000  0.000     1.968     2.194
 336   1 H      0.068  0.932  0.000  0.000     2.110     2.271
 337   1 H      0.099  0.901  0.000  0.000     1.798     2.097
 338   1 H      0.104  0.896  0.000  0.000     1.745     2.066
 339   1 H      0.136  0.864  0.000  0.000     1.489     1.908
 340   1 H      0.132  0.868  0.000  0.000     1.520     1.928
 341   1 H      0.296  0.704  0.000  0.000     0.726     1.335
 342   1 H      0.283  0.717  0.000  0.000     0.765     1.370
 343   1 H      0.291  0.709  0.000  0.000     0.742     1.349
 344   7 N     -0.178  1.207  3.971  0.000    24.857     7.405
 345   6 C     -0.003  1.044  2.959  0.000    20.628     6.465
 346   6 C      0.275  1.039  2.686  0.000    22.345     7.741
 347   8 O     -0.501  1.751  4.750  0.000    23.809     6.542
 348   6 C      0.102  1.034  2.865  0.000    19.012     6.227
 349   8 O     -0.505  1.690  4.814  0.000    22.989     6.473
 350   6 C     -0.171  0.983  3.188  0.000    23.867     6.963
 351   1 H      0.224  0.776  0.000  0.000     0.993     1.561
 352   1 H      0.106  0.894  0.000  0.000     1.731     2.058
 353   1 H      0.051  0.949  0.000  0.000     2.303     2.373
 354   1 H      0.332  0.668  0.000  0.000     0.631     1.247
 355   1 H      0.067  0.933  0.000  0.000     2.122     2.278
 356   1 H      0.068  0.932  0.000  0.000     2.106     2.269
 357   1 H      0.088  0.912  0.000  0.000     1.897     2.153
 358   7 N     -0.154  1.199  3.955  0.000    24.329     7.326
 359   6 C      0.005  1.037  2.959  0.000    20.501     6.446
 360   6 C      0.269  1.039  2.692  0.000    22.465     7.762
 361   8 O     -0.494  1.748  4.746  0.000    23.653     6.521
 362   6 C     -0.109  1.010  3.099  0.000    22.552     6.758
 363   6 C     -0.015  1.082  2.933  0.000    28.383     8.739
 364   6 C     -0.063  1.062  3.001  0.000    29.568     8.917
 365   6 C     -0.063  1.058  3.004  0.000    29.561     8.916
 366   6 C     -0.076  1.053  3.023  0.000    29.901     8.967
 367   6 C     -0.085  1.052  3.033  0.000    30.137     9.002
 368   6 C      0.131  1.052  2.816  0.000    25.120     8.214
 369   8 O     -0.435  1.670  4.765  0.000    21.546     6.266
 370   1 H      0.225  0.775  0.000  0.000     0.985     1.555
 371   1 H      0.109  0.891  0.000  0.000     1.707     2.043
 372   1 H      0.069  0.931  0.000  0.000     2.092     2.262
 373   1 H      0.086  0.914  0.000  0.000     1.913     2.163
 374   1 H      0.079  0.921  0.000  0.000     1.993     2.208
 375   1 H      0.064  0.936  0.000  0.000     2.148     2.292
 376   1 H      0.092  0.908  0.000  0.000     1.855     2.130
 377   1 H      0.067  0.933  0.000  0.000     2.119     2.276
 378   1 H      0.335  0.665  0.000  0.000     0.624     1.240
 379   7 N     -0.175  1.202  3.973  0.000    24.794     7.395
 380   6 C      0.003  1.045  2.952  0.000    20.531     6.452
 381   6 C      0.261  1.046  2.693  0.000    22.607     7.786
 382   8 O     -0.482  1.742  4.740  0.000    23.382     6.483
 383   6 C     -0.172  0.987  3.185  0.000    23.895     6.967
 384   1 H      0.227  0.773  0.000  0.000     0.977     1.548
 385   1 H      0.094  0.906  0.000  0.000     1.839     2.120
 386   1 H      0.084  0.916  0.000  0.000     1.937     2.176
 387   1 H      0.099  0.901  0.000  0.000     1.791     2.093
 388   1 H      0.089  0.911  0.000  0.000     1.886     2.147
 389   7 N     -0.194  1.216  3.978  0.000    25.215     7.458
 390   6 C      0.014  1.035  2.950  0.000    20.330     6.419
 391   6 C      0.282  1.033  2.686  0.000    22.232     7.721
 392   8 O     -0.489  1.736  4.752  0.000    23.530     6.504
 393   6 C     -0.152  0.978  3.174  0.000    23.456     6.901
 394   1 H      0.227  0.773  0.000  0.000     0.977     1.548
 395   1 H      0.081  0.919  0.000  0.000     1.968     2.193
 396   1 H      0.062  0.938  0.000  0.000     2.170     2.303
 397   1 H      0.068  0.932  0.000  0.000     2.103     2.268
 398   1 H      0.074  0.926  0.000  0.000     2.039     2.233
 399   7 N     -0.189  1.204  3.985  0.000    25.090     7.439
 400   6 C      0.002  1.043  2.955  0.000    20.554     6.456
 401   6 C      0.270  1.037  2.693  0.000    22.438     7.757
 402   8 O     -0.501  1.764  4.737  0.000    23.808     6.542
 403   6 C      0.037  1.005  2.958  0.000    20.148     6.426
 404   8 O     -0.494  1.680  4.814  0.000    22.762     6.441
 405   1 H      0.230  0.770  0.000  0.000     0.964     1.538
 406   1 H      0.078  0.922  0.000  0.000     1.995     2.209
 407   1 H      0.086  0.914  0.000  0.000     1.922     2.168
 408   1 H      0.070  0.930  0.000  0.000     2.082     2.256
 409   1 H      0.366  0.634  0.000  0.000     0.552     1.166
 410   7 N     -0.179  1.203  3.976  0.000    24.868     7.406
 411   6 C     -0.002  1.041  2.960  0.000    20.612     6.464
 412   6 C      0.268  1.046  2.686  0.000    22.479     7.764
 413   8 O     -0.492  1.762  4.730  0.000    23.607     6.514
 414   6 C     -0.106  1.010  3.096  0.000    22.504     6.751
 415   6 C     -0.122  1.011  3.111  0.000    22.816     6.798
 416   6 C     -0.125  1.009  3.115  0.000    22.877     6.807
 417   6 C     -0.080  1.009  3.071  0.000    22.103     6.706
 418   7 N     -0.131  1.137  3.994  0.000    23.822     7.249
 419   1 H      0.239  0.761  0.000  0.000     0.927     1.508
 420   1 H      0.111  0.889  0.000  0.000     1.691     2.033
 421   1 H      0.077  0.923  0.000  0.000     2.011     2.217
 422   1 H      0.097  0.903  0.000  0.000     1.809     2.103
 423   1 H      0.078  0.922  0.000  0.000     1.995     2.209
 424   1 H      0.105  0.895  0.000  0.000     1.739     2.062
 425   1 H      0.106  0.894  0.000  0.000     1.732     2.058
 426   1 H      0.082  0.918  0.000  0.000     1.956     2.187
 427   1 H      0.139  0.861  0.000  0.000     1.469     1.895
 428   1 H      0.131  0.869  0.000  0.000     1.523     1.930
 429   1 H      0.296  0.704  0.000  0.000     0.725     1.334
 430   1 H      0.282  0.718  0.000  0.000     0.768     1.372
 431   1 H      0.290  0.710  0.000  0.000     0.743     1.350
 432   7 N     -0.188  1.211  3.977  0.000    25.076     7.437
 433   6 C      0.011  1.047  2.942  0.000    20.409     6.433
 434   6 C      0.263  1.050  2.687  0.000    22.569     7.779
 435   8 O     -0.510  1.744  4.767  0.000    24.017     6.571
 436   6 C     -0.159  0.981  3.177  0.000    23.613     6.926
 437   1 H      0.215  0.785  0.000  0.000     1.035     1.593
 438   1 H      0.109  0.891  0.000  0.000     1.701     2.039
 439   1 H      0.083  0.917  0.000  0.000     1.947     2.182
 440   1 H      0.098  0.902  0.000  0.000     1.805     2.101
 441   1 H      0.065  0.935  0.000  0.000     2.137     2.286
 442   7 N     -0.185  1.221  3.964  0.000    25.018     7.429
 443   6 C      0.029  1.034  2.937  0.000    20.089     6.382
 444   6 C      0.287  1.037  2.676  0.000    22.135     7.704
 445   8 O     -0.494  1.742  4.752  0.000    23.659     6.521
 446   6 C     -0.071  1.001  3.070  0.000    21.846     6.652
 447   6 C     -0.115  1.011  3.104  0.000    22.685     6.779
 448   6 C      0.367  1.025  2.608  0.000    20.783     7.461
 449   8 O     -0.643  1.770  4.872  0.000    27.197     6.992
 450   8 O     -0.671  1.772  4.899  0.000    27.939     7.087
 451   1 H      0.229  0.771  0.000  0.000     0.968     1.541
 452   1 H      0.067  0.933  0.000  0.000     2.115     2.274
 453   1 H      0.082  0.918  0.000  0.000     1.962     2.190
 454   1 H      0.042  0.958  0.000  0.000     2.420     2.433
 455   1 H      0.040  0.960  0.000  0.000     2.453     2.449
 456   1 H      0.041  0.959  0.000  0.000     2.440     2.443
 457   7 N     -0.181  1.205  3.976  0.000    24.914     7.413
 458   6 C     -0.040  1.007  3.034  0.000    21.348     6.588
 459   6 C      0.281  1.036  2.683  0.000    22.250     7.724
 460   8 O     -0.495  1.744  4.751  0.000    23.668     6.523
 461   1 H      0.208  0.792  0.000  0.000     1.067     1.618
 462   1 H      0.101  0.899  0.000  0.000     1.779     2.086
 463   1 H      0.098  0.902  0.000  0.000     1.805     2.101
 464   7 N     -0.167  1.203  3.964  0.000    24.618     7.369
 465   6 C      0.023  1.033  2.943  0.000    20.181     6.396
 466   6 C      0.194  1.090  2.716  0.000    23.852     7.999
 467   8 O     -0.338  1.741  4.596  0.000    20.480     6.067
 468   6 C     -0.086  1.005  3.081  0.000    22.126     6.694
 469   6 C      0.057  1.060  2.882  0.000    26.604     8.454
 470   7 N     -0.327  1.482  3.845  0.000    29.269     8.024
 471   6 C     -0.043  1.039  3.004  0.000    29.016     8.834
 472   6 C      0.078  1.038  2.884  0.000    26.219     8.399
 473   7 N     -0.106  1.206  3.901  0.000    23.321     7.172
 474   1 H      0.222  0.778  0.000  0.000     0.998     1.565
 475   1 H      0.095  0.905  0.000  0.000     1.829     2.115
 476   1 H      0.087  0.913  0.000  0.000     1.906     2.158
 477   1 H      0.077  0.923  0.000  0.000     2.013     2.219
 478   1 H      0.067  0.933  0.000  0.000     2.120     2.277
 479   1 H      0.078  0.922  0.000  0.000     2.004     2.214
 480   1 H      0.210  0.790  0.000  0.000     1.058     1.611
 481   7 N     -0.408  1.277  4.131  0.000    30.600     8.216
 482   6 C      0.035  1.031  2.934  0.000    19.995     6.368
 483   6 C      0.194  1.094  2.712  0.000    23.851     7.998
 484   8 O     -0.393  1.762  4.631  0.000    21.547     6.223
 485   6 C     -0.093  1.010  3.083  0.000    22.257     6.714
 486   6 C      0.004  1.085  2.911  0.000    27.925     8.668
 487   6 C     -0.057  1.062  2.995  0.000    29.404     8.893
 488   6 C     -0.064  1.051  3.013  0.000    29.594     8.922
 489   6 C     -0.057  1.055  3.002  0.000    29.422     8.895
 490   6 C     -0.058  1.054  3.004  0.000    29.434     8.897
 491   6 C     -0.062  1.054  3.008  0.000    29.553     8.915
 492   1 H      0.201  0.799  0.000  0.000     1.103     1.645
 493   1 H      0.071  0.929  0.000  0.000     2.077     2.254
 494   1 H      0.086  0.914  0.000  0.000     1.913     2.163
 495   1 H      0.058  0.942  0.000  0.000     2.223     2.331
 496   1 H      0.068  0.932  0.000  0.000     2.106     2.269
 497   1 H      0.061  0.939  0.000  0.000     2.188     2.313
 498   1 H      0.052  0.948  0.000  0.000     2.297     2.370
 499   1 H      0.068  0.932  0.000  0.000     2.106     2.269
 500   1 H      0.057  0.943  0.000  0.000     2.230     2.335
 501   1 H      0.181  0.819  0.000  0.000     1.210     1.723
 502   1 H      0.098  0.902  0.000  0.000     1.807     2.102
 503   1 H      0.195  0.805  0.000  0.000     1.132     1.667
 504   1 H      0.093  0.907  0.000  0.000     1.848     2.125
 505   1 H      0.184  0.816  0.000  0.000     1.192     1.710
 506   1 H      0.077  0.923  0.000  0.000     2.011     2.218
 507   1 H      0.161  0.839  0.000  0.000     1.327     1.804
 508   1 H      0.071  0.929  0.000  0.000     2.070     2.250

 Mol. C6AA /au·bohr⁶  :    2382657.113058
 Mol. C8AA /au·bohr⁸  :   53319883.095071
 Mol. α(0) /au        :       2306.623091

 
molecular dipole:
                 x           y           z       tot (Debye)
 q only:      312.699      84.671     212.615
   full:      315.104      87.246     210.012     987.735
molecular quadrupole (traceless):
                xx          xy          yy          xz          yz          zz
 q only:    72276.336   38833.448  -65515.536  100373.195   26756.513   -6760.800
  q+dip:    74064.386   40517.828  -65139.008   99810.291   27085.667   -8925.379
   full:    74062.492   40515.862  -65137.559   99809.360   27087.765   -8924.933
speedup  1.00
cpu  time for grad   14.28 s
wall time for grad   14.28 s

SCC energy    :    -815.0474872
rep           :      16.9090528
ES            :       2.9072565
AES           :      -0.0646909
AXC           :       0.0772256
disp          :      -0.6869099
XB            :       0.0000000
fix           :       0.0000000
Gborn         :       0.0000000
Gsasa         :       0.0000000
Ghb           :       0.0000000
Gshift        :       0.0000000
Gsolv         :      -0.7828760     -491.26
Etot ala COSMO:    -815.0474872
grad norm     :       2.9361815
total E       :    -798.0583539
atomizationE  :     140.0315722    87871.14
(atE without considering molecular charge,
 total energy contains solvation terms)
H-L gap (eV)  :          1.0510

------------------------------------------------------------------------
 * finished run on 2019/03/07 at 11:38:01.649     
------------------------------------------------------------------------
 total:
 * wall-time:     0 d,  0 h,  0 min, 15.288 sec
 *  cpu-time:     0 d,  0 h,  0 min, 15.127 sec
 * ratio c/w:     0.989 speedup
 SCF:
 * wall-time:     0 d,  0 h,  0 min, 14.898 sec
 *  cpu-time:     0 d,  0 h,  0 min, 14.898 sec
 * ratio c/w:     1.000 speedup

