      -----------------------------------------------------------      
     |                   =====================                   |     
     |                           x T B                           |     
     |                   =====================                   |     
     |                         S. Grimme                         |     
     |          Mulliken Center for Theoretical Chemistry        |     
     |                    University of Bonn                     |     
     |                 Version 6.0.1 (SAW181210)                 |     
      -----------------------------------------------------------      

   This program is distributed in the hope that it will be useful,
   but WITHOUT ANY WARRANTY; without even the implied warranty of
   MERCHANTABILITY or FITNESS FOR A PARTICULAR PURPOSE.
   
   FOR NON-COMMERCIAL, ACADEMIA USE ONLY.
   
   Cite this work as:
   S. Grimme, C. Bannwarth, P. Shushkov, J. Comput. Theory Chem., 2017,
   13, 1989-2009.
   C. Bannwarth, S. Ehlert and S. Grimme., ChemRxiv, 2018, preprint.
   http://doi.org/10.26434/chemrxiv.7246238.v1
   
   for sTDA-xTB:
   S. Grimme and C. Bannwarth, J. Chem. Phys., 2016, 145, 054103.
   
   in the mass-spec context:
   V. Asgeirsson, C. Bauer and S. Grimme, Chem. Sci., 2017, 8, 4879.
   
   if GBSA is used:
   P. Shushkov, F. März and S. Grimme, unpublished.
   
   for ANC optimizer:
   S. Grimme, unpublished.
   Rational Function algorithm used in ANCopt:
   F. Eckert, P. Pulay, H.-J. Werner, J. Comput. Chem., 1997, 18, 1473.
   
   with help from (in alphabetical order)
   C. Bannwarth, F. Bohle, G. Brandenburg, E. Caldeweyher, M. Checinski,
   S. Dohm, S. Ehlert, S. Ehrlich, F. März, H. Neugebauer, J. Pisarek,
   P. Pracht, P. Shushkov, and S. Spicher.
   
 * started run on 2019/03/14 at 15:08:19.024     
========================================================================
 # omp threads = 1
========================================================================
number of atoms            : 392
number of electrons        : 1000
charge                     : 1
spin                       : .0
first test random number   : .3605
           ------------------------------------------------- 
          |                 G F N 2 - x T B                 |
          | Geometry, Frequencies, Noncovalent interactions |
          |            JCTC 2018 parametrisation            |
           ------------------------------------------------- 
 
      method parameters     
 k(s)        :  1.8500
 k(p)        :  2.2300
 k(d)        :  2.2300
 k(f)        :  2.0000
 kEN (H0ij)  : -2.0000
 D4 a1       :  0.5200
 D4 a2       :  5.0000
 D4 s6       :  1.0000
 D4 s8       :  2.7000
 D4 s9       :  5.0000
 alphaj      :  2.0000

 Solvent             : h2o
 Using internal parameter file: .param_gbsa2_h2o
 Gsolv ref. state (COSMO-RS): gsolv [1 M gas/solution]
 temperature (mdtemp)       :    298.150000000000     
 dielectric constant        :    80.2000000000000     
 rho                        :    1.00000000000000     
 mass                       :    18.0000000000000     
 surface tension            :    15.5689454083859     
 probe radius               :   0.975313790000000     
 vdW radii scaling          :    1.00000000000000     
 Gshift (Eh)                :   1.857443126794793E-003
 c1                         :    1.55243817000000     
 soset                      :   0.130326360000000     
 HB correction              :  T

            Z     q(EN)     CN     RAES       Cart. coordinates
     1  N   5.0   -0.08    4.25    3.62    65.23985    42.44996   101.16529
     2  C   4.0   -0.00    4.40    4.39    65.34933    45.12297   100.19694
     3  C   4.0    0.14    3.39    3.08    65.63632    45.04290    97.28869
     4  O   6.0   -0.31    1.24    1.80    67.68158    45.06455    96.25333
     5  C   4.0   -0.04    4.28    4.16    67.64562    46.36574   101.44797
     6  C   4.0   -0.04    4.19    3.98    69.01804    44.34158   103.00783
     7  C   4.0   -0.03    4.22    4.05    67.42992    41.93158   102.89217
     8  H   1.0    0.05    1.05    1.44    63.58019    42.15198   102.12489
     9  H   1.0    0.05    1.07    1.44    65.30498    41.19127    99.68700
    10  H   1.0    0.04    1.04    1.43    63.61230    46.12659   100.68274
    11  H   1.0    0.06    1.04    1.43    68.90828    47.07719    99.98769
    12  H   1.0    0.04    1.02    1.43    67.05796    47.94347   102.62384
    13  H   1.0    0.05    1.02    1.43    70.88550    43.99838   102.22459
    14  H   1.0    0.04    1.02    1.43    69.24297    44.96017   104.95289
    15  H   1.0    0.04    1.02    1.43    68.54391    40.36518   102.15751
    16  H   1.0    0.04    1.02    1.43    66.72100    41.41760   104.75272
    17  N   5.0   -0.16    3.47    2.06    63.43765    44.87391    96.01728
    18  C   4.0    0.03    4.42    4.41    63.41387    44.32738    93.33485
    19  C   4.0    0.14    3.40    3.08    63.00159    46.65634    91.66066
    20  O   6.0   -0.32    1.27    1.80    62.47380    46.47800    89.42279
    21  C   4.0   -0.05    4.35    4.29    61.45842    42.28545    92.70746
    22  C   4.0   -0.03    4.18    3.95    61.85342    39.77201    94.10089
    23  C   4.0   -0.08    4.11    3.83    59.76687    37.93310    93.32938
    24  C   4.0   -0.08    4.10    3.81    64.41713    38.55916    93.57114
    25  H   1.0    0.07    1.06    1.44    61.74118    44.89584    96.89520
    26  H   1.0    0.05    1.07    1.44    65.31829    43.64041    92.87357
    27  H   1.0    0.04    1.03    1.43    59.57899    43.01182    93.15607
    28  H   1.0    0.05    1.03    1.43    61.52306    41.95914    90.67594
    29  H   1.0    0.04    1.05    1.44    61.67532    40.10697    96.13380
    30  H   1.0    0.04    1.00    1.43    59.99797    36.13602    94.29805
    31  H   1.0    0.04    1.00    1.43    57.91568    38.69540    93.78586
    32  H   1.0    0.04    1.00    1.43    59.83300    37.56609    91.30794
    33  H   1.0    0.04    1.00    1.43    64.61984    36.84661    94.68682
    34  H   1.0    0.04    1.00    1.43    64.54194    38.00181    91.59844
    35  H   1.0    0.05    1.00    1.43    65.98759    39.81131    93.99843
    36  N   5.0   -0.14    3.57    2.13    63.41343    48.90152    92.76175
    37  C   4.0    0.03    4.46    4.48    62.89663    51.23682    91.41804
    38  C   4.0    0.15    3.40    3.08    64.96949    51.75963    89.46426
    39  O   6.0   -0.30    1.22    1.80    64.55431    52.81007    87.45386
    40  C   4.0   -0.04    4.31    4.21    62.59062    53.36349    93.34955
    41  C   4.0   -0.02    3.54    3.13    60.47165    52.87753    95.21668
    42  C   4.0   -0.05    3.46    3.10    60.25513    54.43846    97.32841
    43  C   4.0   -0.04    3.50    3.11    58.71248    50.94936    94.92195
    44  C   4.0   -0.04    3.43    3.09    58.34890    54.09663    99.07493
    45  C   4.0   -0.04    3.43    3.09    56.79825    50.57983    96.66707
    46  C   4.0    0.07    3.44    3.09    56.58875    52.16280    98.74950
    47  O   6.0   -0.24    2.11    1.84    54.73149    51.88674   100.50085
    48  H   1.0    0.08    1.08    1.44    63.74999    49.03411    94.63540
    49  H   1.0    0.06    1.06    1.44    61.15605    51.02822    90.31039
    50  H   1.0    0.04    1.03    1.43    64.36645    53.61482    94.37785
    51  H   1.0    0.05    1.03    1.43    62.22776    55.12585    92.33744
    52  H   1.0    0.05    1.03    1.43    61.58459    55.96345    97.60160
    53  H   1.0    0.05    1.04    1.43    58.76557    49.69902    93.31434
    54  H   1.0    0.06    1.03    1.43    58.18517    55.31810   100.70017
    55  H   1.0    0.05    1.03    1.43    55.44715    49.07089    96.38622
    56  H   1.0    0.12    1.03    1.43    53.59955    50.53071   100.02992
    57  N   5.0   -0.14    3.50    2.08    67.26709    50.91123    90.13411
    58  C   4.0    0.04    4.45    4.46    69.44353    51.23202    88.51311
    59  C   4.0    0.15    3.46    3.10    69.45822    49.23755    86.41706
    60  O   6.0   -0.30    1.30    1.80    69.81516    49.80566    84.20973
    61  C   4.0   -0.04    4.31    4.22    71.91421    51.21823    90.03813
    62  C   4.0   -0.01    3.59    3.16    73.95245    52.26723    88.35663
    63  C   4.0   -0.04    3.47    3.10    74.24086    54.86943    88.13008
    64  C   4.0   -0.04    3.46    3.10    75.41291    50.67896    86.86773
    65  C   4.0   -0.04    3.37    3.07    75.89636    55.87858    86.37608
    66  C   4.0   -0.04    3.38    3.07    77.08348    51.68080    85.12450
    67  C   4.0   -0.04    3.38    3.07    77.26268    54.27648    84.81918
    68  H   1.0    0.08    1.08    1.44    67.49865    49.97310    91.77974
    69  H   1.0    0.06    1.06    1.44    69.25041    53.05686    87.54646
    70  H   1.0    0.04    1.03    1.43    71.66603    52.42473    91.69079
    71  H   1.0    0.04    1.02    1.43    72.36881    49.30807    90.66746
    72  H   1.0    0.05    1.03    1.43    73.13156    56.11131    89.31258
    73  H   1.0    0.05    1.03    1.43    75.21036    48.65473    87.04081
    74  H   1.0    0.05    1.03    1.43    76.11126    57.90684    86.23586
    75  H   1.0    0.04    1.03    1.43    78.24659    50.43340    84.00401
    76  H   1.0    0.04    1.03    1.43    78.44299    55.03013    83.33880
    77  N   5.0   -0.15    3.49    2.07    68.95025    46.85719    87.14144
    78  C   4.0    0.03    4.49    4.52    68.97209    44.83395    85.27773
    79  C   4.0    0.16    3.52    3.12    67.19655    45.54360    83.10948
    80  O   6.0   -0.32    1.32    1.80    67.84138    45.23122    80.90628
    81  C   4.0   -0.03    4.25    4.09    68.45750    42.23530    86.47945
    82  C   4.0   -0.07    4.15    3.89    65.82269    42.07828    87.60254
    83  C   4.0   -0.08    4.12    3.83    68.78947    40.10213    84.57092
    84  H   1.0    0.08    1.06    1.44    68.90880    46.37862    88.98617
    85  H   1.0    0.04    1.06    1.44    70.85775    44.75252    84.41717
    86  H   1.0    0.04    1.05    1.44    69.86535    42.00211    87.98149
    87  H   1.0    0.04    1.00    1.43    65.62407    40.33019    88.65248
    88  H   1.0    0.06    1.02    1.43    65.49140    43.66436    88.84340
    89  H   1.0    0.04    1.00    1.43    64.39775    42.10185    86.12361
    90  H   1.0    0.04    1.00    1.43    68.64803    38.28770    85.52519
    91  H   1.0    0.04    1.00    1.43    67.30471    40.19310    83.15719
    92  H   1.0    0.04    1.00    1.43    70.60214    40.20604    83.61491
    93  N   5.0   -0.14    3.50    2.08    64.96326    46.59051    83.67651
    94  C   4.0    0.03    4.52    4.57    63.29151    47.35564    81.63238
    95  C   4.0    0.16    3.51    3.12    64.70045    49.19865    79.90270
    96  O   6.0   -0.32    1.26    1.80    64.98909    48.80600    77.63877
    97  C   4.0   -0.02    4.26    4.12    60.82159    48.47554    82.67544
    98  C   4.0   -0.07    4.14    3.87    59.28449    49.62631    80.52443
    99  C   4.0   -0.07    4.12    3.84    59.27988    46.40894    83.96956
   100  H   1.0    0.10    1.07    1.44    64.33479    46.80444    85.46764
   101  H   1.0    0.05    1.05    1.44    62.85384    45.70429    80.44683
   102  H   1.0    0.06    1.05    1.44    61.28777    49.95575    84.04723
   103  H   1.0    0.04    1.00    1.43    57.47986    50.32290    81.21417
   104  H   1.0    0.05    1.00    1.43    60.29707    51.18134    79.64761
   105  H   1.0    0.04    1.00    1.43    58.91148    48.20132    79.09131
   106  H   1.0    0.04    1.00    1.43    57.49481    47.17858    84.62966
   107  H   1.0    0.04    1.00    1.43    58.86385    44.91103    82.62617
   108  H   1.0    0.06    1.00    1.43    60.28337    45.62535    85.57706
   109  N   5.0   -0.14    3.49    2.07    65.59272    51.27399    81.04740
   110  C   4.0    0.05    4.44    4.45    66.71402    53.29208    79.60302
   111  C   4.0    0.16    3.41    3.08    69.46520    52.80919    78.75859
   112  O   6.0   -0.31    1.28    1.80    70.65437    54.54340    77.80451
   113  C   4.0   -0.02    4.31    4.22    66.60414    55.84137    80.96378
   114  C   4.0    0.17    3.27    3.05    66.98194    57.93826    79.01069
   115  O   6.0   -0.30    1.21    1.80    65.74278    57.99135    77.06479
   116  N   5.0   -0.18    3.18    1.95    68.62888    59.75370    79.62751
   117  H   1.0    0.10    1.07    1.44    65.34167    51.57013    82.91623
   118  H   1.0    0.06    1.06    1.44    65.61633    53.45559    77.83313
   119  H   1.0    0.05    1.02    1.43    64.74987    56.14572    81.82457
   120  H   1.0    0.05    1.03    1.43    68.04441    55.89067    82.42927
   121  H   1.0    0.10    1.03    1.43    68.88759    61.18736    78.39765
   122  H   1.0    0.09    1.03    1.43    69.77212    59.62703    81.13538
   123  N   5.0   -0.13    3.50    2.08    70.33885    50.43890    78.97830
   124  C   4.0    0.03    4.48    4.51    72.70095    49.60042    77.86409
   125  C   4.0    0.14    3.52    3.12    72.25145    47.68116    75.76016
   126  O   6.0   -0.33    1.32    1.80    73.80929    47.38134    74.06230
   127  C   4.0   -0.02    4.26    4.11    74.58495    48.44497    79.76996
   128  C   4.0   -0.07    4.15    3.90    73.81101    45.77853    80.54118
   129  C   4.0   -0.08    4.12    3.83    77.24906    48.38178    78.66270
   130  H   1.0    0.12    1.10    1.44    69.54028    49.32000    80.30421
   131  H   1.0    0.05    1.07    1.44    73.57095    51.26488    76.99590
   132  H   1.0    0.05    1.06    1.44    74.55069    49.66585    81.43823
   133  H   1.0    0.04    1.00    1.43    74.83743    45.24153    82.23569
   134  H   1.0    0.07    1.02    1.43    71.79625    45.69518    80.89288
   135  H   1.0    0.05    1.00    1.43    74.24941    44.41382    79.06592
   136  H   1.0    0.04    1.00    1.43    78.54292    47.53648    80.01447
   137  H   1.0    0.06    1.00    1.43    77.29112    47.23513    76.95650
   138  H   1.0    0.04    1.00    1.43    77.91082    50.26629    78.19354
   139  N   5.0   -0.14    3.54    2.11    70.10020    46.37039    75.85959
   140  C   4.0    0.03    4.53    4.58    69.35573    44.70792    73.82015
   141  C   4.0    0.15    3.49    3.11    68.40141    46.36183    71.65288
   142  O   6.0   -0.32    1.34    1.80    69.31762    46.19470    69.52732
   143  C   4.0   -0.02    4.33    4.26    67.43369    42.72996    74.70762
   144  C   4.0   -0.04    4.21    4.01    68.72285    40.96479    76.60434
   145  C   4.0   -0.08    4.14    3.88    66.45343    41.27129    72.42530
   146  C   4.0   -0.08    4.01    3.65    66.87830    39.21707    77.95201
   147  H   1.0    0.11    1.09    1.44    68.87456    46.60624    77.30524
   148  H   1.0    0.06    1.06    1.44    71.04854    43.73593    73.11195
   149  H   1.0    0.05    1.05    1.44    65.87213    43.71818    75.63839
   150  H   1.0    0.04    1.03    1.43    70.14300    39.85251    75.60407
   151  H   1.0    0.05    1.04    1.43    69.67426    42.11784    78.02039
   152  H   1.0    0.04    1.00    1.43    65.06190    39.87285    72.98358
   153  H   1.0    0.04    1.01    1.43    65.58797    42.54740    71.07414
   154  H   1.0    0.04    1.00    1.43    68.00795    40.30120    71.49203
   155  H   1.0    0.04    1.00    1.43    67.89245    38.04817    79.30102
   156  H   1.0    0.05    1.00    1.43    65.48399    40.34552    78.95316
   157  H   1.0    0.04    1.00    1.43    65.90192    37.97541    76.64259
   158  N   5.0   -0.15    3.49    2.07    66.65307    48.07970    72.24214
   159  C   4.0    0.03    4.51    4.55    65.69876    49.82985    70.36025
   160  C   4.0    0.15    3.64    3.19    67.83566    50.95782    68.78855
   161  O   6.0   -0.32    1.38    1.80    67.73324    50.77868    66.46844
   162  C   4.0   -0.02    4.34    4.28    64.06266    51.91344    71.55057
   163  C   4.0   -0.05    4.20    3.99    61.71075    50.76492    72.78756
   164  C   4.0   -0.07    4.15    3.91    63.31276    53.82895    69.52940
   165  C   4.0   -0.07    4.02    3.66    60.22555    52.70257    74.31129
   166  H   1.0    0.10    1.09    1.44    65.96640    48.24642    74.02397
   167  H   1.0    0.05    1.06    1.44    64.53210    48.80180    68.97578
   168  H   1.0    0.05    1.05    1.44    65.19399    52.86643    72.99527
   169  H   1.0    0.04    1.03    1.43    60.49339    49.96661    71.32750
   170  H   1.0    0.05    1.03    1.43    62.27456    49.24793    74.06088
   171  H   1.0    0.04    1.00    1.43    62.20648    55.33556    70.37054
   172  H   1.0    0.05    1.01    1.43    64.97217    54.66052    68.65708
   173  H   1.0    0.04    1.00    1.43    62.18992    52.92561    68.06268
   174  H   1.0    0.04    1.00    1.43    58.70578    51.76797    75.32480
   175  H   1.0    0.05    1.00    1.43    61.46028    53.64266    75.66038
   176  H   1.0    0.04    1.00    1.43    59.39660    54.13253    73.09835
   177  N   5.0   -0.10    3.68    2.25    69.71473    52.25502    69.87740
   178  C   4.0    0.03    4.63    4.70    71.51495    53.47955    68.20216
   179  C   4.0    0.16    3.52    3.12    72.68320    51.54477    66.43872
   180  O   6.0   -0.33    1.35    1.80    73.14145    52.06267    64.23344
   181  C   4.0   -0.05    4.31    4.21    73.54453    54.68084    69.87643
   182  C   4.0   -0.04    4.24    4.07    73.18767    53.45250    72.46983
   183  C   4.0    0.00    4.35    4.29    70.50149    52.36992    72.49691
   184  H   1.0    0.05    1.05    1.44    70.56660    54.87499    67.00172
   185  H   1.0    0.04    1.03    1.43    75.40805    54.29606    69.08742
   186  H   1.0    0.04    1.02    1.43    73.30576    56.72147    69.97176
   187  H   1.0    0.05    1.02    1.43    74.56314    51.94166    72.73824
   188  H   1.0    0.05    1.03    1.43    73.36076    54.82679    73.98774
   189  H   1.0    0.06    1.07    1.44    70.47905    50.49686    73.34597
   190  H   1.0    0.06    1.02    1.43    69.24923    53.57308    73.60859
   191  N   5.0   -0.14    3.57    2.13    73.30728    49.34392    67.49774
   192  C   4.0    0.04    4.51    4.55    74.46900    47.34741    66.05616
   193  C   4.0    0.16    3.45    3.09    72.78886    46.44187    63.89307
   194  O   6.0   -0.29    1.23    1.80    73.77291    45.78942    61.88492
   195  C   4.0   -0.03    4.12    3.84    75.10886    45.10232    67.73607
   196  S   6.0   -0.05    2.33    3.10    77.71900    45.87357    69.87114
   197  H   1.0    0.10    1.08    1.44    72.84691    48.96940    69.30898
   198  H   1.0    0.05    1.06    1.44    76.21397    48.08044    65.19270
   199  H   1.0    0.06    1.07    1.44    73.47677    44.54418    68.85245
   200  H   1.0    0.05    1.07    1.44    75.70354    43.52207    66.55972
   201  H   1.0    0.08    1.03    1.43    76.24975    46.70316    71.72425
   202  N   5.0   -0.13    3.52    2.09    70.32113    46.36785    64.30676
   203  C   4.0    0.04    4.42    4.41    68.54507    45.54314    62.38568
   204  C   4.0    0.16    3.45    3.09    68.32758    47.55292    60.31607
   205  O   6.0   -0.27    1.22    1.80    68.33487    47.00139    58.05920
   206  C   4.0   -0.05    4.36    4.30    65.92434    45.05600    63.50958
   207  C   4.0   -0.02    4.18    3.96    65.84529    42.96610    65.51764
   208  C   4.0   -0.08    4.11    3.82    63.14656    42.77534    66.53246
   209  C   4.0   -0.07    4.10    3.81    66.70429    40.41668    64.48360
   210  H   1.0    0.12    1.11    1.45    69.64367    46.73514    66.06494
   211  H   1.0    0.06    1.05    1.44    69.27261    43.82299    61.48537
   212  H   1.0    0.05    1.03    1.43    65.24198    46.81020    64.35671
   213  H   1.0    0.05    1.03    1.43    64.65444    44.54884    61.96311
   214  H   1.0    0.06    1.06    1.44    67.11382    43.50246    67.05631
   215  H   1.0    0.04    1.00    1.43    62.97466    41.23300    67.87646
   216  H   1.0    0.04    1.00    1.43    62.59257    44.52163    67.46543
   217  H   1.0    0.04    1.00    1.43    61.84059    42.41861    64.98774
   218  H   1.0    0.04    1.00    1.43    66.51986    38.97397    65.93308
   219  H   1.0    0.05    1.00    1.43    65.55759    39.86115    62.87169
   220  H   1.0    0.05    1.00    1.43    68.67269    40.47394    63.89998
   221  N   5.0   -0.14    3.54    2.10    68.10550    49.91669    61.14763
   222  C   4.0    0.04    4.43    4.44    67.85691    52.00620    59.40163
   223  C   4.0    0.16    3.45    3.09    70.30017    52.34474    57.90326
   224  O   6.0   -0.27    1.21    1.80    70.26579    53.01307    55.68968
   225  C   4.0   -0.04    4.37    4.33    67.29920    54.51353    60.72405
   226  C   4.0   -0.02    4.19    3.97    65.09957    54.48977    62.60379
   227  C   4.0   -0.08    4.11    3.83    65.02889    57.06392    63.90847
   228  C   4.0   -0.07    4.10    3.81    62.60651    53.91544    61.29366
   229  H   1.0    0.11    1.11    1.45    68.08155    50.27749    63.02971
   230  H   1.0    0.06    1.05    1.44    66.37805    51.56305    58.01598
   231  H   1.0    0.05    1.03    1.43    69.00957    55.10127    61.71600
   232  H   1.0    0.05    1.03    1.43    66.89166    55.89093    59.24177
   233  H   1.0    0.06    1.07    1.44    65.44534    53.04657    64.03335
   234  H   1.0    0.04    1.00    1.43    63.38145    57.22281    65.12134
   235  H   1.0    0.04    1.00    1.43    66.71492    57.30919    65.05827
   236  H   1.0    0.04    1.00    1.43    64.97461    58.57495    62.51763
   237  H   1.0    0.04    1.00    1.43    61.05516    53.93768    62.63972
   238  H   1.0    0.05    1.00    1.43    62.24783    55.32375    59.84687
   239  H   1.0    0.05    1.00    1.43    62.66131    52.06256    60.41139
   240  N   5.0   -0.13    3.53    2.10    72.40846    51.88924    59.19922
   241  C   4.0    0.04    4.33    4.25    74.92525    51.93744    58.13088
   242  C   4.0    0.11    3.29    3.05    75.25152    49.68406    56.38301
   243  O   6.0   -0.26    1.13    1.80    76.33906    49.86700    54.34366
   244  C   4.0   -0.03    4.36    4.32    76.85856    51.79939    60.27493
   245  C   4.0   -0.01    3.58    3.16    79.44999    50.94989    59.51068
   246  C   4.0   -0.03    3.47    3.10    80.81253    49.37176    61.10373
   247  C   4.0   -0.02    3.51    3.12    80.58994    51.81368    57.31752
   248  C   4.0   -0.03    3.38    3.07    83.30896    48.82033    60.59629
   249  C   4.0   -0.03    3.37    3.07    83.10808    51.30511    56.82067
   250  C   4.0   -0.03    3.38    3.07    84.48301    49.86201    58.49931
   251  H   1.0    0.12    1.15    1.45    72.33641    51.65195    61.10112
   252  H   1.0    0.06    1.05    1.44    75.17495    53.64486    56.98640
   253  H   1.0    0.05    1.03    1.43    76.98959    53.65829    61.17145
   254  H   1.0    0.07    1.05    1.44    76.14362    50.47876    61.67824
   255  H   1.0    0.05    1.03    1.43    79.92714    48.58562    62.76623
   256  H   1.0    0.07    1.03    1.43    79.49555    52.90404    55.99059
   257  H   1.0    0.06    1.03    1.43    84.34513    47.59566    61.84746
   258  H   1.0    0.06    1.03    1.43    83.98719    52.07033    55.15070
   259  H   1.0    0.06    1.03    1.43    86.47111    49.55894    58.17120
   260  N   5.0   -0.21    3.21    1.96    85.37071    62.09254    75.06673
   261  C   4.0    0.03    4.31    4.22    84.22939    60.10025    76.57273
   262  C   4.0    0.07    3.22    3.04    86.24302    58.96205    78.32523
   263  O   6.0   -0.33    1.16    1.80    85.75556    58.51658    80.55535
   264  C   4.0   -0.03    4.30    4.20    82.88151    58.10108    74.94923
   265  C   4.0   -0.05    4.21    4.02    80.67074    59.37778    73.57796
   266  C   4.0   -0.07    4.13    3.87    81.93112    55.97000    76.64748
   267  C   4.0   -0.08    4.00    3.63    79.54934    57.88301    71.39331
   268  H   1.0    0.08    1.02    1.43    85.49445    61.91166    73.16651
   269  H   1.0    0.04    1.05    1.44    82.83482    60.97863    77.84280
   270  H   1.0    0.04    1.05    1.44    84.24283    57.35321    73.58465
   271  H   1.0    0.04    1.03    1.43    79.17568    59.72077    74.95213
   272  H   1.0    0.04    1.04    1.43    81.32257    61.18732    72.84505
   273  H   1.0    0.04    1.00    1.43    80.91870    54.56452    75.54910
   274  H   1.0    0.05    1.00    1.43    83.48975    55.04605    77.61145
   275  H   1.0    0.04    1.00    1.43    80.65577    56.73531    78.06661
   276  H   1.0    0.04    1.00    1.43    78.07946    59.00091    70.48949
   277  H   1.0    0.04    1.00    1.43    80.99818    57.47871    69.99839
   278  H   1.0    0.04    1.00    1.43    78.71891    56.11977    72.02993
   279  N   5.0   -0.20    3.26    1.97    86.35881    63.01087    84.10089
   280  C   4.0    0.03    4.31    4.22    84.40866    62.83577    86.01421
   281  C   4.0    0.15    3.40    3.08    84.85016    60.40130    87.54724
   282  O   6.0   -0.31    1.25    1.80    84.81365    60.39677    89.87413
   283  C   4.0   -0.05    4.31    4.22    81.76192    62.97905    84.85331
   284  C   4.0   -0.03    4.19    3.97    81.34665    65.43085    83.34760
   285  C   4.0   -0.08    4.10    3.81    78.88937    65.28990    81.83917
   286  C   4.0   -0.07    4.10    3.81    81.26566    67.77584    85.02758
   287  H   1.0    0.10    1.03    1.43    85.95877    62.48714    82.30796
   288  H   1.0    0.05    1.05    1.44    84.66792    64.41970    87.32248
   289  H   1.0    0.04    1.03    1.43    81.48600    61.36490    83.59538
   290  H   1.0    0.04    1.03    1.43    80.37877    62.87234    86.37865
   291  H   1.0    0.04    1.06    1.44    82.91944    65.63370    82.01851
   292  H   1.0    0.04    1.00    1.43    78.66368    67.02263    80.75969
   293  H   1.0    0.04    1.00    1.43    78.92048    63.70069    80.53991
   294  H   1.0    0.04    1.00    1.43    77.27400    65.10493    83.09661
   295  H   1.0    0.04    1.00    1.43    80.81886    69.42329    83.88077
   296  H   1.0    0.05    1.00    1.43    79.81436    67.60561    86.47354
   297  H   1.0    0.04    1.00    1.43    83.07358    68.11768    85.93693
   298  N   5.0   -0.15    3.46    2.05    85.40825    58.34970    86.19313
   299  C   4.0    0.04    4.41    4.39    85.86890    55.93384    87.39067
   300  C   4.0    0.08    3.22    3.04    88.08976    55.83456    89.23998
   301  O   6.0   -0.30    1.14    1.80    87.88851    54.33386    91.01217
   302  C   4.0   -0.02    4.32    4.23    86.00575    53.71865    85.49015
   303  C   4.0   -0.04    4.18    3.96    88.34311    53.76162    83.77900
   304  C   4.0   -0.08    4.13    3.86    83.60647    53.68434    83.88368
   305  C   4.0   -0.07    4.01    3.64    90.70856    52.62276    84.96037
   306  H   1.0    0.10    1.09    1.44    85.44462    58.44640    84.27892
   307  H   1.0    0.05    1.07    1.44    84.24425    55.52791    88.62543
   308  H   1.0    0.05    1.06    1.44    86.06782    51.99643    86.63637
   309  H   1.0    0.04    1.03    1.43    87.91032    52.64710    82.09628
   310  H   1.0    0.06    1.03    1.43    88.68748    55.69761    83.17410
   311  H   1.0    0.04    1.00    1.43    83.61263    52.02812    82.67013
   312  H   1.0    0.04    1.01    1.43    81.92216    53.61488    85.05085
   313  H   1.0    0.05    1.01    1.43    83.52219    55.36077    82.70090
   314  H   1.0    0.05    1.00    1.43    92.26182    52.66226    83.61613
   315  H   1.0    0.05    1.01    1.43    91.31750    53.63216    86.63149
   316  H   1.0    0.05    1.00    1.43    90.32495    50.67857    85.49666
   317  N   5.0   -0.19    3.19    1.95    86.07591    58.72723    95.23326
   318  C   4.0    0.05    4.26    4.12    84.27003    57.02116    96.38562
   319  C   4.0    0.09    3.21    3.04    85.69967    54.81265    97.60508
   320  O   6.0   -0.26    1.12    1.80    85.33625    54.33750    99.83576
   321  C   4.0    0.06    4.18    3.96    82.05204    56.27066    94.63016
   322  O   6.0   -0.25    2.12    1.84    79.87994    56.34225    96.18664
   323  C   4.0   -0.07    4.07    3.75    82.31053    53.70589    93.34320
   324  H   1.0    0.12    1.04    1.43    85.76051    59.33686    93.44534
   325  H   1.0    0.07    1.07    1.44    83.36762    57.98940    97.99438
   326  H   1.0    0.05    1.04    1.43    81.90551    57.76133    93.17465
   327  H   1.0    0.12    1.03    1.43    78.51864    55.42165    95.39027
   328  H   1.0    0.04    1.00    1.43    80.73382    53.40902    92.05372
   329  H   1.0    0.06    1.01    1.43    84.05524    53.61358    92.27396
   330  H   1.0    0.06    1.00    1.43    82.31569    52.20845    94.75098
   331  N   5.0   -0.21    3.22    1.96    67.74879    71.31012    69.25587
   332  C   4.0    0.03    4.24    4.08    69.29622    69.87542    70.99964
   333  C   4.0    0.08    3.22    3.04    69.87075    71.54743    73.28557
   334  O   6.0   -0.30    1.15    1.80    69.64989    70.78301    75.46641
   335  C   4.0   -0.04    4.30    4.21    71.65516    68.90224    69.65406
   336  C   4.0   -0.01    3.53    3.13    73.28993    67.12194    71.16725
   337  C   4.0   -0.04    3.46    3.10    75.47711    66.15720    70.05927
   338  C   4.0   -0.03    3.50    3.12    72.76000    66.46209    73.65125
   339  C   4.0   -0.04    3.37    3.07    77.18620    64.77795    71.47176
   340  C   4.0   -0.04    3.37    3.07    74.48666    65.11062    75.08510
   341  C   4.0   -0.04    3.38    3.07    76.74048    64.33456    74.01433
   342  H   1.0    0.08    1.02    1.43    68.41033    71.60765    67.48327
   343  H   1.0    0.04    1.05    1.44    68.14558    68.29250    71.69562
   344  H   1.0    0.04    1.03    1.43    71.00960    67.98171    67.92049
   345  H   1.0    0.05    1.03    1.43    72.81575    70.51962    69.08399
   346  H   1.0    0.05    1.03    1.43    75.83664    66.49409    68.07660
   347  H   1.0    0.07    1.05    1.44    71.01253    67.02369    74.52101
   348  H   1.0    0.05    1.03    1.43    78.89382    64.08177    70.60250
   349  H   1.0    0.05    1.03    1.43    74.08121    64.69157    77.04465
   350  H   1.0    0.04    1.03    1.43    78.12757    63.38459    75.15714
   351  N   5.0   -0.19    3.20    1.96    64.64790    72.00017    77.58433
   352  C   4.0    0.04    4.15    3.89    64.59660    69.61765    78.90136
   353  C   4.0    0.09    3.19    3.03    66.74814    69.38102    80.85905
   354  O   6.0   -0.28    1.12    1.80    66.84119    67.51544    82.22084
   355  C   4.0   -0.06    4.13    3.85    64.86326    67.44941    77.02092
   356  H   1.0    0.09    1.03    1.43    64.99282    71.88863    75.70101
   357  H   1.0    0.05    1.04    1.44    62.78629    69.46008    79.91771
   358  H   1.0    0.06    1.00    1.43    64.57987    65.65333    77.97182
   359  H   1.0    0.04    1.00    1.43    63.52983    67.61402    75.46651
   360  H   1.0    0.06    1.01    1.43    66.76967    67.54003    76.27023
   361  N   5.0   -0.19    3.19    1.95    50.53939    66.07372   104.89160
   362  C   4.0    0.03    4.22    4.04    50.46378    64.43889   102.69880
   363  C   4.0    0.09    3.21    3.04    47.83825    63.25420   102.29885
   364  O   6.0   -0.27    1.13    1.80    46.96579    61.70588   103.76219
   365  C   4.0   -0.04    4.38    4.34    52.30949    62.21842   102.95036
   366  C   4.0   -0.03    4.17    3.94    55.08988    62.93145   102.59571
   367  C   4.0   -0.07    4.10    3.81    56.72704    60.58679   102.96657
   368  C   4.0   -0.07    4.12    3.84    55.51098    64.04612    99.96853
   369  H   1.0    0.10    1.02    1.43    50.48954    65.23305   106.60312
   370  H   1.0    0.04    1.06    1.44    50.98595    65.63875   101.10365
   371  H   1.0    0.06    1.03    1.43    52.00583    61.35532   104.80053
   372  H   1.0    0.05    1.04    1.43    51.81226    60.81625   101.51909
   373  H   1.0    0.04    1.05    1.44    55.63063    64.37332   103.98194
   374  H   1.0    0.04    1.00    1.43    58.71494    61.08371   102.81630
   375  H   1.0    0.05    1.00    1.43    56.41292    59.73869   104.81172
   376  H   1.0    0.04    1.00    1.43    56.28396    59.20073   101.51578
   377  H   1.0    0.04    1.00    1.43    57.51338    64.18155    99.53303
   378  H   1.0    0.04    1.00    1.43    54.62159    62.90526    98.50773
   379  H   1.0    0.04    1.00    1.43    54.75974    65.95644    99.91131
   380  H   1.0    0.08    1.05    1.44    74.57097    47.99368    56.88355
   381  H   1.0    0.09    1.07    1.44    84.49935    63.53713    75.28229
   382  H   1.0    0.05    1.04    1.43    87.96809    58.57625    77.65714
   383  H   1.0    0.09    1.07    1.44    86.87543    64.62538    83.96290
   384  H   1.0    0.06    1.04    1.43    89.59230    56.94905    88.97285
   385  H   1.0    0.10    1.07    1.44    86.18261    60.15042    96.15832
   386  H   1.0    0.07    1.04    1.43    86.90788    53.78627    96.57658
   387  H   1.0    0.09    1.07    1.44    66.25857    70.52021    69.03715
   388  H   1.0    0.06    1.05    1.44    70.44802    73.32886    73.03196
   389  H   1.0    0.10    1.07    1.44    63.14340    72.77501    77.75372
   390  H   1.0    0.07    1.04    1.43    68.04779    70.74517    81.00420
   391  H   1.0    0.09    1.07    1.44    51.97649    66.98309   104.87249
   392  H   1.0    0.06    1.05    1.44    46.79550    63.75074   100.80313

  Z AO/shell   Hii/eV     exponent
  1     Wed Apr 25 08:07:45 CEST 2018   EN: 2.200 GM2: 0.406  GM3: 0.0800  RAES: 1.40
     1s    -10.707211    1.230000
  6     Wed Apr 25 08:07:45 CEST 2018   EN: 2.550 GM2: 0.538  GM3: 0.1500  RAES: 3.00
     2s    -13.970922    2.096432
     2p    -10.063292    1.800000
  7     Wed Apr 25 08:07:45 CEST 2018   EN: 3.040 GM2: 0.461  GM3:-0.0640  RAES: 1.90
     2s    -16.686243    2.339881
     2p    -12.523956    2.014332
  8     Wed Apr 25 08:07:45 CEST 2018   EN: 3.440 GM2: 0.452  GM3:-0.0517  RAES: 1.80
     2s    -20.229985    2.439742
     2p    -15.503117    2.137023
 16     Tue Apr 24 11:44:34 CEST 2018   EN: 2.580 GM2: 0.340  GM3:-0.0502  RAES: 3.10
     3s    -20.029654    1.981333
     3p    -11.377694    2.025643
     3d     -0.420282    1.702555
 no old-style atom pair restraining (fixing) potential

molecular fragmentation (1/2 indicates fragments):
111111111111111111111111111111111111111111111111111111111111111111111111
111111111111111111111111111111111111111111111111111111111111111111111111
111111111111111111111111111111111111111111111111111111111111111111111111
111111111111111111111111111111111111111111122222222222222222222222222222
222222222222222222222222222222222222222222222222222222222222222222222222
22222222222222222221222222222222
# atoms in fragment 1/2:   260   132
 fragment masses (1/2) :     1735.22      784.09
CMA distance (Bohr)    :  16.559
constraining FC (au)   :  0.0500
           ------------------------------------------------- 
          |        Self-Consistent Charge Iterations        |
           ------------------------------------------------- 

 Ncao       : 932
 Nao        : 931
 Nshell     : 571
 Nel        : 1000
 T(el)      :   500.0
 intcut     :    35.0
 scfconv/Eh :  0.100E-06
   qconv/e  :  0.100E-04
 intneglect :  0.100E-08
 broydamp   :      0.400
 iter      E             dE          RMSdq      gap      omega  full diag
   1   -563.5118006 -0.563512E+03  0.420E+00    2.96       0.0  T
   2   -564.6319262 -0.112013E+01  0.203E+00    2.06       1.0  T
   3   -564.6939474 -0.620211E-01  0.114E+00    2.30       1.0  T
   4   -564.7766524 -0.827050E-01  0.215E-01    1.75       1.0  T
   5   -564.7812300 -0.457763E-02  0.100E-01    1.92       1.0  T
   6   -564.7820121 -0.782130E-03  0.429E-02    1.90       1.0  T
   7   -564.7822085 -0.196409E-03  0.175E-02    1.88       1.0  T
   8   -564.7822267 -0.182181E-04  0.822E-03    1.88       1.0  T
   9   -564.7822320 -0.523653E-05  0.353E-03    1.87       1.4  T
  10   -564.7822329 -0.938191E-06  0.152E-03    1.87       3.3  T
  11   -564.7822330 -0.120590E-06  0.709E-04    1.87       7.1  T
  12   -564.7822331 -0.252439E-07  0.298E-04    1.87      17.0  T
  13   -564.7822331 -0.111714E-07  0.143E-04    1.87      35.3  T
  14   -564.7822331 -0.108480E-08  0.755E-05    1.87      66.9  T
  15   -564.7822331 -0.364707E-09  0.305E-05    1.87     165.4  T
speedup  1.00
cpu  time for SCC    5.05 s
wall time for SCC    5.05 s

   *** convergence criteria satisfied after 15 iterations ***

          eigenvalues
 #    :         488        489        490        491        492        493        494        495
 occ. :        2.000      2.000      2.000      2.000      2.000      2.000      2.000      2.000
 eps  :       -10.753    -10.726    -10.713    -10.701    -10.604    -10.576    -10.185    -10.129
 #    :         496        497        498        499        500        501        502        503
 occ. :        2.000      2.000      2.000      2.000      2.000      0.000      0.000      0.000
 eps  :       -10.122    -10.041     -9.933     -9.905     -9.781     -7.909     -7.785     -7.783
 #    :         504        505        506        507        508        509        510        511
 occ. :        0.000      0.000      0.000      0.000      0.000      0.000      0.000      0.000
 eps  :        -7.757     -7.640     -7.559     -7.541     -7.219     -6.812     -6.787     -6.701


   #   Z            q   n(s)   n(p)   n(d)      C6AA      α(0)
   1   7 N     -0.042  1.235  3.807  0.000    22.046     6.974
   2   6 C     -0.025  1.085  2.941  0.000    21.037     6.532
   3   6 C      0.262  1.036  2.702  0.000    22.575     7.780
   4   8 O     -0.429  1.746  4.684  0.000    22.277     6.328
   5   6 C     -0.081  1.051  3.030  0.000    22.031     6.681
   6   6 C     -0.082  1.050  3.032  0.000    22.054     6.685
   7   6 C     -0.044  1.064  2.980  0.000    21.449     6.608
   8   1 H      0.288  0.712  0.000  0.000     0.751     1.358
   9   1 H      0.264  0.736  0.000  0.000     0.830     1.427
  10   1 H      0.119  0.881  0.000  0.000     1.625     1.994
  11   1 H      0.096  0.904  0.000  0.000     1.824     2.112
  12   1 H      0.087  0.913  0.000  0.000     1.909     2.161
  13   1 H      0.084  0.916  0.000  0.000     1.942     2.179
  14   1 H      0.084  0.916  0.000  0.000     1.935     2.175
  15   1 H      0.116  0.884  0.000  0.000     1.650     2.008
  16   1 H      0.117  0.883  0.000  0.000     1.637     2.001
  17   7 N     -0.181  1.247  3.934  0.000    24.913     7.413
  18   6 C      0.000  1.066  2.934  0.000    20.580     6.460
  19   6 C      0.263  1.044  2.693  0.000    22.564     7.779
  20   8 O     -0.474  1.748  4.726  0.000    23.214     6.460
  21   6 C     -0.081  1.057  3.024  0.000    22.046     6.684
  22   6 C     -0.018  1.060  2.958  0.000    20.866     6.497
  23   6 C     -0.119  1.041  3.077  0.000    22.825     6.811
  24   6 C     -0.123  1.040  3.083  0.000    22.914     6.825
  25   1 H      0.224  0.776  0.000  0.000     0.993     1.561
  26   1 H      0.104  0.896  0.000  0.000     1.750     2.069
  27   1 H      0.058  0.942  0.000  0.000     2.218     2.329
  28   1 H      0.075  0.925  0.000  0.000     2.026     2.226
  29   1 H      0.045  0.955  0.000  0.000     2.386     2.416
  30   1 H      0.044  0.956  0.000  0.000     2.393     2.419
  31   1 H      0.040  0.960  0.000  0.000     2.452     2.449
  32   1 H      0.037  0.963  0.000  0.000     2.483     2.464
  33   1 H      0.048  0.952  0.000  0.000     2.341     2.393
  34   1 H      0.040  0.960  0.000  0.000     2.449     2.447
  35   1 H      0.047  0.953  0.000  0.000     2.357     2.401
  36   7 N     -0.182  1.244  3.939  0.000    24.953     7.419
  37   6 C      0.015  1.063  2.923  0.000    20.330     6.420
  38   6 C      0.273  1.042  2.685  0.000    22.380     7.747
  39   8 O     -0.486  1.752  4.734  0.000    23.469     6.495
  40   6 C     -0.081  1.055  3.025  0.000    22.032     6.681
  41   6 C     -0.003  1.077  2.926  0.000    28.107     8.696
  42   6 C     -0.042  1.083  2.959  0.000    29.048     8.839
  43   6 C     -0.048  1.078  2.970  0.000    29.196     8.861
  44   6 C     -0.057  1.075  2.982  0.000    29.412     8.893
  45   6 C     -0.078  1.078  3.000  0.000    29.954     8.975
  46   6 C      0.146  1.045  2.809  0.000    24.816     8.164
  47   8 O     -0.440  1.725  4.716  0.000    21.641     6.280
  48   1 H      0.214  0.786  0.000  0.000     1.039     1.596
  49   1 H      0.087  0.913  0.000  0.000     1.909     2.161
  50   1 H      0.073  0.927  0.000  0.000     2.054     2.241
  51   1 H      0.071  0.929  0.000  0.000     2.073     2.252
  52   1 H      0.049  0.951  0.000  0.000     2.336     2.390
  53   1 H      0.046  0.954  0.000  0.000     2.365     2.405
  54   1 H      0.048  0.952  0.000  0.000     2.342     2.393
  55   1 H      0.046  0.954  0.000  0.000     2.365     2.405
  56   1 H      0.348  0.652  0.000  0.000     0.592     1.209
  57   7 N     -0.183  1.242  3.941  0.000    24.969     7.421
  58   6 C      0.018  1.063  2.918  0.000    20.265     6.409
  59   6 C      0.271  1.043  2.685  0.000    22.414     7.753
  60   8 O     -0.480  1.750  4.729  0.000    23.340     6.477
  61   6 C     -0.086  1.059  3.027  0.000    22.134     6.697
  62   6 C      0.007  1.079  2.915  0.000    27.865     8.659
  63   6 C     -0.045  1.081  2.964  0.000    29.128     8.851
  64   6 C     -0.040  1.080  2.960  0.000    29.001     8.831
  65   6 C     -0.034  1.081  2.953  0.000    28.850     8.808
  66   6 C     -0.035  1.082  2.953  0.000    28.873     8.812
  67   6 C     -0.037  1.082  2.955  0.000    28.917     8.818
  68   1 H      0.215  0.785  0.000  0.000     1.032     1.591
  69   1 H      0.080  0.920  0.000  0.000     1.977     2.199
  70   1 H      0.081  0.919  0.000  0.000     1.968     2.194
  71   1 H      0.070  0.930  0.000  0.000     2.090     2.261
  72   1 H      0.042  0.958  0.000  0.000     2.427     2.436
  73   1 H      0.037  0.963  0.000  0.000     2.484     2.465
  74   1 H      0.034  0.966  0.000  0.000     2.525     2.485
  75   1 H      0.048  0.952  0.000  0.000     2.350     2.397
  76   1 H      0.043  0.957  0.000  0.000     2.409     2.427
  77   7 N     -0.184  1.248  3.936  0.000    24.989     7.424
  78   6 C      0.012  1.067  2.921  0.000    20.371     6.426
  79   6 C      0.281  1.042  2.677  0.000    22.241     7.723
  80   8 O     -0.491  1.744  4.747  0.000    23.591     6.512
  81   6 C     -0.024  1.063  2.961  0.000    20.973     6.514
  82   6 C     -0.131  1.039  3.092  0.000    23.074     6.848
  83   6 C     -0.121  1.039  3.082  0.000    22.867     6.818
  84   1 H      0.213  0.787  0.000  0.000     1.042     1.599
  85   1 H      0.076  0.924  0.000  0.000     2.020     2.223
  86   1 H      0.062  0.938  0.000  0.000     2.174     2.306
  87   1 H      0.068  0.932  0.000  0.000     2.110     2.272
  88   1 H      0.056  0.944  0.000  0.000     2.246     2.344
  89   1 H      0.044  0.956  0.000  0.000     2.397     2.421
  90   1 H      0.060  0.940  0.000  0.000     2.198     2.319
  91   1 H      0.047  0.953  0.000  0.000     2.364     2.404
  92   1 H      0.042  0.958  0.000  0.000     2.426     2.436
  93   7 N     -0.178  1.245  3.933  0.000    24.860     7.405
  94   6 C      0.019  1.067  2.914  0.000    20.246     6.406
  95   6 C      0.279  1.044  2.677  0.000    22.276     7.729
  96   8 O     -0.487  1.735  4.752  0.000    23.503     6.500
  97   6 C     -0.021  1.063  2.958  0.000    20.906     6.503
  98   6 C     -0.119  1.039  3.080  0.000    22.831     6.812
  99   6 C     -0.127  1.042  3.085  0.000    22.984     6.835
 100   1 H      0.219  0.781  0.000  0.000     1.014     1.577
 101   1 H      0.072  0.928  0.000  0.000     2.060     2.245
 102   1 H      0.048  0.952  0.000  0.000     2.350     2.397
 103   1 H      0.058  0.942  0.000  0.000     2.217     2.328
 104   1 H      0.035  0.965  0.000  0.000     2.517     2.481
 105   1 H      0.047  0.953  0.000  0.000     2.357     2.401
 106   1 H      0.057  0.943  0.000  0.000     2.232     2.336
 107   1 H      0.048  0.952  0.000  0.000     2.350     2.397
 108   1 H      0.068  0.932  0.000  0.000     2.108     2.271
 109   7 N     -0.175  1.242  3.933  0.000    24.784     7.394
 110   6 C      0.035  1.056  2.909  0.000    19.986     6.365
 111   6 C      0.271  1.045  2.684  0.000    22.421     7.754
 112   8 O     -0.477  1.744  4.733  0.000    23.273     6.468
 113   6 C     -0.100  1.060  3.040  0.000    22.405     6.738
 114   6 C      0.300  1.033  2.667  0.000    21.915     7.665
 115   8 O     -0.499  1.748  4.751  0.000    23.757     6.535
 116   7 N     -0.273  1.259  4.013  0.000    27.052     7.725
 117   1 H      0.212  0.788  0.000  0.000     1.045     1.601
 118   1 H      0.079  0.921  0.000  0.000     1.990     2.206
 119   1 H      0.089  0.911  0.000  0.000     1.893     2.152
 120   1 H      0.067  0.933  0.000  0.000     2.115     2.274
 121   1 H      0.220  0.780  0.000  0.000     1.010     1.574
 122   1 H      0.232  0.768  0.000  0.000     0.956     1.531
 123   7 N     -0.185  1.245  3.940  0.000    25.007     7.427
 124   6 C      0.011  1.065  2.925  0.000    20.405     6.432
 125   6 C      0.275  1.045  2.680  0.000    22.344     7.741
 126   8 O     -0.503  1.737  4.765  0.000    23.843     6.547
 127   6 C     -0.017  1.061  2.955  0.000    20.834     6.492
 128   6 C     -0.124  1.040  3.084  0.000    22.925     6.827
 129   6 C     -0.120  1.041  3.079  0.000    22.853     6.816
 130   1 H      0.219  0.781  0.000  0.000     1.015     1.578
 131   1 H      0.086  0.914  0.000  0.000     1.914     2.164
 132   1 H      0.057  0.943  0.000  0.000     2.229     2.335
 133   1 H      0.051  0.949  0.000  0.000     2.310     2.377
 134   1 H      0.060  0.940  0.000  0.000     2.203     2.321
 135   1 H      0.037  0.963  0.000  0.000     2.492     2.469
 136   1 H      0.058  0.942  0.000  0.000     2.224     2.332
 137   1 H      0.049  0.951  0.000  0.000     2.331     2.387
 138   1 H      0.046  0.954  0.000  0.000     2.372     2.408
 139   7 N     -0.181  1.246  3.935  0.000    24.924     7.415
 140   6 C      0.022  1.064  2.914  0.000    20.205     6.399
 141   6 C      0.274  1.045  2.682  0.000    22.374     7.746
 142   8 O     -0.497  1.742  4.756  0.000    23.725     6.531
 143   6 C     -0.024  1.066  2.958  0.000    20.964     6.512
 144   6 C     -0.066  1.050  3.015  0.000    21.751     6.639
 145   6 C     -0.117  1.038  3.080  0.000    22.802     6.808
 146   6 C     -0.109  1.037  3.072  0.000    22.646     6.786
 147   1 H      0.228  0.772  0.000  0.000     0.974     1.546
 148   1 H      0.072  0.928  0.000  0.000     2.061     2.245
 149   1 H      0.053  0.947  0.000  0.000     2.288     2.365
 150   1 H      0.037  0.963  0.000  0.000     2.493     2.469
 151   1 H      0.056  0.944  0.000  0.000     2.251     2.346
 152   1 H      0.061  0.939  0.000  0.000     2.189     2.314
 153   1 H      0.039  0.961  0.000  0.000     2.457     2.451
 154   1 H      0.042  0.958  0.000  0.000     2.421     2.433
 155   1 H      0.050  0.950  0.000  0.000     2.315     2.379
 156   1 H      0.039  0.961  0.000  0.000     2.462     2.454
 157   1 H      0.041  0.959  0.000  0.000     2.431     2.438
 158   7 N     -0.186  1.252  3.935  0.000    25.039     7.432
 159   6 C      0.027  1.063  2.910  0.000    20.123     6.387
 160   6 C      0.269  1.046  2.685  0.000    22.462     7.762
 161   8 O     -0.503  1.741  4.761  0.000    23.843     6.547
 162   6 C     -0.022  1.064  2.957  0.000    20.925     6.506
 163   6 C     -0.068  1.051  3.017  0.000    21.800     6.647
 164   6 C     -0.116  1.038  3.079  0.000    22.781     6.805
 165   6 C     -0.109  1.037  3.073  0.000    22.646     6.786
 166   1 H      0.233  0.767  0.000  0.000     0.952     1.528
 167   1 H      0.065  0.935  0.000  0.000     2.140     2.287
 168   1 H      0.040  0.960  0.000  0.000     2.445     2.445
 169   1 H      0.046  0.954  0.000  0.000     2.372     2.409
 170   1 H      0.052  0.948  0.000  0.000     2.292     2.367
 171   1 H      0.063  0.937  0.000  0.000     2.162     2.299
 172   1 H      0.038  0.962  0.000  0.000     2.472     2.459
 173   1 H      0.048  0.952  0.000  0.000     2.350     2.397
 174   1 H      0.050  0.950  0.000  0.000     2.315     2.379
 175   1 H      0.034  0.966  0.000  0.000     2.530     2.487
 176   1 H      0.045  0.955  0.000  0.000     2.383     2.414
 177   7 N     -0.096  1.236  3.860  0.000    23.125     7.142
 178   6 C      0.025  1.063  2.913  0.000    20.136     6.384
 179   6 C      0.283  1.039  2.679  0.000    22.216     7.719
 180   8 O     -0.489  1.738  4.751  0.000    23.542     6.505
 181   6 C     -0.074  1.055  3.020  0.000    21.905     6.661
 182   6 C     -0.074  1.051  3.022  0.000    21.890     6.659
 183   6 C      0.003  1.045  2.952  0.000    20.586     6.469
 184   1 H      0.070  0.930  0.000  0.000     2.080     2.256
 185   1 H      0.067  0.933  0.000  0.000     2.118     2.276
 186   1 H      0.080  0.920  0.000  0.000     1.977     2.199
 187   1 H      0.063  0.937  0.000  0.000     2.167     2.302
 188   1 H      0.090  0.910  0.000  0.000     1.879     2.144
 189   1 H      0.040  0.960  0.000  0.000     2.455     2.450
 190   1 H      0.065  0.935  0.000  0.000     2.136     2.285
 191   7 N     -0.171  1.236  3.935  0.000    24.697     7.381
 192   6 C      0.039  1.055  2.905  0.000    19.892     6.346
 193   6 C      0.271  1.040  2.689  0.000    22.428     7.755
 194   8 O     -0.521  1.760  4.761  0.000    24.257     6.603
 195   6 C     -0.011  1.064  2.947  0.000    20.771     6.489
 196  16 S     -0.321  1.932  4.360  0.028   155.006    20.955
 197   1 H      0.212  0.788  0.000  0.000     1.047     1.603
 198   1 H      0.065  0.935  0.000  0.000     2.144     2.290
 199   1 H      0.072  0.928  0.000  0.000     2.066     2.248
 200   1 H      0.054  0.946  0.000  0.000     2.265     2.354
 201   1 H      0.229  0.771  0.000  0.000     0.963     1.535
 202   7 N     -0.184  1.250  3.934  0.000    24.990     7.425
 203   6 C      0.028  1.060  2.912  0.000    20.108     6.385
 204   6 C      0.277  1.042  2.682  0.000    22.320     7.737
 205   8 O     -0.521  1.761  4.761  0.000    24.263     6.604
 206   6 C     -0.073  1.059  3.014  0.000    21.885     6.659
 207   6 C     -0.014  1.057  2.957  0.000    20.788     6.485
 208   6 C     -0.117  1.043  3.074  0.000    22.783     6.805
 209   6 C     -0.115  1.040  3.076  0.000    22.765     6.803
 210   1 H      0.238  0.762  0.000  0.000     0.932     1.512
 211   1 H      0.064  0.936  0.000  0.000     2.151     2.294
 212   1 H      0.054  0.946  0.000  0.000     2.276     2.359
 213   1 H      0.052  0.948  0.000  0.000     2.295     2.369
 214   1 H      0.045  0.955  0.000  0.000     2.389     2.417
 215   1 H      0.056  0.944  0.000  0.000     2.244     2.343
 216   1 H      0.036  0.964  0.000  0.000     2.506     2.475
 217   1 H      0.046  0.954  0.000  0.000     2.376     2.410
 218   1 H      0.053  0.947  0.000  0.000     2.280     2.361
 219   1 H      0.041  0.959  0.000  0.000     2.429     2.437
 220   1 H      0.026  0.974  0.000  0.000     2.637     2.540
 221   7 N     -0.191  1.249  3.941  0.000    25.135     7.446
 222   6 C      0.028  1.059  2.914  0.000    20.109     6.385
 223   6 C      0.280  1.041  2.679  0.000    22.261     7.726
 224   8 O     -0.515  1.752  4.763  0.000    24.121     6.585
 225   6 C     -0.072  1.059  3.014  0.000    21.870     6.656
 226   6 C     -0.017  1.056  2.961  0.000    20.848     6.494
 227   6 C     -0.116  1.043  3.073  0.000    22.768     6.803
 228   6 C     -0.117  1.039  3.077  0.000    22.790     6.807
 229   1 H      0.236  0.764  0.000  0.000     0.938     1.518
 230   1 H      0.064  0.936  0.000  0.000     2.149     2.292
 231   1 H      0.046  0.954  0.000  0.000     2.368     2.407
 232   1 H      0.057  0.943  0.000  0.000     2.240     2.341
 233   1 H      0.053  0.947  0.000  0.000     2.281     2.362
 234   1 H      0.056  0.944  0.000  0.000     2.244     2.342
 235   1 H      0.032  0.968  0.000  0.000     2.556     2.500
 236   1 H      0.045  0.955  0.000  0.000     2.386     2.415
 237   1 H      0.051  0.949  0.000  0.000     2.311     2.378
 238   1 H      0.043  0.957  0.000  0.000     2.404     2.425
 239   1 H      0.031  0.969  0.000  0.000     2.578     2.511
 240   7 N     -0.198  1.253  3.946  0.000    25.301     7.471
 241   6 C      0.041  1.054  2.905  0.000    19.890     6.351
 242   6 C      0.216  1.082  2.701  0.000    23.432     7.928
 243   8 O     -0.369  1.752  4.617  0.000    21.077     6.155
 244   6 C     -0.075  1.054  3.021  0.000    21.920     6.663
 245   6 C      0.008  1.080  2.912  0.000    27.842     8.655
 246   6 C     -0.038  1.079  2.959  0.000    28.948     8.823
 247   6 C     -0.040  1.080  2.960  0.000    28.986     8.829
 248   6 C     -0.034  1.079  2.955  0.000    28.853     8.809
 249   6 C     -0.033  1.080  2.953  0.000    28.814     8.803
 250   6 C     -0.037  1.079  2.957  0.000    28.908     8.817
 251   1 H      0.237  0.763  0.000  0.000     0.937     1.516
 252   1 H      0.078  0.922  0.000  0.000     1.998     2.210
 253   1 H      0.085  0.915  0.000  0.000     1.929     2.172
 254   1 H      0.070  0.930  0.000  0.000     2.083     2.257
 255   1 H      0.027  0.973  0.000  0.000     2.629     2.535
 256   1 H      0.036  0.964  0.000  0.000     2.509     2.477
 257   1 H      0.045  0.955  0.000  0.000     2.386     2.415
 258   1 H      0.041  0.959  0.000  0.000     2.442     2.444
 259   1 H      0.043  0.957  0.000  0.000     2.408     2.427
 260   7 N     -0.391  1.310  4.081  0.000    30.126     8.152
 261   6 C      0.038  1.062  2.900  0.000    19.947     6.361
 262   6 C      0.197  1.098  2.705  0.000    23.802     7.990
 263   8 O     -0.367  1.742  4.625  0.000    21.034     6.149
 264   6 C     -0.022  1.068  2.955  0.000    20.933     6.508
 265   6 C     -0.061  1.051  3.010  0.000    21.671     6.627
 266   6 C     -0.115  1.039  3.076  0.000    22.750     6.801
 267   6 C     -0.112  1.036  3.076  0.000    22.707     6.796
 268   1 H      0.165  0.835  0.000  0.000     1.302     1.787
 269   1 H      0.049  0.951  0.000  0.000     2.330     2.387
 270   1 H      0.043  0.957  0.000  0.000     2.414     2.430
 271   1 H      0.047  0.953  0.000  0.000     2.363     2.404
 272   1 H      0.038  0.962  0.000  0.000     2.473     2.459
 273   1 H      0.051  0.949  0.000  0.000     2.305     2.374
 274   1 H      0.038  0.962  0.000  0.000     2.472     2.459
 275   1 H      0.046  0.954  0.000  0.000     2.369     2.407
 276   1 H      0.040  0.960  0.000  0.000     2.453     2.449
 277   1 H      0.036  0.964  0.000  0.000     2.500     2.473
 278   1 H      0.041  0.959  0.000  0.000     2.432     2.439
 279   7 N     -0.393  1.312  4.081  0.000    30.172     8.158
 280   6 C      0.032  1.060  2.908  0.000    20.048     6.378
 281   6 C      0.266  1.052  2.682  0.000    22.513     7.770
 282   8 O     -0.522  1.753  4.769  0.000    24.269     6.605
 283   6 C     -0.071  1.059  3.012  0.000    21.847     6.654
 284   6 C     -0.008  1.057  2.952  0.000    20.693     6.470
 285   6 C     -0.112  1.041  3.070  0.000    22.692     6.792
 286   6 C     -0.111  1.039  3.072  0.000    22.672     6.789
 287   1 H      0.157  0.843  0.000  0.000     1.352     1.821
 288   1 H      0.042  0.958  0.000  0.000     2.425     2.435
 289   1 H      0.044  0.956  0.000  0.000     2.396     2.421
 290   1 H      0.037  0.963  0.000  0.000     2.487     2.466
 291   1 H      0.030  0.970  0.000  0.000     2.592     2.518
 292   1 H      0.040  0.960  0.000  0.000     2.448     2.447
 293   1 H      0.037  0.963  0.000  0.000     2.489     2.467
 294   1 H      0.042  0.958  0.000  0.000     2.421     2.433
 295   1 H      0.039  0.961  0.000  0.000     2.457     2.451
 296   1 H      0.038  0.962  0.000  0.000     2.473     2.459
 297   1 H      0.029  0.971  0.000  0.000     2.604     2.524
 298   7 N     -0.165  1.241  3.923  0.000    24.568     7.362
 299   6 C      0.024  1.062  2.915  0.000    20.179     6.396
 300   6 C      0.208  1.082  2.709  0.000    23.584     7.953
 301   8 O     -0.374  1.756  4.618  0.000    21.162     6.168
 302   6 C     -0.021  1.069  2.952  0.000    20.911     6.504
 303   6 C     -0.073  1.051  3.022  0.000    21.892     6.661
 304   6 C     -0.128  1.043  3.085  0.000    23.017     6.840
 305   6 C     -0.112  1.037  3.075  0.000    22.699     6.794
 306   1 H      0.237  0.763  0.000  0.000     0.936     1.516
 307   1 H      0.084  0.916  0.000  0.000     1.939     2.178
 308   1 H      0.058  0.942  0.000  0.000     2.223     2.332
 309   1 H      0.056  0.944  0.000  0.000     2.247     2.344
 310   1 H      0.053  0.947  0.000  0.000     2.283     2.363
 311   1 H      0.057  0.943  0.000  0.000     2.230     2.335
 312   1 H      0.057  0.943  0.000  0.000     2.234     2.337
 313   1 H      0.058  0.942  0.000  0.000     2.221     2.330
 314   1 H      0.046  0.954  0.000  0.000     2.376     2.410
 315   1 H      0.029  0.971  0.000  0.000     2.602     2.522
 316   1 H      0.042  0.958  0.000  0.000     2.429     2.437
 317   7 N     -0.398  1.313  4.085  0.000    30.324     8.179
 318   6 C      0.034  1.062  2.904  0.000    20.029     6.376
 319   6 C      0.207  1.090  2.703  0.000    23.613     7.958
 320   8 O     -0.375  1.753  4.622  0.000    21.191     6.172
 321   6 C      0.120  1.053  2.827  0.000    18.732     6.181
 322   8 O     -0.498  1.733  4.765  0.000    22.843     6.452
 323   6 C     -0.139  1.044  3.094  0.000    23.234     6.874
 324   1 H      0.174  0.826  0.000  0.000     1.246     1.749
 325   1 H      0.055  0.945  0.000  0.000     2.260     2.351
 326   1 H      0.027  0.973  0.000  0.000     2.625     2.534
 327   1 H      0.343  0.657  0.000  0.000     0.605     1.221
 328   1 H      0.056  0.944  0.000  0.000     2.247     2.344
 329   1 H      0.070  0.930  0.000  0.000     2.086     2.258
 330   1 H      0.051  0.949  0.000  0.000     2.308     2.376
 331   7 N     -0.394  1.313  4.081  0.000    30.218     8.164
 332   6 C      0.044  1.053  2.903  0.000    19.861     6.348
 333   6 C      0.198  1.092  2.710  0.000    23.781     7.986
 334   8 O     -0.363  1.757  4.606  0.000    20.948     6.136
 335   6 C     -0.073  1.057  3.016  0.000    21.885     6.659
 336   6 C      0.007  1.084  2.909  0.000    27.870     8.659
 337   6 C     -0.044  1.081  2.963  0.000    29.092     8.845
 338   6 C     -0.047  1.081  2.966  0.000    29.161     8.856
 339   6 C     -0.035  1.080  2.955  0.000    28.866     8.810
 340   6 C     -0.035  1.082  2.953  0.000    28.872     8.811
 341   6 C     -0.040  1.080  2.960  0.000    28.996     8.830
 342   1 H      0.168  0.832  0.000  0.000     1.286     1.776
 343   1 H      0.050  0.950  0.000  0.000     2.326     2.385
 344   1 H      0.064  0.936  0.000  0.000     2.157     2.297
 345   1 H      0.059  0.941  0.000  0.000     2.211     2.325
 346   1 H      0.031  0.969  0.000  0.000     2.571     2.508
 347   1 H      0.040  0.960  0.000  0.000     2.448     2.447
 348   1 H      0.036  0.964  0.000  0.000     2.503     2.474
 349   1 H      0.036  0.964  0.000  0.000     2.500     2.473
 350   1 H      0.043  0.957  0.000  0.000     2.412     2.429
 351   7 N     -0.389  1.316  4.073  0.000    30.069     8.144
 352   6 C      0.047  1.053  2.901  0.000    19.815     6.342
 353   6 C      0.203  1.096  2.701  0.000    23.690     7.971
 354   8 O     -0.379  1.752  4.628  0.000    21.271     6.184
 355   6 C     -0.113  1.040  3.072  0.000    22.709     6.794
 356   1 H      0.155  0.845  0.000  0.000     1.366     1.831
 357   1 H      0.052  0.948  0.000  0.000     2.298     2.371
 358   1 H      0.053  0.947  0.000  0.000     2.277     2.360
 359   1 H      0.052  0.948  0.000  0.000     2.298     2.371
 360   1 H      0.056  0.944  0.000  0.000     2.250     2.346
 361   7 N     -0.387  1.319  4.069  0.000    30.027     8.138
 362   6 C      0.035  1.056  2.908  0.000    19.997     6.370
 363   6 C      0.204  1.090  2.707  0.000    23.667     7.967
 364   8 O     -0.369  1.755  4.614  0.000    21.073     6.155
 365   6 C     -0.066  1.060  3.007  0.000    21.758     6.639
 366   6 C     -0.008  1.056  2.952  0.000    20.694     6.470
 367   6 C     -0.113  1.041  3.072  0.000    22.715     6.795
 368   6 C     -0.116  1.041  3.075  0.000    22.775     6.804
 369   1 H      0.159  0.841  0.000  0.000     1.343     1.815
 370   1 H      0.056  0.944  0.000  0.000     2.248     2.345
 371   1 H      0.046  0.954  0.000  0.000     2.375     2.410
 372   1 H      0.035  0.965  0.000  0.000     2.518     2.482
 373   1 H      0.028  0.972  0.000  0.000     2.617     2.530
 374   1 H      0.045  0.955  0.000  0.000     2.390     2.417
 375   1 H      0.037  0.963  0.000  0.000     2.484     2.465
 376   1 H      0.045  0.955  0.000  0.000     2.385     2.415
 377   1 H      0.045  0.955  0.000  0.000     2.377     2.411
 378   1 H      0.041  0.959  0.000  0.000     2.435     2.440
 379   1 H      0.033  0.967  0.000  0.000     2.551     2.497
 380   1 H      0.059  0.941  0.000  0.000     2.210     2.325
 381   1 H      0.181  0.819  0.000  0.000     1.207     1.721
 382   1 H      0.076  0.924  0.000  0.000     2.023     2.224
 383   1 H      0.176  0.824  0.000  0.000     1.234     1.740
 384   1 H      0.067  0.933  0.000  0.000     2.122     2.278
 385   1 H      0.182  0.818  0.000  0.000     1.205     1.719
 386   1 H      0.076  0.924  0.000  0.000     2.017     2.221
 387   1 H      0.184  0.816  0.000  0.000     1.190     1.709
 388   1 H      0.074  0.926  0.000  0.000     2.040     2.233
 389   1 H      0.183  0.817  0.000  0.000     1.196     1.713
 390   1 H      0.077  0.923  0.000  0.000     2.010     2.217
 391   1 H      0.186  0.814  0.000  0.000     1.178     1.700
 392   1 H      0.066  0.934  0.000  0.000     2.130     2.282

 Mol. C6AA /au·bohr⁶  :    1373459.446085
 Mol. C8AA /au·bohr⁸  :   30867913.936916
 Mol. α(0) /au        :       1767.563790

 
molecular dipole:
                 x           y           z       tot (Debye)
 q only:       59.618      43.635     115.698
   full:       57.741      43.820     116.107     347.910
molecular quadrupole (traceless):
                xx          xy          yy          xz          yz          zz
 q only:    -3621.400    3900.742   -5793.850   10670.245    7474.168    9415.250
  q+dip:    -3937.790    3795.842   -5643.645   10465.843    7508.331    9581.435
   full:    -3935.245    3796.895   -5641.324   10470.528    7510.543    9576.569
speedup  1.00
cpu  time for grad    6.64 s
wall time for grad    6.65 s

SCC energy    :    -564.8075717
rep           :       7.4137552
ES            :       1.2231934
AES           :       0.0066927
AXC           :       0.2311786
disp          :      -0.4869507
XB            :       0.0000000
fix           :       0.0000000
Gborn         :       0.0000000
Gsasa         :       0.0000000
Ghb           :       0.0000000
Gshift        :       0.0000000
Gsolv         :      -0.2976328     -186.77
Etot ala COSMO:    -564.8075717
grad norm     :       0.5581480
total E       :    -557.3566009
atomizationE  :     108.3048180    67962.30
(atE without considering molecular charge,
 total energy contains solvation terms)
H-L gap (eV)  :          1.8721

------------------------------------------------------------------------
 * finished run on 2019/03/14 at 15:08:26.300     
------------------------------------------------------------------------
 total:
 * wall-time:     0 d,  0 h,  0 min,  7.274 sec
 *  cpu-time:     0 d,  0 h,  0 min,  7.107 sec
 * ratio c/w:     0.977 speedup
 SCF:
 * wall-time:     0 d,  0 h,  0 min,  7.009 sec
 *  cpu-time:     0 d,  0 h,  0 min,  7.007 sec
 * ratio c/w:     1.000 speedup

