      -----------------------------------------------------------      
     |                   =====================                   |     
     |                           x T B                           |     
     |                   =====================                   |     
     |                         S. Grimme                         |     
     |          Mulliken Center for Theoretical Chemistry        |     
     |                    University of Bonn                     |     
     |                 Version 6.0.1 (SAW181210)                 |     
      -----------------------------------------------------------      

   This program is distributed in the hope that it will be useful,
   but WITHOUT ANY WARRANTY; without even the implied warranty of
   MERCHANTABILITY or FITNESS FOR A PARTICULAR PURPOSE.
   
   FOR NON-COMMERCIAL, ACADEMIA USE ONLY.
   
   Cite this work as:
   S. Grimme, C. Bannwarth, P. Shushkov, J. Comput. Theory Chem., 2017,
   13, 1989-2009.
   C. Bannwarth, S. Ehlert and S. Grimme., ChemRxiv, 2018, preprint.
   http://doi.org/10.26434/chemrxiv.7246238.v1
   
   for sTDA-xTB:
   S. Grimme and C. Bannwarth, J. Chem. Phys., 2016, 145, 054103.
   
   in the mass-spec context:
   V. Asgeirsson, C. Bauer and S. Grimme, Chem. Sci., 2017, 8, 4879.
   
   if GBSA is used:
   P. Shushkov, F. März and S. Grimme, unpublished.
   
   for ANC optimizer:
   S. Grimme, unpublished.
   Rational Function algorithm used in ANCopt:
   F. Eckert, P. Pulay, H.-J. Werner, J. Comput. Chem., 1997, 18, 1473.
   
   with help from (in alphabetical order)
   C. Bannwarth, F. Bohle, G. Brandenburg, E. Caldeweyher, M. Checinski,
   S. Dohm, S. Ehlert, S. Ehrlich, F. März, H. Neugebauer, J. Pisarek,
   P. Pracht, P. Shushkov, and S. Spicher.
   
 * started run on 2019/03/14 at 15:08:20.415     
========================================================================
 # omp threads = 1
========================================================================
number of atoms            : 413
number of electrons        : 1134
charge                     : -2
spin                       : .0
first test random number   : .8448
           ------------------------------------------------- 
          |                 G F N 2 - x T B                 |
          | Geometry, Frequencies, Noncovalent interactions |
          |            JCTC 2018 parametrisation            |
           ------------------------------------------------- 
 
      method parameters     
 k(s)        :  1.8500
 k(p)        :  2.2300
 k(d)        :  2.2300
 k(f)        :  2.0000
 kEN (H0ij)  : -2.0000
 D4 a1       :  0.5200
 D4 a2       :  5.0000
 D4 s6       :  1.0000
 D4 s8       :  2.7000
 D4 s9       :  5.0000
 alphaj      :  2.0000

 Solvent             : h2o
 Using internal parameter file: .param_gbsa2_h2o
 Gsolv ref. state (COSMO-RS): gsolv [1 M gas/solution]
 temperature (mdtemp)       :    298.150000000000     
 dielectric constant        :    80.2000000000000     
 rho                        :    1.00000000000000     
 mass                       :    18.0000000000000     
 surface tension            :    15.5689454083859     
 probe radius               :   0.975313790000000     
 vdW radii scaling          :    1.00000000000000     
 Gshift (Eh)                :   1.857443126794793E-003
 c1                         :    1.55243817000000     
 soset                      :   0.130326360000000     
 HB correction              :  T

            Z     q(EN)     CN     RAES       Cart. coordinates
     1  N   5.0   -0.23    3.18    1.95    76.14508   113.80945    51.14547
     2  C   4.0    0.03    4.24    4.08    76.01309   111.36958    49.92324
     3  C   4.0    0.06    3.26    3.04    73.55020   111.02068    48.48257
     4  O   6.0   -0.33    1.24    1.80    73.51528   109.55579    46.68717
     5  C   4.0   -0.05    4.38    4.35    76.13705   109.13149    51.73991
     6  C   4.0   -0.03    4.18    3.95    78.62325   108.88012    53.18718
     7  C   4.0   -0.09    4.11    3.82    78.35129   106.84556    55.21361
     8  C   4.0   -0.09    4.11    3.83    80.78807   108.19846    51.41103
     9  H   1.0    0.07    1.02    1.43    76.62792   113.88333    53.00633
    10  H   1.0    0.04    1.05    1.44    77.53708   111.21502    48.52023
    11  H   1.0    0.03    1.03    1.43    74.55023   109.30418    53.04272
    12  H   1.0    0.05    1.04    1.43    75.85002   107.43615    50.59402
    13  H   1.0    0.03    1.05    1.44    79.06635   110.68409    54.08815
    14  H   1.0    0.02    1.00    1.43    80.09508   106.70157    56.28233
    15  H   1.0    0.03    1.00    1.43    76.82888   107.27190    56.52562
    16  H   1.0    0.03    1.00    1.43    77.96375   105.02705    54.33580
    17  H   1.0    0.03    1.00    1.43    82.52541   107.97443    52.47946
    18  H   1.0    0.04    1.00    1.43    80.38479   106.43579    50.43596
    19  H   1.0    0.03    1.00    1.43    81.08725   109.66462    50.00572
    20  N   5.0   -0.22    3.20    1.96    73.29306   116.54336    43.49995
    21  C   4.0    0.03    4.33    4.25    74.64215   115.27061    41.50563
    22  C   4.0    0.14    3.52    3.12    73.30653   112.87977    40.65744
    23  O   6.0   -0.34    1.61    1.81    73.36674   112.34460    38.39942
    24  C   4.0   -0.05    4.34    4.28    77.35497   114.56487    42.17551
    25  C   4.0   -0.03    4.16    3.92    79.31453   116.72721    42.19871
    26  C   4.0   -0.08    4.12    3.85    81.40197   116.13015    40.30423
    27  C   4.0   -0.08    4.12    3.85    78.30186   119.36487    41.64637
    28  H   1.0    0.08    1.03    1.43    74.09392   116.42759    45.24130
    29  H   1.0    0.04    1.06    1.44    74.71415   116.46655    39.81086
    30  H   1.0    0.04    1.03    1.43    77.32642   113.63839    44.00607
    31  H   1.0    0.04    1.06    1.44    77.93589   113.18912    40.76098
    32  H   1.0    0.03    1.06    1.44    80.14296   116.80005    44.08498
    33  H   1.0    0.04    1.00    1.43    82.86336   117.56697    40.37918
    34  H   1.0    0.03    1.00    1.43    82.24118   114.30541    40.71996
    35  H   1.0    0.04    1.00    1.43    80.65074   116.08067    38.38936
    36  H   1.0    0.04    1.00    1.43    79.85934   120.69234    41.81697
    37  H   1.0    0.04    1.00    1.43    77.58194   119.49647    39.72794
    38  H   1.0    0.03    1.00    1.43    76.83552   119.90893    42.97440
    39  N   5.0   -0.15    3.46    2.05    72.06037   111.31501    42.21618
    40  C   4.0    0.04    4.48    4.51    71.03493   109.07993    40.97164
    41  C   4.0    0.09    3.33    3.06    69.27604   109.90471    38.81070
    42  O   6.0   -0.33    1.21    1.80    68.97396   108.58392    36.93389
    43  C   4.0   -0.02    4.26    4.11    69.79900   107.26681    42.87070
    44  C   4.0   -0.08    4.14    3.88    66.99498   107.81606    43.17545
    45  C   4.0   -0.07    4.12    3.85    70.25274   104.54272    42.06654
    46  H   1.0    0.11    1.13    1.45    72.42611   111.17802    44.07211
    47  H   1.0    0.05    1.07    1.44    72.59599   108.07284    40.04828
    48  H   1.0    0.06    1.08    1.44    70.76388   107.54211    44.66824
    49  H   1.0    0.03    1.00    1.43    66.16956   106.58897    44.59850
    50  H   1.0    0.04    1.00    1.43    66.69088   109.76880    43.70851
    51  H   1.0    0.04    1.01    1.43    66.02355   107.51387    41.39339
    52  H   1.0    0.04    1.00    1.43    69.30733   103.24140    43.33963
    53  H   1.0    0.05    1.01    1.43    69.55212   104.22278    40.17166
    54  H   1.0    0.05    1.00    1.43    72.26129   104.13402    42.08157
    55  N   5.0   -0.21    3.29    1.98    70.07447   116.18101    36.24781
    56  C   4.0    0.02    4.29    4.17    71.42153   117.75112    34.45317
    57  C   4.0    0.14    3.38    3.07    73.02683   115.94346    32.74301
    58  O   6.0   -0.33    1.26    1.80    73.28687   116.36735    30.46235
    59  C   4.0   -0.04    4.26    4.12    72.86850   119.88226    35.79155
    60  C   4.0   -0.02    3.50    3.12    71.25432   121.98606    36.91339
    61  C   4.0   -0.05    3.47    3.10    72.34387   124.36875    37.21002
    62  C   4.0   -0.05    3.47    3.10    68.78252   121.68884    37.74684
    63  C   4.0   -0.05    3.44    3.09    70.97971   126.39076    38.13257
    64  C   4.0   -0.06    3.43    3.09    67.38849   123.70273    38.67896
    65  C   4.0    0.06    3.44    3.09    68.45619   126.09030    38.81201
    66  O   6.0   -0.27    2.11    1.84    67.15712   128.16434    39.60224
    67  H   1.0    0.08    1.02    1.43    70.46172   116.45856    38.11730
    68  H   1.0    0.04    1.05    1.44    70.04118   118.67847    33.20304
    69  H   1.0    0.04    1.03    1.43    74.00669   119.08480    37.31610
    70  H   1.0    0.04    1.03    1.43    74.16872   120.72948    34.42860
    71  H   1.0    0.04    1.03    1.43    74.30013   124.66763    36.70745
    72  H   1.0    0.04    1.04    1.43    67.86797   119.87647    37.71993
    73  H   1.0    0.05    1.03    1.43    71.81153   128.24336    38.30527
    74  H   1.0    0.04    1.02    1.43    65.44708   123.40267    39.26210
    75  H   1.0    0.10    1.04    1.43    65.38017   127.78017    39.74273
    76  N   5.0   -0.14    3.52    2.09    73.90528   113.91318    33.92824
    77  C   4.0    0.03    4.41    4.40    75.12639   111.68339    32.86383
    78  C   4.0    0.14    3.50    3.12    73.87838   110.76851    30.42201
    79  O   6.0   -0.31    1.32    1.80    75.18881   110.24122    28.56642
    80  C   4.0   -0.04    4.31    4.21    75.64084   109.51738    34.76894
    81  C   4.0   -0.02    4.19    3.98    77.94209   110.14988    36.46066
    82  C   4.0   -0.08    4.12    3.84    77.92641   108.70816    38.96282
    83  C   4.0   -0.08    4.14    3.88    80.45766   109.53029    35.19911
    84  H   1.0    0.12    1.22    1.47    73.42566   113.72849    35.80734
    85  H   1.0    0.05    1.16    1.46    77.02682   112.18876    32.26979
    86  H   1.0    0.07    1.04    1.43    74.00751   109.15726    35.95646
    87  H   1.0    0.04    1.03    1.43    76.03248   107.81514    33.66741
    88  H   1.0    0.05    1.06    1.44    77.88371   112.18339    36.82276
    89  H   1.0    0.03    1.00    1.43    79.59776   109.21006    40.05340
    90  H   1.0    0.05    1.01    1.43    76.28067   109.11931    40.10162
    91  H   1.0    0.04    1.00    1.43    77.96246   106.68832    38.60131
    92  H   1.0    0.04    1.00    1.43    81.98573   110.46544    36.19875
    93  H   1.0    0.03    1.01    1.43    80.79449   107.51000    35.29263
    94  H   1.0    0.05    1.04    1.43    80.46621   110.11875    33.24839
    95  N   5.0   -0.10    3.68    2.25    71.37588   110.48654    30.30496
    96  C   4.0    0.04    4.60    4.66    70.20551   109.45938    28.06013
    97  C   4.0    0.15    3.46    3.10    70.09932   111.34527    25.87983
    98  O   6.0   -0.29    1.27    1.80    70.61182   110.71819    23.72191
    99  C   4.0   -0.05    4.32    4.23    67.53375   108.69473    28.88184
   100  C   4.0   -0.05    4.23    4.06    66.99186   110.25932    31.25684
   101  C   4.0   -0.00    4.43    4.42    69.52260   111.40367    32.05725
   102  H   1.0    0.06    1.06    1.44    71.34763   107.87175    27.39625
   103  H   1.0    0.04    1.03    1.43    66.20648   109.07706    27.36102
   104  H   1.0    0.04    1.02    1.43    67.46150   106.68310    29.29738
   105  H   1.0    0.03    1.03    1.43    65.67802   111.78793    30.86406
   106  H   1.0    0.05    1.03    1.43    66.21807   109.09672    32.76097
   107  H   1.0    0.05    1.05    1.44    69.43423   113.45307    31.89636
   108  H   1.0    0.07    1.05    1.44    70.05107   110.93270    33.98692
   109  N   5.0   -0.15    3.47    2.06    69.19135   113.66533    26.44006
   110  C   4.0    0.04    4.49    4.52    69.01686   115.50214    24.41608
   111  C   4.0    0.17    3.52    3.12    71.53635   115.77923    23.05301
   112  O   6.0   -0.27    1.23    1.80    71.64726   115.85676    20.75388
   113  C   4.0    0.05    4.22    4.04    68.01666   118.10979    25.27448
   114  O   6.0   -0.25    2.11    1.84    67.47296   119.53830    23.07896
   115  C   4.0   -0.07    4.09    3.78    69.71716   119.52755    27.10326
   116  H   1.0    0.08    1.07    1.44    69.07481   114.25573    28.24757
   117  H   1.0    0.06    1.06    1.44    67.71785   114.73516    22.99101
   118  H   1.0    0.03    1.05    1.44    66.24217   117.76743    26.26194
   119  H   1.0    0.11    1.03    1.43    67.74655   121.30284    23.44843
   120  H   1.0    0.04    1.00    1.43    68.71196   121.17111    27.82670
   121  H   1.0    0.06    1.02    1.43    70.19174   118.33029    28.69942
   122  H   1.0    0.05    1.00    1.43    71.45865   120.15569    26.20984
   123  N   5.0   -0.15    3.51    2.09    73.54776   116.02650    24.57947
   124  C   4.0    0.05    4.45    4.47    75.98723   116.42303    23.41871
   125  C   4.0    0.17    3.43    3.09    76.98636   114.00175    22.21985
   126  O   6.0   -0.26    1.23    1.80    78.08121   114.02113    20.19104
   127  C   4.0   -0.03    4.29    4.18    77.89299   117.59023    25.22179
   128  C   4.0    0.25    3.14    3.03    79.55500   119.62979    23.94343
   129  O   6.0   -0.32    1.28    1.80    80.50554   121.21547    25.43239
   130  O   6.0   -0.28    1.23    1.80    79.80649   119.59390    21.62222
   131  H   1.0    0.10    1.07    1.44    73.37052   115.94930    26.48572
   132  H   1.0    0.08    1.07    1.44    75.69915   117.71663    21.81492
   133  H   1.0    0.05    1.04    1.43    76.88300   118.48578    26.77713
   134  H   1.0    0.07    1.05    1.44    79.23390   116.21541    25.97448
   135  N   5.0   -0.13    3.48    2.07    76.51101   111.84325    23.48908
   136  C   4.0    0.04    4.40    4.38    77.62717   109.49843    22.62838
   137  C   4.0    0.17    3.43    3.09    76.08177   107.23500    23.54584
   138  O   6.0   -0.30    1.29    1.80    76.64502   105.90456    25.32859
   139  C   4.0    0.06    4.18    3.96    80.37364   109.38972    23.57877
   140  O   6.0   -0.24    2.07    1.83    81.43565   106.96633    23.25766
   141  H   1.0    0.11    1.09    1.44    75.79614   111.78957    25.26582
   142  H   1.0    0.06    1.06    1.44    77.59489   109.53758    20.55671
   143  H   1.0    0.07    1.01    1.43    81.47237   110.82813    22.58811
   144  H   1.0    0.06    1.02    1.43    80.34662   109.88800    25.58760
   145  H   1.0    0.14    1.03    1.43    83.12215   107.16782    22.61119
   146  N   5.0   -0.14    3.39    2.02    74.06014   106.72007    22.08668
   147  C   4.0    0.02    4.27    4.13    72.33450   104.72330    22.77628
   148  C   4.0    0.15    3.38    3.07    73.48079   102.08984    22.63037
   149  O   6.0   -0.32    1.31    1.80    72.61660   100.37989    23.92069
   150  H   1.0    0.09    1.06    1.44    73.47180   108.01750    20.82711
   151  H   1.0    0.06    1.03    1.43    71.68689   104.91830    24.73430
   152  H   1.0    0.04    1.03    1.43    70.69897   104.77342    21.52351
   153  N   5.0   -0.14    3.51    2.08    75.41814   101.76611    21.04841
   154  C   4.0    0.03    4.41    4.39    76.61400    99.33137    20.65266
   155  C   4.0    0.16    3.47    3.10    77.09980    97.96860    23.14610
   156  O   6.0   -0.31    1.23    1.80    77.07592    95.66178    23.29801
   157  C   4.0   -0.04    4.29    4.17    79.07599    99.77288    19.19369
   158  C   4.0   -0.03    4.17    3.94    80.35301    97.35712    18.32334
   159  C   4.0    0.25    3.08    3.02    82.67392    97.85562    16.55292
   160  O   6.0   -0.29    1.18    1.80    83.20991   100.08878    16.03589
   161  O   6.0   -0.30    1.16    1.80    83.79196    95.92642    15.78717
   162  H   1.0    0.08    1.08    1.44    76.07638   103.19774    19.97556
   163  H   1.0    0.05    1.05    1.44    75.35542    98.09645    19.55228
   164  H   1.0    0.05    1.03    1.43    78.64238   100.88465    17.50778
   165  H   1.0    0.06    1.03    1.43    80.38835   100.88522    20.33462
   166  H   1.0    0.06    1.02    1.43    81.01789    96.22415    19.91173
   167  H   1.0    0.05    1.03    1.43    79.02480    96.20513    17.24358
   168  N   5.0   -0.13    3.53    2.10    77.59888    99.44642    25.13325
   169  C   4.0    0.03    4.41    4.40    78.18554    98.40711    27.57799
   170  C   4.0    0.15    3.45    3.10    75.91965    97.76175    29.24159
   171  O   6.0   -0.34    1.42    1.80    76.17039    97.87697    31.54449
   172  C   4.0   -0.04    4.33    4.25    79.97112   100.18555    28.97979
   173  C   4.0   -0.04    4.22    4.04    78.71420   102.59297    29.96033
   174  C   4.0   -0.05    4.19    3.98    80.70164   104.51327    30.82246
   175  C   4.0   -0.03    4.17    3.94    80.57784   106.83755    29.14471
   176  N   5.0   -0.12    4.05    3.00    82.75857   108.56262    29.61334
   177  H   1.0    0.10    1.08    1.44    77.55101   101.35032    24.99253
   178  H   1.0    0.05    1.06    1.44    79.13827    96.58463    27.24435
   179  H   1.0    0.04    1.06    1.44    80.69963    99.19332    30.61129
   180  H   1.0    0.04    1.03    1.43    81.53662   100.60242    27.70663
   181  H   1.0    0.07    1.05    1.44    77.55455   103.47770    28.51729
   182  H   1.0    0.05    1.03    1.43    77.49595   102.09669    31.54197
   183  H   1.0    0.03    1.03    1.43    80.35830   105.00725    32.78604
   184  H   1.0    0.04    1.04    1.43    82.57206   103.67630    30.64710
   185  H   1.0    0.07    1.05    1.44    80.59837   106.22990    27.18537
   186  H   1.0    0.06    1.03    1.43    78.80342   107.84434    29.43738
   187  H   1.0    0.08    1.17    1.46    82.12185   110.53294    29.80671
   188  H   1.0    0.05    1.04    1.43    83.64516   107.98434    31.23738
   189  H   1.0    0.08    1.02    1.43    84.04055   108.50061    28.16064
   190  N   5.0   -0.14    3.46    2.06    73.79400    96.86197    28.22971
   191  C   4.0    0.03    4.44    4.45    71.71547    96.28605    29.92635
   192  C   4.0    0.15    3.44    3.09    72.27604    94.01775    31.63849
   193  O   6.0   -0.32    1.28    1.80    71.26990    93.87883    33.71314
   194  C   4.0   -0.04    4.33    4.25    69.25731    95.81584    28.47371
   195  C   4.0   -0.04    4.05    3.70    68.21238    98.24760    27.33279
   196  S   6.0    0.01    2.49    3.10    66.16673    97.52560    24.59290
   197  C   4.0   -0.05    3.88    3.44    66.78994   100.25439    22.63396
   198  H   1.0    0.10    1.07    1.44    73.41669    97.00538    26.36381
   199  H   1.0    0.05    1.06    1.44    71.47751    97.87931    31.24176
   200  H   1.0    0.05    1.05    1.44    69.59439    94.47434    26.94729
   201  H   1.0    0.05    1.03    1.43    67.86971    94.98067    29.74580
   202  H   1.0    0.04    1.06    1.44    67.07251    99.29228    28.69243
   203  H   1.0    0.06    1.09    1.44    69.74103    99.41380    26.61681
   204  H   1.0    0.06    1.05    1.44    65.51211   100.10561    21.03377
   205  H   1.0    0.05    1.03    1.43    66.39083   101.98806    23.66163
   206  H   1.0    0.06    1.05    1.44    68.74266   100.21423    22.00859
   207  N   5.0   -0.15    3.48    2.07    73.88182    92.25161    30.77600
   208  C   4.0    0.04    4.46    4.48    74.48449    90.05864    32.31367
   209  C   4.0    0.16    3.46    3.10    76.45571    90.78867    34.31763
   210  O   6.0   -0.30    1.28    1.80    76.27365    90.19582    36.53175
   211  C   4.0    0.04    4.19    3.98    75.27128    87.72080    30.73955
   212  O   6.0   -0.26    2.14    1.85    75.96834    85.87609    32.53146
   213  C   4.0   -0.08    4.07    3.74    77.40613    88.20984    28.85960
   214  H   1.0    0.08    1.07    1.44    74.46953    92.29489    28.96085
   215  H   1.0    0.06    1.06    1.44    72.80103    89.54540    33.41644
   216  H   1.0    0.03    1.03    1.43    73.58352    87.07826    29.69170
   217  H   1.0    0.11    1.03    1.43    76.95183    84.57709    31.71268
   218  H   1.0    0.03    1.00    1.43    77.78193    86.50596    27.76707
   219  H   1.0    0.04    1.00    1.43    76.91528    89.65853    27.49094
   220  H   1.0    0.04    1.00    1.43    79.12866    88.71611    29.85662
   221  N   5.0   -0.14    3.54    2.11    78.31618    92.28456    33.48663
   222  C   4.0    0.03    4.40    4.37    79.97796    93.60985    35.23375
   223  C   4.0    0.16    3.55    3.14    78.35055    94.98195    37.18814
   224  O   6.0   -0.29    1.25    1.80    78.81904    94.88764    39.46484
   225  C   4.0   -0.05    4.35    4.30    81.66865    95.29205    33.58356
   226  C   4.0   -0.03    4.17    3.94    82.91826    97.61227    34.76962
   227  C   4.0   -0.09    4.13    3.85    84.57982    98.96408    32.80541
   228  C   4.0   -0.07    4.16    3.92    81.01305    99.48439    35.85893
   229  H   1.0    0.08    1.08    1.44    78.39206    92.81159    31.65708
   230  H   1.0    0.05    1.05    1.44    81.09685    92.23084    36.30472
   231  H   1.0    0.03    1.03    1.43    83.16081    94.07544    32.84561
   232  H   1.0    0.05    1.05    1.44    80.49238    95.93384    32.01912
   233  H   1.0    0.04    1.06    1.44    84.15455    96.95886    36.27128
   234  H   1.0    0.03    1.01    1.43    83.96375   100.89192    32.51952
   235  H   1.0    0.03    1.01    1.43    86.47864    99.04867    33.55434
   236  H   1.0    0.04    1.00    1.43    84.61356    98.01153    30.98804
   237  H   1.0    0.03    1.01    1.43    81.87312   101.34221    35.94956
   238  H   1.0    0.05    1.01    1.43    79.33654    99.58865    34.68701
   239  H   1.0    0.05    1.01    1.43    80.46496    98.94884    37.75848
   240  N   5.0   -0.14    3.57    2.13    76.35050    96.22236    36.31864
   241  C   4.0    0.05    4.42    4.41    74.71542    97.56940    38.04106
   242  C   4.0    0.17    3.51    3.12    73.57323    95.69803    39.91407
   243  O   6.0   -0.28    1.27    1.80    73.46121    96.19416    42.17429
   244  C   4.0    0.04    4.14    3.88    72.69515    99.03861    36.56546
   245  O   6.0   -0.26    2.07    1.83    71.39268   100.61197    38.25975
   246  H   1.0    0.12    1.14    1.45    76.08208    96.52637    34.44303
   247  H   1.0    0.06    1.05    1.44    75.81289    98.91480    39.18387
   248  H   1.0    0.05    1.01    1.43    73.66618   100.18475    35.12507
   249  H   1.0    0.06    1.02    1.43    71.40504    97.71219    35.64341
   250  H   1.0    0.12    1.02    1.43    69.70780   100.92992    37.65145
   251  N   5.0   -0.13    3.49    2.07    72.82812    93.48150    38.98014
   252  C   4.0    0.04    4.44    4.44    71.79877    91.62129    40.71598
   253  C   4.0    0.10    3.34    3.06    73.67442    91.24262    42.86672
   254  O   6.0   -0.30    1.12    1.80    72.98094    91.18096    45.07554
   255  C   4.0   -0.02    4.30    4.20    71.02509    89.12104    39.42545
   256  C   4.0   -0.06    4.19    3.97    68.32679    88.41892    40.22671
   257  C   4.0   -0.07    4.15    3.91    72.91230    86.99379    39.92391
   258  C   4.0   -0.08    4.04    3.68    68.14525    87.53161    42.95199
   259  H   1.0    0.11    1.09    1.44    72.57424    93.24745    37.09708
   260  H   1.0    0.05    1.07    1.44    70.12099    92.44234    41.60886
   261  H   1.0    0.05    1.06    1.44    70.98603    89.47764    37.38829
   262  H   1.0    0.04    1.03    1.43    67.10617    90.04572    39.87885
   263  H   1.0    0.03    1.04    1.43    67.64556    86.88814    39.05668
   264  H   1.0    0.03    1.00    1.43    72.28346    85.23642    39.07678
   265  H   1.0    0.07    1.02    1.43    74.72681    87.44993    39.09497
   266  H   1.0    0.04    1.01    1.43    73.16649    86.65084    41.92969
   267  H   1.0    0.03    1.00    1.43    66.18534    87.22016    43.47313
   268  H   1.0    0.03    1.00    1.43    69.16666    85.76312    43.14381
   269  H   1.0    0.05    1.00    1.43    68.96117    88.88928    44.25175
   270  N   5.0   -0.22    3.18    1.95    57.82660   101.09773    32.66951
   271  C   4.0    0.02    4.23    4.05    60.14457   100.47378    31.34582
   272  C   4.0    0.07    3.25    3.04    59.73705    98.26339    29.54631
   273  O   6.0   -0.28    1.15    1.80    61.07188    97.89005    27.70788
   274  C   4.0   -0.04    4.33    4.25    62.19515    99.49342    33.16166
   275  C   4.0    0.05    3.77    3.30    63.61825   101.53581    34.45950
   276  N   5.0   -0.19    2.51    1.90    63.71820   101.83594    37.01351
   277  C   4.0   -0.02    3.62    3.18    65.08211   103.33855    33.31296
   278  C   4.0    0.06    3.66    3.21    65.18252   103.79313    37.38519
   279  N   5.0   -0.12    3.48    2.06    66.06768   104.76705    35.20655
   280  H   1.0    0.08    1.02    1.43    58.09468   101.78079    34.47161
   281  H   1.0    0.04    1.04    1.44    60.85380   102.09689    30.26336
   282  H   1.0    0.04    1.03    1.43    61.31308    98.23728    34.52737
   283  H   1.0    0.05    1.04    1.43    63.52394    98.38278    32.03177
   284  H   1.0    0.04    1.02    1.43    65.47463   103.63827    31.35335
   285  H   1.0    0.04    1.02    1.43    65.63947   104.56915    39.19213
   286  H   1.0    0.10    1.09    1.44    67.28983   106.23488    35.07770
   287  N   5.0   -0.20    3.19    1.95    55.52562   100.45477    24.08454
   288  C   4.0    0.04    4.23    4.06    57.37588   102.16568    23.01098
   289  C   4.0    0.25    3.15    3.03    59.60997   100.72336    21.63241
   290  O   6.0   -0.30    1.17    1.80    60.68477   102.00819    19.97454
   291  C   4.0    0.03    4.12    3.84    58.44945   103.95227    25.04201
   292  O   6.0   -0.26    2.03    1.83    57.59070   106.44995    24.62836
   293  O   6.0   -0.28    1.18    1.80    60.05058    98.52997    22.29111
   294  H   1.0    0.09    1.03    1.43    55.94883    99.95143    25.87846
   295  H   1.0    0.05    1.05    1.44    56.54006   103.29729    21.49678
   296  H   1.0    0.04    1.02    1.43    57.82562   103.32685    26.91005
   297  H   1.0    0.05    1.01    1.43    60.53080   103.87856    25.02513
   298  H   1.0    0.11    1.02    1.43    58.31939   107.52773    25.91782
   299  N   5.0   -0.22    3.24    1.96    93.13432   112.45503    40.29062
   300  C   4.0    0.02    4.33    4.25    90.66958   111.58012    39.46653
   301  C   4.0    0.14    3.46    3.10    89.54526   113.59172    37.72927
   302  O   6.0   -0.32    1.31    1.80    88.77174   113.03102    35.63336
   303  C   4.0   -0.06    4.38    4.34    88.98023   111.10010    41.75181
   304  C   4.0   -0.03    4.19    3.98    86.23933   110.42009    41.12014
   305  C   4.0   -0.08    4.12    3.83    86.09330   108.26554    39.21549
   306  C   4.0   -0.09    4.11    3.82    84.90486   109.71645    43.58325
   307  H   1.0    0.07    1.02    1.43    93.55459   112.31372    42.15674
   308  H   1.0    0.04    1.05    1.44    90.84549   109.86598    38.30577
   309  H   1.0    0.03    1.03    1.43    89.80034   109.57576    42.85583
   310  H   1.0    0.03    1.03    1.43    88.97894   112.80004    42.90615
   311  H   1.0    0.04    1.05    1.44    85.32637   112.08852    40.30185
   312  H   1.0    0.03    1.00    1.43    84.18712   107.51082    39.14001
   313  H   1.0    0.05    1.00    1.43    86.63052   108.93726    37.35174
   314  H   1.0    0.03    1.00    1.43    87.37034   106.76240    39.76865
   315  H   1.0    0.03    1.00    1.43    82.90255   109.38338    43.27523
   316  H   1.0    0.03    1.00    1.43    85.72670   108.01001    44.37889
   317  H   1.0    0.03    1.00    1.43    85.11319   111.23447    44.95141
   318  N   5.0   -0.16    3.43    2.04    89.49733   115.96881    38.65099
   319  C   4.0    0.04    4.38    4.35    88.05765   117.84221    37.26402
   320  C   4.0    0.08    3.25    3.04    89.29498   118.45802    34.72464
   321  O   6.0   -0.31    1.22    1.80    88.03741   119.14166    32.88856
   322  C   4.0   -0.05    4.28    4.17    87.59981   120.27475    38.74893
   323  C   4.0    0.15    3.23    3.04    85.23583   121.60312    37.73139
   324  O   6.0   -0.30    1.24    1.80    83.85771   120.68278    36.13388
   325  N   5.0   -0.20    3.18    1.95    84.73340   123.86361    38.77112
   326  H   1.0    0.06    1.06    1.44    89.56278   116.22406    40.56674
   327  H   1.0    0.06    1.08    1.44    86.18975   117.04933    36.83069
   328  H   1.0    0.03    1.03    1.43    87.28070   119.76433    40.72526
   329  H   1.0    0.03    1.02    1.43    89.23019   121.52822    38.61287
   330  H   1.0    0.09    1.03    1.43    83.18913   124.78834    38.13717
   331  H   1.0    0.07    1.03    1.43    85.79031   124.63164    40.14666
   332  N   5.0   -0.21    3.33    1.99    93.55092   114.47722    31.55045
   333  C   4.0    0.03    4.39    4.37    93.00466   112.05998    30.41899
   334  C   4.0    0.15    3.47    3.10    90.18720   111.71523    29.88988
   335  O   6.0   -0.30    1.24    1.80    89.32676   109.70413    29.14017
   336  C   4.0   -0.03    4.36    4.31    93.68756   109.98492    32.30744
   337  C   4.0    0.05    3.78    3.31    96.42074   110.03167    32.97290
   338  N   5.0   -0.19    2.56    1.90    98.20318   111.27164    31.58586
   339  C   4.0   -0.03    3.60    3.17    97.57073   108.83270    34.95863
   340  C   4.0    0.05    3.63    3.18   100.36829   110.83009    32.68495
   341  N   5.0   -0.13    3.44    2.04   100.09461   109.34299    34.75234
   342  H   1.0    0.09    1.04    1.43    93.88662   114.32495    33.44107
   343  H   1.0    0.04    1.05    1.44    94.09712   111.81456    28.68195
   344  H   1.0    0.05    1.04    1.43    92.54440   110.27477    33.99721
   345  H   1.0    0.05    1.03    1.43    93.13804   108.18127    31.47557
   346  H   1.0    0.03    1.02    1.43    96.81363   107.69279    36.43935
   347  H   1.0    0.03    1.02    1.43   102.14722   111.51883    32.01204
   348  H   1.0    0.06    1.04    1.43   101.43192   108.72789    35.96748
   349  N   5.0   -0.13    3.55    2.11    88.77003   113.71701    30.53749
   350  C   4.0    0.05    4.56    4.61    86.04994   113.49237    30.51950
   351  C   4.0    0.16    3.64    3.19    84.99820   115.04549    28.29957
   352  O   6.0   -0.27    1.23    1.80    83.76762   114.18574    26.53980
   353  C   4.0   -0.03    4.36    4.30    84.64219   114.24092    32.94067
   354  C   4.0    0.05    3.92    3.49    81.99903   114.75887    32.18813
   355  N   5.0   -0.19    2.94    1.92    80.82009   113.18426    30.51050
   356  C   4.0   -0.01    3.60    3.17    80.57297   116.87198    32.54143
   357  C   4.0    0.07    3.80    3.33    78.76752   114.37167    29.80579
   358  N   5.0   -0.11    3.51    2.08    78.51445   116.58717    31.02216
   359  H   1.0    0.10    1.12    1.45    89.76915   115.09490    31.42366
   360  H   1.0    0.07    1.11    1.45    85.74314   111.50364    30.13913
   361  H   1.0    0.05    1.04    1.43    84.79588   112.73045    34.32275
   362  H   1.0    0.07    1.07    1.44    85.39173   115.98060    33.69754
   363  H   1.0    0.07    1.02    1.43    80.89477   118.49610    33.69925
   364  H   1.0    0.06    1.04    1.43    77.46042   113.65279    28.44405
   365  H   1.0    0.09    1.06    1.44    77.12514   117.85350    30.71236
   366  N   5.0   -0.14    3.61    2.17    85.66882   117.46878    28.60194
   367  C   4.0    0.04    4.41    4.40    85.92418   119.28368    26.59804
   368  C   4.0    0.16    3.47    3.10    87.07319   118.02243    24.26330
   369  O   6.0   -0.27    1.21    1.80    86.63061   118.88531    22.15326
   370  C   4.0   -0.04    4.28    4.16    87.66813   121.41926    27.50826
   371  C   4.0   -0.05    4.17    3.95    88.05103   123.49392    25.53683
   372  C   4.0   -0.01    4.20    3.99    85.75155   125.25486    25.27359
   373  N   5.0   -0.15    3.39    2.02    85.55782   126.27508    22.73268
   374  C   4.0    0.10    3.35    3.06    84.00404   125.39876    20.94235
   375  N   5.0   -0.17    3.31    1.99    81.86120   124.25992    21.51917
   376  N   5.0   -0.19    3.25    1.97    84.43156   126.05013    18.54276
   377  H   1.0    0.11    1.16    1.46    86.60973   117.88877    30.21625
   378  H   1.0    0.08    1.07    1.44    84.07129   120.00950    26.02802
   379  H   1.0    0.06    1.03    1.43    86.89511   122.20920    29.25053
   380  H   1.0    0.05    1.03    1.43    89.47058   120.51486    27.95073
   381  H   1.0    0.03    1.02    1.43    89.72140   124.57905    26.05847
   382  H   1.0    0.06    1.04    1.43    88.39289   122.56837    23.72801
   383  H   1.0    0.06    1.04    1.43    84.04280   124.20338    25.71969
   384  H   1.0    0.03    1.02    1.43    85.89276   126.83079    26.59441
   385  H   1.0    0.07    1.07    1.44    87.13847   127.14733    22.10045
   386  H   1.0    0.12    1.11    1.44    81.61994   123.46606    23.27612
   387  H   1.0    0.11    1.05    1.44    80.97794   123.19665    20.19569
   388  H   1.0    0.07    1.03    1.43    86.03804   126.92539    18.03797
   389  H   1.0    0.08    1.03    1.43    83.23232   125.41915    17.20428
   390  N   5.0   -0.14    3.51    2.08    88.76021   116.19507    24.74609
   391  C   4.0    0.05    4.33    4.25    89.91676   114.60052    22.85878
   392  C   4.0    0.27    3.18    3.03    88.03602   112.45876    22.01654
   393  O   6.0   -0.27    1.16    1.80    87.31004   112.55819    19.78104
   394  C   4.0    0.03    4.16    3.91    92.30845   113.38233    23.92343
   395  O   6.0   -0.25    2.04    1.83    93.74696   112.31207    21.95632
   396  O   6.0   -0.27    1.18    1.80    87.46946   110.84522    23.62923
   397  H   1.0    0.09    1.13    1.45    88.76767   115.44263    26.50009
   398  H   1.0    0.07    1.05    1.44    90.31438   115.74248    21.18167
   399  H   1.0    0.04    1.01    1.43    93.42043   114.81334    24.94189
   400  H   1.0    0.06    1.02    1.43    91.68938   111.90433    25.24683
   401  H   1.0    0.11    1.02    1.43    95.06306   111.28147    22.70398
   402  H   1.0    0.08    1.07    1.44    77.30361   114.77582    50.36029
   403  H   1.0    0.04    1.04    1.43    72.00585   111.97560    49.00618
   404  H   1.0    0.08    1.07    1.44    73.17229   118.20034    43.13608
   405  H   1.0    0.05    1.05    1.44    68.35108   111.54893    38.92059
   406  H   1.0    0.08    1.07    1.44    68.40144   116.43963    36.08468
   407  H   1.0    0.07    1.05    1.44    75.51494    91.03799    42.49027
   408  H   1.0    0.08    1.07    1.44    56.98305   102.29433    31.80398
   409  H   1.0    0.05    1.05    1.44    58.32556    97.04449    29.85136
   410  H   1.0    0.08    1.07    1.44    53.99928   101.20488    24.09793
   411  H   1.0    0.08    1.07    1.44    94.34720   111.56876    39.49311
   412  H   1.0    0.05    1.05    1.44    91.16833   118.30953    34.52569
   413  H   1.0    0.09    1.07    1.44    94.93076   115.14854    30.81702

  Z AO/shell   Hii/eV     exponent
  1     Wed Apr 25 08:07:45 CEST 2018   EN: 2.200 GM2: 0.406  GM3: 0.0800  RAES: 1.40
     1s    -10.707211    1.230000
  6     Wed Apr 25 08:07:45 CEST 2018   EN: 2.550 GM2: 0.538  GM3: 0.1500  RAES: 3.00
     2s    -13.970922    2.096432
     2p    -10.063292    1.800000
  7     Wed Apr 25 08:07:45 CEST 2018   EN: 3.040 GM2: 0.461  GM3:-0.0640  RAES: 1.90
     2s    -16.686243    2.339881
     2p    -12.523956    2.014332
  8     Wed Apr 25 08:07:45 CEST 2018   EN: 3.440 GM2: 0.452  GM3:-0.0517  RAES: 1.80
     2s    -20.229985    2.439742
     2p    -15.503117    2.137023
 16     Tue Apr 24 11:44:34 CEST 2018   EN: 2.580 GM2: 0.340  GM3:-0.0502  RAES: 3.10
     3s    -20.029654    1.981333
     3p    -11.377694    2.025643
     3d     -0.420282    1.702555
 no old-style atom pair restraining (fixing) potential

molecular fragmentation (1/2 indicates fragments):
111111111111111111122222222222222222222222222222222222222222222222222222
222222222222222222222222222222222222222222222222222222222222222222222222
222222222222222222222222222222222222222222222222222222222222222222222222
222222222222222222222222222222222222222222222222222222222222222222222222
222222222222222222222222222222222222222222222222222222222222222222222222
22222222222222222222222222222222222222222112222222222
# atoms in fragment 1/2:    21   392
 fragment masses (1/2) :      115.17     2760.15
CMA distance (Bohr)    :  20.054
constraining FC (au)   :  0.0500
           ------------------------------------------------- 
          |        Self-Consistent Charge Iterations        |
           ------------------------------------------------- 

 Ncao       : 1022
 Nao        : 1021
 Nshell     : 615
 Nel        : 1134
 T(el)      :   500.0
 intcut     :    35.0
 scfconv/Eh :  0.100E-06
   qconv/e  :  0.100E-04
 intneglect :  0.100E-08
 broydamp   :      0.400
 iter      E             dE          RMSdq      gap      omega  full diag
   1   -649.7918120 -0.649792E+03  0.461E+00    3.12       0.0  T
   2   -651.3028629 -0.151105E+01  0.217E+00    1.21       1.0  T
   3   -651.3918518 -0.889890E-01  0.121E+00    1.39       1.0  T
   4   -651.4933289 -0.101477E+00  0.260E-01    0.50       1.0  T
   5   -651.4998240 -0.649503E-02  0.133E-01    0.76       1.0  T
   6   -651.5007924 -0.968407E-03  0.586E-02    0.78       1.0  T
   7   -651.5011998 -0.407449E-03  0.276E-02    0.81       1.0  T
   8   -651.5012455 -0.456947E-04  0.144E-02    0.83       1.0  T
   9   -651.5012642 -0.186588E-04  0.712E-03    0.84       1.0  T
  10   -651.5012680 -0.385611E-05  0.342E-03    0.85       1.4  T
  11   -651.5012688 -0.802546E-06  0.146E-03    0.85       3.4  T
  12   -651.5012690 -0.161221E-06  0.699E-04    0.85       7.0  T
  13   -651.5012690 -0.445531E-07  0.314E-04    0.85      15.7  T
  14   -651.5012691 -0.596242E-08  0.139E-04    0.85      35.3  T
  15   -651.5012691 -0.191585E-08  0.545E-05    0.85      90.3  T
  16   -651.5012691 -0.244540E-09  0.255E-05    0.85     193.2  T
speedup  1.00
cpu  time for SCC    8.37 s
wall time for SCC    8.37 s

   *** convergence criteria satisfied after 16 iterations ***

          eigenvalues
 #    :         555        556        557        558        559        560        561        562
 occ. :        2.000      2.000      2.000      2.000      2.000      2.000      2.000      2.000
 eps  :       -10.290    -10.285    -10.245    -10.171    -10.158    -10.100    -10.091    -10.087
 #    :         563        564        565        566        567        568        569        570
 occ. :        2.000      2.000      2.000      2.000      2.000      0.000      0.000      0.000
 eps  :       -10.074     -9.684     -9.671     -9.344     -9.148     -8.297     -7.882     -7.736
 #    :         571        572        573        574        575        576        577        578
 occ. :        0.000      0.000      0.000      0.000      0.000      0.000      0.000      0.000
 eps  :        -7.360     -7.225     -6.782     -6.696     -6.657     -6.590     -6.498     -6.484


   #   Z            q   n(s)   n(p)   n(d)      C6AA      α(0)
   1   7 N     -0.388  1.309  4.079  0.000    30.044     8.141
   2   6 C      0.042  1.052  2.906  0.000    19.887     6.352
   3   6 C      0.191  1.097  2.713  0.000    23.923     8.011
   4   8 O     -0.373  1.751  4.623  0.000    21.156     6.167
   5   6 C     -0.068  1.058  3.009  0.000    21.779     6.641
   6   6 C     -0.007  1.056  2.952  0.000    20.676     6.468
   7   6 C     -0.116  1.041  3.075  0.000    22.771     6.803
   8   6 C     -0.117  1.040  3.077  0.000    22.790     6.806
   9   1 H      0.167  0.833  0.000  0.000     1.292     1.780
  10   1 H      0.055  0.945  0.000  0.000     2.263     2.352
  11   1 H      0.049  0.951  0.000  0.000     2.338     2.391
  12   1 H      0.049  0.951  0.000  0.000     2.336     2.390
  13   1 H      0.039  0.961  0.000  0.000     2.467     2.456
  14   1 H      0.044  0.956  0.000  0.000     2.391     2.418
  15   1 H      0.038  0.962  0.000  0.000     2.469     2.457
  16   1 H      0.039  0.961  0.000  0.000     2.465     2.455
  17   1 H      0.044  0.956  0.000  0.000     2.397     2.421
  18   1 H      0.040  0.960  0.000  0.000     2.454     2.450
  19   1 H      0.043  0.957  0.000  0.000     2.415     2.430
  20   7 N     -0.386  1.317  4.069  0.000    29.992     8.134
  21   6 C      0.032  1.053  2.915  0.000    20.052     6.378
  22   6 C      0.257  1.056  2.687  0.000    22.669     7.799
  23   8 O     -0.473  1.738  4.735  0.000    23.189     6.457
  24   6 C     -0.085  1.059  3.026  0.000    22.114     6.693
  25   6 C     -0.016  1.058  2.958  0.000    20.818     6.490
  26   6 C     -0.119  1.043  3.075  0.000    22.823     6.811
  27   6 C     -0.114  1.039  3.075  0.000    22.736     6.798
  28   1 H      0.164  0.836  0.000  0.000     1.311     1.793
  29   1 H      0.050  0.950  0.000  0.000     2.323     2.383
  30   1 H      0.042  0.958  0.000  0.000     2.425     2.435
  31   1 H      0.061  0.939  0.000  0.000     2.183     2.311
  32   1 H      0.045  0.955  0.000  0.000     2.383     2.414
  33   1 H      0.041  0.959  0.000  0.000     2.429     2.437
  34   1 H      0.043  0.957  0.000  0.000     2.415     2.430
  35   1 H      0.034  0.966  0.000  0.000     2.535     2.490
  36   1 H      0.047  0.953  0.000  0.000     2.356     2.400
  37   1 H      0.030  0.970  0.000  0.000     2.582     2.513
  38   1 H      0.043  0.957  0.000  0.000     2.413     2.429
  39   7 N     -0.176  1.264  3.912  0.000    24.815     7.398
  40   6 C      0.019  1.067  2.913  0.000    20.235     6.402
  41   6 C      0.212  1.087  2.701  0.000    23.510     7.941
  42   8 O     -0.386  1.742  4.643  0.000    21.396     6.202
  43   6 C     -0.025  1.062  2.962  0.000    20.977     6.514
  44   6 C     -0.123  1.039  3.084  0.000    22.905     6.824
  45   6 C     -0.126  1.042  3.084  0.000    22.973     6.833
  46   1 H      0.236  0.764  0.000  0.000     0.938     1.517
  47   1 H      0.089  0.911  0.000  0.000     1.890     2.150
  48   1 H      0.086  0.914  0.000  0.000     1.921     2.167
  49   1 H      0.056  0.944  0.000  0.000     2.249     2.345
  50   1 H      0.057  0.943  0.000  0.000     2.236     2.338
  51   1 H      0.034  0.966  0.000  0.000     2.532     2.488
  52   1 H      0.051  0.949  0.000  0.000     2.313     2.378
  53   1 H      0.050  0.950  0.000  0.000     2.320     2.382
  54   1 H      0.051  0.949  0.000  0.000     2.305     2.374
  55   7 N     -0.387  1.316  4.070  0.000    30.003     8.135
  56   6 C      0.026  1.065  2.909  0.000    20.166     6.398
  57   6 C      0.253  1.058  2.689  0.000    22.750     7.810
  58   8 O     -0.559  1.760  4.799  0.000    25.128     6.721
  59   6 C     -0.068  1.055  3.014  0.000    21.804     6.647
  60   6 C     -0.003  1.081  2.922  0.000    28.092     8.694
  61   6 C     -0.043  1.085  2.959  0.000    29.079     8.843
  62   6 C     -0.047  1.079  2.968  0.000    29.167     8.857
  63   6 C     -0.059  1.076  2.984  0.000    29.475     8.903
  64   6 C     -0.077  1.080  2.997  0.000    29.927     8.971
  65   6 C      0.144  1.045  2.811  0.000    24.856     8.171
  66   8 O     -0.439  1.721  4.718  0.000    21.616     6.276
  67   1 H      0.169  0.831  0.000  0.000     1.281     1.773
  68   1 H      0.039  0.961  0.000  0.000     2.469     2.457
  69   1 H      0.056  0.944  0.000  0.000     2.252     2.347
  70   1 H      0.042  0.958  0.000  0.000     2.424     2.435
  71   1 H      0.043  0.957  0.000  0.000     2.406     2.426
  72   1 H      0.047  0.953  0.000  0.000     2.361     2.403
  73   1 H      0.052  0.948  0.000  0.000     2.296     2.369
  74   1 H      0.043  0.957  0.000  0.000     2.405     2.425
  75   1 H      0.349  0.651  0.000  0.000     0.591     1.208
  76   7 N     -0.203  1.268  3.935  0.000    25.407     7.486
  77   6 C      0.007  1.063  2.929  0.000    20.469     6.444
  78   6 C      0.260  1.050  2.690  0.000    22.621     7.789
  79   8 O     -0.529  1.762  4.767  0.000    24.439     6.628
  80   6 C     -0.084  1.064  3.020  0.000    22.099     6.693
  81   6 C     -0.016  1.060  2.956  0.000    20.830     6.492
  82   6 C     -0.116  1.041  3.076  0.000    22.774     6.803
  83   6 C     -0.145  1.047  3.098  0.000    23.345     6.887
  84   1 H      0.279  0.721  0.000  0.000     0.779     1.382
  85   1 H      0.082  0.918  0.000  0.000     1.960     2.190
  86   1 H      0.086  0.914  0.000  0.000     1.919     2.166
  87   1 H      0.053  0.947  0.000  0.000     2.284     2.364
  88   1 H      0.048  0.952  0.000  0.000     2.351     2.398
  89   1 H      0.052  0.948  0.000  0.000     2.289     2.366
  90   1 H      0.044  0.956  0.000  0.000     2.402     2.424
  91   1 H      0.045  0.955  0.000  0.000     2.377     2.411
  92   1 H      0.057  0.943  0.000  0.000     2.231     2.336
  93   1 H      0.052  0.948  0.000  0.000     2.298     2.371
  94   1 H      0.038  0.962  0.000  0.000     2.469     2.457
  95   7 N     -0.086  1.228  3.857  0.000    22.905     7.108
  96   6 C      0.023  1.061  2.915  0.000    20.157     6.388
  97   6 C      0.275  1.044  2.681  0.000    22.355     7.743
  98   8 O     -0.498  1.763  4.735  0.000    23.738     6.532
  99   6 C     -0.070  1.053  3.017  0.000    21.819     6.648
 100   6 C     -0.085  1.054  3.031  0.000    22.097     6.690
 101   6 C     -0.020  1.053  2.967  0.000    20.966     6.526
 102   1 H      0.061  0.939  0.000  0.000     2.190     2.314
 103   1 H      0.051  0.949  0.000  0.000     2.310     2.377
 104   1 H      0.064  0.936  0.000  0.000     2.154     2.295
 105   1 H      0.074  0.926  0.000  0.000     2.045     2.237
 106   1 H      0.092  0.908  0.000  0.000     1.858     2.131
 107   1 H      0.051  0.949  0.000  0.000     2.302     2.373
 108   1 H      0.115  0.885  0.000  0.000     1.655     2.012
 109   7 N     -0.192  1.251  3.941  0.000    25.171     7.451
 110   6 C      0.017  1.064  2.919  0.000    20.288     6.413
 111   6 C      0.294  1.034  2.672  0.000    22.022     7.685
 112   8 O     -0.499  1.758  4.741  0.000    23.766     6.536
 113   6 C      0.111  1.046  2.843  0.000    18.855     6.200
 114   8 O     -0.499  1.739  4.759  0.000    22.865     6.455
 115   6 C     -0.146  1.045  3.101  0.000    23.382     6.896
 116   1 H      0.215  0.785  0.000  0.000     1.033     1.592
 117   1 H      0.077  0.923  0.000  0.000     2.012     2.218
 118   1 H      0.053  0.947  0.000  0.000     2.280     2.361
 119   1 H      0.355  0.645  0.000  0.000     0.577     1.193
 120   1 H      0.080  0.920  0.000  0.000     1.976     2.198
 121   1 H      0.072  0.928  0.000  0.000     2.066     2.248
 122   1 H      0.047  0.953  0.000  0.000     2.356     2.400
 123   7 N     -0.204  1.253  3.951  0.000    25.428     7.489
 124   6 C      0.045  1.051  2.905  0.000    19.821     6.338
 125   6 C      0.288  1.043  2.669  0.000    22.118     7.702
 126   8 O     -0.501  1.759  4.742  0.000    23.798     6.541
 127   6 C     -0.097  1.065  3.032  0.000    22.345     6.730
 128   6 C      0.368  1.021  2.611  0.000    20.753     7.455
 129   8 O     -0.592  1.744  4.848  0.000    25.912     6.825
 130   8 O     -0.605  1.775  4.829  0.000    26.232     6.867
 131   1 H      0.222  0.778  0.000  0.000     1.001     1.567
 132   1 H      0.067  0.933  0.000  0.000     2.123     2.279
 133   1 H      0.059  0.941  0.000  0.000     2.211     2.325
 134   1 H      0.033  0.967  0.000  0.000     2.543     2.494
 135   7 N     -0.203  1.258  3.945  0.000    25.408     7.486
 136   6 C      0.029  1.059  2.913  0.000    20.096     6.383
 137   6 C      0.278  1.041  2.681  0.000    22.303     7.734
 138   8 O     -0.422  1.715  4.706  0.000    22.117     6.305
 139   6 C      0.085  1.030  2.885  0.000    19.374     6.305
 140   8 O     -0.456  1.698  4.758  0.000    21.974     6.328
 141   1 H      0.217  0.783  0.000  0.000     1.024     1.585
 142   1 H      0.051  0.949  0.000  0.000     2.309     2.377
 143   1 H      0.014  0.986  0.000  0.000     2.825     2.629
 144   1 H      0.061  0.939  0.000  0.000     2.188     2.313
 145   1 H      0.328  0.672  0.000  0.000     0.642     1.258
 146   7 N     -0.179  1.244  3.934  0.000    24.867     7.406
 147   6 C     -0.019  1.046  2.973  0.000    20.975     6.532
 148   6 C      0.276  1.037  2.687  0.000    22.335     7.739
 149   8 O     -0.468  1.729  4.740  0.000    23.095     6.443
 150   1 H      0.204  0.796  0.000  0.000     1.084     1.631
 151   1 H      0.090  0.910  0.000  0.000     1.881     2.145
 152   1 H      0.089  0.911  0.000  0.000     1.892     2.151
 153   7 N     -0.179  1.243  3.936  0.000    24.866     7.406
 154   6 C      0.022  1.064  2.913  0.000    20.207     6.401
 155   6 C      0.280  1.038  2.682  0.000    22.255     7.725
 156   8 O     -0.486  1.738  4.748  0.000    23.473     6.496
 157   6 C     -0.050  1.051  3.000  0.000    21.474     6.597
 158   6 C     -0.092  1.064  3.028  0.000    22.257     6.717
 159   6 C      0.371  1.025  2.604  0.000    20.707     7.447
 160   8 O     -0.647  1.777  4.870  0.000    27.306     7.006
 161   8 O     -0.647  1.769  4.877  0.000    27.302     7.005
 162   1 H      0.198  0.802  0.000  0.000     1.117     1.656
 163   1 H      0.067  0.933  0.000  0.000     2.121     2.278
 164   1 H      0.042  0.958  0.000  0.000     2.420     2.433
 165   1 H      0.042  0.958  0.000  0.000     2.418     2.432
 166   1 H      0.030  0.970  0.000  0.000     2.589     2.516
 167   1 H      0.027  0.973  0.000  0.000     2.630     2.536
 168   7 N     -0.169  1.234  3.935  0.000    24.663     7.376
 169   6 C      0.019  1.057  2.924  0.000    20.263     6.410
 170   6 C      0.264  1.049  2.688  0.000    22.556     7.778
 171   8 O     -0.467  1.720  4.747  0.000    23.070     6.440
 172   6 C     -0.095  1.058  3.037  0.000    22.295     6.721
 173   6 C     -0.082  1.049  3.033  0.000    22.062     6.687
 174   6 C     -0.092  1.057  3.035  0.000    22.260     6.717
 175   6 C     -0.045  1.058  2.987  0.000    21.467     6.613
 176   7 N     -0.178  1.252  3.926  0.000    24.835     7.402
 177   1 H      0.204  0.796  0.000  0.000     1.087     1.633
 178   1 H      0.085  0.915  0.000  0.000     1.926     2.171
 179   1 H      0.106  0.894  0.000  0.000     1.730     2.057
 180   1 H      0.060  0.940  0.000  0.000     2.204     2.322
 181   1 H      0.059  0.941  0.000  0.000     2.212     2.326
 182   1 H      0.070  0.930  0.000  0.000     2.084     2.257
 183   1 H      0.084  0.916  0.000  0.000     1.941     2.179
 184   1 H      0.072  0.928  0.000  0.000     2.065     2.247
 185   1 H      0.107  0.893  0.000  0.000     1.721     2.051
 186   1 H      0.100  0.900  0.000  0.000     1.784     2.089
 187   1 H      0.270  0.730  0.000  0.000     0.807     1.407
 188   1 H      0.273  0.727  0.000  0.000     0.800     1.402
 189   1 H      0.244  0.756  0.000  0.000     0.907     1.492
 190   7 N     -0.167  1.245  3.922  0.000    24.616     7.369
 191   6 C      0.017  1.063  2.920  0.000    20.292     6.413
 192   6 C      0.274  1.042  2.684  0.000    22.371     7.745
 193   8 O     -0.466  1.735  4.731  0.000    23.043     6.436
 194   6 C     -0.074  1.055  3.019  0.000    21.892     6.657
 195   6 C     -0.021  1.068  2.953  0.000    20.962     6.520
 196  16 S     -0.217  1.926  4.234  0.057   150.320    20.635
 197   6 C     -0.035  1.044  2.991  0.000    21.273     6.579
 198   1 H      0.214  0.786  0.000  0.000     1.037     1.595
 199   1 H      0.090  0.910  0.000  0.000     1.883     2.146
 200   1 H      0.074  0.926  0.000  0.000     2.038     2.232
 201   1 H      0.077  0.923  0.000  0.000     2.015     2.220
 202   1 H      0.050  0.950  0.000  0.000     2.320     2.382
 203   1 H      0.083  0.917  0.000  0.000     1.944     2.180
 204   1 H      0.035  0.965  0.000  0.000     2.517     2.481
 205   1 H      0.028  0.972  0.000  0.000     2.615     2.529
 206   1 H      0.051  0.949  0.000  0.000     2.305     2.374
 207   7 N     -0.182  1.244  3.938  0.000    24.941     7.417
 208   6 C      0.009  1.069  2.921  0.000    20.430     6.436
 209   6 C      0.280  1.037  2.683  0.000    22.253     7.725
 210   8 O     -0.453  1.743  4.710  0.000    22.776     6.399
 211   6 C      0.114  1.048  2.839  0.000    18.825     6.196
 212   8 O     -0.482  1.727  4.754  0.000    22.500     6.403
 213   6 C     -0.145  1.045  3.101  0.000    23.365     6.894
 214   1 H      0.205  0.795  0.000  0.000     1.082     1.630
 215   1 H      0.091  0.909  0.000  0.000     1.872     2.140
 216   1 H      0.040  0.960  0.000  0.000     2.455     2.450
 217   1 H      0.352  0.648  0.000  0.000     0.583     1.199
 218   1 H      0.073  0.927  0.000  0.000     2.052     2.240
 219   1 H      0.050  0.950  0.000  0.000     2.323     2.383
 220   1 H      0.067  0.933  0.000  0.000     2.119     2.276
 221   7 N     -0.185  1.249  3.937  0.000    25.019     7.429
 222   6 C      0.018  1.067  2.915  0.000    20.281     6.413
 223   6 C      0.292  1.037  2.671  0.000    22.042     7.688
 224   8 O     -0.507  1.754  4.753  0.000    23.949     6.561
 225   6 C     -0.086  1.065  3.021  0.000    22.130     6.696
 226   6 C     -0.016  1.055  2.961  0.000    20.830     6.492
 227   6 C     -0.138  1.048  3.091  0.000    23.218     6.870
 228   6 C     -0.133  1.044  3.089  0.000    23.105     6.854
 229   1 H      0.195  0.805  0.000  0.000     1.133     1.667
 230   1 H      0.080  0.920  0.000  0.000     1.983     2.202
 231   1 H      0.066  0.934  0.000  0.000     2.132     2.284
 232   1 H      0.053  0.947  0.000  0.000     2.283     2.363
 233   1 H      0.045  0.955  0.000  0.000     2.388     2.417
 234   1 H      0.061  0.939  0.000  0.000     2.188     2.313
 235   1 H      0.054  0.946  0.000  0.000     2.268     2.355
 236   1 H      0.041  0.959  0.000  0.000     2.432     2.439
 237   1 H      0.061  0.939  0.000  0.000     2.192     2.315
 238   1 H      0.053  0.947  0.000  0.000     2.279     2.361
 239   1 H      0.035  0.965  0.000  0.000     2.512     2.479
 240   7 N     -0.201  1.253  3.948  0.000    25.365     7.480
 241   6 C      0.025  1.061  2.914  0.000    20.153     6.392
 242   6 C      0.288  1.037  2.675  0.000    22.124     7.703
 243   8 O     -0.493  1.748  4.745  0.000    23.621     6.516
 244   6 C      0.068  1.041  2.891  0.000    19.650     6.351
 245   8 O     -0.447  1.704  4.743  0.000    21.779     6.300
 246   1 H      0.231  0.769  0.000  0.000     0.960     1.535
 247   1 H      0.083  0.917  0.000  0.000     1.951     2.184
 248   1 H      0.049  0.951  0.000  0.000     2.327     2.386
 249   1 H      0.040  0.960  0.000  0.000     2.445     2.445
 250   1 H      0.320  0.680  0.000  0.000     0.664     1.280
 251   7 N     -0.180  1.254  3.926  0.000    24.890     7.410
 252   6 C      0.033  1.061  2.906  0.000    20.023     6.371
 253   6 C      0.229  1.079  2.692  0.000    23.194     7.887
 254   8 O     -0.377  1.746  4.631  0.000    21.236     6.178
 255   6 C     -0.013  1.066  2.947  0.000    20.780     6.484
 256   6 C     -0.067  1.052  3.015  0.000    21.773     6.643
 257   6 C     -0.124  1.036  3.088  0.000    22.935     6.829
 258   6 C     -0.116  1.035  3.080  0.000    22.777     6.806
 259   1 H      0.214  0.786  0.000  0.000     1.039     1.597
 260   1 H      0.076  0.924  0.000  0.000     2.023     2.224
 261   1 H      0.046  0.954  0.000  0.000     2.374     2.409
 262   1 H      0.036  0.964  0.000  0.000     2.507     2.476
 263   1 H      0.051  0.949  0.000  0.000     2.303     2.373
 264   1 H      0.056  0.944  0.000  0.000     2.246     2.344
 265   1 H      0.066  0.934  0.000  0.000     2.132     2.284
 266   1 H      0.039  0.961  0.000  0.000     2.461     2.453
 267   1 H      0.047  0.953  0.000  0.000     2.363     2.404
 268   1 H      0.046  0.954  0.000  0.000     2.365     2.405
 269   1 H      0.041  0.959  0.000  0.000     2.433     2.439
 270   7 N     -0.389  1.326  4.064  0.000    30.080     8.145
 271   6 C      0.050  1.052  2.898  0.000    19.759     6.332
 272   6 C      0.195  1.085  2.721  0.000    23.843     7.998
 273   8 O     -0.378  1.775  4.603  0.000    21.256     6.181
 274   6 C     -0.069  1.050  3.018  0.000    21.795     6.644
 275   6 C      0.055  1.061  2.884  0.000    26.140     8.320
 276   7 N     -0.301  1.488  3.812  0.000    28.637     7.934
 277   6 C     -0.033  1.059  2.974  0.000    28.759     8.795
 278   6 C      0.078  1.063  2.859  0.000    25.853     8.301
 279   7 N     -0.105  1.248  3.856  0.000    23.289     7.167
 280   1 H      0.185  0.815  0.000  0.000     1.186     1.706
 281   1 H      0.020  0.980  0.000  0.000     2.732     2.585
 282   1 H      0.080  0.920  0.000  0.000     1.976     2.198
 283   1 H      0.038  0.962  0.000  0.000     2.470     2.458
 284   1 H      0.018  0.982  0.000  0.000     2.770     2.602
 285   1 H      0.064  0.936  0.000  0.000     2.156     2.296
 286   1 H      0.228  0.772  0.000  0.000     0.972     1.545
 287   7 N     -0.402  1.339  4.063  0.000    30.421     8.192
 288   6 C      0.015  1.073  2.912  0.000    20.354     6.428
 289   6 C      0.365  1.027  2.608  0.000    20.816     7.466
 290   8 O     -0.666  1.773  4.892  0.000    27.789     7.068
 291   6 C      0.102  1.042  2.857  0.000    19.124     6.267
 292   8 O     -0.498  1.735  4.763  0.000    22.853     6.453
 293   8 O     -0.606  1.767  4.838  0.000    26.260     6.871
 294   1 H      0.143  0.857  0.000  0.000     1.448     1.885
 295   1 H      0.016  0.984  0.000  0.000     2.791     2.613
 296   1 H      0.011  0.989  0.000  0.000     2.877     2.652
 297   1 H     -0.020  1.020  0.000  0.000     3.429     2.896
 298   1 H      0.348  0.652  0.000  0.000     0.593     1.209
 299   7 N     -0.390  1.313  4.077  0.000    30.085     8.146
 300   6 C      0.030  1.057  2.913  0.000    20.087     6.384
 301   6 C      0.266  1.050  2.684  0.000    22.509     7.770
 302   8 O     -0.484  1.758  4.726  0.000    23.428     6.489
 303   6 C     -0.081  1.062  3.019  0.000    22.030     6.680
 304   6 C     -0.015  1.057  2.958  0.000    20.804     6.488
 305   6 C     -0.121  1.039  3.082  0.000    22.876     6.819
 306   6 C     -0.119  1.043  3.076  0.000    22.822     6.811
 307   1 H      0.176  0.824  0.000  0.000     1.238     1.743
 308   1 H      0.031  0.969  0.000  0.000     2.575     2.509
 309   1 H      0.056  0.944  0.000  0.000     2.244     2.342
 310   1 H      0.055  0.945  0.000  0.000     2.262     2.352
 311   1 H      0.026  0.974  0.000  0.000     2.639     2.541
 312   1 H      0.051  0.949  0.000  0.000     2.313     2.378
 313   1 H      0.031  0.969  0.000  0.000     2.571     2.508
 314   1 H      0.040  0.960  0.000  0.000     2.442     2.444
 315   1 H      0.042  0.958  0.000  0.000     2.420     2.433
 316   1 H      0.045  0.955  0.000  0.000     2.390     2.417
 317   1 H      0.047  0.953  0.000  0.000     2.353     2.399
 318   7 N     -0.181  1.267  3.914  0.000    24.919     7.414
 319   6 C      0.024  1.052  2.923  0.000    20.162     6.393
 320   6 C      0.197  1.089  2.714  0.000    23.801     7.990
 321   8 O     -0.371  1.756  4.615  0.000    21.118     6.161
 322   6 C     -0.114  1.067  3.047  0.000    22.671     6.778
 323   6 C      0.286  1.033  2.680  0.000    22.148     7.706
 324   8 O     -0.478  1.753  4.725  0.000    23.297     6.471
 325   7 N     -0.288  1.263  4.024  0.000    27.422     7.777
 326   1 H      0.229  0.771  0.000  0.000     0.970     1.543
 327   1 H      0.102  0.898  0.000  0.000     1.766     2.078
 328   1 H      0.109  0.891  0.000  0.000     1.706     2.042
 329   1 H      0.099  0.901  0.000  0.000     1.792     2.094
 330   1 H      0.234  0.766  0.000  0.000     0.946     1.524
 331   1 H      0.239  0.761  0.000  0.000     0.926     1.508
 332   7 N     -0.388  1.315  4.073  0.000    30.029     8.139
 333   6 C      0.033  1.051  2.916  0.000    20.031     6.374
 334   6 C      0.265  1.049  2.686  0.000    22.525     7.773
 335   8 O     -0.508  1.756  4.752  0.000    23.966     6.564
 336   6 C     -0.065  1.049  3.016  0.000    21.730     6.634
 337   6 C      0.056  1.064  2.881  0.000    26.305     8.369
 338   7 N     -0.309  1.488  3.820  0.000    28.839     7.962
 339   6 C     -0.035  1.064  2.971  0.000    28.828     8.806
 340   6 C      0.087  1.062  2.852  0.000    25.835     8.317
 341   7 N     -0.101  1.247  3.854  0.000    23.216     7.156
 342   1 H      0.173  0.827  0.000  0.000     1.257     1.757
 343   1 H      0.039  0.961  0.000  0.000     2.463     2.454
 344   1 H      0.053  0.947  0.000  0.000     2.281     2.362
 345   1 H      0.048  0.952  0.000  0.000     2.349     2.397
 346   1 H      0.045  0.955  0.000  0.000     2.383     2.414
 347   1 H      0.048  0.952  0.000  0.000     2.342     2.393
 348   1 H      0.215  0.785  0.000  0.000     1.032     1.591
 349   7 N     -0.196  1.253  3.943  0.000    25.252     7.463
 350   6 C      0.012  1.061  2.928  0.000    20.359     6.421
 351   6 C      0.289  1.037  2.675  0.000    22.110     7.700
 352   8 O     -0.529  1.778  4.751  0.000    24.443     6.629
 353   6 C     -0.099  1.056  3.043  0.000    22.370     6.732
 354   6 C      0.051  1.063  2.886  0.000    26.196     8.326
 355   7 N     -0.292  1.442  3.850  0.000    28.401     7.903
 356   6 C     -0.027  1.070  2.956  0.000    28.630     8.776
 357   6 C      0.104  1.056  2.840  0.000    25.451     8.254
 358   7 N     -0.083  1.234  3.849  0.000    22.846     7.099
 359   1 H      0.222  0.778  0.000  0.000     0.999     1.566
 360   1 H      0.079  0.921  0.000  0.000     1.987     2.204
 361   1 H      0.104  0.896  0.000  0.000     1.752     2.070
 362   1 H      0.100  0.900  0.000  0.000     1.785     2.089
 363   1 H      0.105  0.895  0.000  0.000     1.739     2.062
 364   1 H      0.040  0.960  0.000  0.000     2.454     2.450
 365   1 H      0.196  0.804  0.000  0.000     1.129     1.664
 366   7 N     -0.221  1.265  3.956  0.000    25.815     7.546
 367   6 C      0.020  1.061  2.919  0.000    20.242     6.407
 368   6 C      0.284  1.042  2.674  0.000    22.181     7.712
 369   8 O     -0.516  1.756  4.760  0.000    24.137     6.587
 370   6 C     -0.086  1.063  3.024  0.000    22.142     6.698
 371   6 C     -0.085  1.054  3.030  0.000    22.113     6.695
 372   6 C     -0.032  1.055  2.977  0.000    21.219     6.573
 373   7 N     -0.152  1.225  3.926  0.000    24.284     7.319
 374   6 C      0.241  1.022  2.736  0.000    22.957     7.845
 375   7 N     -0.261  1.268  3.994  0.000    26.781     7.686
 376   7 N     -0.270  1.239  4.030  0.000    26.981     7.715
 377   1 H      0.250  0.750  0.000  0.000     0.882     1.471
 378   1 H      0.079  0.921  0.000  0.000     1.989     2.206
 379   1 H      0.096  0.904  0.000  0.000     1.826     2.113
 380   1 H      0.063  0.937  0.000  0.000     2.167     2.302
 381   1 H      0.088  0.912  0.000  0.000     1.901     2.156
 382   1 H      0.050  0.950  0.000  0.000     2.320     2.382
 383   1 H      0.081  0.919  0.000  0.000     1.964     2.192
 384   1 H      0.106  0.894  0.000  0.000     1.727     2.055
 385   1 H      0.239  0.761  0.000  0.000     0.929     1.510
 386   1 H      0.244  0.756  0.000  0.000     0.906     1.491
 387   1 H      0.215  0.785  0.000  0.000     1.033     1.592
 388   1 H      0.258  0.742  0.000  0.000     0.853     1.446
 389   1 H      0.239  0.761  0.000  0.000     0.927     1.508
 390   7 N     -0.203  1.256  3.947  0.000    25.418     7.488
 391   6 C      0.018  1.071  2.911  0.000    20.292     6.417
 392   6 C      0.371  1.024  2.605  0.000    20.715     7.448
 393   8 O     -0.649  1.781  4.868  0.000    27.349     7.012
 394   6 C      0.087  1.038  2.875  0.000    19.352     6.302
 395   8 O     -0.498  1.737  4.761  0.000    22.851     6.453
 396   8 O     -0.621  1.760  4.861  0.000    26.636     6.920
 397   1 H      0.190  0.810  0.000  0.000     1.160     1.687
 398   1 H      0.038  0.962  0.000  0.000     2.482     2.464
 399   1 H      0.038  0.962  0.000  0.000     2.474     2.460
 400   1 H      0.022  0.978  0.000  0.000     2.703     2.571
 401   1 H      0.358  0.642  0.000  0.000     0.570     1.186
 402   1 H      0.182  0.818  0.000  0.000     1.204     1.719
 403   1 H      0.086  0.914  0.000  0.000     1.921     2.167
 404   1 H      0.182  0.818  0.000  0.000     1.205     1.719
 405   1 H      0.080  0.920  0.000  0.000     1.974     2.197
 406   1 H      0.180  0.820  0.000  0.000     1.214     1.726
 407   1 H      0.061  0.939  0.000  0.000     2.192     2.315
 408   1 H      0.172  0.828  0.000  0.000     1.258     1.757
 409   1 H      0.071  0.929  0.000  0.000     2.073     2.251
 410   1 H      0.194  0.806  0.000  0.000     1.135     1.669
 411   1 H      0.167  0.833  0.000  0.000     1.290     1.779
 412   1 H      0.093  0.907  0.000  0.000     1.852     2.128
 413   1 H      0.195  0.805  0.000  0.000     1.131     1.666

 Mol. C6AA /au·bohr⁶  :    1599573.904759
 Mol. C8AA /au·bohr⁸  :   35707659.459867
 Mol. α(0) /au        :       1891.584150

 
molecular dipole:
                 x           y           z       tot (Debye)
 q only:     -140.766    -186.729     -14.812
   full:     -139.703    -184.748     -16.666     590.259
molecular quadrupole (traceless):
                xx          xy          yy          xz          yz          zz
 q only:    -1836.928  -19457.514  -12286.338   -1034.052   -1028.684   14123.266
  q+dip:    -1772.021  -19111.910  -11949.776   -1153.183   -1186.274   13721.796
   full:    -1771.000  -19112.660  -11948.400   -1152.656   -1187.244   13719.400
speedup  1.00
cpu  time for grad   10.38 s
wall time for grad   10.38 s

SCC energy    :    -651.5206598
rep           :       7.6799709
ES            :       2.3550390
AES           :      -0.0771001
AXC           :       0.2046582
disp          :      -0.5713938
XB            :       0.0000000
fix           :       0.0000000
Gborn         :       0.0000000
Gsasa         :       0.0000000
Ghb           :       0.0000000
Gshift        :       0.0000000
Gsolv         :      -0.7306327     -458.48
Etot ala COSMO:    -651.5206598
grad norm     :       0.5653242
total E       :    -643.7860217
atomizationE  :     116.3928295    73037.60
(atE without considering molecular charge,
 total energy contains solvation terms)
H-L gap (eV)  :          0.8501

------------------------------------------------------------------------
 * finished run on 2019/03/14 at 15:08:31.934     
------------------------------------------------------------------------
 total:
 * wall-time:     0 d,  0 h,  0 min, 11.518 sec
 *  cpu-time:     0 d,  0 h,  0 min, 11.379 sec
 * ratio c/w:     0.988 speedup
 SCF:
 * wall-time:     0 d,  0 h,  0 min, 11.197 sec
 *  cpu-time:     0 d,  0 h,  0 min, 11.193 sec
 * ratio c/w:     1.000 speedup

