      -----------------------------------------------------------      
     |                   =====================                   |     
     |                           x T B                           |     
     |                   =====================                   |     
     |                         S. Grimme                         |     
     |          Mulliken Center for Theoretical Chemistry        |     
     |                    University of Bonn                     |     
     |                 Version 6.0.1 (SAW181210)                 |     
      -----------------------------------------------------------      

   This program is distributed in the hope that it will be useful,
   but WITHOUT ANY WARRANTY; without even the implied warranty of
   MERCHANTABILITY or FITNESS FOR A PARTICULAR PURPOSE.
   
   FOR NON-COMMERCIAL, ACADEMIA USE ONLY.
   
   Cite this work as:
   S. Grimme, C. Bannwarth, P. Shushkov, J. Comput. Theory Chem., 2017,
   13, 1989-2009.
   C. Bannwarth, S. Ehlert and S. Grimme., ChemRxiv, 2018, preprint.
   http://doi.org/10.26434/chemrxiv.7246238.v1
   
   for sTDA-xTB:
   S. Grimme and C. Bannwarth, J. Chem. Phys., 2016, 145, 054103.
   
   in the mass-spec context:
   V. Asgeirsson, C. Bauer and S. Grimme, Chem. Sci., 2017, 8, 4879.
   
   if GBSA is used:
   P. Shushkov, F. März and S. Grimme, unpublished.
   
   for ANC optimizer:
   S. Grimme, unpublished.
   Rational Function algorithm used in ANCopt:
   F. Eckert, P. Pulay, H.-J. Werner, J. Comput. Chem., 1997, 18, 1473.
   
   with help from (in alphabetical order)
   C. Bannwarth, F. Bohle, G. Brandenburg, E. Caldeweyher, M. Checinski,
   S. Dohm, S. Ehlert, S. Ehrlich, F. März, H. Neugebauer, J. Pisarek,
   P. Pracht, P. Shushkov, and S. Spicher.
   
 * started run on 2019/02/13 at 00:17:16.689     
========================================================================
 # omp threads = 16
========================================================================
number of atoms            : 447
number of electrons        : 1226
charge                     : -2
spin                       : .0
first test random number   : .4191

########################################################################
# WARNING! Please study the warnings concerning your input carefully
#  - Process number higher than OMP_NUM_THREADS, I hope you know what you are doing.
########################################################################

           ------------------------------------------------- 
          |                 G F N 2 - x T B                 |
          | Geometry, Frequencies, Noncovalent interactions |
          |            JCTC 2018 parametrisation            |
           ------------------------------------------------- 
 
      method parameters     
 k(s)        :  1.8500
 k(p)        :  2.2300
 k(d)        :  2.2300
 k(f)        :  2.0000
 kEN (H0ij)  : -2.0000
 D4 a1       :  0.5200
 D4 a2       :  5.0000
 D4 s6       :  1.0000
 D4 s8       :  2.7000
 D4 s9       :  5.0000
 alphaj      :  2.0000

 Solvent             : h2o
 Using internal parameter file: .param_gbsa2_h2o
 Gsolv ref. state (COSMO-RS): gsolv [1 M gas/solution]
 temperature (mdtemp)       :    298.150000000000     
 dielectric constant        :    80.2000000000000     
 rho                        :    1.00000000000000     
 mass                       :    18.0000000000000     
 surface tension            :    15.5689454083859     
 probe radius               :   0.975313790000000     
 vdW radii scaling          :    1.00000000000000     
 Gshift (Eh)                :   1.857443126794793E-003
 c1                         :    1.55243817000000     
 soset                      :   0.130326360000000     
 HB correction              :  T

            Z     q(EN)     CN     RAES       Cart. coordinates
     1  N   5.0   -0.21    3.24    1.96   396.09108   126.03273   231.30396
     2  C   4.0    0.03    4.32    4.24   398.70092   125.92547   230.48522
     3  C   4.0    0.15    3.42    3.08   400.36487   125.16039   232.73178
     4  O   6.0   -0.31    1.23    1.80   400.29311   126.33329   234.72682
     5  C   4.0   -0.05    4.35    4.30   399.58712   128.53279   229.56447
     6  C   4.0   -0.03    4.19    3.98   397.88131   129.68564   227.52453
     7  C   4.0   -0.09    4.10    3.81   398.63314   132.43293   227.05826
     8  C   4.0   -0.08    4.10    3.81   398.00914   128.19687   225.05985
     9  H   1.0    0.08    1.03    1.43   395.69747   127.31344   232.66242
    10  H   1.0    0.05    1.06    1.44   398.84301   124.51068   228.99118
    11  H   1.0    0.05    1.03    1.43   399.62189   129.78747   231.20495
    12  H   1.0    0.04    1.03    1.43   401.50782   128.32909   228.84040
    13  H   1.0    0.03    1.06    1.44   395.92945   129.66434   228.21583
    14  H   1.0    0.03    1.00    1.43   397.37251   133.28699   225.67772
    15  H   1.0    0.03    1.00    1.43   398.51358   133.53663   228.78754
    16  H   1.0    0.03    1.00    1.43   400.55829   132.53068   226.34958
    17  H   1.0    0.03    1.00    1.43   396.83429   129.12467   223.65314
    18  H   1.0    0.04    1.00    1.43   399.94605   128.11078   224.38014
    19  H   1.0    0.04    1.00    1.43   397.32929   126.27831   225.32929
    20  N   5.0   -0.14    3.45    2.05   401.87153   123.16409   232.33625
    21  C   4.0    0.04    4.47    4.49   403.74691   122.39381   234.16214
    22  C   4.0    0.16    3.53    3.13   406.33010   123.26487   233.21160
    23  O   6.0   -0.30    1.26    1.80   407.33826   122.36311   231.33850
    24  C   4.0   -0.02    4.26    4.12   403.91836   119.54810   234.60807
    25  C   4.0    0.25    3.19    3.03   406.41240   119.04788   236.07838
    26  O   6.0   -0.33    1.35    1.80   406.99774   120.69708   237.69236
    27  O   6.0   -0.30    1.16    1.80   407.68754   117.15775   235.56287
    28  H   1.0    0.11    1.11    1.45   401.96507   122.39062   230.58308
    29  H   1.0    0.06    1.07    1.44   403.27882   123.34242   235.94058
    30  H   1.0    0.05    1.02    1.43   402.31463   118.86355   235.70679
    31  H   1.0    0.06    1.02    1.43   403.98222   118.50398   232.82974
    32  N   5.0   -0.14    3.49    2.07   407.35277   125.19395   234.51392
    33  C   4.0    0.04    4.44    4.45   409.78597   126.22046   233.84597
    34  C   4.0    0.15    3.44    3.09   412.03229   124.89999   235.09913
    35  O   6.0   -0.31    1.33    1.80   414.18748   125.44609   234.43592
    36  C   4.0   -0.03    4.30    4.20   409.86834   129.07476   234.35088
    37  C   4.0    0.15    3.24    3.04   408.25384   130.38133   232.35765
    38  O   6.0   -0.33    1.21    1.80   409.09349   130.90481   230.28141
    39  N   5.0   -0.19    3.18    1.95   405.87781   130.92664   233.05453
    40  H   1.0    0.08    1.06    1.44   406.60214   125.64483   236.20923
    41  H   1.0    0.06    1.07    1.44   410.01656   125.88971   231.80798
    42  H   1.0    0.04    1.03    1.43   409.20678   129.47499   236.25699
    43  H   1.0    0.06    1.03    1.43   411.82214   129.69303   234.13095
    44  H   1.0    0.08    1.03    1.43   404.68442   131.60503   231.73077
    45  H   1.0    0.09    1.03    1.43   405.10125   130.23156   234.64389
    46  N   5.0   -0.14    3.50    2.08   411.55182   123.22748   236.91102
    47  C   4.0    0.04    4.40    4.38   413.61883   121.94541   238.18363
    48  C   4.0    0.16    3.48    3.11   415.59809   121.01067   236.29942
    49  O   6.0   -0.30    1.22    1.80   417.86382   121.31872   236.57888
    50  C   4.0    0.03    4.16    3.93   412.59070   119.67395   239.69830
    51  O   6.0   -0.25    2.05    1.83   410.72271   120.39216   241.42588
    52  H   1.0    0.11    1.12    1.45   409.77348   122.53216   237.21090
    53  H   1.0    0.06    1.05    1.44   414.52940   123.28311   239.48026
    54  H   1.0    0.06    1.01    1.43   411.86126   118.25031   238.37506
    55  H   1.0    0.04    1.01    1.43   414.13827   118.84635   240.78720
    56  H   1.0    0.15    1.06    1.44   409.12927   120.52281   240.50623
    57  N   5.0   -0.14    3.57    2.13   414.60615   119.73363   234.34930
    58  C   4.0    0.04    4.46    4.48   416.10748   118.47967   232.45621
    59  C   4.0    0.16    3.47    3.10   417.79449   120.26556   230.96354
    60  O   6.0   -0.31    1.30    1.80   419.71112   119.47947   229.90381
    61  C   4.0    0.06    4.25    4.09   414.26837   117.11926   230.61567
    62  O   6.0   -0.24    2.15    1.85   412.35191   118.80475   229.86613
    63  C   4.0   -0.06    4.08    3.77   413.06344   114.84257   231.91209
    64  H   1.0    0.10    1.08    1.44   412.71702   119.55375   234.13722
    65  H   1.0    0.05    1.05    1.44   417.33839   117.06228   233.33839
    66  H   1.0    0.05    1.04    1.43   415.35379   116.46182   228.97001
    67  H   1.0    0.16    1.08    1.44   412.97245   119.89072   228.49143
    68  H   1.0    0.07    1.01    1.43   412.08892   113.69308   230.51498
    69  H   1.0    0.04    1.00    1.43   414.48364   113.68771   232.83540
    70  H   1.0    0.06    1.00    1.43   411.66352   115.45469   233.28948
    71  N   5.0   -0.13    3.52    2.09   417.10943   122.67530   230.87506
    72  C   4.0    0.04    4.46    4.48   418.52585   124.45838   229.36373
    73  C   4.0    0.17    3.58    3.15   421.34209   124.13310   229.84906
    74  O   6.0   -0.33    1.37    1.80   422.85946   123.89183   228.10213
    75  C   4.0   -0.03    4.34    4.28   417.73992   127.17736   229.98788
    76  C   4.0   -0.01    3.60    3.16   419.44767   129.01558   228.65075
    77  C   4.0   -0.04    3.48    3.10   419.14011   129.44716   226.07976
    78  C   4.0   -0.04    3.47    3.10   421.36212   130.27103   229.93497
    79  C   4.0   -0.05    3.38    3.07   420.69887   131.12707   224.82191
    80  C   4.0   -0.04    3.38    3.07   422.94559   131.92425   228.66881
    81  C   4.0   -0.05    3.38    3.07   422.61893   132.35052   226.10996
    82  H   1.0    0.11    1.11    1.44   415.60706   123.33571   231.85934
    83  H   1.0    0.06    1.05    1.44   418.18632   124.05483   227.35519
    84  H   1.0    0.05    1.03    1.43   415.78464   127.43390   229.38238
    85  H   1.0    0.06    1.03    1.43   417.81421   127.44174   232.02936
    86  H   1.0    0.05    1.03    1.43   417.66490   128.46430   225.06383
    87  H   1.0    0.06    1.03    1.43   421.61443   129.94811   231.93437
    88  H   1.0    0.04    1.03    1.43   420.38224   131.48813   222.84241
    89  H   1.0    0.05    1.03    1.43   424.42969   132.88825   229.68078
    90  H   1.0    0.04    1.03    1.43   423.85768   133.63298   225.12858
    91  N   5.0   -0.14    3.49    2.07   422.10387   124.31151   232.24035
    92  C   4.0    0.03    4.43    4.43   424.78765   124.41364   232.78058
    93  C   4.0    0.15    3.48    3.11   426.16002   121.97388   232.08194
    94  O   6.0   -0.31    1.30    1.80   428.34330   122.03390   231.32295
    95  C   4.0   -0.05    4.26    4.13   425.38039   125.22710   235.48850
    96  C   4.0   -0.05    4.17    3.94   424.40964   123.45653   237.55157
    97  C   4.0   -0.05    4.18    3.95   424.98818   124.56288   240.16463
    98  C   4.0   -0.04    4.13    3.85   427.74057   124.15580   240.92551
    99  N   5.0   -0.12    4.03    2.95   428.36876   125.72232   243.16874
   100  H   1.0    0.09    1.06    1.44   420.84315   124.32374   233.67566
   101  H   1.0    0.05    1.07    1.44   425.58914   125.84624   231.50827
   102  H   1.0    0.05    1.03    1.43   427.43412   125.36535   235.59145
   103  H   1.0    0.06    1.03    1.43   424.61181   127.11861   235.77512
   104  H   1.0    0.06    1.03    1.43   422.37233   123.19485   237.37311
   105  H   1.0    0.04    1.03    1.43   425.28469   121.59986   237.36372
   106  H   1.0    0.05    1.03    1.43   424.58378   126.58359   240.11870
   107  H   1.0    0.04    1.03    1.43   423.74959   123.67381   241.54907
   108  H   1.0    0.03    1.02    1.43   428.05897   122.16809   241.36919
   109  H   1.0    0.04    1.02    1.43   429.00114   124.70263   239.39373
   110  H   1.0    0.05    1.02    1.43   430.10851   125.23903   243.87452
   111  H   1.0    0.10    1.10    1.44   428.44644   127.66557   242.66493
   112  H   1.0    0.05    1.02    1.43   427.02340   125.48537   244.54628
   113  N   5.0   -0.14    3.49    2.07   424.89663   119.80285   232.38997
   114  C   4.0    0.03    4.36    4.31   426.03698   117.46108   231.51612
   115  C   4.0    0.16    3.49    3.11   427.04890   117.82612   228.82883
   116  O   6.0   -0.31    1.27    1.80   429.19873   117.23600   228.22409
   117  C   4.0   -0.08    4.10    3.81   424.13501   115.30623   231.62373
   118  H   1.0    0.10    1.07    1.44   423.01766   119.79640   232.72666
   119  H   1.0    0.05    1.05    1.44   427.68003   117.03187   232.70682
   120  H   1.0    0.04    1.00    1.43   424.94788   113.60648   230.80878
   121  H   1.0    0.04    1.00    1.43   423.62085   114.92122   233.57409
   122  H   1.0    0.06    1.00    1.43   422.43264   115.79633   230.57929
   123  N   5.0   -0.14    3.50    2.08   425.40603   118.84960   227.19535
   124  C   4.0    0.04    4.38    4.35   426.11276   119.21834   224.57046
   125  C   4.0    0.16    3.43    3.09   428.08842   121.33230   224.29445
   126  O   6.0   -0.30    1.23    1.80   429.89563   121.14418   222.86366
   127  C   4.0    0.03    4.13    3.87   423.76466   119.75745   222.95425
   128  O   6.0   -0.27    2.12    1.84   422.78433   122.20189   223.23722
   129  H   1.0    0.10    1.07    1.44   423.61312   119.22474   227.74692
   130  H   1.0    0.05    1.05    1.44   427.01059   117.48212   223.87571
   131  H   1.0    0.05    1.02    1.43   424.26205   119.57252   220.95827
   132  H   1.0    0.04    1.01    1.43   422.32471   118.32912   223.41107
   133  H   1.0    0.15    1.07    1.44   422.59101   122.65310   225.02484
   134  N   5.0   -0.13    3.52    2.09   427.67617   123.36793   225.72871
   135  C   4.0    0.04    4.35    4.29   429.23405   125.59872   225.50965
   136  C   4.0    0.15    3.48    3.10   431.84917   125.30285   226.68577
   137  O   6.0   -0.33    1.35    1.80   433.39381   127.03384   226.49969
   138  C   4.0   -0.07    4.11    3.83   427.86262   127.89899   226.55346
   139  H   1.0    0.12    1.11    1.45   426.12219   123.49284   226.84520
   140  H   1.0    0.05    1.06    1.44   429.63889   125.88906   223.49072
   141  H   1.0    0.04    1.00    1.43   429.03323   129.56216   226.28597
   142  H   1.0    0.05    1.00    1.43   426.07048   128.14743   225.58670
   143  H   1.0    0.05    1.00    1.43   427.50382   127.64215   228.55703
   144  N   5.0   -0.13    3.53    2.10   432.41192   123.10090   227.75957
   145  C   4.0    0.04    4.47    4.49   434.99061   122.48341   228.39999
   146  C   4.0    0.16    3.52    3.12   436.75487   123.07039   226.19154
   147  O   6.0   -0.31    1.28    1.80   438.93566   123.74387   226.59214
   148  C   4.0    0.05    4.23    4.06   435.29185   119.64619   229.08601
   149  O   6.0   -0.25    2.12    1.84   434.40534   118.10398   227.11393
   150  C   4.0   -0.07    4.07    3.74   434.05520   119.06583   231.62071
   151  H   1.0    0.11    1.09    1.44   431.04936   121.80641   228.09446
   152  H   1.0    0.05    1.05    1.44   435.64138   123.62561   230.00469
   153  H   1.0    0.05    1.04    1.43   437.33421   119.28854   229.20161
   154  H   1.0    0.15    1.06    1.44   432.63021   117.72289   227.38071
   155  H   1.0    0.04    1.00    1.43   434.15053   117.04374   231.96538
   156  H   1.0    0.04    1.00    1.43   435.04050   120.05289   233.12373
   157  H   1.0    0.07    1.00    1.43   432.08476   119.64705   231.60813
   158  N   5.0   -0.13    3.42    2.03   435.77898   122.81866   223.86998
   159  C   4.0    0.02    4.25    4.09   437.28230   123.33432   221.65307
   160  C   4.0    0.16    3.34    3.06   438.60423   125.91084   221.62934
   161  O   6.0   -0.31    1.23    1.80   440.35314   126.27715   220.15373
   162  H   1.0    0.10    1.07    1.44   434.05297   122.03046   223.61463
   163  H   1.0    0.05    1.02    1.43   438.78307   121.92318   221.42767
   164  H   1.0    0.04    1.03    1.43   436.05758   123.24716   219.99656
   165  N   5.0   -0.14    3.53    2.10   437.69079   127.70864   223.14777
   166  C   4.0    0.04    4.43    4.43   438.74485   130.22681   223.17587
   167  C   4.0    0.16    3.44    3.09   441.01382   130.57070   224.94221
   168  O   6.0   -0.30    1.24    1.80   442.22315   132.54091   224.90071
   169  C   4.0   -0.04    4.36    4.31   436.70199   132.15107   223.88462
   170  C   4.0   -0.02    4.19    3.98   434.52317   132.23815   221.97882
   171  C   4.0   -0.08    4.10    3.81   432.43100   133.99153   222.90966
   172  C   4.0   -0.08    4.12    3.84   435.44811   133.11912   219.40237
   173  H   1.0    0.11    1.11    1.45   436.23196   127.38052   224.35035
   174  H   1.0    0.06    1.07    1.44   439.47662   130.61413   221.27734
   175  H   1.0    0.06    1.03    1.43   435.97452   131.65996   225.75131
   176  H   1.0    0.05    1.03    1.43   437.59141   134.00622   224.02118
   177  H   1.0    0.05    1.06    1.44   433.73251   130.33428   221.80404
   178  H   1.0    0.03    1.00    1.43   430.87515   134.00377   221.56923
   179  H   1.0    0.04    1.00    1.43   431.72307   133.38342   224.74053
   180  H   1.0    0.04    1.00    1.43   433.11107   135.92251   223.09353
   181  H   1.0    0.03    1.00    1.43   433.86297   133.29211   218.11290
   182  H   1.0    0.04    1.00    1.43   436.33583   134.96074   219.58745
   183  H   1.0    0.04    1.00    1.43   436.80764   131.79394   218.61839
   184  N   5.0   -0.12    3.41    2.03   441.61234   128.60249   226.41947
   185  C   4.0    0.01    4.16    3.93   443.46782   128.90094   228.39499
   186  C   4.0    0.09    3.15    3.03   442.50655   130.80090   230.35585
   187  O   6.0   -0.28    1.21    1.80   440.38175   131.68988   230.23389
   188  H   1.0    0.11    1.10    1.44   440.50436   127.04070   226.45301
   189  H   1.0    0.04    1.02    1.43   443.80818   127.07514   229.28337
   190  H   1.0    0.05    1.02    1.43   445.22144   129.63814   227.58372
   191  N   5.0   -0.19    3.22    1.96   436.46217   132.90128   240.04141
   192  C   4.0    0.04    4.36    4.32   433.75983   132.47501   240.00983
   193  C   4.0    0.17    3.49    3.11   432.61810   133.68021   237.65776
   194  O   6.0   -0.29    1.24    1.80   433.49843   135.63420   236.77805
   195  C   4.0   -0.04    4.28    4.16   432.46318   133.62610   242.33258
   196  C   4.0    0.24    3.15    3.03   429.68538   132.73339   242.48784
   197  O   6.0   -0.33    1.35    1.80   428.07274   134.24769   243.30290
   198  O   6.0   -0.33    1.34    1.80   429.23111   130.52991   241.80776
   199  H   1.0    0.11    1.04    1.43   437.12144   134.18777   238.79144
   200  H   1.0    0.06    1.06    1.44   433.44412   130.43095   240.00710
   201  H   1.0    0.04    1.03    1.43   433.42997   132.94223   244.02315
   202  H   1.0    0.04    1.02    1.43   432.58506   135.68285   242.28063
   203  N   5.0   -0.13    3.53    2.10   430.49492   132.58508   236.84082
   204  C   4.0    0.03    4.36    4.31   429.17174   133.26036   234.54407
   205  C   4.0    0.14    3.44    3.09   426.33892   133.29723   235.17359
   206  O   6.0   -0.31    1.26    1.80   425.28320   131.38620   235.92435
   207  C   4.0   -0.04    4.24    4.08   429.60614   131.30854   232.38848
   208  C   4.0   -0.03    4.23    4.07   431.47032   129.16688   232.99381
   209  C   4.0    0.16    3.23    3.04   434.19712   130.08918   232.96034
   210  O   6.0   -0.28    1.27    1.80   435.29665   130.81730   234.86884
   211  N   5.0   -0.18    3.21    1.96   435.27114   130.06522   230.68073
   212  H   1.0    0.10    1.09    1.44   429.78237   131.10638   237.82591
   213  H   1.0    0.05    1.05    1.44   429.81249   135.14302   233.98624
   214  H   1.0    0.04    1.04    1.43   427.78486   130.44203   231.95660
   215  H   1.0    0.04    1.02    1.43   430.25251   132.30310   230.70356
   216  H   1.0    0.05    1.03    1.43   431.06122   128.35997   234.84011
   217  H   1.0    0.05    1.03    1.43   431.25723   127.70351   231.55936
   218  H   1.0    0.11    1.06    1.44   434.43143   129.24904   229.16845
   219  H   1.0    0.13    1.07    1.44   437.07195   130.69163   230.49202
   220  N   5.0   -0.14    3.46    2.05   425.12552   135.48323   234.81238
   221  C   4.0    0.03    4.42    4.42   422.45968   135.69531   235.42261
   222  C   4.0    0.14    3.37    3.07   421.17451   137.63295   233.70265
   223  O   6.0   -0.32    1.23    1.80   422.37319   139.14730   232.43344
   224  C   4.0   -0.04    4.26    4.11   422.07909   136.22484   238.26108
   225  C   4.0   -0.04    4.18    3.96   423.65584   138.42735   239.26677
   226  C   4.0   -0.05    4.18    3.96   423.63641   138.38372   242.16042
   227  C   4.0   -0.04    4.11    3.82   425.56773   140.14144   243.37205
   228  N   5.0   -0.12    4.03    2.93   428.17126   139.18365   242.93066
   229  H   1.0    0.08    1.06    1.44   426.04324   137.06863   234.25437
   230  H   1.0    0.05    1.07    1.44   421.62131   133.84416   235.00460
   231  H   1.0    0.04    1.03    1.43   420.08222   136.57506   238.62905
   232  H   1.0    0.06    1.03    1.43   422.64514   134.51008   239.26018
   233  H   1.0    0.05    1.03    1.43   425.58315   138.22827   238.55762
   234  H   1.0    0.04    1.02    1.43   422.90611   140.21281   238.54776
   235  H   1.0    0.03    1.03    1.43   421.75800   138.90605   242.81911
   236  H   1.0    0.06    1.03    1.43   424.03325   136.46277   242.79817
   237  H   1.0    0.03    1.02    1.43   425.38536   142.04793   242.61011
   238  H   1.0    0.03    1.02    1.43   425.24963   140.18466   245.40581
   239  H   1.0    0.05    1.02    1.43   429.46191   140.03963   244.08976
   240  H   1.0    0.10    1.14    1.45   428.21948   137.13068   243.23356
   241  H   1.0    0.06    1.02    1.43   428.71153   139.50133   241.09986
   242  N   5.0   -0.14    3.49    2.07   418.65380   137.34519   233.58518
   243  C   4.0    0.03    4.39    4.37   416.96054   138.94653   232.16029
   244  C   4.0    0.07    3.24    3.04   415.79376   140.89336   233.95041
   245  O   6.0   -0.30    1.13    1.80   415.10691   140.32508   236.08885
   246  C   4.0   -0.02    4.32    4.24   414.89121   137.35940   230.86603
   247  C   4.0   -0.05    4.19    3.98   416.12670   135.56095   228.95864
   248  C   4.0   -0.08    4.13    3.86   412.95068   139.10126   229.63338
   249  C   4.0   -0.08    4.01    3.64   414.27127   133.77708   227.66997
   250  H   1.0    0.08    1.07    1.44   417.80091   136.22535   234.87262
   251  H   1.0    0.04    1.06    1.44   418.08447   139.93581   230.73760
   252  H   1.0    0.05    1.05    1.44   413.93647   136.24105   232.32532
   253  H   1.0    0.03    1.03    1.43   417.10717   136.68110   227.52896
   254  H   1.0    0.05    1.03    1.43   417.55857   134.44151   229.93752
   255  H   1.0    0.04    1.00    1.43   411.63912   138.01656   228.49126
   256  H   1.0    0.04    1.00    1.43   411.84606   140.11456   231.04017
   257  H   1.0    0.03    1.00    1.43   413.89503   140.48723   228.44603
   258  H   1.0    0.04    1.01    1.43   415.31917   132.36216   226.61483
   259  H   1.0    0.06    1.00    1.43   413.08451   132.82715   229.05077
   260  H   1.0    0.03    1.00    1.43   413.05215   134.78947   226.36674
   261  N   5.0   -0.20    3.25    1.97   403.48446   140.79173   226.88455
   262  C   4.0    0.02    4.23    4.05   404.53988   140.37247   224.38963
   263  C   4.0    0.07    3.21    3.04   403.25174   142.23292   222.57431
   264  O   6.0   -0.30    1.13    1.80   401.08070   142.96024   222.93853
   265  C   4.0   -0.05    4.33    4.26   404.21140   137.64866   223.50094
   266  C   4.0   -0.03    4.18    3.95   406.19302   135.84038   224.59883
   267  C   4.0   -0.08    4.12    3.84   406.05813   135.71252   227.47660
   268  C   4.0   -0.08    4.11    3.81   405.82435   133.21355   223.46300
   269  H   1.0    0.08    1.02    1.43   401.86510   139.88204   227.33950
   270  H   1.0    0.03    1.05    1.44   406.55147   140.84436   224.49736
   271  H   1.0    0.04    1.03    1.43   402.31923   137.00337   224.00536
   272  H   1.0    0.03    1.03    1.43   404.36332   137.63285   221.44368
   273  H   1.0    0.03    1.05    1.44   408.06358   136.53598   224.05502
   274  H   1.0    0.06    1.01    1.43   407.34255   134.26842   228.17451
   275  H   1.0    0.03    1.01    1.43   406.57349   137.50230   228.34178
   276  H   1.0    0.04    1.00    1.43   404.14944   135.23600   228.07539
   277  H   1.0    0.04    1.00    1.43   407.23314   131.92027   224.20501
   278  H   1.0    0.03    1.00    1.43   403.96707   132.47962   223.94441
   279  H   1.0    0.03    1.00    1.43   405.98429   133.26710   221.41693
   280  N   5.0   -0.21    3.25    1.97   421.83970   144.39608   226.20532
   281  C   4.0    0.03    4.32    4.23   423.37674   142.63380   227.58985
   282  C   4.0    0.08    3.25    3.04   425.60066   144.04080   228.75521
   283  O   6.0   -0.30    1.13    1.80   426.77692   145.65465   227.57127
   284  C   4.0   -0.02    4.28    4.15   424.40490   140.56377   225.81293
   285  C   4.0   -0.08    4.12    3.84   426.14661   138.76304   227.23754
   286  C   4.0   -0.08    4.12    3.85   422.20281   139.13102   224.62070
   287  H   1.0    0.09    1.03    1.43   422.76947   145.52906   224.97031
   288  H   1.0    0.05    1.06    1.44   422.22766   141.78826   229.08093
   289  H   1.0    0.04    1.05    1.44   425.50451   141.52380   224.34171
   290  H   1.0    0.03    1.00    1.43   426.75939   137.24375   225.99878
   291  H   1.0    0.04    1.00    1.43   427.82798   139.74332   227.89980
   292  H   1.0    0.05    1.00    1.43   425.16868   137.96808   228.86052
   293  H   1.0    0.03    1.00    1.43   422.90343   137.66289   223.36786
   294  H   1.0    0.04    1.00    1.43   421.07993   138.24442   226.09615
   295  H   1.0    0.03    1.00    1.43   421.01049   140.40505   223.53461
   296  N   5.0   -0.21    3.24    1.97   414.52005   132.80668   213.88115
   297  C   4.0    0.03    4.40    4.38   413.99974   130.55587   215.34097
   298  C   4.0    0.14    3.41    3.08   411.77793   129.14514   214.14639
   299  O   6.0   -0.31    1.23    1.80   410.17287   130.19237   212.85183
   300  C   4.0   -0.02    4.25    4.10   413.55964   131.12729   218.17786
   301  C   4.0   -0.08    4.13    3.86   415.73836   132.70780   219.22000
   302  C   4.0   -0.08    4.11    3.83   411.05815   132.46536   218.66767
   303  H   1.0    0.09    1.03    1.43   413.00176   133.79575   213.24456
   304  H   1.0    0.05    1.06    1.44   415.66276   129.33216   215.22211
   305  H   1.0    0.05    1.06    1.44   413.54127   129.29055   219.12725
   306  H   1.0    0.03    1.00    1.43   415.56537   132.87653   221.25834
   307  H   1.0    0.03    1.00    1.43   417.54648   131.84252   218.77489
   308  H   1.0    0.03    1.00    1.43   415.71513   134.58967   218.39145
   309  H   1.0    0.03    1.00    1.43   410.88858   132.89987   220.66624
   310  H   1.0    0.04    1.00    1.43   410.95859   134.22264   217.60523
   311  H   1.0    0.05    1.00    1.43   409.47476   131.27282   218.12926
   312  N   5.0   -0.13    3.51    2.08   411.81986   126.65584   214.58157
   313  C   4.0    0.04    4.38    4.34   409.88904   124.94242   213.70711
   314  C   4.0    0.15    3.39    3.08   408.51151   123.80067   215.99890
   315  O   6.0   -0.31    1.28    1.80   409.41420   123.91236   218.12000
   316  C   4.0    0.03    4.13    3.86   411.07413   122.86810   212.04158
   317  O   6.0   -0.24    2.09    1.84   413.12170   121.75314   213.33819
   318  H   1.0    0.12    1.11    1.44   413.14731   125.90494   215.74660
   319  H   1.0    0.05    1.06    1.44   408.54328   126.04176   212.57921
   320  H   1.0    0.04    1.01    1.43   409.62341   121.46462   211.58982
   321  H   1.0    0.04    1.01    1.43   411.75244   123.74064   210.28343
   322  H   1.0    0.12    1.02    1.43   413.47076   120.11612   212.62533
   323  N   5.0   -0.15    3.47    2.06   406.26044   122.77217   215.47095
   324  C   4.0    0.04    4.50    4.54   404.57140   121.84884   217.41765
   325  C   4.0    0.15    3.44    3.09   403.57991   119.23600   216.68314
   326  O   6.0   -0.31    1.22    1.80   402.80948   118.78870   214.54989
   327  C   4.0   -0.02    4.26    4.12   402.35085   123.71883   217.76644
   328  C   4.0   -0.07    4.12    3.85   400.52035   122.75440   219.77386
   329  C   4.0   -0.07    4.13    3.85   403.36301   126.30871   218.53434
   330  H   1.0    0.08    1.06    1.44   405.60429   122.65928   213.68232
   331  H   1.0    0.07    1.08    1.44   405.63428   121.71791   219.17832
   332  H   1.0    0.04    1.05    1.44   401.37355   123.87806   215.95096
   333  H   1.0    0.03    1.00    1.43   399.02561   124.12465   220.09542
   334  H   1.0    0.06    1.00    1.43   399.68063   120.95613   219.24781
   335  H   1.0    0.06    1.00    1.43   401.50614   122.46737   221.55781
   336  H   1.0    0.03    1.00    1.43   401.81510   127.61776   218.85014
   337  H   1.0    0.05    1.00    1.43   404.42973   126.14032   220.28303
   338  H   1.0    0.05    1.00    1.43   404.59754   127.10212   217.09820
   339  N   5.0   -0.14    3.49    2.07   403.66208   117.52386   218.54756
   340  C   4.0    0.04    4.33    4.25   402.37302   115.10963   218.39202
   341  C   4.0    0.10    3.32    3.06   399.56399   115.73173   218.71873
   342  O   6.0   -0.31    1.19    1.80   398.70214   116.57968   220.69892
   343  C   4.0   -0.02    4.27    4.13   403.31787   113.33280   220.43473
   344  C   4.0    0.26    3.13    3.03   401.72778   110.87544   220.55484
   345  O   6.0   -0.28    1.16    1.80   402.81675   108.85830   221.00670
   346  O   6.0   -0.30    1.29    1.80   399.40034   111.13911   220.16174
   347  H   1.0    0.11    1.11    1.44   404.15298   118.10231   220.30173
   348  H   1.0    0.05    1.05    1.44   402.71457   114.30415   216.51419
   349  H   1.0    0.05    1.02    1.43   405.30635   112.85084   220.18018
   350  H   1.0    0.07    1.03    1.43   403.08596   114.22367   222.28411
   351  N   5.0   -0.21    3.24    1.97   395.55323   111.83572   223.96364
   352  C   4.0    0.04    4.34    4.27   395.90816   112.06737   226.65894
   353  C   4.0    0.16    3.45    3.10   397.03084   114.60005   227.53573
   354  O   6.0   -0.30    1.22    1.80   397.22601   115.07196   229.79766
   355  C   4.0   -0.03    4.31    4.21   397.46508   109.88733   227.75852
   356  C   4.0    0.17    3.25    3.04   400.29477   110.30230   227.40008
   357  O   6.0   -0.30    1.31    1.80   401.12483   112.14008   226.24828
   358  N   5.0   -0.18    3.19    1.95   401.74137   108.55379   228.48304
   359  H   1.0    0.13    1.05    1.44   397.09468   111.63149   222.82787
   360  H   1.0    0.04    1.06    1.44   393.99604   111.99261   227.47052
   361  H   1.0    0.04    1.03    1.43   397.11324   109.78150   229.78654
   362  H   1.0    0.04    1.03    1.43   396.91860   108.10790   226.87485
   363  H   1.0    0.13    1.08    1.44   403.67434   108.75111   228.57089
   364  H   1.0    0.08    1.03    1.43   400.95019   107.12598   229.45366
   365  N   5.0   -0.13    3.41    2.03   397.53671   116.23787   225.69522
   366  C   4.0    0.02    4.24    4.08   398.32225   118.80671   226.06596
   367  C   4.0    0.16    3.33    3.06   401.07224   119.32362   226.72358
   368  O   6.0   -0.32    1.31    1.80   401.71128   121.48654   227.31616
   369  H   1.0    0.12    1.12    1.45   397.58452   115.58163   223.89537
   370  H   1.0    0.05    1.03    1.43   397.95728   119.81864   224.30334
   371  H   1.0    0.05    1.03    1.43   397.17456   119.68008   227.55299
   372  N   5.0   -0.13    3.47    2.06   402.73730   117.44563   226.57454
   373  C   4.0    0.04    4.44    4.44   405.39549   117.91378   227.06072
   374  C   4.0    0.16    3.44    3.09   406.45302   119.78680   225.12508
   375  O   6.0   -0.31    1.29    1.80   405.60281   119.93934   222.97338
   376  C   4.0   -0.03    4.30    4.21   406.94278   115.48968   226.86799
   377  C   4.0   -0.03    4.17    3.95   406.44973   113.65251   229.01975
   378  C   4.0    0.25    3.11    3.03   407.94836   111.16255   228.57422
   379  O   6.0   -0.30    1.24    1.80   406.86505   109.13629   229.13760
   380  O   6.0   -0.30    1.19    1.80   410.13058   111.34612   227.72476
   381  H   1.0    0.11    1.09    1.44   402.16530   115.65507   226.21270
   382  H   1.0    0.06    1.05    1.44   405.62528   118.73720   228.95182
   383  H   1.0    0.06    1.03    1.43   406.51667   114.55065   225.07572
   384  H   1.0    0.06    1.03    1.43   408.95226   115.96074   226.87213
   385  H   1.0    0.06    1.02    1.43   407.07464   114.46405   230.81728
   386  H   1.0    0.07    1.03    1.43   404.44608   113.20094   229.17260
   387  N   5.0   -0.14    3.48    2.07   408.43038   121.11471   225.93887
   388  C   4.0    0.04    4.48    4.50   409.72256   123.03887   224.47446
   389  C   4.0    0.14    3.45    3.09   412.49950   122.33043   224.11735
   390  O   6.0   -0.32    1.32    1.80   413.83664   121.66031   225.90652
   391  C   4.0   -0.01    4.28    4.16   409.59850   125.59134   225.88467
   392  C   4.0   -0.07    4.12    3.85   411.16011   127.61790   224.55521
   393  C   4.0   -0.06    4.11    3.83   406.86544   126.45637   226.16874
   394  H   1.0    0.11    1.08    1.44   408.91691   120.96150   227.78052
   395  H   1.0    0.06    1.06    1.44   408.78690   123.16606   222.63707
   396  H   1.0    0.06    1.06    1.44   410.38696   125.24731   227.77033
   397  H   1.0    0.04    1.00    1.43   410.99619   129.37804   225.60110
   398  H   1.0    0.05    1.00    1.43   413.13991   127.07942   224.47526
   399  H   1.0    0.04    1.00    1.43   410.47431   127.88839   222.63804
   400  H   1.0    0.05    1.00    1.43   406.81429   128.18142   227.28169
   401  H   1.0    0.04    1.00    1.43   406.04267   126.82326   224.32198
   402  H   1.0    0.07    1.00    1.43   405.72544   125.02229   227.10588
   403  N   5.0   -0.13    3.47    2.06   413.42464   122.67981   221.80035
   404  C   4.0    0.04    4.46    4.48   416.04467   122.19512   221.20209
   405  C   4.0    0.15    3.42    3.08   417.11161   124.32107   219.56191
   406  O   6.0   -0.32    1.29    1.80   415.84237   125.34108   217.91343
   407  C   4.0    0.06    4.22    4.04   416.35489   119.64966   219.76024
   408  O   6.0   -0.24    2.13    1.84   414.49920   119.35177   217.89325
   409  C   4.0   -0.06    4.08    3.76   416.14348   117.42237   221.57816
   410  H   1.0    0.12    1.09    1.44   412.25229   123.13490   220.34603
   411  H   1.0    0.05    1.07    1.44   417.08625   122.06370   222.98206
   412  H   1.0    0.05    1.03    1.43   418.25814   119.64564   218.90017
   413  H   1.0    0.15    1.04    1.43   414.40282   120.83738   216.81863
   414  H   1.0    0.05    1.00    1.43   416.33911   115.66238   220.54160
   415  H   1.0    0.04    1.00    1.43   417.59878   117.52570   223.02168
   416  H   1.0    0.06    1.00    1.43   414.30098   117.42411   222.48797
   417  N   5.0   -0.14    3.47    2.06   419.49460   124.95932   220.07452
   418  C   4.0    0.03    4.32    4.24   420.87711   126.79205   218.55385
   419  C   4.0    0.08    3.24    3.04   421.23806   125.65405   215.91816
   420  O   6.0   -0.29    1.12    1.80   422.47141   123.71553   215.57293
   421  C   4.0   -0.04    4.35    4.29   423.39721   127.34988   219.84360
   422  C   4.0   -0.03    4.19    3.97   425.06385   129.21049   218.37850
   423  C   4.0   -0.09    4.11    3.82   423.87015   131.80949   218.02995
   424  C   4.0   -0.08    4.11    3.83   427.58733   129.53345   219.74530
   425  H   1.0    0.10    1.11    1.45   420.57161   123.87587   221.25175
   426  H   1.0    0.04    1.05    1.44   419.71083   128.48874   218.38764
   427  H   1.0    0.04    1.03    1.43   423.02206   128.07502   221.73491
   428  H   1.0    0.06    1.03    1.43   424.40230   125.55643   220.03853
   429  H   1.0    0.04    1.06    1.44   425.39558   128.41743   216.49931
   430  H   1.0    0.03    1.01    1.43   425.28535   133.06210   217.22585
   431  H   1.0    0.03    1.00    1.43   422.26081   131.75085   216.75534
   432  H   1.0    0.03    1.00    1.43   423.28671   132.58734   219.83648
   433  H   1.0    0.03    1.00    1.43   428.91693   130.56776   218.56826
   434  H   1.0    0.03    1.00    1.43   427.31135   130.57092   221.49334
   435  H   1.0    0.04    1.00    1.43   428.43639   127.71830   220.20173
   436  H   1.0    0.08    1.08    1.44   395.09667   126.42435   229.98096
   437  H   1.0    0.05    1.04    1.44   443.62814   131.34028   231.77788
   438  H   1.0    0.08    1.08    1.44   436.93174   133.45426   241.57968
   439  H   1.0    0.04    1.05    1.44   415.57428   142.68351   233.38625
   440  H   1.0    0.08    1.08    1.44   404.60878   140.30764   228.06528
   441  H   1.0    0.04    1.04    1.43   404.18384   142.87509   221.06107
   442  H   1.0    0.08    1.09    1.44   420.68561   143.54586   225.29002
   443  H   1.0    0.05    1.05    1.44   426.13634   143.65950   230.52685
   444  H   1.0    0.08    1.09    1.44   415.41834   133.90016   214.82451
   445  H   1.0    0.06    1.05    1.44   398.36119   115.44944   217.28882
   446  H   1.0    0.09    1.08    1.44   394.59920   110.46731   223.63218
   447  H   1.0    0.05    1.04    1.44   420.45917   126.49031   214.41315

  Z AO/shell   Hii/eV     exponent
  1     Wed Apr 25 08:07:45 CEST 2018   EN: 2.200 GM2: 0.406  GM3: 0.0800  RAES: 1.40
     1s    -10.707211    1.230000
  6     Wed Apr 25 08:07:45 CEST 2018   EN: 2.550 GM2: 0.538  GM3: 0.1500  RAES: 3.00
     2s    -13.970922    2.096432
     2p    -10.063292    1.800000
  7     Wed Apr 25 08:07:45 CEST 2018   EN: 3.040 GM2: 0.461  GM3:-0.0640  RAES: 1.90
     2s    -16.686243    2.339881
     2p    -12.523956    2.014332
  8     Wed Apr 25 08:07:45 CEST 2018   EN: 3.440 GM2: 0.452  GM3:-0.0517  RAES: 1.80
     2s    -20.229985    2.439742
     2p    -15.503117    2.137023
 no old-style atom pair restraining (fixing) potential

molecular fragmentation (1/2 indicates fragments):
111111111111111111111111111111111111111111111111111111111111111111111111
111111111111111111111111111111111111111111111111111111111111111111111111
111111111111111111111111111111111111111111111122222222222222222222222222
222222222222222222222222222222222222222222222222222222222222222222222222
222222222222222222222222222222222222222222222222222222222222222222222222
222222222222222222222222222222222222222222222222222222222222222222222222
222112222222222
# atoms in fragment 1/2:   192   255
 fragment masses (1/2) :     1365.50     1719.00
CMA distance (Bohr)    :   8.932
constraining FC (au)   :  0.0500
           ------------------------------------------------- 
          |        Self-Consistent Charge Iterations        |
           ------------------------------------------------- 

 Ncao       : 1095
 Nao        : 1095
 Nshell     : 663
 Nel        : 1226
 T(el)      :   500.0
 intcut     :    35.0
 scfconv/Eh :  0.100E-06
   qconv/e  :  0.100E-04
 intneglect :  0.100E-08
 broydamp   :      0.400
 iter      E             dE          RMSdq      gap      omega  full diag
   1   -705.6283933 -0.705628E+03  0.469E+00    3.37       0.0  T
   2   -707.4663598 -0.183797E+01  0.216E+00    1.80       1.0  T
   3   -707.5849353 -0.118575E+00  0.124E+00    2.06       1.0  T
   4   -707.6924402 -0.107505E+00  0.261E-01    1.40       1.0  T
   5   -707.6990553 -0.661509E-02  0.131E-01    1.58       1.0  T
   6   -707.7001547 -0.109935E-02  0.570E-02    1.53       1.0  T
   7   -707.7005574 -0.402786E-03  0.257E-02    1.52       1.0  T
   8   -707.7006042 -0.467176E-04  0.132E-02    1.52       1.0  T
   9   -707.7006282 -0.240492E-04  0.590E-03    1.51       1.0  T
  10   -707.7006318 -0.359521E-05  0.273E-03    1.51       1.7  T
  11   -707.7006326 -0.762323E-06  0.114E-03    1.51       4.2  T
  12   -707.7006327 -0.103276E-06  0.507E-04    1.51       9.3  T
  13   -707.7006327 -0.314529E-07  0.242E-04    1.51      19.5  T
  14   -707.7006327 -0.575324E-08  0.109E-04    1.51      43.5  T
  15   -707.7006327 -0.149328E-08  0.428E-05    1.51     110.6  T
  16   -707.7006327 -0.188152E-09  0.195E-05    1.51     242.4  T
speedup 13.21
cpu  time for SCC   45.11 s
wall time for SCC    3.41 s

   *** convergence criteria satisfied after 16 iterations ***

          eigenvalues
 #    :         601        602        603        604        605        606        607        608
 occ. :        2.000      2.000      2.000      2.000      2.000      2.000      2.000      2.000
 eps  :       -10.693    -10.640    -10.568    -10.464    -10.390    -10.377    -10.195    -10.159
 #    :         609        610        611        612        613        614        615        616
 occ. :        2.000      2.000      2.000      2.000      2.000      0.000      0.000      0.000
 eps  :       -10.024     -9.731     -9.698     -9.692     -9.527     -8.013     -7.942     -7.860
 #    :         617        618        619        620        621        622        623        624
 occ. :        0.000      0.000      0.000      0.000      0.000      0.000      0.000      0.000
 eps  :        -7.672     -7.504     -7.398     -6.879     -6.795     -6.754     -6.669     -6.604


   #   Z            q   n(s)   n(p)   n(d)      C6AA      α(0)
   1   7 N     -0.401  1.328  4.073  0.000    30.393     8.188
   2   6 C      0.032  1.058  2.910  0.000    20.047     6.377
   3   6 C      0.272  1.051  2.677  0.000    22.396     7.750
   4   8 O     -0.486  1.733  4.753  0.000    23.487     6.498
   5   6 C     -0.069  1.059  3.010  0.000    21.808     6.647
   6   6 C     -0.010  1.057  2.953  0.000    20.715     6.474
   7   6 C     -0.113  1.042  3.072  0.000    22.723     6.796
   8   6 C     -0.112  1.038  3.073  0.000    22.691     6.792
   9   1 H      0.170  0.830  0.000  0.000     1.274     1.768
  10   1 H      0.034  0.966  0.000  0.000     2.528     2.486
  11   1 H      0.047  0.953  0.000  0.000     2.357     2.401
  12   1 H      0.026  0.974  0.000  0.000     2.640     2.541
  13   1 H      0.034  0.966  0.000  0.000     2.531     2.488
  14   1 H      0.048  0.952  0.000  0.000     2.343     2.393
  15   1 H      0.044  0.956  0.000  0.000     2.401     2.423
  16   1 H      0.043  0.957  0.000  0.000     2.413     2.429
  17   1 H      0.049  0.951  0.000  0.000     2.328     2.386
  18   1 H      0.037  0.963  0.000  0.000     2.492     2.468
  19   1 H      0.022  0.978  0.000  0.000     2.701     2.570
  20   7 N     -0.207  1.265  3.942  0.000    25.511     7.501
  21   6 C      0.043  1.053  2.905  0.000    19.853     6.344
  22   6 C      0.283  1.046  2.672  0.000    22.212     7.718
  23   8 O     -0.497  1.749  4.747  0.000    23.716     6.529
  24   6 C     -0.085  1.060  3.025  0.000    22.118     6.695
  25   6 C      0.372  1.025  2.603  0.000    20.699     7.446
  26   8 O     -0.612  1.743  4.869  0.000    26.424     6.892
  27   8 O     -0.612  1.774  4.838  0.000    26.410     6.890
  28   1 H      0.204  0.796  0.000  0.000     1.084     1.631
  29   1 H      0.072  0.928  0.000  0.000     2.064     2.247
  30   1 H      0.036  0.964  0.000  0.000     2.505     2.475
  31   1 H      0.006  0.994  0.000  0.000     2.950     2.686
  32   7 N     -0.194  1.252  3.942  0.000    25.215     7.458
  33   6 C      0.033  1.055  2.912  0.000    20.020     6.371
  34   6 C      0.264  1.045  2.691  0.000    22.549     7.776
  35   8 O     -0.475  1.727  4.747  0.000    23.231     6.462
  36   6 C     -0.112  1.064  3.048  0.000    22.639     6.773
  37   6 C      0.287  1.035  2.678  0.000    22.134     7.703
  38   8 O     -0.455  1.734  4.721  0.000    22.815     6.404
  39   7 N     -0.268  1.259  4.009  0.000    26.930     7.707
  40   1 H      0.215  0.785  0.000  0.000     1.031     1.590
  41   1 H      0.081  0.919  0.000  0.000     1.972     2.196
  42   1 H      0.085  0.915  0.000  0.000     1.930     2.172
  43   1 H      0.114  0.886  0.000  0.000     1.664     2.017
  44   1 H      0.217  0.783  0.000  0.000     1.023     1.584
  45   1 H      0.214  0.786  0.000  0.000     1.038     1.596
  46   7 N     -0.192  1.258  3.934  0.000    25.167     7.451
  47   6 C      0.009  1.069  2.923  0.000    20.431     6.436
  48   6 C      0.275  1.042  2.683  0.000    22.348     7.741
  49   8 O     -0.449  1.717  4.731  0.000    22.677     6.385
  50   6 C      0.080  1.035  2.886  0.000    19.462     6.319
  51   8 O     -0.461  1.704  4.757  0.000    22.080     6.343
  52   1 H      0.218  0.782  0.000  0.000     1.018     1.581
  53   1 H      0.106  0.894  0.000  0.000     1.733     2.059
  54   1 H      0.013  0.987  0.000  0.000     2.845     2.638
  55   1 H      0.070  0.930  0.000  0.000     2.086     2.259
  56   1 H      0.328  0.672  0.000  0.000     0.643     1.260
  57   7 N     -0.178  1.233  3.945  0.000    24.863     7.406
  58   6 C      0.015  1.065  2.920  0.000    20.326     6.420
  59   6 C      0.272  1.040  2.688  0.000    22.408     7.752
  60   8 O     -0.500  1.730  4.770  0.000    23.785     6.539
  61   6 C      0.136  1.042  2.823  0.000    18.474     6.136
  62   8 O     -0.504  1.732  4.772  0.000    22.977     6.471
  63   6 C     -0.118  1.040  3.078  0.000    22.821     6.812
  64   1 H      0.182  0.818  0.000  0.000     1.201     1.716
  65   1 H      0.073  0.927  0.000  0.000     2.051     2.240
  66   1 H      0.019  0.981  0.000  0.000     2.745     2.591
  67   1 H      0.329  0.671  0.000  0.000     0.640     1.256
  68   1 H      0.051  0.949  0.000  0.000     2.313     2.378
  69   1 H      0.056  0.944  0.000  0.000     2.248     2.345
  70   1 H      0.042  0.958  0.000  0.000     2.426     2.436
  71   7 N     -0.168  1.244  3.924  0.000    24.632     7.371
  72   6 C      0.030  1.059  2.911  0.000    20.069     6.378
  73   6 C      0.278  1.044  2.678  0.000    22.292     7.732
  74   8 O     -0.486  1.723  4.763  0.000    23.484     6.497
  75   6 C     -0.082  1.055  3.027  0.000    22.060     6.685
  76   6 C      0.007  1.079  2.914  0.000    27.863     8.658
  77   6 C     -0.038  1.079  2.959  0.000    28.936     8.821
  78   6 C     -0.046  1.081  2.965  0.000    29.142     8.853
  79   6 C     -0.036  1.081  2.955  0.000    28.894     8.815
  80   6 C     -0.035  1.080  2.955  0.000    28.865     8.810
  81   6 C     -0.036  1.082  2.954  0.000    28.889     8.814
  82   1 H      0.213  0.787  0.000  0.000     1.041     1.598
  83   1 H      0.065  0.935  0.000  0.000     2.146     2.291
  84   1 H      0.062  0.938  0.000  0.000     2.180     2.309
  85   1 H      0.077  0.923  0.000  0.000     2.010     2.217
  86   1 H      0.021  0.979  0.000  0.000     2.712     2.575
  87   1 H      0.044  0.956  0.000  0.000     2.392     2.419
  88   1 H      0.057  0.943  0.000  0.000     2.232     2.336
  89   1 H      0.049  0.951  0.000  0.000     2.328     2.386
  90   1 H      0.064  0.936  0.000  0.000     2.148     2.292
  91   7 N     -0.161  1.236  3.925  0.000    24.477     7.348
  92   6 C      0.013  1.063  2.925  0.000    20.363     6.425
  93   6 C      0.270  1.043  2.687  0.000    22.434     7.756
  94   8 O     -0.475  1.738  4.738  0.000    23.240     6.463
  95   6 C     -0.092  1.059  3.034  0.000    22.259     6.716
  96   6 C     -0.080  1.049  3.031  0.000    22.025     6.682
  97   6 C     -0.094  1.055  3.039  0.000    22.287     6.721
  98   6 C     -0.042  1.056  2.986  0.000    21.415     6.606
  99   7 N     -0.167  1.240  3.927  0.000    24.597     7.366
 100   1 H      0.216  0.784  0.000  0.000     1.030     1.590
 101   1 H      0.088  0.912  0.000  0.000     1.902     2.157
 102   1 H      0.078  0.922  0.000  0.000     2.004     2.214
 103   1 H      0.102  0.898  0.000  0.000     1.768     2.079
 104   1 H      0.057  0.943  0.000  0.000     2.232     2.336
 105   1 H      0.052  0.948  0.000  0.000     2.300     2.372
 106   1 H      0.087  0.913  0.000  0.000     1.908     2.160
 107   1 H      0.075  0.925  0.000  0.000     2.028     2.227
 108   1 H      0.108  0.892  0.000  0.000     1.717     2.049
 109   1 H      0.102  0.898  0.000  0.000     1.768     2.079
 110   1 H      0.286  0.714  0.000  0.000     0.756     1.362
 111   1 H      0.306  0.694  0.000  0.000     0.696     1.307
 112   1 H      0.284  0.716  0.000  0.000     0.764     1.369
 113   7 N     -0.174  1.246  3.928  0.000    24.762     7.391
 114   6 C      0.020  1.061  2.919  0.000    20.243     6.406
 115   6 C      0.280  1.043  2.678  0.000    22.269     7.728
 116   8 O     -0.480  1.735  4.744  0.000    23.345     6.478
 117   6 C     -0.136  1.042  3.094  0.000    23.166     6.863
 118   1 H      0.201  0.799  0.000  0.000     1.102     1.644
 119   1 H      0.094  0.906  0.000  0.000     1.845     2.124
 120   1 H      0.068  0.932  0.000  0.000     2.112     2.273
 121   1 H      0.076  0.924  0.000  0.000     2.020     2.222
 122   1 H      0.057  0.943  0.000  0.000     2.232     2.336
 123   7 N     -0.185  1.243  3.943  0.000    25.018     7.429
 124   6 C      0.007  1.065  2.928  0.000    20.467     6.442
 125   6 C      0.277  1.038  2.686  0.000    22.322     7.737
 126   8 O     -0.489  1.744  4.745  0.000    23.533     6.504
 127   6 C      0.069  1.037  2.894  0.000    19.640     6.349
 128   8 O     -0.467  1.700  4.767  0.000    22.203     6.361
 129   1 H      0.209  0.791  0.000  0.000     1.063     1.615
 130   1 H      0.080  0.920  0.000  0.000     1.978     2.199
 131   1 H      0.071  0.929  0.000  0.000     2.077     2.254
 132   1 H      0.032  0.968  0.000  0.000     2.561     2.503
 133   1 H      0.339  0.661  0.000  0.000     0.615     1.232
 134   7 N     -0.184  1.248  3.936  0.000    24.979     7.423
 135   6 C      0.022  1.056  2.922  0.000    20.203     6.400
 136   6 C      0.265  1.046  2.689  0.000    22.524     7.772
 137   8 O     -0.489  1.730  4.758  0.000    23.536     6.504
 138   6 C     -0.132  1.042  3.090  0.000    23.084     6.850
 139   1 H      0.233  0.767  0.000  0.000     0.953     1.529
 140   1 H      0.088  0.912  0.000  0.000     1.896     2.154
 141   1 H      0.090  0.910  0.000  0.000     1.878     2.143
 142   1 H      0.080  0.920  0.000  0.000     1.983     2.202
 143   1 H      0.059  0.941  0.000  0.000     2.210     2.325
 144   7 N     -0.159  1.234  3.925  0.000    24.436     7.342
 145   6 C      0.005  1.068  2.927  0.000    20.489     6.445
 146   6 C      0.278  1.040  2.681  0.000    22.291     7.732
 147   8 O     -0.490  1.737  4.753  0.000    23.558     6.508
 148   6 C      0.115  1.046  2.839  0.000    18.788     6.188
 149   8 O     -0.486  1.721  4.765  0.000    22.585     6.415
 150   6 C     -0.147  1.047  3.100  0.000    23.392     6.897
 151   1 H      0.213  0.787  0.000  0.000     1.041     1.598
 152   1 H      0.082  0.918  0.000  0.000     1.957     2.188
 153   1 H      0.050  0.950  0.000  0.000     2.325     2.384
 154   1 H      0.334  0.666  0.000  0.000     0.627     1.244
 155   1 H      0.068  0.932  0.000  0.000     2.112     2.273
 156   1 H      0.068  0.932  0.000  0.000     2.112     2.273
 157   1 H      0.071  0.929  0.000  0.000     2.077     2.254
 158   7 N     -0.166  1.237  3.930  0.000    24.594     7.365
 159   6 C     -0.031  1.051  2.980  0.000    21.205     6.569
 160   6 C      0.281  1.037  2.682  0.000    22.243     7.723
 161   8 O     -0.507  1.751  4.755  0.000    23.930     6.559
 162   1 H      0.215  0.785  0.000  0.000     1.035     1.593
 163   1 H      0.087  0.913  0.000  0.000     1.905     2.158
 164   1 H      0.094  0.906  0.000  0.000     1.838     2.120
 165   7 N     -0.178  1.243  3.935  0.000    24.862     7.405
 166   6 C      0.018  1.060  2.922  0.000    20.276     6.412
 167   6 C      0.277  1.043  2.680  0.000    22.313     7.736
 168   8 O     -0.500  1.747  4.752  0.000    23.778     6.538
 169   6 C     -0.075  1.058  3.017  0.000    21.921     6.664
 170   6 C     -0.014  1.057  2.957  0.000    20.793     6.486
 171   6 C     -0.121  1.043  3.078  0.000    22.867     6.818
 172   6 C     -0.117  1.040  3.077  0.000    22.789     6.806
 173   1 H      0.220  0.780  0.000  0.000     1.009     1.573
 174   1 H      0.080  0.920  0.000  0.000     1.983     2.202
 175   1 H      0.056  0.944  0.000  0.000     2.246     2.343
 176   1 H      0.062  0.938  0.000  0.000     2.177     2.308
 177   1 H      0.037  0.963  0.000  0.000     2.486     2.466
 178   1 H      0.055  0.945  0.000  0.000     2.253     2.347
 179   1 H      0.042  0.958  0.000  0.000     2.429     2.437
 180   1 H      0.045  0.955  0.000  0.000     2.384     2.415
 181   1 H      0.048  0.952  0.000  0.000     2.344     2.394
 182   1 H      0.044  0.956  0.000  0.000     2.400     2.422
 183   1 H      0.029  0.971  0.000  0.000     2.601     2.522
 184   7 N     -0.169  1.236  3.932  0.000    24.650     7.374
 185   6 C     -0.030  1.053  2.978  0.000    21.187     6.566
 186   6 C      0.205  1.083  2.712  0.000    23.653     7.965
 187   8 O     -0.361  1.747  4.615  0.000    20.924     6.133
 188   1 H      0.216  0.784  0.000  0.000     1.026     1.587
 189   1 H      0.122  0.878  0.000  0.000     1.597     1.976
 190   1 H      0.117  0.883  0.000  0.000     1.642     2.004
 191   7 N     -0.393  1.323  4.070  0.000    30.177     8.159
 192   6 C      0.041  1.055  2.904  0.000    19.903     6.354
 193   6 C      0.290  1.044  2.666  0.000    22.082     7.695
 194   8 O     -0.513  1.749  4.764  0.000    24.083     6.580
 195   6 C     -0.116  1.073  3.042  0.000    22.707     6.784
 196   6 C      0.360  1.027  2.613  0.000    20.885     7.479
 197   8 O     -0.554  1.741  4.814  0.000    25.017     6.706
 198   8 O     -0.575  1.736  4.839  0.000    25.502     6.771
 199   1 H      0.154  0.846  0.000  0.000     1.377     1.838
 200   1 H      0.048  0.952  0.000  0.000     2.346     2.395
 201   1 H      0.057  0.943  0.000  0.000     2.237     2.339
 202   1 H      0.033  0.967  0.000  0.000     2.546     2.495
 203   7 N     -0.181  1.238  3.943  0.000    24.917     7.414
 204   6 C      0.019  1.062  2.919  0.000    20.264     6.411
 205   6 C      0.263  1.045  2.692  0.000    22.566     7.779
 206   8 O     -0.459  1.734  4.724  0.000    22.885     6.414
 207   6 C     -0.070  1.057  3.012  0.000    21.838     6.653
 208   6 C     -0.097  1.057  3.040  0.000    22.355     6.731
 209   6 C      0.288  1.035  2.677  0.000    22.121     7.701
 210   8 O     -0.500  1.758  4.742  0.000    23.782     6.538
 211   7 N     -0.291  1.270  4.021  0.000    27.514     7.790
 212   1 H      0.209  0.791  0.000  0.000     1.062     1.614
 213   1 H      0.062  0.938  0.000  0.000     2.177     2.307
 214   1 H      0.066  0.934  0.000  0.000     2.130     2.283
 215   1 H      0.058  0.942  0.000  0.000     2.219     2.330
 216   1 H      0.071  0.929  0.000  0.000     2.080     2.255
 217   1 H      0.058  0.942  0.000  0.000     2.228     2.334
 218   1 H      0.220  0.780  0.000  0.000     1.007     1.572
 219   1 H      0.221  0.779  0.000  0.000     1.007     1.572
 220   7 N     -0.159  1.235  3.924  0.000    24.433     7.341
 221   6 C      0.008  1.065  2.927  0.000    20.444     6.438
 222   6 C      0.266  1.042  2.692  0.000    22.506     7.768
 223   8 O     -0.463  1.741  4.722  0.000    22.979     6.427
 224   6 C     -0.080  1.058  3.022  0.000    22.021     6.681
 225   6 C     -0.072  1.049  3.023  0.000    21.875     6.659
 226   6 C     -0.093  1.054  3.038  0.000    22.264     6.717
 227   6 C     -0.036  1.055  2.981  0.000    21.319     6.591
 228   7 N     -0.178  1.248  3.930  0.000    24.848     7.404
 229   1 H      0.206  0.794  0.000  0.000     1.074     1.623
 230   1 H      0.084  0.916  0.000  0.000     1.942     2.179
 231   1 H      0.057  0.943  0.000  0.000     2.230     2.335
 232   1 H      0.073  0.927  0.000  0.000     2.052     2.240
 233   1 H      0.043  0.957  0.000  0.000     2.405     2.425
 234   1 H      0.051  0.949  0.000  0.000     2.307     2.375
 235   1 H      0.077  0.923  0.000  0.000     2.007     2.215
 236   1 H      0.084  0.916  0.000  0.000     1.936     2.176
 237   1 H      0.102  0.898  0.000  0.000     1.765     2.078
 238   1 H      0.110  0.890  0.000  0.000     1.700     2.039
 239   1 H      0.271  0.729  0.000  0.000     0.806     1.406
 240   1 H      0.303  0.697  0.000  0.000     0.703     1.314
 241   1 H      0.251  0.749  0.000  0.000     0.880     1.469
 242   7 N     -0.165  1.240  3.925  0.000    24.575     7.363
 243   6 C      0.019  1.063  2.918  0.000    20.269     6.411
 244   6 C      0.200  1.087  2.713  0.000    23.739     7.979
 245   8 O     -0.364  1.756  4.608  0.000    20.979     6.141
 246   6 C     -0.020  1.068  2.952  0.000    20.901     6.502
 247   6 C     -0.065  1.052  3.014  0.000    21.753     6.640
 248   6 C     -0.124  1.038  3.086  0.000    22.933     6.828
 249   6 C     -0.115  1.036  3.079  0.000    22.759     6.803
 250   1 H      0.207  0.793  0.000  0.000     1.070     1.621
 251   1 H      0.091  0.909  0.000  0.000     1.869     2.138
 252   1 H      0.051  0.949  0.000  0.000     2.307     2.375
 253   1 H      0.050  0.950  0.000  0.000     2.315     2.379
 254   1 H      0.041  0.959  0.000  0.000     2.440     2.443
 255   1 H      0.063  0.937  0.000  0.000     2.166     2.302
 256   1 H      0.038  0.962  0.000  0.000     2.480     2.463
 257   1 H      0.057  0.943  0.000  0.000     2.232     2.337
 258   1 H      0.039  0.961  0.000  0.000     2.462     2.453
 259   1 H      0.044  0.956  0.000  0.000     2.398     2.422
 260   1 H      0.043  0.957  0.000  0.000     2.412     2.428
 261   7 N     -0.382  1.314  4.068  0.000    29.878     8.118
 262   6 C      0.037  1.058  2.905  0.000    19.972     6.366
 263   6 C      0.197  1.090  2.713  0.000    23.799     7.990
 264   8 O     -0.372  1.760  4.612  0.000    21.127     6.162
 265   6 C     -0.068  1.059  3.010  0.000    21.798     6.646
 266   6 C     -0.009  1.058  2.951  0.000    20.706     6.472
 267   6 C     -0.118  1.040  3.078  0.000    22.813     6.810
 268   6 C     -0.113  1.040  3.073  0.000    22.723     6.796
 269   1 H      0.155  0.845  0.000  0.000     1.369     1.833
 270   1 H      0.064  0.936  0.000  0.000     2.150     2.293
 271   1 H      0.045  0.955  0.000  0.000     2.386     2.415
 272   1 H      0.035  0.965  0.000  0.000     2.510     2.478
 273   1 H      0.039  0.961  0.000  0.000     2.465     2.455
 274   1 H      0.057  0.943  0.000  0.000     2.236     2.339
 275   1 H      0.043  0.957  0.000  0.000     2.403     2.424
 276   1 H      0.029  0.971  0.000  0.000     2.604     2.524
 277   1 H      0.045  0.955  0.000  0.000     2.385     2.415
 278   1 H      0.028  0.972  0.000  0.000     2.617     2.530
 279   1 H      0.035  0.965  0.000  0.000     2.520     2.483
 280   7 N     -0.387  1.318  4.069  0.000    30.018     8.137
 281   6 C      0.031  1.059  2.911  0.000    20.073     6.381
 282   6 C      0.205  1.087  2.708  0.000    23.637     7.963
 283   8 O     -0.393  1.761  4.632  0.000    21.544     6.223
 284   6 C     -0.014  1.064  2.949  0.000    20.782     6.484
 285   6 C     -0.122  1.041  3.081  0.000    22.891     6.822
 286   6 C     -0.117  1.041  3.076  0.000    22.798     6.808
 287   1 H      0.154  0.846  0.000  0.000     1.372     1.835
 288   1 H      0.075  0.925  0.000  0.000     2.033     2.230
 289   1 H      0.032  0.968  0.000  0.000     2.558     2.501
 290   1 H      0.052  0.948  0.000  0.000     2.293     2.368
 291   1 H      0.027  0.973  0.000  0.000     2.629     2.536
 292   1 H      0.057  0.943  0.000  0.000     2.229     2.335
 293   1 H      0.054  0.946  0.000  0.000     2.268     2.355
 294   1 H      0.049  0.951  0.000  0.000     2.333     2.388
 295   1 H      0.041  0.959  0.000  0.000     2.434     2.440
 296   7 N     -0.391  1.319  4.072  0.000    30.123     8.151
 297   6 C      0.025  1.063  2.912  0.000    20.162     6.395
 298   6 C      0.275  1.046  2.679  0.000    22.350     7.741
 299   8 O     -0.501  1.747  4.754  0.000    23.805     6.541
 300   6 C     -0.023  1.063  2.960  0.000    20.943     6.509
 301   6 C     -0.117  1.041  3.076  0.000    22.802     6.808
 302   6 C     -0.107  1.036  3.071  0.000    22.591     6.777
 303   1 H      0.154  0.846  0.000  0.000     1.375     1.837
 304   1 H      0.045  0.955  0.000  0.000     2.385     2.415
 305   1 H      0.025  0.975  0.000  0.000     2.661     2.551
 306   1 H      0.060  0.940  0.000  0.000     2.199     2.319
 307   1 H      0.042  0.958  0.000  0.000     2.426     2.436
 308   1 H      0.053  0.947  0.000  0.000     2.283     2.363
 309   1 H      0.054  0.946  0.000  0.000     2.272     2.357
 310   1 H      0.046  0.954  0.000  0.000     2.375     2.410
 311   1 H      0.012  0.988  0.000  0.000     2.861     2.645
 312   7 N     -0.183  1.242  3.941  0.000    24.959     7.420
 313   6 C      0.015  1.059  2.925  0.000    20.326     6.420
 314   6 C      0.275  1.043  2.682  0.000    22.358     7.743
 315   8 O     -0.472  1.733  4.740  0.000    23.179     6.455
 316   6 C      0.070  1.041  2.889  0.000    19.627     6.348
 317   8 O     -0.477  1.716  4.761  0.000    22.395     6.388
 318   1 H      0.232  0.768  0.000  0.000     0.957     1.533
 319   1 H      0.079  0.921  0.000  0.000     1.994     2.208
 320   1 H      0.036  0.964  0.000  0.000     2.496     2.471
 321   1 H      0.062  0.938  0.000  0.000     2.175     2.306
 322   1 H      0.348  0.652  0.000  0.000     0.594     1.211
 323   7 N     -0.171  1.241  3.930  0.000    24.698     7.381
 324   6 C      0.012  1.066  2.922  0.000    20.373     6.427
 325   6 C      0.273  1.044  2.683  0.000    22.383     7.747
 326   8 O     -0.484  1.738  4.747  0.000    23.441     6.491
 327   6 C     -0.013  1.063  2.951  0.000    20.780     6.484
 328   6 C     -0.110  1.036  3.074  0.000    22.651     6.786
 329   6 C     -0.111  1.039  3.073  0.000    22.684     6.791
 330   1 H      0.209  0.791  0.000  0.000     1.060     1.613
 331   1 H      0.083  0.917  0.000  0.000     1.952     2.185
 332   1 H      0.053  0.947  0.000  0.000     2.285     2.364
 333   1 H      0.066  0.934  0.000  0.000     2.131     2.283
 334   1 H      0.017  0.983  0.000  0.000     2.773     2.604
 335   1 H      0.034  0.966  0.000  0.000     2.531     2.488
 336   1 H      0.067  0.933  0.000  0.000     2.123     2.279
 337   1 H      0.040  0.960  0.000  0.000     2.450     2.448
 338   1 H      0.045  0.955  0.000  0.000     2.387     2.416
 339   7 N     -0.192  1.265  3.927  0.000    25.173     7.452
 340   6 C      0.051  1.053  2.896  0.000    19.729     6.325
 341   6 C      0.215  1.084  2.701  0.000    23.458     7.932
 342   8 O     -0.384  1.740  4.644  0.000    21.359     6.196
 343   6 C     -0.081  1.062  3.018  0.000    22.038     6.683
 344   6 C      0.378  1.020  2.602  0.000    20.591     7.426
 345   8 O     -0.617  1.768  4.849  0.000    26.537     6.907
 346   8 O     -0.608  1.762  4.846  0.000    26.305     6.876
 347   1 H      0.219  0.781  0.000  0.000     1.016     1.579
 348   1 H      0.061  0.939  0.000  0.000     2.192     2.315
 349   1 H      0.023  0.977  0.000  0.000     2.692     2.566
 350   1 H      0.034  0.966  0.000  0.000     2.536     2.491
 351   7 N     -0.400  1.310  4.090  0.000    30.380     8.186
 352   6 C      0.039  1.057  2.904  0.000    19.929     6.359
 353   6 C      0.281  1.044  2.675  0.000    22.239     7.722
 354   8 O     -0.527  1.748  4.779  0.000    24.393     6.622
 355   6 C     -0.101  1.065  3.035  0.000    22.415     6.739
 356   6 C      0.298  1.038  2.664  0.000    21.948     7.671
 357   8 O     -0.537  1.755  4.782  0.000    24.621     6.653
 358   7 N     -0.309  1.288  4.021  0.000    27.952     7.852
 359   1 H      0.156  0.844  0.000  0.000     1.363     1.829
 360   1 H      0.067  0.933  0.000  0.000     2.121     2.278
 361   1 H      0.070  0.930  0.000  0.000     2.082     2.256
 362   1 H      0.069  0.931  0.000  0.000     2.093     2.262
 363   1 H      0.230  0.770  0.000  0.000     0.966     1.540
 364   1 H      0.231  0.769  0.000  0.000     0.963     1.537
 365   7 N     -0.174  1.237  3.936  0.000    24.763     7.391
 366   6 C     -0.023  1.045  2.978  0.000    21.065     6.548
 367   6 C      0.280  1.042  2.678  0.000    22.261     7.726
 368   8 O     -0.501  1.731  4.771  0.000    23.816     6.543
 369   1 H      0.232  0.768  0.000  0.000     0.958     1.534
 370   1 H      0.106  0.894  0.000  0.000     1.735     2.060
 371   1 H      0.096  0.904  0.000  0.000     1.826     2.113
 372   7 N     -0.178  1.247  3.931  0.000    24.849     7.403
 373   6 C      0.049  1.053  2.897  0.000    19.749     6.327
 374   6 C      0.281  1.042  2.677  0.000    22.244     7.723
 375   8 O     -0.493  1.728  4.765  0.000    23.629     6.517
 376   6 C     -0.032  1.044  2.988  0.000    21.140     6.545
 377   6 C     -0.080  1.060  3.020  0.000    22.025     6.682
 378   6 C      0.372  1.026  2.602  0.000    20.690     7.444
 379   8 O     -0.622  1.761  4.861  0.000    26.665     6.923
 380   8 O     -0.616  1.761  4.855  0.000    26.520     6.904
 381   1 H      0.206  0.794  0.000  0.000     1.075     1.624
 382   1 H      0.046  0.954  0.000  0.000     2.371     2.408
 383   1 H      0.016  0.984  0.000  0.000     2.790     2.612
 384   1 H      0.043  0.957  0.000  0.000     2.411     2.428
 385   1 H      0.020  0.980  0.000  0.000     2.739     2.588
 386   1 H      0.012  0.988  0.000  0.000     2.864     2.647
 387   7 N     -0.170  1.243  3.926  0.000    24.669     7.377
 388   6 C      0.021  1.063  2.916  0.000    20.229     6.405
 389   6 C      0.272  1.046  2.681  0.000    22.399     7.750
 390   8 O     -0.502  1.739  4.763  0.000    23.819     6.543
 391   6 C     -0.003  1.059  2.944  0.000    20.602     6.456
 392   6 C     -0.121  1.040  3.081  0.000    22.877     6.820
 393   6 C     -0.107  1.036  3.071  0.000    22.595     6.777
 394   1 H      0.212  0.788  0.000  0.000     1.046     1.602
 395   1 H      0.079  0.921  0.000  0.000     1.991     2.207
 396   1 H      0.030  0.970  0.000  0.000     2.582     2.513
 397   1 H      0.087  0.913  0.000  0.000     1.907     2.160
 398   1 H      0.038  0.962  0.000  0.000     2.473     2.459
 399   1 H      0.056  0.944  0.000  0.000     2.240     2.341
 400   1 H      0.067  0.933  0.000  0.000     2.114     2.274
 401   1 H      0.044  0.956  0.000  0.000     2.393     2.419
 402   1 H      0.018  0.982  0.000  0.000     2.760     2.598
 403   7 N     -0.156  1.241  3.915  0.000    24.368     7.331
 404   6 C      0.004  1.067  2.930  0.000    20.523     6.451
 405   6 C      0.262  1.040  2.697  0.000    22.577     7.781
 406   8 O     -0.474  1.733  4.741  0.000    23.215     6.460
 407   6 C      0.123  1.046  2.831  0.000    18.675     6.170
 408   8 O     -0.474  1.718  4.756  0.000    22.331     6.379
 409   6 C     -0.115  1.039  3.075  0.000    22.753     6.802
 410   1 H      0.235  0.765  0.000  0.000     0.942     1.521
 411   1 H      0.076  0.924  0.000  0.000     2.026     2.226
 412   1 H      0.031  0.969  0.000  0.000     2.577     2.511
 413   1 H      0.329  0.671  0.000  0.000     0.639     1.256
 414   1 H      0.065  0.935  0.000  0.000     2.138     2.286
 415   1 H      0.051  0.949  0.000  0.000     2.308     2.376
 416   1 H      0.032  0.968  0.000  0.000     2.562     2.503
 417   7 N     -0.173  1.257  3.916  0.000    24.752     7.389
 418   6 C      0.028  1.060  2.912  0.000    20.115     6.387
 419   6 C      0.206  1.086  2.708  0.000    23.635     7.962
 420   8 O     -0.365  1.761  4.605  0.000    21.001     6.144
 421   6 C     -0.084  1.060  3.023  0.000    22.086     6.690
 422   6 C     -0.012  1.054  2.958  0.000    20.762     6.481
 423   6 C     -0.126  1.042  3.084  0.000    22.981     6.835
 424   6 C     -0.122  1.044  3.078  0.000    22.883     6.820
 425   1 H      0.235  0.765  0.000  0.000     0.944     1.522
 426   1 H      0.085  0.915  0.000  0.000     1.933     2.174
 427   1 H      0.078  0.922  0.000  0.000     2.000     2.211
 428   1 H      0.066  0.934  0.000  0.000     2.133     2.284
 429   1 H      0.027  0.973  0.000  0.000     2.629     2.536
 430   1 H      0.058  0.942  0.000  0.000     2.226     2.333
 431   1 H      0.035  0.965  0.000  0.000     2.520     2.482
 432   1 H      0.059  0.941  0.000  0.000     2.213     2.326
 433   1 H      0.051  0.949  0.000  0.000     2.311     2.377
 434   1 H      0.064  0.936  0.000  0.000     2.155     2.295
 435   1 H      0.032  0.968  0.000  0.000     2.561     2.502
 436   1 H      0.189  0.811  0.000  0.000     1.166     1.691
 437   1 H      0.089  0.911  0.000  0.000     1.889     2.149
 438   1 H      0.184  0.816  0.000  0.000     1.193     1.711
 439   1 H      0.082  0.918  0.000  0.000     1.955     2.187
 440   1 H      0.184  0.816  0.000  0.000     1.190     1.709
 441   1 H      0.066  0.934  0.000  0.000     2.130     2.282
 442   1 H      0.186  0.814  0.000  0.000     1.179     1.701
 443   1 H      0.064  0.936  0.000  0.000     2.152     2.294
 444   1 H      0.194  0.806  0.000  0.000     1.136     1.670
 445   1 H      0.074  0.926  0.000  0.000     2.038     2.232
 446   1 H      0.192  0.808  0.000  0.000     1.150     1.680
 447   1 H      0.077  0.923  0.000  0.000     2.007     2.215

 Mol. C6AA /au·bohr⁶  :    1819544.524728
 Mol. C8AA /au·bohr⁸  :   40049176.080901
 Mol. α(0) /au        :       2007.157692

 
molecular dipole:
                 x           y           z       tot (Debye)
 q only:     -801.626    -214.835    -436.460
   full:     -805.088    -218.738    -436.217    2392.937
molecular quadrupole (traceless):
                xx          xy          yy          xz          yz          zz
 q only:  -262502.693 -128832.705  185372.771 -261715.345  -69741.664   77129.922
  q+dip:  -264987.570 -131878.643  185798.070 -262732.728  -71021.816   79189.501
   full:  -264989.100 -131880.916  185801.465 -262732.309  -71019.269   79187.636
speedup 13.41
cpu  time for grad   49.67 s
wall time for grad    3.71 s

SCC energy    :    -707.7135145
rep           :       8.1177337
ES            :       2.4591175
AES           :      -0.1443173
AXC           :       0.1808610
disp          :      -0.6092825
XB            :       0.0000000
fix           :       0.0000000
Gborn         :       0.0000000
Gsasa         :       0.0000000
Ghb           :       0.0000000
Gshift        :       0.0000000
Gsolv         :      -0.6235885     -391.31
Etot ala COSMO:    -707.7135145
grad norm     :       0.5488474
total E       :    -699.5318506
atomizationE  :     125.6055474    78818.67
(atE without considering molecular charge,
 total energy contains solvation terms)
H-L gap (eV)  :          1.5139

------------------------------------------------------------------------
 * finished run on 2019/02/13 at 00:17:20.774     
------------------------------------------------------------------------
 total:
 * wall-time:     0 d,  0 h,  0 min,  4.084 sec
 *  cpu-time:     0 d,  0 h,  0 min, 55.519 sec
 * ratio c/w:    13.595 speedup
 SCF:
 * wall-time:     0 d,  0 h,  0 min,  3.903 sec
 *  cpu-time:     0 d,  0 h,  0 min, 52.840 sec
 * ratio c/w:    13.537 speedup

