      -----------------------------------------------------------      
     |                   =====================                   |     
     |                           x T B                           |     
     |                   =====================                   |     
     |                         S. Grimme                         |     
     |          Mulliken Center for Theoretical Chemistry        |     
     |                    University of Bonn                     |     
     |                 Version 6.0.1 (SAW181210)                 |     
      -----------------------------------------------------------      

   This program is distributed in the hope that it will be useful,
   but WITHOUT ANY WARRANTY; without even the implied warranty of
   MERCHANTABILITY or FITNESS FOR A PARTICULAR PURPOSE.
   
   FOR NON-COMMERCIAL, ACADEMIA USE ONLY.
   
   Cite this work as:
   S. Grimme, C. Bannwarth, P. Shushkov, J. Comput. Theory Chem., 2017,
   13, 1989-2009.
   C. Bannwarth, S. Ehlert and S. Grimme., ChemRxiv, 2018, preprint.
   http://doi.org/10.26434/chemrxiv.7246238.v1
   
   for sTDA-xTB:
   S. Grimme and C. Bannwarth, J. Chem. Phys., 2016, 145, 054103.
   
   in the mass-spec context:
   V. Asgeirsson, C. Bauer and S. Grimme, Chem. Sci., 2017, 8, 4879.
   
   if GBSA is used:
   P. Shushkov, F. März and S. Grimme, unpublished.
   
   for ANC optimizer:
   S. Grimme, unpublished.
   Rational Function algorithm used in ANCopt:
   F. Eckert, P. Pulay, H.-J. Werner, J. Comput. Chem., 1997, 18, 1473.
   
   with help from (in alphabetical order)
   C. Bannwarth, F. Bohle, G. Brandenburg, E. Caldeweyher, M. Checinski,
   S. Dohm, S. Ehlert, S. Ehrlich, F. März, H. Neugebauer, J. Pisarek,
   P. Pracht, P. Shushkov, and S. Spicher.
   
 * started run on 2019/02/13 at 00:18:59.420     
========================================================================
 # omp threads = 16
========================================================================
number of atoms            : 45
number of electrons        : 120
charge                     : 0
spin                       : .0
first test random number   : .9015

########################################################################
# WARNING! Please study the warnings concerning your input carefully
#  - Process number higher than OMP_NUM_THREADS, I hope you know what you are doing.
########################################################################

           ------------------------------------------------- 
          |                 G F N 2 - x T B                 |
          | Geometry, Frequencies, Noncovalent interactions |
          |            JCTC 2018 parametrisation            |
           ------------------------------------------------- 
 
      method parameters     
 k(s)        :  1.8500
 k(p)        :  2.2300
 k(d)        :  2.2300
 k(f)        :  2.0000
 kEN (H0ij)  : -2.0000
 D4 a1       :  0.5200
 D4 a2       :  5.0000
 D4 s6       :  1.0000
 D4 s8       :  2.7000
 D4 s9       :  5.0000
 alphaj      :  2.0000

 Solvent             : h2o
 Using internal parameter file: .param_gbsa2_h2o
 Gsolv ref. state (COSMO-RS): gsolv [1 M gas/solution]
 temperature (mdtemp)       :    298.150000000000     
 dielectric constant        :    80.2000000000000     
 rho                        :    1.00000000000000     
 mass                       :    18.0000000000000     
 surface tension            :    15.5689454083859     
 probe radius               :   0.975313790000000     
 vdW radii scaling          :    1.00000000000000     
 Gshift (Eh)                :   1.857443126794793E-003
 c1                         :    1.55243817000000     
 soset                      :   0.130326360000000     
 HB correction              :  T

            Z     q(EN)     CN     RAES       Cart. coordinates
     1  N   5.0   -0.20    3.22    1.96   419.49460   124.95932   220.07452
     2  C   4.0    0.02    4.32    4.23   420.87711   126.79205   218.55385
     3  C   4.0    0.15    3.45    3.10   421.23806   125.65405   215.91816
     4  O   6.0   -0.30    1.28    1.80   422.47141   123.71553   215.57293
     5  C   4.0   -0.05    4.35    4.29   423.39721   127.34988   219.84360
     6  C   4.0   -0.02    4.19    3.98   425.06385   129.21049   218.37850
     7  C   4.0   -0.07    4.11    3.82   423.87015   131.80949   218.02995
     8  C   4.0   -0.07    4.12    3.84   427.58733   129.53345   219.74530
     9  H   1.0    0.09    1.02    1.43   420.57161   123.87587   221.25175
    10  H   1.0    0.03    1.05    1.44   419.71083   128.48874   218.38764
    11  H   1.0    0.04    1.03    1.43   423.02206   128.07502   221.73491
    12  H   1.0    0.05    1.03    1.43   424.40230   125.55643   220.03853
    13  H   1.0    0.05    1.06    1.44   425.39558   128.41743   216.49931
    14  H   1.0    0.05    1.01    1.43   425.28535   133.06210   217.22585
    15  H   1.0    0.04    1.00    1.43   422.26081   131.75085   216.75534
    16  H   1.0    0.04    1.00    1.43   423.28671   132.58734   219.83648
    17  H   1.0    0.05    1.00    1.43   428.91693   130.56776   218.56826
    18  H   1.0    0.04    1.00    1.43   427.31135   130.57092   221.49334
    19  H   1.0    0.04    1.00    1.43   428.43639   127.71830   220.20173
    20  N   5.0   -0.14    3.46    2.05   419.96015   126.78987   214.05817
    21  C   4.0    0.03    4.36    4.31   420.02928   125.71112   211.53534
    22  C   4.0    0.16    3.50    3.12   422.77106   125.83511   210.62027
    23  O   6.0   -0.29    1.28    1.80   424.02831   127.76369   210.81952
    24  C   4.0   -0.07    4.10    3.80   418.26149   127.15551   209.78780
    25  H   1.0    0.07    1.06    1.44   419.40494   128.62931   214.19473
    26  H   1.0    0.05    1.05    1.44   419.44319   123.73097   211.69494
    27  H   1.0    0.05    1.00    1.43   418.28928   126.34292   207.90390
    28  H   1.0    0.04    1.00    1.43   416.34584   127.07990   210.52802
    29  H   1.0    0.05    1.00    1.43   418.85559   129.11883   209.67646
    30  N   5.0   -0.14    3.37    2.01   423.72207   123.68635   209.66976
    31  C   4.0    0.02    4.25    4.10   426.33793   123.57292   208.88846
    32  C   4.0    0.17    3.46    3.10   428.10506   124.76091   210.83425
    33  O   6.0   -0.27    1.34    1.80   429.97571   125.97197   210.19124
    34  H   1.0    0.08    1.06    1.44   422.67178   122.10102   209.61193
    35  H   1.0    0.04    1.03    1.43   426.88419   121.60580   208.61188
    36  H   1.0    0.06    1.02    1.43   426.62030   124.60913   207.11791
    37  N   5.0   -0.13    3.38    2.01   427.60991   124.31735   213.27261
    38  C   4.0    0.02    4.19    3.99   429.36929   125.32141   215.11038
    39  C   4.0    0.11    3.27    3.05   430.50703   127.83410   214.20322
    40  O   6.0   -0.27    1.12    1.80   432.76171   128.25896   214.45400
    41  H   1.0    0.11    1.07    1.44   425.97570   123.52003   213.87969
    42  H   1.0    0.04    1.03    1.43   428.41119   125.55938   216.90856
    43  H   1.0    0.06    1.02    1.43   430.96269   124.02083   215.35582
    44  H   1.0    0.09    1.07    1.44   418.37387   125.77169   221.06273
    45  H   1.0    0.07    1.05    1.44   429.39936   129.13749   213.39990

  Z AO/shell   Hii/eV     exponent
  1     Wed Apr 25 08:07:45 CEST 2018   EN: 2.200 GM2: 0.406  GM3: 0.0800  RAES: 1.40
     1s    -10.707211    1.230000
  6     Wed Apr 25 08:07:45 CEST 2018   EN: 2.550 GM2: 0.538  GM3: 0.1500  RAES: 3.00
     2s    -13.970922    2.096432
     2p    -10.063292    1.800000
  7     Wed Apr 25 08:07:45 CEST 2018   EN: 3.040 GM2: 0.461  GM3:-0.0640  RAES: 1.90
     2s    -16.686243    2.339881
     2p    -12.523956    2.014332
  8     Wed Apr 25 08:07:45 CEST 2018   EN: 3.440 GM2: 0.452  GM3:-0.0517  RAES: 1.80
     2s    -20.229985    2.439742
     2p    -15.503117    2.137023
 no old-style atom pair restraining (fixing) potential
           ------------------------------------------------- 
          |        Self-Consistent Charge Iterations        |
           ------------------------------------------------- 

 Ncao       : 108
 Nao        : 108
 Nshell     : 66
 Nel        : 120
 T(el)      :   500.0
 intcut     :    35.0
 scfconv/Eh :  0.100E-06
   qconv/e  :  0.100E-04
 intneglect :  0.100E-08
 broydamp   :      0.400
 iter      E             dE          RMSdq      gap      omega  full diag
   1    -68.6856843 -0.686857E+02  0.461E+00    3.91       0.0  T
   2    -68.8611180 -0.175434E+00  0.206E+00    2.62       1.0  T
   3    -68.8715754 -0.104574E-01  0.118E+00    2.88       1.0  T
   4    -68.8813587 -0.978332E-02  0.238E-01    2.62       1.0  T
   5    -68.8820229 -0.664170E-03  0.983E-02    2.75       1.0  T
   6    -68.8820664 -0.434926E-04  0.337E-02    2.73       1.0  T
   7    -68.8820768 -0.103659E-04  0.148E-02    2.75       1.0  T
   8    -68.8820776 -0.830547E-06  0.595E-03    2.74       2.5  T
   9    -68.8820780 -0.452211E-06  0.201E-03    2.74       7.4  T
  10    -68.8820781 -0.201570E-07  0.742E-04    2.74      20.1  T
  11    -68.8820781 -0.165635E-08  0.282E-04    2.75      52.9  T
  12    -68.8820781 -0.648910E-09  0.676E-05    2.75     220.4  T
  13    -68.8820781 -0.287770E-10  0.343E-05    2.75     434.5  T
speedup 15.87
cpu  time for SCC    0.76 s
wall time for SCC    0.05 s

   *** convergence criteria satisfied after 13 iterations ***

          eigenvalues
 #    :          48         49         50         51         52         53         54         55
 occ. :        2.000      2.000      2.000      2.000      2.000      2.000      2.000      2.000
 eps  :       -12.656    -12.393    -12.046    -11.945    -11.927    -11.854    -11.762    -11.667
 #    :          56         57         58         59         60         61         62         63
 occ. :        2.000      2.000      2.000      2.000      2.000      0.000      0.000      0.000
 eps  :       -11.251    -11.192    -10.984    -10.910    -10.021     -7.276     -6.430     -6.159
 #    :          64         65         66         67         68         69         70         71
 occ. :        0.000      0.000      0.000      0.000      0.000      0.000      0.000      0.000
 eps  :        -6.094     -0.627     -0.188      0.054      1.095      1.409      1.548      2.041


   #   Z            q   n(s)   n(p)   n(d)      C6AA      α(0)
   1   7 N     -0.391  1.324  4.067  0.000    30.135     8.153
   2   6 C      0.032  1.059  2.909  0.000    20.055     6.378
   3   6 C      0.273  1.051  2.676  0.000    22.393     7.750
   4   8 O     -0.494  1.743  4.751  0.000    23.642     6.519
   5   6 C     -0.070  1.060  3.010  0.000    21.832     6.651
   6   6 C     -0.014  1.056  2.958  0.000    20.789     6.485
   7   6 C     -0.114  1.040  3.074  0.000    22.727     6.797
   8   6 C     -0.113  1.042  3.072  0.000    22.721     6.796
   9   1 H      0.163  0.837  0.000  0.000     1.317     1.797
  10   1 H      0.037  0.963  0.000  0.000     2.492     2.469
  11   1 H      0.048  0.952  0.000  0.000     2.349     2.397
  12   1 H      0.042  0.958  0.000  0.000     2.419     2.432
  13   1 H      0.019  0.981  0.000  0.000     2.749     2.593
  14   1 H      0.042  0.958  0.000  0.000     2.418     2.432
  15   1 H      0.032  0.968  0.000  0.000     2.556     2.500
  16   1 H      0.048  0.952  0.000  0.000     2.343     2.394
  17   1 H      0.031  0.969  0.000  0.000     2.570     2.507
  18   1 H      0.053  0.947  0.000  0.000     2.287     2.365
  19   1 H      0.033  0.967  0.000  0.000     2.542     2.493
  20   7 N     -0.172  1.255  3.917  0.000    24.720     7.384
  21   6 C      0.023  1.060  2.918  0.000    20.195     6.398
  22   6 C      0.276  1.043  2.681  0.000    22.330     7.739
  23   8 O     -0.487  1.754  4.733  0.000    23.500     6.499
  24   6 C     -0.131  1.042  3.089  0.000    23.076     6.849
  25   1 H      0.207  0.793  0.000  0.000     1.071     1.621
  26   1 H      0.072  0.928  0.000  0.000     2.059     2.244
  27   1 H      0.072  0.928  0.000  0.000     2.066     2.248
  28   1 H      0.080  0.920  0.000  0.000     1.981     2.201
  29   1 H      0.065  0.935  0.000  0.000     2.145     2.290
  30   7 N     -0.176  1.242  3.934  0.000    24.810     7.398
  31   6 C     -0.032  1.051  2.981  0.000    21.204     6.568
  32   6 C      0.289  1.037  2.674  0.000    22.098     7.698
  33   8 O     -0.476  1.758  4.718  0.000    23.252     6.465
  34   1 H      0.227  0.773  0.000  0.000     0.978     1.549
  35   1 H      0.106  0.894  0.000  0.000     1.735     2.060
  36   1 H      0.095  0.905  0.000  0.000     1.835     2.119
  37   7 N     -0.166  1.240  3.926  0.000    24.587     7.364
  38   6 C     -0.023  1.051  2.972  0.000    21.042     6.541
  39   6 C      0.227  1.072  2.702  0.000    23.236     7.894
  40   8 O     -0.402  1.753  4.649  0.000    21.722     6.249
  41   1 H      0.227  0.773  0.000  0.000     0.978     1.549
  42   1 H      0.103  0.897  0.000  0.000     1.756     2.072
  43   1 H      0.090  0.910  0.000  0.000     1.881     2.145
  44   1 H      0.188  0.812  0.000  0.000     1.167     1.692
  45   1 H      0.062  0.938  0.000  0.000     2.176     2.307

 Mol. C6AA /au·bohr⁶  :      17831.994433
 Mol. C8AA /au·bohr⁸  :     389156.483884
 Mol. α(0) /au        :        199.052974

 
molecular dipole:
                 x           y           z       tot (Debye)
 q only:       -4.005      -1.304       0.428
   full:       -4.404      -1.199       0.664      11.724
molecular quadrupole (traceless):
                xx          xy          yy          xz          yz          zz
 q only:    -3348.496   -1603.744    1284.794    -999.912    -321.266    2063.702
  q+dip:    -3758.898   -1616.864    1432.459    -978.492    -241.051    2326.438
   full:    -3758.415   -1616.693    1431.685    -978.330    -240.962    2326.730
speedup 15.87
cpu  time for grad    0.84 s
wall time for grad    0.05 s

SCC energy    :     -68.8832903
rep           :       0.8306166
ES            :       0.1915133
AES           :       0.0037761
AXC           :       0.0242071
disp          :      -0.0454286
XB            :       0.0000000
fix           :       0.0000000
Gborn         :       0.0000000
Gsasa         :       0.0000000
Ghb           :       0.0000000
Gshift        :       0.0000000
Gsolv         :      -0.0353092      -22.16
Etot ala COSMO:     -68.8832903
grad norm     :       0.2199449
total E       :     -68.0511722
atomizationE  :      12.3242759     7733.60
(atE without considering molecular charge,
 total energy contains solvation terms)
H-L gap (eV)  :          2.7451

------------------------------------------------------------------------
 * finished run on 2019/02/13 at 00:18:59.534     
------------------------------------------------------------------------
 total:
 * wall-time:     0 d,  0 h,  0 min,  0.113 sec
 *  cpu-time:     0 d,  0 h,  0 min,  1.627 sec
 * ratio c/w:    14.357 speedup
 SCF:
 * wall-time:     0 d,  0 h,  0 min,  0.060 sec
 *  cpu-time:     0 d,  0 h,  0 min,  0.954 sec
 * ratio c/w:    15.849 speedup

