      -----------------------------------------------------------      
     |                   =====================                   |     
     |                           x T B                           |     
     |                   =====================                   |     
     |                         S. Grimme                         |     
     |          Mulliken Center for Theoretical Chemistry        |     
     |                    University of Bonn                     |     
     |                 Version 6.0.1 (SAW181210)                 |     
      -----------------------------------------------------------      

   This program is distributed in the hope that it will be useful,
   but WITHOUT ANY WARRANTY; without even the implied warranty of
   MERCHANTABILITY or FITNESS FOR A PARTICULAR PURPOSE.
   
   FOR NON-COMMERCIAL, ACADEMIA USE ONLY.
   
   Cite this work as:
   S. Grimme, C. Bannwarth, P. Shushkov, J. Comput. Theory Chem., 2017,
   13, 1989-2009.
   C. Bannwarth, S. Ehlert and S. Grimme., ChemRxiv, 2018, preprint.
   http://doi.org/10.26434/chemrxiv.7246238.v1
   
   for sTDA-xTB:
   S. Grimme and C. Bannwarth, J. Chem. Phys., 2016, 145, 054103.
   
   in the mass-spec context:
   V. Asgeirsson, C. Bauer and S. Grimme, Chem. Sci., 2017, 8, 4879.
   
   if GBSA is used:
   P. Shushkov, F. März and S. Grimme, unpublished.
   
   for ANC optimizer:
   S. Grimme, unpublished.
   Rational Function algorithm used in ANCopt:
   F. Eckert, P. Pulay, H.-J. Werner, J. Comput. Chem., 1997, 18, 1473.
   
   with help from (in alphabetical order)
   C. Bannwarth, F. Bohle, G. Brandenburg, E. Caldeweyher, M. Checinski,
   S. Dohm, S. Ehlert, S. Ehrlich, F. März, H. Neugebauer, J. Pisarek,
   P. Pracht, P. Shushkov, and S. Spicher.
   
 * started run on 2019/03/14 at 16:03:18.101     
========================================================================
 # omp threads = 1
========================================================================
number of atoms            : 566
number of electrons        : 1452
charge                     : 5
spin                       : .0
first test random number   : .3595

########################################################################
# WARNING! Please study the warnings concerning your input carefully
#  - XTBPATH is not set, using XTBHOME instead
########################################################################

           ------------------------------------------------- 
          |                 G F N 2 - x T B                 |
          | Geometry, Frequencies, Noncovalent interactions |
          |            JCTC 2018 parametrisation            |
           ------------------------------------------------- 
 
      method parameters     
 k(s)        :  1.8500
 k(p)        :  2.2300
 k(d)        :  2.2300
 k(f)        :  2.0000
 kEN (H0ij)  : -2.0000
 D4 a1       :  0.5200
 D4 a2       :  5.0000
 D4 s6       :  1.0000
 D4 s8       :  2.7000
 D4 s9       :  5.0000
 alphaj      :  2.0000

 Solvent             : h2o
 Using internal parameter file: .param_gbsa2_h2o
 Gsolv ref. state (COSMO-RS): gsolv [1 M gas/solution]
 temperature (mdtemp)       :    298.150000000000     
 dielectric constant        :    80.2000000000000     
 rho                        :    1.00000000000000     
 mass                       :    18.0000000000000     
 surface tension            :    15.5689454083859     
 probe radius               :   0.975313790000000     
 vdW radii scaling          :    1.00000000000000     
 Gshift (Eh)                :   1.857443126794793E-003
 c1                         :    1.55243817000000     
 soset                      :   0.130326360000000     
 HB correction              :  T

            Z     q(EN)     CN     RAES       Cart. coordinates
     1  N   5.0   -0.20    3.24    1.96    56.20880    26.08509    24.88953
     2  C   4.0    0.03    4.31    4.21    56.33940    26.54709    27.60143
     3  C   4.0    0.14    3.44    3.09    58.24487    28.63866    28.17105
     4  O   6.0   -0.32    1.25    1.80    57.81270    30.33266    29.70303
     5  C   4.0   -0.04    4.34    4.26    57.00855    24.03052    28.88372
     6  C   4.0   -0.02    4.15    3.90    57.17256    24.01018    31.78657
     7  C   4.0   -0.06    4.10    3.80    59.58139    25.29335    32.75176
     8  C   4.0   -0.07    4.09    3.79    54.80156    25.16663    32.97691
     9  H   1.0    0.10    1.03    1.43    55.75891    24.31352    24.33015
    10  H   1.0    0.05    1.05    1.44    54.47914    27.22601    28.22488
    11  H   1.0    0.06    1.03    1.43    55.55759    22.67834    28.29546
    12  H   1.0    0.06    1.03    1.43    58.79391    23.38415    28.07714
    13  H   1.0    0.06    1.06    1.44    57.26556    22.00798    32.30929
    14  H   1.0    0.05    1.00    1.43    59.96810    24.70481    34.67974
    15  H   1.0    0.06    1.00    1.43    61.19115    24.74578    31.59905
    16  H   1.0    0.05    1.01    1.43    59.38674    27.33107    32.61624
    17  H   1.0    0.04    1.00    1.43    54.71197    24.82077    34.99987
    18  H   1.0    0.05    1.00    1.43    54.74888    27.18877    32.62224
    19  H   1.0    0.05    1.00    1.43    53.11290    24.35013    32.13176
    20  N   5.0   -0.15    3.48    2.06    60.49405    28.40077    27.04988
    21  C   4.0    0.03    4.42    4.41    62.48400    30.25703    27.43137
    22  C   4.0    0.16    3.51    3.12    61.56876    32.96652    26.97197
    23  O   6.0   -0.31    1.25    1.80    62.04094    34.69837    28.43364
    24  C   4.0   -0.05    4.27    4.13    64.71867    29.65857    25.68660
    25  C   4.0   -0.04    4.20    4.00    66.59668    31.86623    25.44981
    26  C   4.0   -0.04    4.16    3.92    69.35401    31.00198    25.32103
    27  C   4.0   -0.03    4.13    3.85    70.35342    30.33657    27.94483
    28  N   5.0   -0.11    4.01    2.89    73.02877    29.47396    27.79856
    29  H   1.0    0.09    1.07    1.44    60.70318    27.10323    25.66374
    30  H   1.0    0.05    1.05    1.44    63.05849    30.16509    29.42113
    31  H   1.0    0.05    1.03    1.43    65.63798    27.96512    26.41041
    32  H   1.0    0.05    1.03    1.43    63.96663    29.16322    23.82938
    33  H   1.0    0.05    1.03    1.43    66.15048    32.92476    23.74147
    34  H   1.0    0.05    1.04    1.43    66.37016    33.15969    27.03669
    35  H   1.0    0.06    1.03    1.43    69.47850    29.38841    24.04435
    36  H   1.0    0.06    1.03    1.43    70.47415    32.53460    24.52138
    37  H   1.0    0.05    1.02    1.43    70.25632    31.99612    29.16390
    38  H   1.0    0.05    1.02    1.43    69.21540    28.83748    28.77902
    39  H   1.0    0.08    1.02    1.43    73.70116    28.99169    29.56086
    40  H   1.0    0.08    1.02    1.43    73.16854    27.92299    26.62819
    41  H   1.0    0.08    1.02    1.43    74.14715    30.88872    27.06072
    42  N   5.0   -0.15    3.52    2.09    60.42149    33.30557    24.75667
    43  C   4.0    0.03    4.43    4.43    59.44113    35.75198    24.02298
    44  C   4.0    0.16    3.49    3.11    57.72191    36.85025    26.07765
    45  O   6.0   -0.31    1.28    1.80    57.92940    39.01832    26.84706
    46  C   4.0   -0.05    4.27    4.13    58.01400    35.52724    21.52128
    47  C   4.0   -0.04    4.17    3.94    59.73432    34.80922    19.30460
    48  C   4.0   -0.04    4.15    3.90    61.50771    36.91781    18.41296
    49  C   4.0   -0.03    4.12    3.83    60.17966    39.30654    17.49378
    50  N   5.0   -0.11    4.02    2.91    58.52737    38.78386    15.27063
    51  H   1.0    0.08    1.08    1.44    59.77798    31.76969    23.81999
    52  H   1.0    0.05    1.05    1.44    61.03429    37.06161    23.83983
    53  H   1.0    0.05    1.03    1.43    56.57822    34.06308    21.74985
    54  H   1.0    0.05    1.03    1.43    57.03169    37.30277    21.17403
    55  H   1.0    0.05    1.03    1.43    60.86779    33.17023    19.84084
    56  H   1.0    0.06    1.03    1.43    58.54617    34.15390    17.75189
    57  H   1.0    0.05    1.03    1.43    62.76108    37.45822    19.95126
    58  H   1.0    0.06    1.03    1.43    62.70444    36.15645    16.91711
    59  H   1.0    0.05    1.02    1.43    59.02214    40.12959    18.98660
    60  H   1.0    0.06    1.02    1.43    61.60617    40.67986    16.92804
    61  H   1.0    0.08    1.02    1.43    57.80160    40.44305    14.55774
    62  H   1.0    0.08    1.02    1.43    59.53953    37.87482    13.87564
    63  H   1.0    0.07    1.02    1.43    57.03965    37.64356    15.78836
    64  N   5.0   -0.14    3.51    2.09    55.98972    35.24156    26.97011
    65  C   4.0    0.04    4.45    4.46    54.08762    36.10712    28.74083
    66  C   4.0    0.17    3.49    3.11    55.35609    37.47217    30.95893
    67  O   6.0   -0.30    1.25    1.80    54.55050    39.47393    31.79625
    68  C   4.0   -0.03    4.33    4.25    52.45707    33.87724    29.59702
    69  C   4.0   -0.01    3.57    3.15    50.20228    34.76491    31.06397
    70  C   4.0   -0.03    3.48    3.11    48.15256    35.78450    29.77575
    71  C   4.0   -0.04    3.46    3.10    50.09255    34.60374    33.67823
    72  C   4.0   -0.03    3.38    3.07    46.03262    36.59063    31.06522
    73  C   4.0   -0.04    3.38    3.07    47.97231    35.42013    34.97052
    74  C   4.0   -0.04    3.37    3.07    45.93388    36.41097    33.67298
    75  H   1.0    0.08    1.07    1.44    55.86565    33.47367    26.25450
    76  H   1.0    0.06    1.05    1.44    52.86840    37.52477    27.83411
    77  H   1.0    0.05    1.03    1.43    51.79984    32.88845    27.90208
    78  H   1.0    0.05    1.03    1.43    53.61834    32.57013    30.68477
    79  H   1.0    0.06    1.03    1.43    48.22985    35.89880    27.73846
    80  H   1.0    0.05    1.03    1.43    51.67403    33.82119    34.69182
    81  H   1.0    0.06    1.03    1.43    44.45099    37.35356    30.02824
    82  H   1.0    0.04    1.03    1.43    47.88197    35.27605    37.00169
    83  H   1.0    0.05    1.03    1.43    44.27782    37.02969    34.68814
    84  N   5.0   -0.14    3.50    2.08    57.37029    36.29381    31.91393
    85  C   4.0    0.03    4.43    4.43    58.80443    37.34241    34.00335
    86  C   4.0    0.16    3.51    3.12    59.56293    40.08999    33.52029
    87  O   6.0   -0.30    1.26    1.80    59.12102    41.78455    35.02989
    88  C   4.0   -0.05    4.31    4.21    61.20899    35.79207    34.39945
    89  C   4.0   -0.05    4.19    3.97    60.68149    33.14153    35.40829
    90  C   4.0   -0.05    4.18    3.95    59.55178    33.22879    38.06838
    91  C   4.0   -0.02    4.16    3.92    59.95312    30.76744    39.48266
    92  N   5.0   -0.12    4.03    2.93    58.34042    28.68896    38.49074
    93  H   1.0    0.10    1.08    1.44    57.96858    34.64195    31.15915
    94  H   1.0    0.05    1.05    1.44    57.62835    37.37046    35.70482
    95  H   1.0    0.06    1.04    1.43    62.19592    35.67131    32.59678
    96  H   1.0    0.04    1.03    1.43    62.41699    36.78232    35.74037
    97  H   1.0    0.05    1.02    1.43    59.43367    32.13065    34.11705
    98  H   1.0    0.05    1.03    1.43    62.47278    32.12581    35.47671
    99  H   1.0    0.04    1.03    1.43    60.49508    34.70008    39.15768
   100  H   1.0    0.04    1.02    1.43    57.54798    33.69297    37.99566
   101  H   1.0    0.07    1.03    1.43    61.92345    30.17933    39.37288
   102  H   1.0    0.06    1.03    1.43    59.53810    30.94491    41.48700
   103  H   1.0    0.09    1.05    1.44    58.80745    27.11068    39.54685
   104  H   1.0    0.05    1.02    1.43    56.46321    29.10223    38.77553
   105  H   1.0    0.05    1.02    1.43    58.64083    28.34785    36.59647
   106  N   5.0   -0.14    3.51    2.08    60.91852    40.45688    31.42185
   107  C   4.0    0.04    4.45    4.46    61.85051    42.97316    30.88583
   108  C   4.0    0.16    3.50    3.11    59.72163    44.91427    31.02444
   109  O   6.0   -0.29    1.23    1.80    59.98165    46.97470    32.04238
   110  C   4.0   -0.05    4.35    4.28    63.13702    43.09568    28.29526
   111  C   4.0   -0.02    4.17    3.93    66.00983    42.70275    28.44313
   112  C   4.0   -0.06    4.09    3.79    67.10167    42.10180    25.83686
   113  C   4.0   -0.07    4.10    3.81    67.29023    45.05560    29.52774
   114  H   1.0    0.10    1.07    1.44    61.02555    39.10005    30.07941
   115  H   1.0    0.05    1.06    1.44    63.16893    43.48990    32.39768
   116  H   1.0    0.06    1.03    1.43    62.24814    41.67071    27.09918
   117  H   1.0    0.05    1.04    1.43    62.76208    44.93776    27.45087
   118  H   1.0    0.04    1.05    1.44    66.38626    41.09889    29.69182
   119  H   1.0    0.06    1.00    1.43    69.14122    41.89774    25.96792
   120  H   1.0    0.05    1.00    1.43    66.31970    40.35429    25.09608
   121  H   1.0    0.06    1.00    1.43    66.69535    43.61504    24.50937
   122  H   1.0    0.05    1.00    1.43    69.32287    44.79017    29.65985
   123  H   1.0    0.06    1.00    1.43    66.93084    46.68189    28.32313
   124  H   1.0    0.05    1.00    1.43    66.58861    45.50547    31.40611
   125  N   5.0   -0.14    3.51    2.08    57.61045    44.26666    29.77767
   126  C   4.0    0.04    4.45    4.46    55.64010    46.11969    29.44194
   127  C   4.0    0.15    3.43    3.09    54.22699    46.75690    31.88379
   128  O   6.0   -0.31    1.33    1.80    53.34098    48.89955    32.18623
   129  C   4.0   -0.04    4.25    4.10    53.85680    45.32394    27.29845
   130  C   4.0   -0.04    4.18    3.96    52.43838    47.57223    26.16505
   131  C   4.0   -0.04    4.20    4.00    54.24722    49.42601    24.88800
   132  C   4.0   -0.02    4.13    3.86    52.88268    51.78540    23.96413
   133  N   5.0   -0.10    4.02    2.93    54.73089    53.89383    23.73493
   134  H   1.0    0.11    1.07    1.44    57.35051    42.49459    29.11236
   135  H   1.0    0.06    1.07    1.44    56.60296    47.88633    28.94039
   136  H   1.0    0.05    1.03    1.43    54.97384    44.40916    25.82422
   137  H   1.0    0.05    1.03    1.43    52.53510    43.92097    28.02759
   138  H   1.0    0.05    1.02    1.43    51.06335    46.89571    24.78606
   139  H   1.0    0.06    1.03    1.43    51.38728    48.53643    27.65225
   140  H   1.0    0.05    1.04    1.43    55.65693    50.02093    26.26279
   141  H   1.0    0.05    1.03    1.43    55.18449    48.46885    23.32726
   142  H   1.0    0.06    1.02    1.43    51.97613    51.44120    22.14946
   143  H   1.0    0.06    1.02    1.43    51.43079    52.34175    25.31412
   144  H   1.0    0.09    1.02    1.43    53.84570    55.51333    23.12842
   145  H   1.0    0.08    1.03    1.43    55.50151    54.21704    25.50649
   146  H   1.0    0.08    1.02    1.43    56.14136    53.41241    22.48198
   147  N   5.0   -0.13    3.47    2.06    54.08450    44.97404    33.64345
   148  C   4.0    0.03    4.38    4.35    52.74334    45.32961    36.03515
   149  C   4.0    0.16    3.49    3.11    53.44482    47.90031    37.18333
   150  O   6.0   -0.31    1.28    1.80    51.86373    49.49972    37.73156
   151  C   4.0   -0.05    4.32    4.23    53.38622    43.10162    37.78467
   152  C   4.0   -0.03    4.14    3.89    51.88019    42.82877    40.26824
   153  C   4.0   -0.07    4.09    3.79    52.60253    44.79805    42.25685
   154  C   4.0   -0.08    4.10    3.79    49.02784    42.86218    39.81409
   155  H   1.0    0.11    1.09    1.44    54.82243    43.23906    33.28995
   156  H   1.0    0.05    1.05    1.44    50.70639    45.39815    35.65235
   157  H   1.0    0.05    1.03    1.43    53.10278    41.38144    36.67627
   158  H   1.0    0.05    1.03    1.43    55.39619    43.20605    38.22498
   159  H   1.0    0.03    1.06    1.44    52.38693    40.96576    41.01757
   160  H   1.0    0.04    1.00    1.43    51.59028    44.44817    44.01197
   161  H   1.0    0.04    1.00    1.43    54.61750    44.74275    42.64891
   162  H   1.0    0.05    1.01    1.43    52.09518    46.68346    41.62644
   163  H   1.0    0.04    1.00    1.43    47.99409    42.36482    41.52117
   164  H   1.0    0.04    1.00    1.43    48.42394    44.74492    39.25736
   165  H   1.0    0.04    1.00    1.43    48.50052    41.52867    38.34004
   166  N   5.0   -0.14    3.48    2.07    55.91891    48.27161    37.56928
   167  C   4.0    0.03    4.38    4.35    56.87076    50.55339    38.77579
   168  C   4.0    0.16    3.47    3.10    55.81330    52.97814    37.59783
   169  O   6.0   -0.29    1.23    1.80    55.42461    54.85136    38.88889
   170  C   4.0   -0.05    4.33    4.25    59.78393    50.51272    38.73084
   171  C   4.0   -0.02    4.18    3.96    61.11684    53.09475    38.96253
   172  C   4.0   -0.07    4.10    3.81    63.65948    52.76182    40.29923
   173  C   4.0   -0.06    4.11    3.82    61.56874    54.27271    36.35881
   174  H   1.0    0.09    1.07    1.44    57.15841    46.89880    37.09147
   175  H   1.0    0.05    1.05    1.44    56.19283    50.58766    40.73757
   176  H   1.0    0.04    1.03    1.43    60.39619    49.29085    40.27503
   177  H   1.0    0.06    1.04    1.43    60.36946    49.63587    36.96022
   178  H   1.0    0.06    1.05    1.44    59.93612    54.38318    40.06595
   179  H   1.0    0.05    1.00    1.43    64.64000    54.56443    40.39058
   180  H   1.0    0.04    1.00    1.43    63.40624    52.05483    42.20903
   181  H   1.0    0.04    1.00    1.43    64.81361    51.43539    39.24063
   182  H   1.0    0.06    1.00    1.43    62.67272    55.99885    36.52047
   183  H   1.0    0.05    1.00    1.43    62.58690    52.96429    35.14481
   184  H   1.0    0.06    1.01    1.43    59.80615    54.76242    35.43425
   185  N   5.0   -0.14    3.49    2.07    55.55865    52.97058    35.06762
   186  C   4.0    0.04    4.38    4.34    54.82928    55.22682    33.72240
   187  C   4.0    0.17    3.42    3.09    51.99311    55.82336    33.63969
   188  O   6.0   -0.26    1.26    1.80    51.27685    57.71422    32.50474
   189  C   4.0    0.05    4.15    3.91    55.84002    55.21364    31.00513
   190  O   6.0   -0.25    2.05    1.83    54.89314    53.25027    29.47683
   191  H   1.0    0.11    1.09    1.44    55.51301    51.30272    34.13364
   192  H   1.0    0.07    1.06    1.44    55.68553    56.83294    34.72301
   193  H   1.0    0.07    1.02    1.43    55.26073    57.00850    30.15139
   194  H   1.0    0.05    1.01    1.43    57.91338    55.13026    31.03629
   195  H   1.0    0.15    1.06    1.44    54.22815    51.87169    30.50678
   196  N   5.0   -0.12    3.47    2.06    50.38512    54.19985    34.70034
   197  C   4.0    0.04    4.42    4.42    47.70055    54.73922    34.54221
   198  C   4.0    0.10    3.24    3.04    46.97153    56.83654    36.39843
   199  O   6.0   -0.28    1.13    1.80    47.87699    56.95514    38.52967
   200  C   4.0   -0.02    4.26    4.12    46.17950    52.29911    34.98564
   201  C   4.0   -0.06    4.13    3.87    46.14194    51.50698    37.75471
   202  C   4.0   -0.07    4.11    3.81    43.47481    52.59172    34.02639
   203  H   1.0    0.11    1.08    1.44    50.94098    52.78635    35.86515
   204  H   1.0    0.06    1.06    1.44    47.36396    55.41043    32.61433
   205  H   1.0    0.05    1.06    1.44    47.14171    50.83608    33.88024
   206  H   1.0    0.04    1.00    1.43    45.14122    49.72343    37.94279
   207  H   1.0    0.07    1.01    1.43    48.03529    51.27992    38.50851
   208  H   1.0    0.05    1.01    1.43    45.16526    52.92102    38.87494
   209  H   1.0    0.05    1.00    1.43    42.48317    50.79703    34.16254
   210  H   1.0    0.06    1.00    1.43    42.47310    53.95449    35.19369
   211  H   1.0    0.06    1.00    1.43    43.42989    53.20471    32.06563
   212  N   5.0   -0.16    3.23    1.96    43.40801    59.72549    41.96107
   213  C   4.0    0.04    4.22    4.04    42.26578    58.63833    44.18812
   214  C   4.0    0.11    3.21    3.04    40.42382    60.50260    45.41798
   215  O   6.0   -0.21    1.13    1.80    40.33555    62.73788    44.83997
   216  C   4.0   -0.04    4.35    4.30    44.29711    57.95910    46.14301
   217  C   4.0   -0.02    4.17    3.94    46.19972    55.94406    45.28814
   218  C   4.0   -0.06    4.12    3.84    47.93732    55.33623    47.50926
   219  C   4.0   -0.07    4.11    3.83    44.89239    53.53681    44.38469
   220  H   1.0    0.12    1.03    1.43    44.43289    61.31222    42.20786
   221  H   1.0    0.05    1.05    1.44    41.20300    56.98437    43.55088
   222  H   1.0    0.06    1.03    1.43    45.29279    59.70628    46.61003
   223  H   1.0    0.05    1.03    1.43    43.37146    57.33047    47.87361
   224  H   1.0    0.06    1.05    1.44    47.32046    56.68349    43.71567
   225  H   1.0    0.04    1.00    1.43    49.30890    53.92306    46.94596
   226  H   1.0    0.05    1.00    1.43    48.92733    57.00552    48.17898
   227  H   1.0    0.06    1.01    1.43    46.85879    54.59330    49.09214
   228  H   1.0    0.04    1.00    1.43    46.28581    52.13228    43.83171
   229  H   1.0    0.05    1.00    1.43    43.70483    52.75673    45.86713
   230  H   1.0    0.05    1.00    1.43    43.72364    53.90887    42.73925
   231  N   5.0   -0.17    3.13    1.94    47.12175    55.20212    56.58517
   232  C   4.0    0.02    4.16    3.91    49.70542    55.49934    55.75163
   233  C   4.0    0.15    3.30    3.05    50.37717    53.71393    53.57861
   234  O   6.0   -0.31    1.23    1.80    48.80824    52.46681    52.45459
   235  H   1.0    0.11    1.02    1.43    46.55325    53.44629    57.06264
   236  H   1.0    0.06    1.03    1.43    49.91091    57.46189    55.13425
   237  H   1.0    0.06    1.02    1.43    50.99906    55.17052    57.33377
   238  N   5.0   -0.14    3.47    2.06    52.86390    53.75518    52.99160
   239  C   4.0    0.03    4.41    4.40    54.00581    51.84840    51.39175
   240  C   4.0    0.15    3.41    3.08    55.30640    49.87742    53.07913
   241  O   6.0   -0.28    1.24    1.80    55.78134    50.31342    55.30162
   242  C   4.0   -0.04    4.26    4.12    55.94700    53.02744    49.58785
   243  C   4.0   -0.05    4.18    3.95    54.65732    54.54817    47.49840
   244  C   4.0   -0.00    4.20    4.00    56.50790    55.46290    45.46812
   245  N   5.0   -0.13    3.40    2.02    58.16505    57.46169    46.35368
   246  C   4.0    0.11    3.34    3.06    57.51483    59.86771    46.61805
   247  N   5.0   -0.17    3.26    1.97    55.20186    60.67472    46.06081
   248  N   5.0   -0.16    3.24    1.97    59.22880    61.50808    47.47698
   249  H   1.0    0.10    1.08    1.44    54.03987    54.48543    54.30992
   250  H   1.0    0.05    1.06    1.44    52.46087    50.95875    50.34616
   251  H   1.0    0.06    1.03    1.43    57.18918    54.23596    50.70060
   252  H   1.0    0.05    1.03    1.43    57.07514    51.51176    48.76633
   253  H   1.0    0.04    1.03    1.43    53.25196    53.35843    46.57979
   254  H   1.0    0.05    1.03    1.43    53.66473    56.13911    48.34632
   255  H   1.0    0.04    1.03    1.43    57.70041    53.89682    44.86962
   256  H   1.0    0.06    1.02    1.43    55.47689    56.11357    43.80145
   257  H   1.0    0.08    1.07    1.44    59.91409    56.94275    46.91479
   258  H   1.0    0.09    1.03    1.43    53.87549    59.51990    45.33365
   259  H   1.0    0.11    1.03    1.43    54.74781    62.51427    46.22895
   260  H   1.0    0.11    1.03    1.43    61.01665    60.97725    47.84051
   261  H   1.0    0.11    1.03    1.43    58.80473    63.34853    47.70324
   262  N   5.0   -0.14    3.49    2.07    55.89877    47.71056    51.92167
   263  C   4.0    0.03    4.51    4.55    57.21502    45.67491    53.19411
   264  C   4.0    0.15    3.51    3.12    60.04749    45.85046    52.57099
   265  O   6.0   -0.30    1.26    1.80    60.75389    46.43105    50.44705
   266  C   4.0   -0.03    4.33    4.26    56.15746    43.11133    52.29930
   267  C   4.0   -0.05    4.20    4.00    53.36206    42.95719    53.04464
   268  C   4.0   -0.08    4.14    3.88    57.70411    40.94124    53.40562
   269  C   4.0   -0.08    4.01    3.63    52.02201    40.54619    52.20334
   270  H   1.0    0.08    1.06    1.44    55.54910    47.47323    50.06193
   271  H   1.0    0.05    1.06    1.44    56.85271    45.94229    55.20802
   272  H   1.0    0.04    1.06    1.44    56.28290    43.06922    50.23773
   273  H   1.0    0.04    1.03    1.43    53.19230    43.15462    55.08754
   274  H   1.0    0.05    1.03    1.43    52.36658    44.57869    52.24873
   275  H   1.0    0.03    1.00    1.43    56.85758    39.15095    52.88217
   276  H   1.0    0.06    1.00    1.43    59.63185    40.96166    52.70044
   277  H   1.0    0.04    1.01    1.43    57.77853    41.13067    55.44372
   278  H   1.0    0.04    1.00    1.43    50.01983    40.73003    52.62303
   279  H   1.0    0.03    1.00    1.43    52.23221    40.21573    50.18765
   280  H   1.0    0.03    1.00    1.43    52.71089    38.88927    53.19934
   281  N   5.0   -0.10    3.66    2.22    61.71023    45.23683    54.38580
   282  C   4.0    0.03    4.59    4.65    64.41628    45.28786    53.82684
   283  C   4.0    0.16    3.41    3.08    65.19114    43.26783    51.88630
   284  O   6.0   -0.31    1.23    1.80    64.40728    41.10770    51.88604
   285  C   4.0   -0.03    4.35    4.29    65.68346    44.78290    56.39361
   286  C   4.0   -0.03    4.28    4.15    63.61800    43.44515    57.90027
   287  C   4.0   -0.01    4.38    4.34    61.29437    44.93298    57.08527
   288  H   1.0    0.05    1.05    1.44    64.89470    47.15174    53.06966
   289  H   1.0    0.06    1.02    1.43    67.40422    43.67426    56.22309
   290  H   1.0    0.06    1.03    1.43    66.13571    46.57793    57.29194
   291  H   1.0    0.05    1.03    1.43    63.44598    41.48215    57.30298
   292  H   1.0    0.06    1.02    1.43    63.93493    43.51159    59.92731
   293  H   1.0    0.04    1.02    1.43    59.52518    43.98203    57.47941
   294  H   1.0    0.06    1.02    1.43    61.26390    46.78567    58.01805
   295  N   5.0   -0.15    3.48    2.06    66.96736    44.07357    50.24702
   296  C   4.0    0.03    4.41    4.39    67.60452    42.61836    48.00957
   297  C   4.0    0.16    3.46    3.10    68.85394    40.08161    48.64559
   298  O   6.0   -0.31    1.30    1.80    68.42546    38.18281    47.42480
   299  C   4.0   -0.05    4.28    4.16    69.42618    44.03547    46.24378
   300  C   4.0   -0.05    4.19    3.98    68.90585    46.88702    46.07316
   301  C   4.0   -0.01    4.21    4.02    69.53210    47.99045    43.48078
   302  N   5.0   -0.13    3.41    2.03    72.06048    47.29682    42.64363
   303  C   4.0    0.10    3.34    3.06    73.09552    48.05650    40.48988
   304  N   5.0   -0.17    3.26    1.97    71.97556    49.77158    39.03798
   305  N   5.0   -0.17    3.24    1.97    75.26777    47.02613    39.72497
   306  H   1.0    0.08    1.08    1.44    67.59303    45.87169    50.34218
   307  H   1.0    0.05    1.05    1.44    65.85085    42.17169    47.00113
   308  H   1.0    0.05    1.03    1.43    71.34058    43.69778    46.92726
   309  H   1.0    0.04    1.03    1.43    69.24425    43.16572    44.38337
   310  H   1.0    0.04    1.03    1.43    66.90558    47.26057    46.39924
   311  H   1.0    0.05    1.02    1.43    69.99553    47.88175    47.51076
   312  H   1.0    0.04    1.02    1.43    68.15281    47.29728    42.10681
   313  H   1.0    0.05    1.02    1.43    69.39483    50.04704    43.62029
   314  H   1.0    0.08    1.07    1.44    73.00151    46.01359    43.69644
   315  H   1.0    0.09    1.03    1.43    70.44061    50.74246    39.61084
   316  H   1.0    0.10    1.03    1.43    72.81329    50.34829    37.42858
   317  H   1.0    0.10    1.03    1.43    76.15670    45.68059    40.72754
   318  H   1.0    0.11    1.03    1.43    76.10091    47.59258    38.11069
   319  N   5.0   -0.14    3.39    2.01    70.53808    40.18324    50.54246
   320  C   4.0    0.03    4.24    4.08    72.13524    38.05410    51.19574
   321  C   4.0    0.18    3.40    3.08    70.68973    35.55496    51.03707
   322  O   6.0   -0.26    1.23    1.80    71.34720    33.82979    49.66995
   323  H   1.0    0.09    1.07    1.44    70.82766    41.82915    51.46031
   324  H   1.0    0.07    1.02    1.43    73.73893    37.89002    49.89711
   325  H   1.0    0.06    1.02    1.43    72.86727    38.29895    53.10647
   326  N   5.0   -0.13    3.47    2.06    68.67456    35.40849    52.58588
   327  C   4.0    0.04    4.36    4.31    67.15527    33.13024    52.62736
   328  C   4.0    0.16    3.49    3.11    65.82562    32.79502    50.09306
   329  O   6.0   -0.32    1.39    1.80    65.89995    30.74365    48.98188
   330  C   4.0   -0.07    4.11    3.82    65.20531    33.19351    54.74009
   331  H   1.0    0.09    1.06    1.44    68.18319    36.84550    53.73673
   332  H   1.0    0.07    1.06    1.44    68.40491    31.48936    52.84074
   333  H   1.0    0.05    1.00    1.43    64.09841    31.46265    54.68349
   334  H   1.0    0.06    1.00    1.43    66.14964    33.28783    56.56001
   335  H   1.0    0.04    1.00    1.43    63.95852    34.80387    54.49268
   336  N   5.0   -0.14    3.48    2.06    64.53985    34.76254    49.23001
   337  C   4.0    0.03    4.43    4.43    62.97639    34.58160    46.98520
   338  C   4.0    0.16    3.53    3.13    64.26624    33.13576    44.84023
   339  O   6.0   -0.30    1.28    1.80    63.14879    31.45944    43.71032
   340  C   4.0   -0.05    4.38    4.35    62.26157    37.18441    45.95724
   341  C   4.0   -0.02    4.17    3.94    60.38348    38.67052    47.58481
   342  C   4.0   -0.07    4.11    3.82    60.02770    41.28486    46.40934
   343  C   4.0   -0.08    4.10    3.80    57.85026    37.28934    47.78557
   344  H   1.0    0.09    1.07    1.44    64.53529    36.42005    50.18861
   345  H   1.0    0.04    1.06    1.44    61.28221    33.49070    47.45617
   346  H   1.0    0.05    1.03    1.43    64.01091    38.24425    45.72100
   347  H   1.0    0.04    1.04    1.43    61.41371    36.89755    44.10122
   348  H   1.0    0.05    1.06    1.44    61.18757    38.92098    49.46825
   349  H   1.0    0.05    1.00    1.43    58.86716    42.45611    47.62454
   350  H   1.0    0.05    1.00    1.43    61.82527    42.25075    46.18716
   351  H   1.0    0.04    1.00    1.43    59.13925    41.14044    44.56650
   352  H   1.0    0.03    1.00    1.43    56.41689    38.51737    48.58681
   353  H   1.0    0.04    1.00    1.43    57.20573    36.70030    45.92702
   354  H   1.0    0.03    1.00    1.43    57.98598    35.61166    48.96440
   355  N   5.0   -0.15    3.50    2.08    66.51442    34.03670    44.10376
   356  C   4.0    0.04    4.43    4.44    67.74888    32.98091    41.89959
   357  C   4.0    0.17    3.45    3.09    67.98090    30.09730    42.01172
   358  O   6.0   -0.27    1.21    1.80    68.08224    28.83783    40.07335
   359  C   4.0   -0.04    4.34    4.27    70.36713    34.15643    41.46934
   360  C   4.0   -0.02    4.16    3.92    70.40940    36.21760    39.42384
   361  C   4.0   -0.07    4.10    3.81    68.60271    38.38744    40.03281
   362  C   4.0   -0.06    4.10    3.80    73.10765    37.21670    39.13957
   363  H   1.0    0.11    1.09    1.44    67.44812    35.28937    45.21100
   364  H   1.0    0.05    1.06    1.44    66.52741    33.33991    40.26307
   365  H   1.0    0.06    1.03    1.43    71.02581    34.92236    43.26637
   366  H   1.0    0.06    1.03    1.43    71.68667    32.65376    40.95305
   367  H   1.0    0.05    1.05    1.44    69.84119    35.34900    37.63531
   368  H   1.0    0.04    1.00    1.43    68.76254    39.84173    38.59291
   369  H   1.0    0.04    1.00    1.43    66.65349    37.74949    40.09323
   370  H   1.0    0.05    1.00    1.43    69.06627    39.18847    41.86482
   371  H   1.0    0.05    1.00    1.43    73.20616    38.61196    37.63766
   372  H   1.0    0.05    1.00    1.43    73.73837    38.07776    40.89442
   373  H   1.0    0.06    1.00    1.43    74.41464    35.69318    38.69546
   374  N   5.0   -0.12    3.54    2.11    68.20290    29.14032    44.34095
   375  C   4.0    0.06    4.41    4.39    68.35503    26.47307    44.83407
   376  C   4.0    0.16    3.43    3.09    65.73405    25.22080    44.97686
   377  O   6.0   -0.24    1.24    1.80    65.23023    23.25872    43.84460
   378  C   4.0    0.05    4.17    3.95    69.72048    26.04510    47.34637
   379  O   6.0   -0.20    2.05    1.83    72.25513    26.79605    47.09083
   380  H   1.0    0.12    1.11    1.45    67.89075    30.26007    45.85899
   381  H   1.0    0.09    1.06    1.44    69.39342    25.58064    43.28319
   382  H   1.0    0.07    1.01    1.43    68.75812    27.17092    48.79982
   383  H   1.0    0.07    1.01    1.43    69.55583    24.03853    47.86121
   384  H   1.0    0.15    1.02    1.43    73.10414    26.63295    48.69706
   385  N   5.0   -0.12    3.53    2.10    64.11562    26.47386    46.43747
   386  C   4.0    0.04    4.43    4.42    61.62867    25.52620    47.08437
   387  C   4.0    0.18    3.49    3.11    60.40942    24.45659    44.66984
   388  O   6.0   -0.29    1.27    1.80    59.88917    25.79115    42.84472
   389  C   4.0   -0.04    4.29    4.17    60.09631    27.69238    48.25794
   390  C   4.0   -0.04    4.03    3.68    60.95907    28.44346    50.91310
   391  S   6.0   -0.00    2.53    3.10    61.15766    25.83841    53.25736
   392  C   4.0   -0.05    3.87    3.42    59.16627    27.16350    55.76342
   393  H   1.0    0.11    1.13    1.45    64.73761    28.01214    47.40201
   394  H   1.0    0.06    1.07    1.44    61.82460    23.94816    48.42657
   395  H   1.0    0.06    1.03    1.43    60.34024    29.31173    47.00004
   396  H   1.0    0.04    1.03    1.43    58.10598    27.17071    48.29786
   397  H   1.0    0.06    1.10    1.44    62.87125    29.16969    50.87462
   398  H   1.0    0.04    1.07    1.44    59.67735    29.84664    51.69234
   399  H   1.0    0.07    1.05    1.44    59.05854    25.69871    57.19605
   400  H   1.0    0.05    1.03    1.43    60.07171    28.83077    56.53799
   401  H   1.0    0.05    1.03    1.43    57.28085    27.54557    55.04975
   402  N   5.0   -0.12    3.50    2.08    59.88599    21.99398    44.73089
   403  C   4.0    0.05    4.43    4.43    58.76510    20.73610    42.58137
   404  C   4.0    0.15    3.49    3.11    56.04211    21.59817    42.26946
   405  O   6.0   -0.31    1.41    1.80    54.96243    22.83717    43.90623
   406  C   4.0   -0.02    4.27    4.14    58.85092    17.87488    42.93659
   407  C   4.0    0.28    3.09    3.02    61.16044    16.70937    41.47222
   408  O   6.0   -0.24    1.18    1.80    61.44604    17.46403    39.26477
   409  O   6.0   -0.20    1.16    1.80    62.43248    15.12291    42.63830
   410  H   1.0    0.11    1.09    1.44    60.32673    20.91739    46.26249
   411  H   1.0    0.08    1.06    1.44    59.84638    21.22743    40.87335
   412  H   1.0    0.09    1.03    1.43    59.04346    17.38193    44.92801
   413  H   1.0    0.07    1.03    1.43    57.15269    16.95733    42.19835
   414  N   5.0   -0.15    3.42    2.03    54.81435    20.90352    40.16766
   415  C   4.0    0.04    4.25    4.09    52.09464    21.33680    39.98659
   416  C   4.0    0.11    3.31    3.05    50.82138    20.93138    42.55671
   417  O   6.0   -0.27    1.12    1.80    49.27697    22.41818    43.42981
   418  C   4.0   -0.05    4.09    3.79    50.89951    19.61903    38.00679
   419  H   1.0    0.09    1.06    1.44    55.67824    19.85069    38.82801
   420  H   1.0    0.05    1.05    1.44    51.76022    23.31687    39.46888
   421  H   1.0    0.07    1.00    1.43    48.89012    20.00261    37.82797
   422  H   1.0    0.05    1.00    1.43    51.77458    19.92999    36.17608
   423  H   1.0    0.07    1.00    1.43    51.09928    17.63128    38.48575
   424  N   5.0   -0.18    3.29    1.98    52.86980    20.65199    48.45823
   425  C   4.0    0.04    4.34    4.27    53.75403    22.42256    50.35607
   426  C   4.0    0.16    3.42    3.08    52.51766    24.99830    49.92252
   427  O   6.0   -0.31    1.28    1.80    51.70487    26.29457    51.67010
   428  C   4.0   -0.03    4.32    4.24    56.60627    22.56368    50.17047
   429  C   4.0    0.26    3.12    3.03    57.86031    19.97253    50.84057
   430  O   6.0   -0.23    1.17    1.80    57.15266    18.92889    52.82223
   431  O   6.0   -0.26    1.20    1.80    59.49762    19.18436    49.32557
   432  H   1.0    0.11    1.04    1.43    54.15951    20.07485    47.17681
   433  H   1.0    0.08    1.05    1.44    53.26231    21.76996    52.26383
   434  H   1.0    0.06    1.04    1.43    57.17100    23.09612    48.26763
   435  H   1.0    0.05    1.09    1.44    57.31043    23.91516    51.55066
   436  N   5.0   -0.14    3.49    2.07    52.44501    25.73185    47.52294
   437  C   4.0    0.04    4.34    4.27    51.00682    27.90721    46.70925
   438  C   4.0    0.11    3.25    3.04    48.22859    27.72302    47.41407
   439  O   6.0   -0.31    1.20    1.80    47.02273    29.67024    47.61638
   440  C   4.0   -0.04    4.35    4.28    51.29219    28.28794    43.85285
   441  C   4.0   -0.02    4.18    3.97    49.90348    30.61007    42.79164
   442  C   4.0   -0.08    4.10    3.79    50.96856    33.10056    43.79531
   443  C   4.0   -0.08    4.11    3.81    50.03783    30.56732    39.90825
   444  H   1.0    0.12    1.13    1.45    53.17272    24.58339    46.17869
   445  H   1.0    0.05    1.06    1.44    51.70856    29.58074    47.70957
   446  H   1.0    0.05    1.03    1.43    53.31345    28.41680    43.46885
   447  H   1.0    0.07    1.04    1.43    50.56603    26.58632    42.94323
   448  H   1.0    0.06    1.06    1.44    47.91667    30.48706    43.34019
   449  H   1.0    0.03    1.00    1.43    49.99713    34.67047    42.89513
   450  H   1.0    0.04    1.00    1.43    50.66659    33.25508    45.81822
   451  H   1.0    0.03    1.00    1.43    52.97615    33.24564    43.39914
   452  H   1.0    0.04    1.00    1.43    48.88467    32.08157    39.14682
   453  H   1.0    0.04    1.00    1.43    51.97142    30.83085    39.27537
   454  H   1.0    0.05    1.00    1.43    49.32508    28.79722    39.14608
   455  N   5.0   -0.19    3.24    1.96    48.42734    28.29368    55.29684
   456  C   4.0    0.04    4.31    4.22    49.29240    30.73486    56.18659
   457  C   4.0    0.16    3.38    3.07    47.44725    32.82503    55.35823
   458  O   6.0   -0.30    1.27    1.80    46.75540    34.44298    56.86568
   459  C   4.0   -0.04    4.25    4.10    52.03669    31.21998    55.41452
   460  C   4.0   -0.05    4.20    3.99    53.21198    33.29171    57.05269
   461  C   4.0   -0.05    4.16    3.92    55.89007    33.92752    56.16061
   462  C   4.0   -0.04    4.11    3.82    57.30724    35.65766    57.98216
   463  N   5.0   -0.12    4.02    2.93    55.75865    37.89561    58.73454
   464  H   1.0    0.13    1.07    1.44    49.52415    27.30118    54.08448
   465  H   1.0    0.06    1.06    1.44    49.18244    30.69196    58.26149
   466  H   1.0    0.05    1.03    1.43    53.05465    29.44411    55.67916
   467  H   1.0    0.05    1.02    1.43    52.13023    31.70756    53.41565
   468  H   1.0    0.05    1.03    1.43    51.97418    34.93596    56.93004
   469  H   1.0    0.05    1.03    1.43    53.22869    32.61594    59.00171
   470  H   1.0    0.04    1.03    1.43    56.97034    32.18241    55.99122
   471  H   1.0    0.03    1.03    1.43    55.78134    34.75819    54.28045
   472  H   1.0    0.05    1.02    1.43    57.81084    34.62382    59.69031
   473  H   1.0    0.04    1.02    1.43    59.03405    36.31949    57.07313
   474  H   1.0    0.06    1.02    1.43    56.86232    39.13032    59.76031
   475  H   1.0    0.05    1.02    1.43    55.02044    38.79707    57.16223
   476  H   1.0    0.06    1.02    1.43    54.26857    37.33321    59.85480
   477  N   5.0   -0.14    3.45    2.05    46.76125    32.82710    52.92832
   478  C   4.0    0.03    4.27    4.14    45.03720    34.68381    51.81105
   479  C   4.0    0.10    3.24    3.04    42.58458    34.89577    53.31229
   480  O   6.0   -0.30    1.18    1.80    41.76960    36.94278    54.03201
   481  C   4.0   -0.04    4.38    4.34    44.56200    33.83576    49.07869
   482  C   4.0   -0.02    4.14    3.89    42.99979    35.40479    47.20125
   483  C   4.0   -0.06    4.09    3.79    40.29124    35.88094    48.07655
   484  C   4.0   -0.08    4.09    3.78    44.34652    37.83608    46.43155
   485  H   1.0    0.10    1.08    1.44    47.18951    31.31542    51.84093
   486  H   1.0    0.05    1.05    1.44    45.96702    36.53234    51.87941
   487  H   1.0    0.06    1.05    1.44    46.41871    33.59497    48.22727
   488  H   1.0    0.07    1.04    1.43    43.71290    31.96245    49.18190
   489  H   1.0    0.05    1.06    1.44    42.88550    34.20082    45.51765
   490  H   1.0    0.06    1.00    1.43    39.20413    36.81347    46.60081
   491  H   1.0    0.07    1.00    1.43    39.35387    34.10292    48.52229
   492  H   1.0    0.06    1.01    1.43    40.23400    37.06539    49.74916
   493  H   1.0    0.04    1.00    1.43    43.14590    38.94600    45.18854
   494  H   1.0    0.04    1.01    1.43    44.78937    38.96713    48.07358
   495  H   1.0    0.04    1.00    1.43    46.08707    37.40698    45.43161
   496  N   5.0   -0.17    3.23    1.96    43.51401    37.80881    59.78407
   497  C   4.0    0.04    4.34    4.27    44.46605    40.36439    59.52460
   498  C   4.0    0.17    3.43    3.09    42.44962    42.26112    58.67627
   499  O   6.0   -0.25    1.21    1.80    42.16285    44.30135    59.73093
   500  C   4.0   -0.03    4.38    4.34    46.59116    40.29853    57.55655
   501  C   4.0   -0.01    3.58    3.16    47.91659    42.79322    57.39915
   502  C   4.0   -0.03    3.47    3.10    50.00196    43.27893    58.91536
   503  C   4.0   -0.03    3.49    3.11    47.05623    44.66558    55.77679
   504  C   4.0   -0.03    3.38    3.07    51.22003    45.58781    58.79102
   505  C   4.0   -0.02    3.38    3.07    48.28507    46.96465    55.63155
   506  C   4.0   -0.02    3.38    3.07    50.37497    47.42708    57.13362
   507  H   1.0    0.13    1.06    1.44    44.30800    36.49336    58.63959
   508  H   1.0    0.07    1.05    1.44    45.13520    41.02520    61.37386
   509  H   1.0    0.06    1.03    1.43    47.88600    38.78352    58.07758
   510  H   1.0    0.05    1.04    1.43    45.72858    39.81000    55.75043
   511  H   1.0    0.06    1.03    1.43    50.61965    41.83311    60.20817
   512  H   1.0    0.06    1.05    1.44    45.41924    44.30900    54.62829
   513  H   1.0    0.07    1.03    1.43    52.82699    45.96971    59.98366
   514  H   1.0    0.07    1.03    1.43    47.59995    48.39078    54.34420
   515  H   1.0    0.07    1.03    1.43    51.36090    49.20536    56.99748
   516  N   5.0   -0.13    3.53    2.10    41.21723    41.58341    56.57659
   517  C   4.0    0.05    4.32    4.23    39.05106    42.96253    55.66806
   518  C   4.0    0.11    3.21    3.04    36.64754    41.70639    56.71081
   519  O   6.0   -0.21    1.13    1.80    36.58401    39.50176    57.37379
   520  C   4.0   -0.03    4.31    4.22    38.98500    42.93345    52.75537
   521  C   4.0   -0.01    3.55    3.14    41.26649    44.16846    51.59085
   522  C   4.0   -0.05    3.49    3.11    43.31747    42.72117    50.82136
   523  C   4.0   -0.03    3.46    3.10    41.41203    46.76799    51.27007
   524  C   4.0   -0.05    3.44    3.09    45.44248    43.80687    49.76493
   525  C   4.0   -0.04    3.44    3.09    43.52636    47.87955    50.21873
   526  C   4.0    0.07    3.45    3.09    45.56864    46.41496    49.44713
   527  O   6.0   -0.25    2.11    1.84    47.66281    47.44084    48.39105
   528  H   1.0    0.12    1.12    1.45    41.38016    39.79262    55.90989
   529  H   1.0    0.07    1.06    1.44    39.20673    44.89137    56.40244
   530  H   1.0    0.06    1.03    1.43    38.89214    40.95884    52.17021
   531  H   1.0    0.06    1.03    1.43    37.25871    43.86886    52.12673
   532  H   1.0    0.06    1.03    1.43    43.19647    40.70631    51.09826
   533  H   1.0    0.07    1.03    1.43    39.83404    47.91742    51.84986
   534  H   1.0    0.05    1.03    1.43    47.04606    42.68324    49.19876
   535  H   1.0    0.06    1.03    1.43    43.62492    49.90571    49.99878
   536  H   1.0    0.12    1.04    1.43    47.50820    49.26653    48.35452
   537  N   5.0   -0.18    3.22    1.96    39.18121    44.76196    30.10532
   538  C   4.0    0.03    4.29    4.18    41.68110    44.07964    29.21437
   539  C   4.0    0.10    3.22    3.04    41.46183    42.22797    27.00927
   540  O   6.0   -0.25    1.11    1.80    42.87856    42.24844    25.16683
   541  C   4.0   -0.02    4.26    4.12    43.30172    42.88190    31.30873
   542  C   4.0   -0.07    4.12    3.83    46.07405    42.83030    30.49105
   543  C   4.0   -0.07    4.12    3.85    43.04445    44.30922    33.80542
   544  H   1.0    0.09    1.03    1.43    38.65308    44.30529    31.88445
   545  H   1.0    0.06    1.05    1.44    42.60726    45.79512    28.50150
   546  H   1.0    0.05    1.06    1.44    42.61892    40.94851    31.56830
   547  H   1.0    0.04    1.00    1.43    47.16939    41.70851    31.81618
   548  H   1.0    0.06    1.00    1.43    46.30061    42.01573    28.61867
   549  H   1.0    0.05    1.00    1.43    46.84623    44.73462    30.44097
   550  H   1.0    0.04    1.00    1.43    44.42422    43.58432    35.14197
   551  H   1.0    0.04    1.00    1.43    43.40077    46.30981    33.50982
   552  H   1.0    0.05    1.00    1.43    41.18489    44.08665    34.65216
   553  H   1.0    0.11    1.07    1.44    55.02810    27.09504    24.19778
   554  H   1.0    0.07    1.04    1.44    45.72438    58.16052    35.88584
   555  H   1.0    0.11    1.08    1.44    44.47002    58.59746    41.25948
   556  H   1.0    0.08    1.05    1.44    39.22710    59.90643    46.75346
   557  H   1.0    0.12    1.07    1.44    46.85878    56.15426    57.96967
   558  H   1.0    0.07    1.05    1.44    51.24230    19.40587    43.58954
   559  H   1.0    0.12    1.07    1.44    52.30227    19.24073    49.21902
   560  H   1.0    0.08    1.04    1.44    47.43620    26.03126    47.69888
   561  H   1.0    0.12    1.07    1.44    48.21061    27.25045    56.62246
   562  H   1.0    0.08    1.05    1.44    41.59712    33.34057    53.73340
   563  H   1.0    0.12    1.07    1.44    43.77243    37.26549    61.37485
   564  H   1.0    0.09    1.05    1.44    35.05102    42.70530    56.86698
   565  H   1.0    0.11    1.07    1.44    38.99596    46.45125    30.03790
   566  H   1.0    0.08    1.05    1.44    40.10989    40.90763    27.01505

  Z AO/shell   Hii/eV     exponent
  1     Wed Apr 25 08:07:45 CEST 2018   EN: 2.200 GM2: 0.406  GM3: 0.0800  RAES: 1.40
     1s    -10.707211    1.230000
  6     Wed Apr 25 08:07:45 CEST 2018   EN: 2.550 GM2: 0.538  GM3: 0.1500  RAES: 3.00
     2s    -13.970922    2.096432
     2p    -10.063292    1.800000
  7     Wed Apr 25 08:07:45 CEST 2018   EN: 3.040 GM2: 0.461  GM3:-0.0640  RAES: 1.90
     2s    -16.686243    2.339881
     2p    -12.523956    2.014332
  8     Wed Apr 25 08:07:45 CEST 2018   EN: 3.440 GM2: 0.452  GM3:-0.0517  RAES: 1.80
     2s    -20.229985    2.439742
     2p    -15.503117    2.137023
 16     Tue Apr 24 11:44:34 CEST 2018   EN: 2.580 GM2: 0.340  GM3:-0.0502  RAES: 3.10
     3s    -20.029654    1.981333
     3p    -11.377694    2.025643
     3d     -0.420282    1.702555
 no old-style atom pair restraining (fixing) potential

molecular fragmentation (1/2 indicates fragments):
111111111111111111111111111111111111111111111111111111111111111111111111
111111111111111111111111111111111111111111111111111111111111111111111111
111111111111111111111111111111111111111111111111111111111111111111122222
222222222222222222222222222222222222222222222222222222222222222222222222
222222222222222222222222222222222222222222222222222222222222222222222222
222222222222222222222222222222222222222222222222222222222222222222222222
222222222222222222222222222222222222222222222222222222222222222222222222
22222222222222222222222222222222222222222222222211222222222222
# atoms in fragment 1/2:   213   353
 fragment masses (1/2) :     1304.76     2343.91
CMA distance (Bohr)    :  17.471
constraining FC (au)   :  0.0500
           ------------------------------------------------- 
          |        Self-Consistent Charge Iterations        |
           ------------------------------------------------- 

 Ncao       : 1340
 Nao        : 1339
 Nshell     : 823
 Nel        : 1452
 T(el)      :   500.0
 intcut     :    35.0
 scfconv/Eh :  0.100E-06
   qconv/e  :  0.100E-04
 intneglect :  0.100E-08
 broydamp   :      0.400
 iter      E             dE          RMSdq      gap      omega  full diag
   1   -823.5856570 -0.823586E+03  0.425E+00    2.86       0.0  T
   2   -825.1851666 -0.159951E+01  0.205E+00    1.99       1.0  T
   3   -825.2789195 -0.937530E-01  0.112E+00    2.11       1.0  T
   4   -825.4020934 -0.123174E+00  0.256E-01    1.53       1.0  T
   5   -825.4092766 -0.718322E-02  0.128E-01    1.67       1.0  T
   6   -825.4108258 -0.154918E-02  0.599E-02    1.61       1.0  T
   7   -825.4113770 -0.551267E-03  0.280E-02    1.58       1.0  T
   8   -825.4114553 -0.782214E-04  0.133E-02    1.56       1.0  T
   9   -825.4114795 -0.242713E-04  0.628E-03    1.54       1.0  T
  10   -825.4114837 -0.412439E-05  0.294E-03    1.54       1.4  T
  11   -825.4114849 -0.120988E-05  0.141E-03    1.54       3.0  T
  12   -825.4114851 -0.253454E-06  0.674E-04    1.54       6.2  T
  13   -825.4114852 -0.735421E-07  0.369E-04    1.54      11.4  T
  14   -825.4114852 -0.184466E-07  0.147E-04    1.54      28.5  T
  15   -825.4114852 -0.368357E-08  0.666E-05    1.54      63.1  T
  16   -825.4114852 -0.535920E-09  0.320E-05    1.54     131.6  T
speedup  1.00
cpu  time for SCC   14.46 s
wall time for SCC   14.45 s

   *** convergence criteria satisfied after 16 iterations ***

          eigenvalues
 #    :         714        715        716        717        718        719        720        721
 occ. :        2.000      2.000      2.000      2.000      2.000      2.000      2.000      2.000
 eps  :       -10.423    -10.380    -10.377    -10.365    -10.073    -10.046    -10.013     -9.908
 #    :         722        723        724        725        726        727        728        729
 occ. :        2.000      2.000      2.000      2.000      2.000      0.000      0.000      0.000
 eps  :        -9.844     -9.791     -9.751     -9.678     -9.474     -7.929     -7.740     -7.691
 #    :         730        731        732        733        734        735        736        737
 occ. :        0.000      0.000      0.000      0.000      0.000      0.000      0.000      0.000
 eps  :        -7.666     -7.600     -7.588     -7.418     -6.649     -6.502     -6.424     -6.324


   #   Z            q   n(s)   n(p)   n(d)      C6AA      α(0)
   1   7 N     -0.396  1.308  4.088  0.000    30.256     8.169
   2   6 C      0.027  1.060  2.913  0.000    20.135     6.392
   3   6 C      0.260  1.050  2.690  0.000    22.612     7.787
   4   8 O     -0.488  1.736  4.752  0.000    23.515     6.502
   5   6 C     -0.070  1.062  3.007  0.000    21.831     6.651
   6   6 C     -0.018  1.058  2.960  0.000    20.858     6.496
   7   6 C     -0.130  1.043  3.086  0.000    23.049     6.846
   8   6 C     -0.128  1.042  3.086  0.000    23.011     6.840
   9   1 H      0.151  0.849  0.000  0.000     1.392     1.848
  10   1 H      0.035  0.965  0.000  0.000     2.514     2.480
  11   1 H      0.032  0.968  0.000  0.000     2.565     2.504
  12   1 H      0.047  0.953  0.000  0.000     2.354     2.399
  13   1 H      0.016  0.984  0.000  0.000     2.789     2.612
  14   1 H      0.033  0.967  0.000  0.000     2.546     2.495
  15   1 H      0.047  0.953  0.000  0.000     2.360     2.403
  16   1 H      0.067  0.933  0.000  0.000     2.115     2.274
  17   1 H      0.039  0.961  0.000  0.000     2.461     2.453
  18   1 H      0.067  0.933  0.000  0.000     2.122     2.278
  19   1 H      0.037  0.963  0.000  0.000     2.490     2.468
  20   7 N     -0.172  1.249  3.923  0.000    24.719     7.384
  21   6 C      0.003  1.068  2.929  0.000    20.541     6.453
  22   6 C      0.271  1.042  2.687  0.000    22.425     7.755
  23   8 O     -0.461  1.737  4.723  0.000    22.934     6.421
  24   6 C     -0.092  1.062  3.030  0.000    22.248     6.715
  25   6 C     -0.082  1.051  3.031  0.000    22.061     6.687
  26   6 C     -0.097  1.054  3.043  0.000    22.354     6.731
  27   6 C     -0.055  1.060  2.994  0.000    21.649     6.641
  28   7 N     -0.149  1.229  3.920  0.000    24.202     7.307
  29   1 H      0.212  0.788  0.000  0.000     1.048     1.604
  30   1 H      0.091  0.909  0.000  0.000     1.871     2.139
  31   1 H      0.071  0.929  0.000  0.000     2.077     2.254
  32   1 H      0.063  0.937  0.000  0.000     2.164     2.300
  33   1 H      0.072  0.928  0.000  0.000     2.059     2.244
  34   1 H      0.075  0.925  0.000  0.000     2.029     2.228
  35   1 H      0.074  0.926  0.000  0.000     2.044     2.236
  36   1 H      0.087  0.913  0.000  0.000     1.908     2.160
  37   1 H      0.129  0.871  0.000  0.000     1.543     1.943
  38   1 H      0.110  0.890  0.000  0.000     1.695     2.036
  39   1 H      0.294  0.706  0.000  0.000     0.733     1.341
  40   1 H      0.289  0.711  0.000  0.000     0.748     1.355
  41   1 H      0.300  0.700  0.000  0.000     0.715     1.324
  42   7 N     -0.172  1.241  3.930  0.000    24.714     7.383
  43   6 C      0.003  1.065  2.933  0.000    20.536     6.452
  44   6 C      0.270  1.042  2.688  0.000    22.437     7.757
  45   8 O     -0.467  1.737  4.731  0.000    23.073     6.440
  46   6 C     -0.090  1.057  3.033  0.000    22.214     6.710
  47   6 C     -0.088  1.052  3.036  0.000    22.170     6.704
  48   6 C     -0.098  1.051  3.047  0.000    22.367     6.734
  49   6 C     -0.056  1.059  2.997  0.000    21.678     6.647
  50   7 N     -0.145  1.226  3.919  0.000    24.118     7.294
  51   1 H      0.201  0.799  0.000  0.000     1.100     1.643
  52   1 H      0.106  0.894  0.000  0.000     1.729     2.056
  53   1 H      0.052  0.948  0.000  0.000     2.293     2.368
  54   1 H      0.082  0.918  0.000  0.000     1.961     2.190
  55   1 H      0.067  0.933  0.000  0.000     2.123     2.279
  56   1 H      0.065  0.935  0.000  0.000     2.141     2.288
  57   1 H      0.093  0.907  0.000  0.000     1.851     2.127
  58   1 H      0.081  0.919  0.000  0.000     1.965     2.192
  59   1 H      0.124  0.876  0.000  0.000     1.579     1.965
  60   1 H      0.124  0.876  0.000  0.000     1.582     1.967
  61   1 H      0.297  0.703  0.000  0.000     0.721     1.330
  62   1 H      0.291  0.709  0.000  0.000     0.741     1.348
  63   1 H      0.288  0.712  0.000  0.000     0.751     1.358
  64   7 N     -0.176  1.242  3.934  0.000    24.811     7.398
  65   6 C      0.021  1.064  2.915  0.000    20.215     6.401
  66   6 C      0.277  1.038  2.685  0.000    22.307     7.734
  67   8 O     -0.491  1.742  4.749  0.000    23.577     6.510
  68   6 C     -0.081  1.055  3.025  0.000    22.027     6.680
  69   6 C      0.009  1.078  2.913  0.000    27.812     8.651
  70   6 C     -0.042  1.080  2.963  0.000    29.049     8.839
  71   6 C     -0.044  1.081  2.962  0.000    29.084     8.844
  72   6 C     -0.030  1.078  2.952  0.000    28.749     8.793
  73   6 C     -0.034  1.081  2.953  0.000    28.838     8.806
  74   6 C     -0.035  1.079  2.956  0.000    28.870     8.811
  75   1 H      0.195  0.805  0.000  0.000     1.133     1.668
  76   1 H      0.071  0.929  0.000  0.000     2.078     2.254
  77   1 H      0.057  0.943  0.000  0.000     2.238     2.340
  78   1 H      0.072  0.928  0.000  0.000     2.060     2.245
  79   1 H      0.034  0.966  0.000  0.000     2.533     2.489
  80   1 H      0.056  0.944  0.000  0.000     2.250     2.346
  81   1 H      0.020  0.980  0.000  0.000     2.741     2.589
  82   1 H      0.046  0.954  0.000  0.000     2.368     2.406
  83   1 H      0.027  0.973  0.000  0.000     2.634     2.538
  84   7 N     -0.168  1.239  3.929  0.000    24.636     7.372
  85   6 C      0.007  1.064  2.929  0.000    20.468     6.442
  86   6 C      0.273  1.040  2.687  0.000    22.389     7.749
  87   8 O     -0.483  1.743  4.740  0.000    23.408     6.487
  88   6 C     -0.094  1.059  3.035  0.000    22.282     6.719
  89   6 C     -0.088  1.053  3.035  0.000    22.172     6.704
  90   6 C     -0.096  1.053  3.043  0.000    22.320     6.726
  91   6 C     -0.047  1.058  2.990  0.000    21.512     6.620
  92   7 N     -0.129  1.221  3.908  0.000    23.797     7.245
  93   1 H      0.219  0.781  0.000  0.000     1.016     1.579
  94   1 H      0.083  0.917  0.000  0.000     1.948     2.183
  95   1 H      0.093  0.907  0.000  0.000     1.849     2.126
  96   1 H      0.074  0.926  0.000  0.000     2.038     2.232
  97   1 H      0.060  0.940  0.000  0.000     2.204     2.322
  98   1 H      0.067  0.933  0.000  0.000     2.124     2.279
  99   1 H      0.091  0.909  0.000  0.000     1.868     2.137
 100   1 H      0.081  0.919  0.000  0.000     1.965     2.192
 101   1 H      0.104  0.896  0.000  0.000     1.751     2.069
 102   1 H      0.119  0.881  0.000  0.000     1.622     1.991
 103   1 H      0.269  0.731  0.000  0.000     0.814     1.413
 104   1 H      0.274  0.726  0.000  0.000     0.797     1.399
 105   1 H      0.276  0.724  0.000  0.000     0.791     1.393
 106   7 N     -0.175  1.246  3.929  0.000    24.787     7.394
 107   6 C      0.013  1.063  2.924  0.000    20.353     6.423
 108   6 C      0.277  1.043  2.680  0.000    22.310     7.735
 109   8 O     -0.486  1.743  4.744  0.000    23.487     6.498
 110   6 C     -0.085  1.062  3.023  0.000    22.115     6.694
 111   6 C     -0.017  1.059  2.958  0.000    20.846     6.494
 112   6 C     -0.124  1.043  3.081  0.000    22.936     6.829
 113   6 C     -0.123  1.043  3.081  0.000    22.921     6.826
 114   1 H      0.217  0.783  0.000  0.000     1.023     1.584
 115   1 H      0.086  0.914  0.000  0.000     1.916     2.165
 116   1 H      0.071  0.929  0.000  0.000     2.069     2.250
 117   1 H      0.060  0.940  0.000  0.000     2.199     2.319
 118   1 H      0.050  0.950  0.000  0.000     2.316     2.380
 119   1 H      0.045  0.955  0.000  0.000     2.390     2.417
 120   1 H      0.048  0.952  0.000  0.000     2.343     2.394
 121   1 H      0.043  0.957  0.000  0.000     2.412     2.429
 122   1 H      0.045  0.955  0.000  0.000     2.387     2.416
 123   1 H      0.038  0.962  0.000  0.000     2.472     2.459
 124   1 H      0.044  0.956  0.000  0.000     2.398     2.422
 125   7 N     -0.184  1.240  3.944  0.000    24.976     7.422
 126   6 C      0.011  1.062  2.926  0.000    20.386     6.428
 127   6 C      0.269  1.046  2.685  0.000    22.454     7.759
 128   8 O     -0.512  1.745  4.767  0.000    24.043     6.574
 129   6 C     -0.079  1.056  3.023  0.000    21.996     6.677
 130   6 C     -0.076  1.050  3.027  0.000    21.953     6.670
 131   6 C     -0.105  1.056  3.048  0.000    22.493     6.752
 132   6 C     -0.050  1.058  2.993  0.000    21.573     6.630
 133   7 N     -0.150  1.231  3.918  0.000    24.224     7.310
 134   1 H      0.213  0.787  0.000  0.000     1.044     1.601
 135   1 H      0.096  0.904  0.000  0.000     1.821     2.111
 136   1 H      0.081  0.919  0.000  0.000     1.969     2.194
 137   1 H      0.049  0.951  0.000  0.000     2.332     2.388
 138   1 H      0.061  0.939  0.000  0.000     2.183     2.311
 139   1 H      0.052  0.948  0.000  0.000     2.290     2.366
 140   1 H      0.087  0.913  0.000  0.000     1.908     2.160
 141   1 H      0.091  0.909  0.000  0.000     1.870     2.138
 142   1 H      0.114  0.886  0.000  0.000     1.662     2.016
 143   1 H      0.108  0.892  0.000  0.000     1.710     2.045
 144   1 H      0.290  0.710  0.000  0.000     0.743     1.350
 145   1 H      0.294  0.706  0.000  0.000     0.731     1.339
 146   1 H      0.302  0.698  0.000  0.000     0.707     1.317
 147   7 N     -0.166  1.249  3.917  0.000    24.596     7.366
 148   6 C      0.021  1.064  2.915  0.000    20.231     6.406
 149   6 C      0.285  1.041  2.674  0.000    22.164     7.709
 150   8 O     -0.496  1.746  4.750  0.000    23.699     6.527
 151   6 C     -0.086  1.063  3.024  0.000    22.143     6.699
 152   6 C     -0.017  1.060  2.957  0.000    20.846     6.494
 153   6 C     -0.125  1.041  3.084  0.000    22.965     6.833
 154   6 C     -0.116  1.038  3.078  0.000    22.784     6.806
 155   1 H      0.226  0.774  0.000  0.000     0.985     1.554
 156   1 H      0.067  0.933  0.000  0.000     2.114     2.274
 157   1 H      0.063  0.937  0.000  0.000     2.163     2.300
 158   1 H      0.073  0.927  0.000  0.000     2.058     2.243
 159   1 H      0.057  0.943  0.000  0.000     2.235     2.338
 160   1 H      0.052  0.948  0.000  0.000     2.297     2.370
 161   1 H      0.053  0.947  0.000  0.000     2.278     2.360
 162   1 H      0.034  0.966  0.000  0.000     2.525     2.485
 163   1 H      0.043  0.957  0.000  0.000     2.407     2.426
 164   1 H      0.034  0.966  0.000  0.000     2.534     2.490
 165   1 H      0.032  0.968  0.000  0.000     2.553     2.499
 166   7 N     -0.177  1.244  3.933  0.000    24.825     7.400
 167   6 C      0.015  1.066  2.919  0.000    20.332     6.421
 168   6 C      0.284  1.042  2.674  0.000    22.186     7.713
 169   8 O     -0.485  1.746  4.738  0.000    23.445     6.492
 170   6 C     -0.095  1.067  3.028  0.000    22.299     6.722
 171   6 C     -0.018  1.057  2.961  0.000    20.867     6.498
 172   6 C     -0.136  1.048  3.089  0.000    23.175     6.864
 173   6 C     -0.122  1.041  3.081  0.000    22.894     6.822
 174   1 H      0.216  0.784  0.000  0.000     1.030     1.589
 175   1 H      0.078  0.922  0.000  0.000     1.997     2.210
 176   1 H      0.084  0.916  0.000  0.000     1.935     2.175
 177   1 H      0.075  0.925  0.000  0.000     2.035     2.231
 178   1 H      0.041  0.959  0.000  0.000     2.434     2.440
 179   1 H      0.049  0.951  0.000  0.000     2.330     2.387
 180   1 H      0.058  0.942  0.000  0.000     2.226     2.333
 181   1 H      0.059  0.941  0.000  0.000     2.207     2.323
 182   1 H      0.039  0.961  0.000  0.000     2.460     2.453
 183   1 H      0.053  0.947  0.000  0.000     2.288     2.366
 184   1 H      0.021  0.979  0.000  0.000     2.718     2.578
 185   7 N     -0.189  1.241  3.948  0.000    25.099     7.441
 186   6 C      0.013  1.059  2.928  0.000    20.364     6.426
 187   6 C      0.273  1.042  2.685  0.000    22.389     7.749
 188   8 O     -0.513  1.755  4.757  0.000    24.065     6.577
 189   6 C      0.059  1.040  2.901  0.000    19.803     6.374
 190   8 O     -0.463  1.686  4.776  0.000    22.103     6.347
 191   1 H      0.216  0.784  0.000  0.000     1.026     1.587
 192   1 H      0.078  0.922  0.000  0.000     1.997     2.210
 193   1 H      0.063  0.937  0.000  0.000     2.166     2.301
 194   1 H      0.058  0.942  0.000  0.000     2.227     2.334
 195   1 H      0.331  0.669  0.000  0.000     0.636     1.253
 196   7 N     -0.160  1.240  3.920  0.000    24.468     7.347
 197   6 C      0.026  1.061  2.913  0.000    20.127     6.387
 198   6 C      0.205  1.086  2.710  0.000    23.651     7.964
 199   8 O     -0.360  1.749  4.611  0.000    20.905     6.130
 200   6 C     -0.014  1.063  2.951  0.000    20.785     6.484
 201   6 C     -0.121  1.037  3.084  0.000    22.865     6.818
 202   6 C     -0.121  1.041  3.080  0.000    22.880     6.820
 203   1 H      0.225  0.775  0.000  0.000     0.985     1.555
 204   1 H      0.079  0.921  0.000  0.000     1.984     2.203
 205   1 H      0.067  0.933  0.000  0.000     2.124     2.279
 206   1 H      0.052  0.948  0.000  0.000     2.298     2.371
 207   1 H      0.074  0.926  0.000  0.000     2.042     2.235
 208   1 H      0.033  0.967  0.000  0.000     2.542     2.493
 209   1 H      0.053  0.947  0.000  0.000     2.279     2.361
 210   1 H      0.036  0.964  0.000  0.000     2.501     2.473
 211   1 H      0.047  0.953  0.000  0.000     2.358     2.401
 212   7 N     -0.385  1.314  4.071  0.000    29.950     8.128
 213   6 C      0.038  1.056  2.905  0.000    19.949     6.363
 214   6 C      0.196  1.086  2.717  0.000    23.811     7.992
 215   8 O     -0.390  1.762  4.628  0.000    21.488     6.215
 216   6 C     -0.069  1.059  3.010  0.000    21.806     6.647
 217   6 C     -0.012  1.057  2.955  0.000    20.753     6.480
 218   6 C     -0.120  1.043  3.077  0.000    22.852     6.815
 219   6 C     -0.116  1.039  3.076  0.000    22.766     6.803
 220   1 H      0.159  0.841  0.000  0.000     1.343     1.816
 221   1 H      0.068  0.932  0.000  0.000     2.113     2.273
 222   1 H      0.038  0.962  0.000  0.000     2.475     2.460
 223   1 H      0.035  0.965  0.000  0.000     2.513     2.479
 224   1 H      0.051  0.949  0.000  0.000     2.313     2.378
 225   1 H      0.061  0.939  0.000  0.000     2.191     2.315
 226   1 H      0.039  0.961  0.000  0.000     2.469     2.457
 227   1 H      0.044  0.956  0.000  0.000     2.398     2.422
 228   1 H      0.060  0.940  0.000  0.000     2.201     2.320
 229   1 H      0.034  0.966  0.000  0.000     2.527     2.486
 230   1 H      0.028  0.972  0.000  0.000     2.614     2.528
 231   7 N     -0.385  1.308  4.076  0.000    29.948     8.128
 232   6 C     -0.009  1.048  2.961  0.000    20.820     6.512
 233   6 C      0.273  1.043  2.684  0.000    22.382     7.747
 234   8 O     -0.456  1.739  4.717  0.000    22.841     6.408
 235   1 H      0.147  0.853  0.000  0.000     1.421     1.867
 236   1 H      0.069  0.931  0.000  0.000     2.097     2.265
 237   1 H      0.019  0.981  0.000  0.000     2.747     2.592
 238   7 N     -0.182  1.255  3.928  0.000    24.946     7.418
 239   6 C      0.008  1.064  2.928  0.000    20.457     6.440
 240   6 C      0.268  1.043  2.688  0.000    22.469     7.762
 241   8 O     -0.502  1.754  4.747  0.000    23.818     6.543
 242   6 C     -0.089  1.059  3.030  0.000    22.188     6.706
 243   6 C     -0.088  1.055  3.033  0.000    22.171     6.704
 244   6 C     -0.033  1.054  2.979  0.000    21.237     6.576
 245   7 N     -0.134  1.207  3.928  0.000    23.908     7.262
 246   6 C      0.233  1.017  2.749  0.000    23.107     7.870
 247   7 N     -0.243  1.221  4.022  0.000    26.341     7.622
 248   7 N     -0.263  1.231  4.032  0.000    26.820     7.691
 249   1 H      0.199  0.801  0.000  0.000     1.111     1.651
 250   1 H      0.086  0.914  0.000  0.000     1.917     2.165
 251   1 H      0.071  0.929  0.000  0.000     2.073     2.252
 252   1 H      0.083  0.917  0.000  0.000     1.952     2.185
 253   1 H      0.072  0.928  0.000  0.000     2.066     2.248
 254   1 H      0.063  0.937  0.000  0.000     2.159     2.298
 255   1 H      0.103  0.897  0.000  0.000     1.754     2.071
 256   1 H      0.093  0.907  0.000  0.000     1.851     2.128
 257   1 H      0.243  0.757  0.000  0.000     0.910     1.494
 258   1 H      0.241  0.759  0.000  0.000     0.920     1.502
 259   1 H      0.238  0.762  0.000  0.000     0.930     1.510
 260   1 H      0.253  0.747  0.000  0.000     0.873     1.463
 261   1 H      0.241  0.759  0.000  0.000     0.920     1.502
 262   7 N     -0.167  1.240  3.927  0.000    24.618     7.369
 263   6 C      0.009  1.067  2.924  0.000    20.431     6.436
 264   6 C      0.259  1.047  2.694  0.000    22.642     7.792
 265   8 O     -0.470  1.736  4.734  0.000    23.135     6.449
 266   6 C     -0.036  1.070  2.966  0.000    21.174     6.545
 267   6 C     -0.073  1.050  3.023  0.000    21.891     6.661
 268   6 C     -0.149  1.045  3.105  0.000    23.442     6.904
 269   6 C     -0.121  1.038  3.082  0.000    22.875     6.821
 270   1 H      0.219  0.781  0.000  0.000     1.014     1.577
 271   1 H      0.069  0.931  0.000  0.000     2.094     2.263
 272   1 H      0.069  0.931  0.000  0.000     2.095     2.264
 273   1 H      0.033  0.967  0.000  0.000     2.540     2.492
 274   1 H      0.036  0.964  0.000  0.000     2.509     2.477
 275   1 H      0.080  0.920  0.000  0.000     1.980     2.201
 276   1 H      0.073  0.927  0.000  0.000     2.058     2.243
 277   1 H      0.047  0.953  0.000  0.000     2.358     2.401
 278   1 H      0.030  0.970  0.000  0.000     2.584     2.514
 279   1 H      0.061  0.939  0.000  0.000     2.190     2.314
 280   1 H      0.047  0.953  0.000  0.000     2.362     2.403
 281   7 N     -0.082  1.230  3.851  0.000    22.827     7.096
 282   6 C      0.008  1.071  2.921  0.000    20.424     6.430
 283   6 C      0.272  1.044  2.685  0.000    22.409     7.752
 284   8 O     -0.455  1.734  4.721  0.000    22.803     6.402
 285   6 C     -0.072  1.055  3.018  0.000    21.853     6.650
 286   6 C     -0.078  1.052  3.026  0.000    21.958     6.667
 287   6 C     -0.014  1.053  2.961  0.000    20.848     6.504
 288   1 H      0.066  0.934  0.000  0.000     2.127     2.281
 289   1 H      0.058  0.942  0.000  0.000     2.221     2.331
 290   1 H      0.060  0.940  0.000  0.000     2.200     2.319
 291   1 H      0.078  0.922  0.000  0.000     1.996     2.209
 292   1 H      0.061  0.939  0.000  0.000     2.187     2.313
 293   1 H      0.071  0.929  0.000  0.000     2.075     2.253
 294   1 H      0.055  0.945  0.000  0.000     2.262     2.352
 295   7 N     -0.188  1.247  3.941  0.000    25.069     7.436
 296   6 C      0.006  1.065  2.929  0.000    20.477     6.444
 297   6 C      0.273  1.040  2.687  0.000    22.387     7.748
 298   8 O     -0.464  1.740  4.725  0.000    23.011     6.431
 299   6 C     -0.093  1.058  3.036  0.000    22.275     6.719
 300   6 C     -0.095  1.053  3.042  0.000    22.302     6.724
 301   6 C     -0.037  1.056  2.981  0.000    21.310     6.587
 302   7 N     -0.136  1.204  3.932  0.000    23.958     7.270
 303   6 C      0.230  1.018  2.752  0.000    23.162     7.880
 304   7 N     -0.241  1.223  4.018  0.000    26.306     7.617
 305   7 N     -0.261  1.231  4.031  0.000    26.780     7.686
 306   1 H      0.216  0.784  0.000  0.000     1.027     1.588
 307   1 H      0.097  0.903  0.000  0.000     1.814     2.106
 308   1 H      0.059  0.941  0.000  0.000     2.205     2.322
 309   1 H      0.095  0.905  0.000  0.000     1.830     2.116
 310   1 H      0.094  0.906  0.000  0.000     1.841     2.122
 311   1 H      0.071  0.929  0.000  0.000     2.076     2.253
 312   1 H      0.105  0.895  0.000  0.000     1.739     2.062
 313   1 H      0.096  0.904  0.000  0.000     1.825     2.112
 314   1 H      0.225  0.775  0.000  0.000     0.986     1.555
 315   1 H      0.248  0.752  0.000  0.000     0.889     1.477
 316   1 H      0.248  0.752  0.000  0.000     0.891     1.479
 317   1 H      0.242  0.758  0.000  0.000     0.913     1.497
 318   1 H      0.246  0.754  0.000  0.000     0.901     1.486
 319   7 N     -0.171  1.235  3.936  0.000    24.707     7.382
 320   6 C     -0.038  1.053  2.986  0.000    21.333     6.589
 321   6 C      0.286  1.034  2.680  0.000    22.154     7.708
 322   8 O     -0.484  1.758  4.727  0.000    23.441     6.491
 323   1 H      0.221  0.779  0.000  0.000     1.003     1.569
 324   1 H      0.086  0.914  0.000  0.000     1.918     2.166
 325   1 H      0.084  0.916  0.000  0.000     1.940     2.178
 326   7 N     -0.189  1.244  3.945  0.000    25.108     7.442
 327   6 C      0.024  1.055  2.921  0.000    20.180     6.396
 328   6 C      0.273  1.043  2.684  0.000    22.387     7.748
 329   8 O     -0.525  1.754  4.771  0.000    24.344     6.615
 330   6 C     -0.148  1.046  3.102  0.000    23.406     6.898
 331   1 H      0.225  0.775  0.000  0.000     0.988     1.557
 332   1 H      0.057  0.943  0.000  0.000     2.233     2.337
 333   1 H      0.064  0.936  0.000  0.000     2.151     2.294
 334   1 H      0.082  0.918  0.000  0.000     1.962     2.191
 335   1 H      0.094  0.906  0.000  0.000     1.844     2.123
 336   7 N     -0.149  1.240  3.909  0.000    24.217     7.309
 337   6 C      0.004  1.065  2.931  0.000    20.512     6.449
 338   6 C      0.269  1.041  2.690  0.000    22.467     7.762
 339   8 O     -0.491  1.753  4.738  0.000    23.586     6.511
 340   6 C     -0.091  1.063  3.029  0.000    22.226     6.710
 341   6 C     -0.025  1.059  2.966  0.000    20.984     6.516
 342   6 C     -0.125  1.043  3.082  0.000    22.943     6.829
 343   6 C     -0.136  1.044  3.092  0.000    23.165     6.863
 344   1 H      0.238  0.762  0.000  0.000     0.932     1.512
 345   1 H      0.078  0.922  0.000  0.000     2.000     2.212
 346   1 H      0.077  0.923  0.000  0.000     2.009     2.216
 347   1 H      0.075  0.925  0.000  0.000     2.036     2.231
 348   1 H      0.055  0.945  0.000  0.000     2.262     2.352
 349   1 H      0.053  0.947  0.000  0.000     2.282     2.362
 350   1 H      0.044  0.956  0.000  0.000     2.393     2.419
 351   1 H      0.056  0.944  0.000  0.000     2.244     2.342
 352   1 H      0.065  0.935  0.000  0.000     2.141     2.288
 353   1 H      0.051  0.949  0.000  0.000     2.307     2.375
 354   1 H      0.032  0.968  0.000  0.000     2.556     2.500
 355   7 N     -0.183  1.246  3.938  0.000    24.975     7.422
 356   6 C      0.016  1.064  2.920  0.000    20.313     6.417
 357   6 C      0.281  1.041  2.677  0.000    22.234     7.721
 358   8 O     -0.501  1.748  4.753  0.000    23.807     6.542
 359   6 C     -0.073  1.058  3.015  0.000    21.886     6.659
 360   6 C     -0.017  1.060  2.957  0.000    20.853     6.495
 361   6 C     -0.135  1.044  3.091  0.000    23.161     6.862
 362   6 C     -0.125  1.043  3.082  0.000    22.960     6.832
 363   1 H      0.232  0.768  0.000  0.000     0.959     1.534
 364   1 H      0.097  0.903  0.000  0.000     1.812     2.105
 365   1 H      0.059  0.941  0.000  0.000     2.216     2.328
 366   1 H      0.035  0.965  0.000  0.000     2.512     2.479
 367   1 H      0.050  0.950  0.000  0.000     2.315     2.380
 368   1 H      0.075  0.925  0.000  0.000     2.029     2.228
 369   1 H      0.048  0.952  0.000  0.000     2.344     2.394
 370   1 H      0.051  0.949  0.000  0.000     2.310     2.377
 371   1 H      0.069  0.931  0.000  0.000     2.098     2.265
 372   1 H      0.044  0.956  0.000  0.000     2.398     2.422
 373   1 H      0.026  0.974  0.000  0.000     2.644     2.543
 374   7 N     -0.181  1.244  3.937  0.000    24.926     7.415
 375   6 C      0.025  1.056  2.918  0.000    20.150     6.392
 376   6 C      0.275  1.042  2.683  0.000    22.355     7.742
 377   8 O     -0.536  1.773  4.762  0.000    24.586     6.648
 378   6 C      0.081  1.035  2.884  0.000    19.431     6.313
 379   8 O     -0.466  1.712  4.754  0.000    22.182     6.358
 380   1 H      0.220  0.780  0.000  0.000     1.009     1.574
 381   1 H      0.073  0.927  0.000  0.000     2.049     2.238
 382   1 H      0.047  0.953  0.000  0.000     2.361     2.403
 383   1 H      0.001  0.999  0.000  0.000     3.049     2.731
 384   1 H      0.349  0.651  0.000  0.000     0.590     1.206
 385   7 N     -0.187  1.255  3.932  0.000    25.061     7.435
 386   6 C      0.050  1.053  2.897  0.000    19.740     6.327
 387   6 C      0.285  1.044  2.670  0.000    22.169     7.710
 388   8 O     -0.464  1.696  4.767  0.000    22.992     6.429
 389   6 C     -0.076  1.054  3.022  0.000    21.936     6.666
 390   6 C     -0.031  1.074  2.957  0.000    21.143     6.548
 391  16 S     -0.309  1.958  4.273  0.078   154.470    20.918
 392   6 C     -0.060  1.057  3.003  0.000    21.732     6.651
 393   1 H      0.255  0.745  0.000  0.000     0.863     1.455
 394   1 H      0.004  0.996  0.000  0.000     2.982     2.700
 395   1 H      0.111  0.889  0.000  0.000     1.685     2.030
 396   1 H      0.056  0.944  0.000  0.000     2.252     2.347
 397   1 H      0.086  0.914  0.000  0.000     1.918     2.166
 398   1 H      0.104  0.896  0.000  0.000     1.751     2.069
 399   1 H      0.046  0.954  0.000  0.000     2.371     2.408
 400   1 H      0.101  0.899  0.000  0.000     1.774     2.083
 401   1 H      0.067  0.933  0.000  0.000     2.118     2.276
 402   7 N     -0.182  1.253  3.929  0.000    24.938     7.417
 403   6 C      0.051  1.050  2.899  0.000    19.726     6.324
 404   6 C      0.268  1.048  2.685  0.000    22.484     7.765
 405   8 O     -0.461  1.730  4.732  0.000    22.942     6.422
 406   6 C     -0.091  1.071  3.020  0.000    22.237     6.714
 407   6 C      0.375  1.021  2.604  0.000    20.651     7.437
 408   8 O     -0.614  1.752  4.862  0.000    26.455     6.896
 409   8 O     -0.649  1.783  4.866  0.000    27.354     7.012
 410   1 H      0.188  0.812  0.000  0.000     1.168     1.693
 411   1 H      0.074  0.926  0.000  0.000     2.043     2.235
 412   1 H      0.012  0.988  0.000  0.000     2.854     2.642
 413   1 H      0.020  0.980  0.000  0.000     2.737     2.587
 414   7 N     -0.170  1.242  3.928  0.000    24.681     7.378
 415   6 C      0.030  1.060  2.910  0.000    20.082     6.382
 416   6 C      0.214  1.078  2.709  0.000    23.483     7.936
 417   8 O     -0.357  1.745  4.612  0.000    20.840     6.121
 418   6 C     -0.135  1.041  3.094  0.000    23.143     6.859
 419   1 H      0.211  0.789  0.000  0.000     1.050     1.605
 420   1 H      0.113  0.887  0.000  0.000     1.671     2.021
 421   1 H      0.087  0.913  0.000  0.000     1.913     2.163
 422   1 H      0.096  0.904  0.000  0.000     1.826     2.113
 423   1 H      0.051  0.949  0.000  0.000     2.310     2.377
 424   7 N     -0.382  1.299  4.083  0.000    29.887     8.119
 425   6 C      0.053  1.050  2.897  0.000    19.693     6.320
 426   6 C      0.263  1.050  2.687  0.000    22.573     7.780
 427   8 O     -0.502  1.730  4.772  0.000    23.826     6.544
 428   6 C     -0.089  1.069  3.020  0.000    22.192     6.706
 429   6 C      0.378  1.023  2.598  0.000    20.591     7.426
 430   8 O     -0.650  1.778  4.872  0.000    27.382     7.016
 431   8 O     -0.661  1.782  4.879  0.000    27.673     7.053
 432   1 H      0.134  0.866  0.000  0.000     1.514     1.928
 433   1 H      0.010  0.990  0.000  0.000     2.882     2.655
 434   1 H      0.029  0.971  0.000  0.000     2.608     2.525
 435   1 H      0.037  0.963  0.000  0.000     2.486     2.466
 436   7 N     -0.176  1.247  3.928  0.000    24.802     7.396
 437   6 C      0.026  1.059  2.916  0.000    20.148     6.392
 438   6 C      0.209  1.081  2.709  0.000    23.563     7.950
 439   8 O     -0.343  1.730  4.613  0.000    20.566     6.080
 440   6 C     -0.081  1.061  3.020  0.000    22.041     6.683
 441   6 C     -0.017  1.055  2.962  0.000    20.845     6.494
 442   6 C     -0.133  1.044  3.089  0.000    23.110     6.855
 443   6 C     -0.126  1.044  3.081  0.000    22.967     6.833
 444   1 H      0.230  0.770  0.000  0.000     0.966     1.539
 445   1 H      0.108  0.892  0.000  0.000     1.718     2.050
 446   1 H      0.075  0.925  0.000  0.000     2.035     2.231
 447   1 H      0.055  0.945  0.000  0.000     2.258     2.350
 448   1 H      0.036  0.964  0.000  0.000     2.500     2.473
 449   1 H      0.064  0.936  0.000  0.000     2.151     2.293
 450   1 H      0.046  0.954  0.000  0.000     2.365     2.405
 451   1 H      0.067  0.933  0.000  0.000     2.116     2.275
 452   1 H      0.061  0.939  0.000  0.000     2.188     2.313
 453   1 H      0.057  0.943  0.000  0.000     2.231     2.336
 454   1 H      0.031  0.969  0.000  0.000     2.569     2.507
 455   7 N     -0.421  1.314  4.107  0.000    30.955     8.263
 456   6 C      0.034  1.061  2.905  0.000    20.015     6.372
 457   6 C      0.266  1.052  2.681  0.000    22.504     7.768
 458   8 O     -0.494  1.741  4.753  0.000    23.648     6.520
[...]
   232  C   3.986    N  231 1.028    H  237 0.959    C  233 0.958    H  236 0.953    O  234 0.055
   233  C   3.952    O  234 1.673    N  238 1.259    C  232 0.958
   234  O   1.990    C  233 1.673    N  238 0.188    C  232 0.055
   235  H   0.978    N  231 0.962
   236  H   0.995    C  232 0.953
   237  H   1.000    C  232 0.959
   238  N   3.425    C  233 1.259    C  239 0.982    H  249 0.925    O  234 0.188
   239  C   3.959    N  238 0.982    C  242 0.972    H  250 0.946    C  240 0.933    O  241 0.053
   240  C   3.948    O  241 1.631    N  262 1.306    C  239 0.933
   241  O   1.951    C  240 1.631    N  262 0.198    C  239 0.053
   242  C   3.984    C  243 1.006    C  239 0.972    H  251 0.972    H  252 0.967
   243  C   3.990    C  242 1.006    C  244 0.996    H  254 0.971    H  253 0.963
   244  C   3.948    C  243 0.996    N  245 0.983    H  255 0.964    H  256 0.958
   245  N   3.475    C  246 1.324    C  244 0.983    H  257 0.912    N  247 0.102    N  248 0.101
   246  C   3.977    N  245 1.324    N  247 1.319    N  248 1.304
   247  N   3.404    C  246 1.319    H  259 0.924    H  258 0.917    N  245 0.102    N  248 0.099
   248  N   3.381    C  246 1.304    H  261 0.923    H  260 0.917    N  245 0.101    N  247 0.099
   249  H   0.960    N  238 0.925
   250  H   0.992    C  239 0.946
   251  H   0.995    C  242 0.972
   252  H   0.993    C  242 0.967
   253  H   0.994    C  243 0.963
   254  H   0.996    C  243 0.971
   255  H   0.989    C  244 0.964
   256  H   0.991    C  244 0.958
   257  H   0.941    N  245 0.912
   258  H   0.942    N  247 0.917
   259  H   0.943    N  247 0.924
   260  H   0.936    N  248 0.917
   261  H   0.942    N  248 0.923
   262  N   3.477    C  240 1.306    C  263 0.978    H  270 0.919    O  241 0.198
   263  C   3.957    N  262 0.978    C  266 0.957    H  271 0.951    C  264 0.933    O  265 0.050
   264  C   3.955    O  265 1.636    N  281 1.284    C  263 0.933
   265  O   1.959    C  264 1.636    N  281 0.195    C  263 0.050
   266  C   3.985    C  268 1.008    C  267 0.993    C  263 0.957    H  272 0.950
   267  C   3.992    C  269 1.017    C  266 0.993    H  274 0.973    H  273 0.969
   268  C   3.987    C  266 1.008    H  276 0.973    H  277 0.972    H  275 0.971
   269  C   3.991    C  267 1.017    H  278 0.984    H  279 0.983    H  280 0.980
   270  H   0.952    N  262 0.919
   271  H   0.995    C  263 0.951
   272  H   0.995    C  266 0.950
   273  H   0.998    C  267 0.969
   274  H   0.999    C  267 0.973
   275  H   0.993    C  268 0.971
   276  H   0.995    C  268 0.973
   277  H   0.998    C  268 0.972
   278  H   0.998    C  269 0.984
   279  H   0.996    C  269 0.983
   280  H   0.998    C  269 0.980
   281  N   3.512    C  264 1.284    C  287 0.977    C  282 0.968    O  265 0.195
   282  C   3.969    C  285 0.977    N  281 0.968    H  288 0.956    C  283 0.936    O  284 0.053
   283  C   3.953    O  284 1.665    N  295 1.274    C  282 0.936
   284  O   1.990    C  283 1.665    N  295 0.194    C  282 0.053
   285  C   3.991    C  286 1.005    C  282 0.977    H  289 0.976    H  290 0.976
   286  C   3.990    C  287 1.006    C  285 1.005    H  292 0.974    H  291 0.973
   287  C   3.966    C  286 1.006    N  281 0.977    H  294 0.964    H  293 0.960
   288  H   0.995    C  282 0.956
   289  H   0.996    C  285 0.976
   290  H   0.996    C  285 0.976
   291  H   0.994    C  286 0.973
   292  H   0.995    C  286 0.974
   293  H   0.995    C  287 0.960
   294  H   0.997    C  287 0.964
   295  N   3.446    C  283 1.274    C  296 0.980    H  306 0.914    O  284 0.194
   296  C   3.961    N  295 0.980    C  299 0.973    H  307 0.941    C  297 0.934    O  298 0.053
   297  C   3.942    O  298 1.644    N  319 1.280    C  296 0.934
   298  O   2.004    C  297 1.644    N  319 0.194    C  296 0.053
   299  C   3.981    C  300 1.000    H  308 0.973    C  296 0.973    H  309 0.966
   300  C   3.987    C  301 1.009    C  299 1.000    H  311 0.973    H  310 0.964
   301  C   3.948    C  300 1.009    N  302 0.976    H  313 0.958    H  312 0.958
   302  N   3.469    C  303 1.321    C  301 0.976    H  314 0.914    N  304 0.103    N  305 0.101
   303  C   3.978    N  304 1.323    N  302 1.321    N  305 1.304
   304  N   3.402    C  303 1.323    H  316 0.919    H  315 0.914    N  302 0.103    N  305 0.100
   305  N   3.386    C  303 1.304    H  317 0.922    H  318 0.920    N  302 0.101    N  304 0.100
   306  H   0.953    N  295 0.914
   307  H   0.990    C  296 0.941
   308  H   0.996    C  299 0.973
   309  H   0.990    C  299 0.966
   310  H   0.991    C  300 0.964
   311  H   0.995    C  300 0.973
   312  H   0.989    C  301 0.958
   313  H   0.990    C  301 0.958
   314  H   0.949    N  302 0.914
   315  H   0.938    N  304 0.914
   316  H   0.938    N  304 0.919
   317  H   0.941    N  305 0.922
   318  H   0.939    N  305 0.920
   319  N   3.455    C  297 1.280    C  320 0.997    H  323 0.921    O  298 0.194
   320  C   3.971    N  319 0.997    H  325 0.959    H  324 0.959    C  321 0.946    O  322 0.054
   321  C   3.946    O  322 1.665    N  326 1.269    C  320 0.946
   322  O   1.979    C  321 1.665    N  326 0.195    C  320 0.054
   323  H   0.951    N  319 0.921
   324  H   0.992    C  320 0.959
   325  H   0.993    C  320 0.959
   326  N   3.442    C  321 1.269    C  327 0.981    H  331 0.919    O  322 0.195
   327  C   3.969    C  330 0.993    N  326 0.981    H  332 0.956    C  328 0.939
   328  C   3.944    O  329 1.539    N  336 1.364    C  327 0.939
   329  O   1.963    C  328 1.539    N  336 0.192
   330  C   3.979    C  327 0.993    H  333 0.978    H  334 0.978    H  335 0.977
   331  H   0.949    N  326 0.919
   332  H   0.996    C  327 0.956
   333  H   0.995    C  330 0.978
   334  H   0.993    C  330 0.978
   335  H   0.991    C  330 0.977
   336  N   3.508    C  328 1.364    C  337 0.967    H  344 0.904    O  329 0.192
   337  C   3.951    C  340 0.974    N  336 0.967    H  345 0.943    C  338 0.937    O  339 0.051
   338  C   3.949    O  339 1.633    N  355 1.291    C  337 0.937
   339  O   1.962    C  338 1.633    N  355 0.193    C  337 0.051
   340  C   3.975    C  341 0.991    C  337 0.974    H  347 0.966    H  346 0.963
   341  C   3.991    C  343 1.009    C  342 1.006    C  340 0.991    H  348 0.957
   342  C   3.991    C  341 1.006    H  351 0.985    H  350 0.979    H  349 0.973
   343  C   3.992    C  341 1.009    H  353 0.984    H  354 0.984    H  352 0.978
   344  H   0.943    N  336 0.904
   345  H   0.993    C  337 0.943
   346  H   0.994    C  340 0.963
   347  H   0.994    C  340 0.966
   348  H   0.997    C  341 0.957
   349  H   0.996    C  342 0.973
   350  H   0.998    C  342 0.979
   351  H   0.997    C  342 0.985
   352  H   0.996    C  343 0.978
   353  H   0.997    C  343 0.984
   354  H   0.999    C  343 0.984
   355  N   3.459    C  338 1.291    C  356 0.987    H  363 0.894    O  339 0.193
   356  C   3.963    N  355 0.987    C  359 0.972    H  364 0.941    C  357 0.936    O  358 0.056
   357  C   3.931    O  358 1.634    N  374 1.277    C  356 0.936
   358  O   1.941    C  357 1.634    N  374 0.185    C  356 0.056
   359  C   3.978    C  360 0.989    H  366 0.972    C  356 0.972    H  365 0.967
   360  C   3.988    C  361 1.009    C  362 1.007    C  359 0.989    H  367 0.967
   361  C   3.991    C  360 1.009    H  369 0.984    H  370 0.983    H  368 0.982
   362  C   3.993    C  360 1.007    H  373 0.987    H  372 0.986    H  371 0.983
   363  H   0.946    N  355 0.894
   364  H   0.990    C  356 0.941
   365  H   0.997    C  359 0.967
   366  H   0.998    C  359 0.972
   367  H   0.997    C  360 0.967
   368  H   0.994    C  361 0.982
   369  H   0.998    C  361 0.984
   370  H   0.997    C  361 0.983
   371  H   0.995    C  362 0.983
   372  H   0.998    C  362 0.986
   373  H   0.999    C  362 0.987
   374  N   3.454    C  357 1.277    C  375 1.003    H  380 0.891    O  358 0.185
   375  C   3.981    N  374 1.003    C  378 0.977    H  381 0.956    C  376 0.920    O  377 0.050
   376  C   3.941    O  377 1.612    N  385 1.331    C  375 0.920
   377  O   1.937    C  376 1.612    N  385 0.201    C  375 0.050
   378  C   3.965    O  379 1.009    C  375 0.977    H  383 0.969    H  382 0.960
   379  O   1.931    C  378 1.009    H  384 0.864
   380  H   0.952    N  374 0.891
   381  H   0.994    C  375 0.956
   382  H   0.998    C  378 0.960
   383  H   0.999    C  378 0.969
   384  H   0.878    O  379 0.864
   385  N   3.468    C  376 1.331    C  386 0.977    H  393 0.857    O  377 0.201
   386  C   3.967    C  389 0.981    N  385 0.977    H  394 0.951    C  387 0.934    O  388 0.051
   387  C   3.942    O  388 1.604    N  402 1.317    C  386 0.934
   388  O   1.937    C  387 1.604    N  402 0.191    C  386 0.051
   389  C   3.982    C  390 1.014    C  386 0.981    H  396 0.970    H  395 0.951
   390  C   3.963    C  389 1.014    S  391 0.973    H  398 0.964    H  397 0.957
   391  S   2.085    C  392 1.004    C  390 0.973
   392  C   3.965    S  391 1.004    H  399 0.981    H  401 0.978    H  400 0.975
   393  H   0.934    N  385 0.857
   394  H   1.000    C  386 0.951
   395  H   0.987    C  389 0.951
   396  H   0.996    C  389 0.970
   397  H   0.993    C  390 0.957
   398  H   0.989    C  390 0.964
   399  H   0.998    C  392 0.981
   400  H   0.990    C  392 0.975
   401  H   0.995    C  392 0.978
   402  N   3.489    C  387 1.317    C  403 0.989    H  410 0.894    O  388 0.191
   403  C   3.970    N  402 0.989    C  406 0.977    C  404 0.947    H  411 0.935
   404  C   3.952    O  405 1.596    N  414 1.304    C  403 0.947
   405  O   2.009    C  404 1.596    N  414 0.189
   406  C   3.980    C  403 0.977    H  412 0.974    H  413 0.967    C  407 0.891    O  408 0.056    O  409 0.053
   407  C   3.935    O  409 1.515    O  408 1.507    C  406 0.891
   408  O   1.812    C  407 1.507    O  409 0.219    C  406 0.056
   409  O   1.811    C  407 1.515    O  408 0.219    C  406 0.053
   410  H   0.964    N  402 0.894
   411  H   0.994    C  403 0.935
   412  H   1.000    C  406 0.974
   413  H   0.999    C  406 0.967
   414  N   3.459    C  404 1.304    C  415 0.962    H  419 0.924    O  405 0.189
   415  C   3.952    C  418 0.986    C  416 0.969    N  414 0.962    H  420 0.943    O  417 0.058
   416  C   3.909    O  417 1.882    C  415 0.969    H  558 0.957
   417  O   2.044    C  416 1.882    C  415 0.058
   418  C   3.978    C  415 0.986    H  423 0.985    H  421 0.977    H  422 0.973
   419  H   0.955    N  414 0.924
   420  H   0.987    C  415 0.943
   421  H   0.992    C  418 0.977
   422  H   0.991    C  418 0.973
   423  H   0.997    C  418 0.985
   424  N   2.991    C  425 1.001    H  559 0.963    H  432 0.956
   425  C   3.977    N  424 1.001    C  428 0.981    H  433 0.963    C  426 0.938
   426  C   3.956    O  427 1.583    N  436 1.343    C  425 0.938
   427  O   1.930    C  426 1.583    N  436 0.198
   428  C   3.994    C  425 0.981    H  434 0.967    H  435 0.953    C  429 0.914    O  430 0.055    O  431 0.051
   429  C   3.921    O  430 1.514    O  431 1.465    C  428 0.914
   430  O   1.801    C  429 1.514    O  431 0.207    C  428 0.055
   431  O   1.806    C  429 1.465    O  430 0.207    C  428 0.051
   432  H   0.982    N  424 0.956
   433  H   0.999    C  425 0.963
   434  H   0.999    C  428 0.967
   435  H   0.999    C  428 0.953
   436  N   3.488    C  426 1.343    C  437 0.972    H  444 0.882    O  427 0.198
   437  C   3.951    C  438 0.987    N  436 0.972    C  440 0.952    H  445 0.931    O  439 0.062
   438  C   3.909    O  439 1.881    C  437 0.987    H  560 0.957
   439  O   2.053    C  438 1.881    C  437 0.062
   440  C   3.971    C  441 0.990    H  447 0.966    H  446 0.965    C  437 0.952
   441  C   3.987    C  442 1.008    C  443 1.006    C  440 0.990    H  448 0.966
   442  C   3.990    C  441 1.008    H  451 0.984    H  449 0.983    H  450 0.982
   443  C   3.993    C  441 1.006    H  454 0.986    H  453 0.983    H  452 0.977
   444  H   0.947    N  436 0.882
   445  H   0.988    C  437 0.931
   446  H   0.994    C  440 0.965
   447  H   0.997    C  440 0.966
   448  H   0.999    C  441 0.966
   449  H   0.996    C  442 0.983
   450  H   0.998    C  442 0.982
   451  H   0.995    C  442 0.984
   452  H   0.996    C  443 0.977
   453  H   0.997    C  443 0.983
   454  H   0.999    C  443 0.986
   455  N   2.984    C  456 1.010    H  561 0.963    H  464 0.919
   456  C   3.978    N  455 1.010    C  459 0.974    H  465 0.964    C  457 0.933
   457  C   3.942    O  458 1.613    N  477 1.312    C  456 0.933
   458  O   1.957    C  457 1.613    N  477 0.193
   459  C   3.989    C  460 1.004    C  456 0.974    H  467 0.974    H  466 0.971
   460  C   3.992    C  461 1.006    C  459 1.004    H  469 0.975    H  468 0.972
   461  C   3.984    C  462 1.013    C  460 1.006    H  471 0.967    H  470 0.962
   462  C   3.908    C  461 1.013    H  472 0.965    H  473 0.960    N  463 0.949
   463  N   3.674    C  462 0.949    H  476 0.905    H  474 0.898    H  475 0.888
   464  H   0.967    N  455 0.919
   465  H   0.998    C  456 0.964
   466  H   0.998    C  459 0.971
   467  H   0.996    C  459 0.974
   468  H   0.996    C  460 0.972
   469  H   0.997    C  460 0.975
   470  H   0.994    C  461 0.962
   471  H   0.991    C  461 0.967
   472  H   0.986    C  462 0.965
   473  H   0.981    C  462 0.960
   474  H   0.911    N  463 0.898
   475  H   0.919    N  463 0.888
   476  H   0.923    N  463 0.905
   477  N   3.474    C  457 1.312    C  478 0.964    H  485 0.917    O  458 0.193
   478  C   3.959    C  479 0.983    N  477 0.964    C  481 0.958    H  486 0.947    O  480 0.057
   479  C   3.894    O  480 1.857    C  478 0.983    H  562 0.957
   480  O   2.059    C  479 1.857    C  478 0.057
   481  C   3.974    C  482 0.993    H  488 0.970    C  478 0.958    H  487 0.950
   482  C   3.990    C  484 1.009    C  483 1.009    C  481 0.993    H  489 0.963
   483  C   3.995    C  482 1.009    H  491 0.986    H  490 0.985    H  492 0.981
   484  C   3.991    C  482 1.009    H  493 0.985    H  495 0.984    H  494 0.974
   485  H   0.955    N  477 0.917
   486  H   0.990    C  478 0.947
   487  H   0.988    C  481 0.950
   488  H   0.997    C  481 0.970
   489  H   0.997    C  482 0.963
   490  H   0.998    C  483 0.985
   491  H   1.000    C  483 0.986
   492  H   0.999    C  483 0.981
   493  H   0.998    C  484 0.985
   494  H   0.997    C  484 0.974
   495  H   0.996    C  484 0.984
   496  N   2.989    C  497 1.013    H  563 0.961    H  507 0.926
   497  C   3.983    N  496 1.013    H  508 0.967    C  500 0.956    C  498 0.937
   498  C   3.937    O  499 1.620    N  516 1.305    C  497 0.937
   499  O   1.923    C  498 1.620    N  516 0.191
   500  C   3.988    C  501 1.013    H  510 0.965    H  509 0.963    C  497 0.956
   501  C   3.987    C  502 1.409    C  503 1.409    C  500 1.013    C  506 0.109
   502  C   3.988    C  504 1.442    C  501 1.409    H  511 0.967    C  505 0.109
   503  C   3.992    C  505 1.446    C  501 1.409    H  512 0.961    C  504 0.111
   504  C   3.990    C  502 1.442    C  506 1.435    H  513 0.970    C  503 0.111
   505  C   3.992    C  503 1.446    C  506 1.438    H  514 0.967    C  502 0.109
   506  C   3.991    C  505 1.438    C  504 1.435    H  515 0.970    C  501 0.109
   507  H   0.965    N  496 0.926
   508  H   0.999    C  497 0.967
   509  H   0.994    C  500 0.963
   510  H   0.997    C  500 0.965
   511  H   0.998    C  502 0.967
   512  H   0.999    C  503 0.961
   513  H   0.998    C  504 0.970
   514  H   0.999    C  505 0.967
   515  H   0.999    C  506 0.970
   516  N   3.465    C  498 1.305    C  517 0.997    H  528 0.876    O  499 0.191
   517  C   3.972    N  516 0.997    C  518 0.970    H  529 0.944    C  520 0.939    O  519 0.064
   518  C   3.895    O  519 1.898    C  517 0.970    H  564 0.954
   519  O   2.042    C  518 1.898    C  517 0.064
   520  C   3.982    C  521 1.004    H  530 0.969    H  531 0.968    C  517 0.939
   521  C   3.984    C  523 1.407    C  522 1.399    C  520 1.004    C  526 0.094
   522  C   3.990    C  524 1.455    C  521 1.399    H  532 0.957    C  525 0.104
   523  C   3.991    C  525 1.456    C  521 1.407    H  533 0.970    C  524 0.106
   524  C   3.984    C  522 1.455    C  526 1.359    H  534 0.962    C  523 0.106
   525  C   3.987    C  523 1.456    C  526 1.366    H  535 0.965    C  522 0.104    O  527 0.061
   526  C   3.948    C  525 1.366    C  524 1.359    O  527 1.093    C  521 0.094
   527  O   2.125    C  526 1.093    H  536 0.869    C  525 0.061
   528  H   0.942    N  516 0.876
   529  H   0.993    C  517 0.944
   530  H   0.996    C  520 0.969
   531  H   0.996    C  520 0.968
   532  H   0.997    C  522 0.957
   533  H   0.999    C  523 0.970
   534  H   0.994    C  524 0.962
   535  H   0.998    C  525 0.965
   536  H   0.892    O  527 0.869
   537  N   2.997    C  538 1.013    H  565 0.956    H  544 0.947
   538  C   3.981    N  537 1.013    C  539 0.983    H  545 0.955    C  541 0.941    O  540 0.058
   539  C   3.892    O  540 1.879    C  538 0.983    H  566 0.957
   540  O   2.019    C  539 1.879    C  538 0.058
   541  C   3.990    C  542 1.008    C  543 1.005    H  546 0.965    C  538 0.941
   542  C   3.993    C  541 1.008    H  549 0.985    H  548 0.985    H  547 0.983
   543  C   3.994    C  541 1.005    H  551 0.984    H  550 0.980    H  552 0.979
   544  H   0.973    N  537 0.947
   545  H   0.996    C  538 0.955
   546  H   0.999    C  541 0.965
   547  H   0.997    C  542 0.983
   548  H   0.998    C  542 0.985
   549  H   0.997    C  542 0.985
   550  H   0.995    C  543 0.980
   551  H   0.998    C  543 0.984
   552  H   0.999    C  543 0.979
   553  H   0.968    N    1 0.957
   554  H   0.996    C  198 0.956
   555  H   0.965    N  212 0.947
   556  H   0.997    C  214 0.957
   557  H   0.969    N  231 0.957
   558  H   0.998    C  416 0.957
   559  H   0.975    N  424 0.963
   560  H   0.998    C  438 0.957
   561  H   0.975    N  455 0.963
   562  H   0.997    C  479 0.957
   563  H   0.972    N  496 0.961
   564  H   0.995    C  518 0.954
   565  H   0.967    N  537 0.956
   566  H   0.996    C  539 0.957
 MOs/occ written to file <molden.input>
 
molecular dipole:
                 x           y           z       tot (Debye)
 q only:      322.512     251.111     152.474
   full:      321.765     245.688     155.656    1102.462
molecular quadrupole (traceless):
                xx          xy          yy          xz          yz          zz
 q only:    12301.708   24106.188   -1433.631   15230.213   12875.595  -10868.077
  q+dip:    12228.513   23598.506   -1875.148   15471.791   12740.745  -10353.365
   full:    12231.531   23603.186   -1878.934   15472.022   12738.251  -10352.597
speedup  0.88
cpu  time for grad   20.78 s
wall time for grad   23.59 s

SCC energy    :    -825.4410403
rep           :      10.3336869
ES            :       3.1620426
AES           :      -0.2277574
AXC           :       0.3138558
disp          :      -0.7108967
XB            :       0.0000000
fix           :       0.0000000
Gborn         :       0.0000000
Gsasa         :       0.0000000
Ghb           :       0.0000000
Gshift        :       0.0000000
Gsolv         :      -1.5250987     -957.01
Etot ala COSMO:    -825.4410403
grad norm     :       0.5861092
total E       :    -815.0410884
atomizationE  :     153.4736361    96306.16
(atE without considering molecular charge,
 total energy contains solvation terms)
H-L gap (eV)  :          1.5446

------------------------------------------------------------------------
 * finished run on 2019/03/14 at 16:03:44.180     
------------------------------------------------------------------------
 total:
 * wall-time:     0 d,  0 h,  0 min, 26.079 sec
 *  cpu-time:     0 d,  0 h,  0 min, 21.790 sec
 * ratio c/w:     0.836 speedup
 SCF:
 * wall-time:     0 d,  0 h,  0 min, 24.370 sec
 *  cpu-time:     0 d,  0 h,  0 min, 21.558 sec
 * ratio c/w:     0.885 speedup

