      -----------------------------------------------------------      
     |                   =====================                   |     
     |                           x T B                           |     
     |                   =====================                   |     
     |                         S. Grimme                         |     
     |          Mulliken Center for Theoretical Chemistry        |     
     |                    University of Bonn                     |     
     |                 Version 6.0.1 (SAW181210)                 |     
      -----------------------------------------------------------      

   This program is distributed in the hope that it will be useful,
   but WITHOUT ANY WARRANTY; without even the implied warranty of
   MERCHANTABILITY or FITNESS FOR A PARTICULAR PURPOSE.
   
   FOR NON-COMMERCIAL, ACADEMIA USE ONLY.
   
   Cite this work as:
   S. Grimme, C. Bannwarth, P. Shushkov, J. Comput. Theory Chem., 2017,
   13, 1989-2009.
   C. Bannwarth, S. Ehlert and S. Grimme., ChemRxiv, 2018, preprint.
   http://doi.org/10.26434/chemrxiv.7246238.v1
   
   for sTDA-xTB:
   S. Grimme and C. Bannwarth, J. Chem. Phys., 2016, 145, 054103.
   
   in the mass-spec context:
   V. Asgeirsson, C. Bauer and S. Grimme, Chem. Sci., 2017, 8, 4879.
   
   if GBSA is used:
   P. Shushkov, F. März and S. Grimme, unpublished.
   
   for ANC optimizer:
   S. Grimme, unpublished.
   Rational Function algorithm used in ANCopt:
   F. Eckert, P. Pulay, H.-J. Werner, J. Comput. Chem., 1997, 18, 1473.
   
   with help from (in alphabetical order)
   C. Bannwarth, F. Bohle, G. Brandenburg, E. Caldeweyher, M. Checinski,
   S. Dohm, S. Ehlert, S. Ehrlich, F. März, H. Neugebauer, J. Pisarek,
   P. Pracht, P. Shushkov, and S. Spicher.
   
 * started run on 2019/03/14 at 15:08:20.580     
========================================================================
 # omp threads = 1
========================================================================
number of atoms            : 708
number of electrons        : 1806
charge                     : 0
spin                       : .0
first test random number   : .9178
           ------------------------------------------------- 
          |                 G F N 2 - x T B                 |
          | Geometry, Frequencies, Noncovalent interactions |
          |            JCTC 2018 parametrisation            |
           ------------------------------------------------- 
 
      method parameters     
 k(s)        :  1.8500
 k(p)        :  2.2300
 k(d)        :  2.2300
 k(f)        :  2.0000
 kEN (H0ij)  : -2.0000
 D4 a1       :  0.5200
 D4 a2       :  5.0000
 D4 s6       :  1.0000
 D4 s8       :  2.7000
 D4 s9       :  5.0000
 alphaj      :  2.0000

 Solvent             : h2o
 Using internal parameter file: .param_gbsa2_h2o
 Gsolv ref. state (COSMO-RS): gsolv [1 M gas/solution]
 temperature (mdtemp)       :    298.150000000000     
 dielectric constant        :    80.2000000000000     
 rho                        :    1.00000000000000     
 mass                       :    18.0000000000000     
 surface tension            :    15.5689454083859     
 probe radius               :   0.975313790000000     
 vdW radii scaling          :    1.00000000000000     
 Gshift (Eh)                :   1.857443126794793E-003
 c1                         :    1.55243817000000     
 soset                      :   0.130326360000000     
 HB correction              :  T

            Z     q(EN)     CN     RAES       Cart. coordinates
     1  N   5.0   -0.22    3.23    1.96   121.03103    98.82348    71.29544
     2  C   4.0    0.02    4.39    4.37   120.82187    96.92021    69.33265
     3  C   4.0    0.13    3.53    3.13   118.28948    97.01607    67.92938
     4  O   6.0   -0.33    1.33    1.80   118.31894    96.94106    65.60592
     5  C   4.0   -0.03    4.33    4.25   121.39172    94.27163    70.38970
     6  C   4.0   -0.05    4.20    4.00   124.13400    94.15403    71.32355
     7  C   4.0   -0.07    4.15    3.89   120.95718    92.27989    68.35293
     8  C   4.0   -0.08    4.01    3.65   124.67359    91.81100    72.90685
     9  H   1.0    0.07    1.03    1.43   121.56317    98.24291    73.04399
    10  H   1.0    0.04    1.06    1.44   122.21926    97.32446    67.84358
    11  H   1.0    0.04    1.05    1.44   120.10106    93.94197    71.97444
    12  H   1.0    0.04    1.03    1.43   125.39354    94.18025    69.69179
    13  H   1.0    0.03    1.03    1.43   124.53914    95.80863    72.47959
    14  H   1.0    0.04    1.00    1.43   121.39882    90.40884    69.06553
    15  H   1.0    0.04    1.01    1.43   119.00943    92.29576    67.71174
    16  H   1.0    0.04    1.00    1.43   122.16183    92.64390    66.72795
    17  H   1.0    0.04    1.00    1.43   126.57637    91.92249    73.67080
    18  H   1.0    0.04    1.00    1.43   123.33728    91.70453    74.46489
    19  H   1.0    0.04    1.00    1.43   124.52527    90.09073    71.79806
    20  N   5.0   -0.11    3.62    2.18   116.08652    97.02889    69.19274
    21  C   4.0    0.03    4.53    4.57   113.75252    97.08116    67.74023
    22  C   4.0    0.09    3.30    3.05   113.72849    99.41220    66.09085
    23  O   6.0   -0.33    1.30    1.80   113.06335    99.26777    63.89203
    24  C   4.0   -0.05    4.29    4.17   111.55832    97.13108    69.62349
    25  C   4.0   -0.05    4.22    4.05   112.76264    97.85289    72.15161
    26  C   4.0   -0.02    4.35    4.30   115.63494    97.81323    71.77359
    27  H   1.0    0.05    1.05    1.44   113.61612    95.46921    66.45074
    28  H   1.0    0.04    1.03    1.43   110.14811    98.50519    69.01523
    29  H   1.0    0.04    1.02    1.43   110.62764    95.29921    69.72150
    30  H   1.0    0.04    1.02    1.43   112.17274    99.74223    72.71535
    31  H   1.0    0.04    1.02    1.43   112.26692    96.50880    73.62226
    32  H   1.0    0.04    1.03    1.43   116.39647    99.69869    72.08465
    33  H   1.0    0.04    1.02    1.43   116.55180    96.54055    73.10183
    34  N   5.0   -0.20    3.26    1.97   118.30816   102.60800    63.74982
    35  C   4.0    0.03    4.42    4.41   120.27705   102.49872    61.82994
    36  C   4.0    0.15    3.47    3.10   119.38759   100.76058    59.70299
    37  O   6.0   -0.33    1.29    1.80   119.57439   101.35989    57.46772
    38  C   4.0   -0.03    4.31    4.22   122.79333   101.61722    63.00971
    39  C   4.0   -0.05    4.18    3.95   124.32085   103.84676    64.08069
    40  C   4.0   -0.08    4.14    3.88   124.43029   100.19325    61.09786
    41  C   4.0   -0.08    4.04    3.69   122.75189   105.90454    65.34350
    42  H   1.0    0.09    1.02    1.43   118.73253   101.89525    65.48470
    43  H   1.0    0.04    1.05    1.44   120.52018   104.36850    60.96769
    44  H   1.0    0.04    1.06    1.44   122.30809   100.32492    64.55068
    45  H   1.0    0.03    1.03    1.43   125.65850   103.09508    65.46030
    46  H   1.0    0.04    1.03    1.43   125.41710   104.69401    62.55271
    47  H   1.0    0.03    1.00    1.43   126.23356    99.68136    61.93938
    48  H   1.0    0.04    1.00    1.43   123.50619    98.47728    60.44964
    49  H   1.0    0.05    1.00    1.43   124.80854   101.38024    59.46287
    50  H   1.0    0.04    1.00    1.43   124.00771   107.28299    66.20072
    51  H   1.0    0.04    1.00    1.43   121.56776   106.89049    63.98563
    52  H   1.0    0.04    1.00    1.43   121.55207   105.10257    66.79876
    53  N   5.0   -0.14    3.54    2.10   118.36186    98.59883    60.46947
    54  C   4.0    0.03    4.44    4.44   117.32932    96.81176    58.69109
    55  C   4.0    0.15    3.46    3.10   114.83901    97.74921    57.58465
    56  O   6.0   -0.34    1.37    1.80   114.25022    97.17710    55.42202
    57  C   4.0   -0.05    4.37    4.33   116.91082    94.22564    59.89290
    58  C   4.0   -0.02    4.19    3.98   119.30184    93.02307    60.99320
    59  C   4.0   -0.08    4.12    3.84   118.52214    90.63985    62.41306
    60  C   4.0   -0.08    4.10    3.80   121.23911    92.40976    58.95352
    61  H   1.0    0.11    1.11    1.45   118.25715    98.20754    62.34480
    62  H   1.0    0.05    1.06    1.44   118.60376    96.65118    57.05957
    63  H   1.0    0.05    1.03    1.43   115.53159    94.44822    61.40818
    64  H   1.0    0.04    1.03    1.43   116.11729    92.98287    58.44851
    65  H   1.0    0.05    1.06    1.44   120.14273    94.34537    62.33671
    66  H   1.0    0.04    1.00    1.43   120.16004    89.57506    63.04249
    67  H   1.0    0.04    1.00    1.43   117.37640    91.13908    64.03963
    68  H   1.0    0.03    1.01    1.43   117.40280    89.43741    61.18965
    69  H   1.0    0.03    1.00    1.43   122.82653    91.39887    59.77520
    70  H   1.0    0.04    1.00    1.43   120.39511    91.23176    57.49623
    71  H   1.0    0.04    1.00    1.43   121.96296    94.12283    58.07959
    72  N   5.0   -0.14    3.57    2.13   113.39636    99.20653    59.03379
    73  C   4.0    0.03    4.53    4.58   111.09043   100.34649    58.09650
    74  C   4.0    0.15    3.54    3.13   111.84907   102.46054    56.30957
    75  O   6.0   -0.30    1.26    1.80   110.67323   102.85532    54.34999
    76  C   4.0   -0.02    4.33    4.25   109.30648   101.20520    60.22413
    77  C   4.0   -0.04    4.20    4.00   108.05887    98.86962    61.39941
    78  C   4.0   -0.07    4.15    3.89   107.35477   103.03740    59.15870
    79  C   4.0   -0.08    4.01    3.64   106.72301    99.40886    63.88737
    80  H   1.0    0.12    1.17    1.46   113.70888    99.37186    60.91437
    81  H   1.0    0.05    1.07    1.44   110.08111    98.97078    56.92924
    82  H   1.0    0.05    1.06    1.44   110.42496   102.18150    61.65709
    83  H   1.0    0.03    1.03    1.43   106.65524    98.14297    60.08154
    84  H   1.0    0.05    1.03    1.43   109.50594    97.42984    61.66639
    85  H   1.0    0.04    1.00    1.43   105.96630   103.55075    60.57885
    86  H   1.0    0.05    1.01    1.43   108.27796   104.74567    58.49142
    87  H   1.0    0.05    1.00    1.43   106.38052   102.17541    57.57032
    88  H   1.0    0.04    1.00    1.43   106.02598    97.66267    64.71593
    89  H   1.0    0.04    1.00    1.43   107.96951   100.32262    65.24040
    90  H   1.0    0.04    1.00    1.43   105.11610   100.62932    63.54828
    91  N   5.0   -0.14    3.52    2.09   113.94524   103.72631    56.89863
    92  C   4.0    0.04    4.41    4.39   115.06120   105.33891    55.01445
    93  C   4.0    0.16    3.51    3.12   115.88542   103.72298    52.77300
    94  O   6.0   -0.29    1.27    1.80   115.66188   104.60962    50.64343
    95  C   4.0    0.03    4.14    3.87   117.25256   106.94566    56.03448
    96  O   6.0   -0.25    2.04    1.83   116.48057   108.72595    57.82777
    97  H   1.0    0.08    1.06    1.44   114.76551   103.63722    58.62704
    98  H   1.0    0.07    1.06    1.44   113.59812   106.62718    54.28539
    99  H   1.0    0.05    1.01    1.43   118.70749   105.67881    56.78948
   100  H   1.0    0.05    1.02    1.43   118.03892   108.02262    54.45684
   101  H   1.0    0.11    1.02    1.43   115.99882   107.82987    59.35520
   102  N   5.0   -0.13    3.49    2.07   116.68452   101.35161    53.12114
   103  C   4.0    0.04    4.54    4.59   117.13351    99.87720    50.84384
   104  C   4.0    0.16    3.55    3.14   114.64029    99.31395    49.51739
   105  O   6.0   -0.33    1.39    1.80   114.59621    99.05411    47.21441
   106  C   4.0   -0.02    4.31    4.21   118.60776    97.36290    51.10440
   107  C   4.0   -0.05    4.20    4.01   120.51914    97.26069    48.91704
   108  C   4.0   -0.07    4.20    3.99   116.92443    95.01376    51.03370
   109  C   4.0   -0.08    4.03    3.68   121.75059    94.68265    48.55221
   110  H   1.0    0.11    1.10    1.44   117.47099   100.83043    54.79510
   111  H   1.0    0.06    1.08    1.44   118.21500   101.08246    49.54171
   112  H   1.0    0.04    1.05    1.44   119.61526    97.40277    52.90900
   113  H   1.0    0.04    1.03    1.43   119.52078    97.74295    47.17796
   114  H   1.0    0.04    1.02    1.43   121.96592    98.69524    49.24066
   115  H   1.0    0.04    1.00    1.43   118.03773    93.36766    51.53714
   116  H   1.0    0.06    1.03    1.43   115.38712    95.17615    52.36873
   117  H   1.0    0.05    1.00    1.43   116.14226    94.74093    49.15112
   118  H   1.0    0.04    1.00    1.43   123.27848    94.82798    47.18904
   119  H   1.0    0.04    1.00    1.43   122.51198    93.97201    50.32117
   120  H   1.0    0.04    1.00    1.43   120.38009    93.34113    47.81868
   121  N   5.0   -0.13    3.51    2.08   112.58572    99.00604    50.92957
   122  C   4.0    0.04    4.35    4.28   110.20238    98.33442    49.77822
   123  C   4.0    0.10    3.26    3.05   109.14602   100.57098    48.30025
   124  O   6.0   -0.29    1.12    1.80   108.00719   100.22538    46.31598
   125  C   4.0   -0.05    4.36    4.31   108.14818    97.57219    51.66365
   126  C   4.0   -0.02    4.20    3.99   108.93778    95.54727    53.56841
   127  C   4.0   -0.08    4.11    3.82   106.88285    95.23711    55.56753
   128  C   4.0   -0.08    4.11    3.82   109.50323    93.02166    52.31648
   129  H   1.0    0.12    1.11    1.45   112.74181    99.07563    52.83100
   130  H   1.0    0.05    1.06    1.44   110.51937    96.81349    48.40381
   131  H   1.0    0.05    1.03    1.43   107.57404    99.27881    52.67298
   132  H   1.0    0.04    1.03    1.43   106.54185    96.89496    50.55775
   133  H   1.0    0.06    1.09    1.44   110.66934    96.17104    54.48436
   134  H   1.0    0.04    1.00    1.43   107.61221    94.24958    57.21370
   135  H   1.0    0.04    1.00    1.43   106.18569    97.07685    56.16296
   136  H   1.0    0.04    1.00    1.43   105.31761    94.15477    54.79762
   137  H   1.0    0.04    1.00    1.43   110.16437    91.69642    53.73810
   138  H   1.0    0.04    1.00    1.43   107.82229    92.24523    51.42750
   139  H   1.0    0.04    1.00    1.43   110.96569    93.24639    50.89522
   140  N   5.0   -0.20    3.22    1.96   114.18660   102.16091    43.38813
   141  C   4.0    0.04    4.24    4.08   113.67355   100.45402    41.32033
   142  C   4.0    0.09    3.21    3.04   111.04081   101.02011    40.26559
   143  O   6.0   -0.34    1.34    1.80   110.71937   100.81251    37.97053
   144  C   4.0   -0.04    4.29    4.18   114.03701    97.63948    41.86581
   145  C   4.0   -0.02    4.15    3.91   116.78127    96.67118    42.22321
   146  C   4.0   -0.08    4.12    3.83   117.27431    94.34833    40.58241
   147  C   4.0   -0.08    4.13    3.85   118.87877    98.57463    41.70823
   148  H   1.0    0.13    1.11    1.45   114.49856   101.36122    45.10899
   149  H   1.0    0.04    1.06    1.44   114.96386   100.90867    39.75475
   150  H   1.0    0.06    1.03    1.43   112.96139    97.15212    43.54456
   151  H   1.0    0.04    1.04    1.43   113.21621    96.67379    40.23593
   152  H   1.0    0.05    1.06    1.44   116.97206    96.10990    44.20077
   153  H   1.0    0.04    1.00    1.43   119.26992    93.87315    40.67494
   154  H   1.0    0.04    1.01    1.43   116.20564    92.73746    41.24525
   155  H   1.0    0.04    1.00    1.43   116.76868    94.71048    38.62006
   156  H   1.0    0.04    1.00    1.43   120.67814    97.70558    42.19362
   157  H   1.0    0.04    1.00    1.43   118.94220    99.11062    39.72594
   158  H   1.0    0.04    1.01    1.43   118.65137   100.25127    42.85041
   159  N   5.0   -0.21    3.24    1.97   111.98024   101.59187    33.43699
   160  C   4.0    0.03    4.21    4.02   110.55397    99.62826    32.16159
   161  C   4.0    0.08    3.18    3.03   109.14174   100.71215    29.88721
   162  O   6.0   -0.29    1.12    1.80   108.91141    99.41717    27.97206
   163  C   4.0   -0.04    4.40    4.37   108.84629    98.25477    34.08123
   164  C   4.0   -0.02    4.17    3.94   107.70246    95.70048    33.33505
   165  C   4.0   -0.08    4.15    3.90   109.82779    93.84289    32.81498
   166  C   4.0   -0.08    4.12    3.85   106.15310    94.75627    35.58059
   167  H   1.0    0.13    1.14    1.45   111.44593   101.94219    35.25588
   168  H   1.0    0.05    1.06    1.44   111.86867    98.24109    31.35944
   169  H   1.0    0.06    1.07    1.44   110.06727    97.86108    35.68903
   170  H   1.0    0.05    1.03    1.43   107.38677    99.54216    34.75343
   171  H   1.0    0.05    1.05    1.44   106.54622    95.83558    31.64527
   172  H   1.0    0.04    1.00    1.43   109.14325    91.91980    32.59160
   173  H   1.0    0.04    1.00    1.43   110.83737    94.38054    31.11402
   174  H   1.0    0.03    1.01    1.43   111.13878    93.88450    34.38872
   175  H   1.0    0.04    1.00    1.43   105.14488    93.02973    35.12778
   176  H   1.0    0.04    1.01    1.43   107.46623    94.38359    37.11228
   177  H   1.0    0.04    1.00    1.43   104.78644    96.15256    36.20575
   178  N   5.0   -0.22    3.18    1.95   111.26014    60.64952    59.07015
   179  C   4.0    0.03    4.33    4.25   111.71585    63.07639    57.87772
   180  C   4.0    0.08    3.27    3.05   113.96177    62.90171    56.11134
   181  O   6.0   -0.33    1.22    1.80   114.04554    64.14318    54.16128
   182  C   4.0   -0.03    4.34    4.27   112.07877    65.30136    59.70513
   183  C   4.0   -0.05    4.22    4.05   111.85951    67.76176    58.19578
   184  C   4.0   -0.08    4.15    3.89   114.63505    65.17211    61.02382
   185  C   4.0   -0.08    4.03    3.68   111.50653    70.02961    59.91423
   186  H   1.0    0.08    1.02    1.43   111.33662    60.62794    60.98887
   187  H   1.0    0.04    1.07    1.44   110.09239    63.51134    56.67612
   188  H   1.0    0.03    1.05    1.44   110.56856    65.21407    61.11374
   189  H   1.0    0.05    1.03    1.43   113.54441    67.98361    57.02549
   190  H   1.0    0.04    1.03    1.43   110.25833    67.65561    56.91169
   191  H   1.0    0.03    1.00    1.43   114.64383    66.33573    62.71392
   192  H   1.0    0.04    1.01    1.43   115.05654    63.24833    61.54753
   193  H   1.0    0.04    1.00    1.43   116.13773    65.79433    59.76946
   194  H   1.0    0.04    1.00    1.43   111.22675    71.74621    58.82216
   195  H   1.0    0.04    1.00    1.43   109.85266    69.75938    61.10148
   196  H   1.0    0.03    1.00    1.43   113.15279    70.27755    61.11334
   197  N   5.0   -0.21    3.22    1.96   113.92352    65.02715    49.12967
   198  C   4.0    0.03    4.15    3.91   115.86283    66.57932    47.97380
   199  C   4.0    0.08    3.21    3.04   117.24386    65.03532    45.96312
   200  O   6.0   -0.32    1.27    1.80   117.24709    65.77012    43.77096
   201  C   4.0   -0.07    4.09    3.78   117.62444    67.70489    49.94212
   202  H   1.0    0.12    1.09    1.44   114.19771    64.50827    50.95762
   203  H   1.0    0.05    1.06    1.44   114.93835    68.09652    46.90142
   204  H   1.0    0.04    1.02    1.43   119.06130    68.81076    48.98215
   205  H   1.0    0.04    1.00    1.43   116.57388    68.93732    51.20609
   206  H   1.0    0.05    1.00    1.43   118.54590    66.23052    51.03102
   207  N   5.0   -0.21    3.23    1.96   116.73017    66.54432    38.77279
   208  C   4.0    0.03    4.21    4.02   119.15878    66.77644    37.55930
   209  C   4.0    0.08    3.19    3.04   119.38092    64.94924    35.29373
   210  O   6.0   -0.29    1.11    1.80   120.81732    65.36870    33.54338
   211  C   4.0   -0.03    4.32    4.23   121.31405    66.25359    39.41733
   212  C   4.0    0.00    3.57    3.15   121.37947    67.72187    41.86562
   213  C   4.0   -0.03    3.52    3.12   122.88311    66.74505    43.79342
   214  C   4.0   -0.03    3.49    3.11   120.04940    69.91984    42.38404
   215  C   4.0   -0.04    3.38    3.07   123.39396    68.06825    45.97853
   216  C   4.0   -0.04    3.43    3.09   120.39437    71.14432    44.67880
   217  C   4.0   -0.05    3.39    3.08   122.18384    70.34210    46.40320
   218  H   1.0    0.12    1.07    1.44   116.67717    65.55874    40.42206
   219  H   1.0    0.05    1.05    1.44   119.36019    68.66118    36.72450
   220  H   1.0    0.05    1.04    1.43   121.27997    64.24477    39.88802
   221  H   1.0    0.05    1.03    1.43   123.06235    66.61744    38.37161
   222  H   1.0    0.05    1.04    1.43   123.66635    64.88223    43.60080
   223  H   1.0    0.04    1.03    1.43   118.67770    70.63232    41.05202
   224  H   1.0    0.04    1.03    1.43   124.66597    67.27784    47.36213
   225  H   1.0    0.04    1.04    1.43   119.22570    72.73621    45.17394
   226  H   1.0    0.04    1.03    1.43   122.55033    71.40382    48.10550
   227  N   5.0   -0.22    3.27    1.97   100.18295    75.22738    36.11263
   228  C   4.0    0.02    4.25    4.10   102.38731    74.97908    37.72118
   229  C   4.0    0.14    3.44    3.09   102.34670    77.14939    39.62330
   230  O   6.0   -0.33    1.32    1.80   102.96037    76.84179    41.83655
   231  C   4.0   -0.08    4.09    3.79   104.77524    74.89578    36.12878
   232  H   1.0    0.08    1.03    1.43   100.44926    75.33232    34.21923
   233  H   1.0    0.04    1.05    1.44   102.18763    73.24544    38.84619
   234  H   1.0    0.04    1.00    1.43   106.40149    74.53760    37.32425
   235  H   1.0    0.04    1.00    1.43   104.62611    73.38598    34.74419
   236  H   1.0    0.04    1.00    1.43   105.05865    76.68057    35.15229
   237  N   5.0   -0.15    3.50    2.08   101.45943    79.31814    38.71871
   238  C   4.0    0.03    4.44    4.44   101.08000    81.46785    40.35610
   239  C   4.0    0.08    3.34    3.06    99.32994    80.76389    42.51500
   240  O   6.0   -0.33    1.22    1.80    99.80479    81.39232    44.68991
   241  C   4.0   -0.03    4.33    4.26   100.07862    83.74109    38.84230
   242  C   4.0   -0.06    4.20    4.00   102.12936    85.77497    38.81798
   243  C   4.0   -0.08    4.16    3.92    97.53531    84.71281    39.80992
   244  C   4.0   -0.08    4.04    3.69   102.34549    87.20113    41.30300
   245  H   1.0    0.07    1.07    1.44   101.31416    79.61969    36.82840
   246  H   1.0    0.05    1.07    1.44   102.88222    81.96132    41.25538
   247  H   1.0    0.04    1.06    1.44    99.80606    83.10300    36.89394
   248  H   1.0    0.03    1.03    1.43   103.92231    84.87535    38.33129
   249  H   1.0    0.04    1.04    1.43   101.69945    87.12186    37.35460
   250  H   1.0    0.04    1.00    1.43    97.06385    86.49823    38.92201
   251  H   1.0    0.04    1.00    1.43    96.03720    83.38455    39.36841
   252  H   1.0    0.04    1.01    1.43    97.55072    85.01957    41.83741
   253  H   1.0    0.03    1.00    1.43   103.85023    88.59421    41.19794
   254  H   1.0    0.04    1.00    1.43   100.58966    88.17912    41.71526
   255  H   1.0    0.04    1.00    1.43   102.74042    85.92607    42.86232
   256  N   5.0   -0.20    3.24    1.97    98.35393    75.49929    45.00688
   257  C   4.0    0.03    4.39    4.37    99.99652    74.10561    46.69975
   258  C   4.0    0.15    3.49    3.11   101.60863    75.92889    48.25357
   259  O   6.0   -0.33    1.36    1.80   101.88847    75.60354    50.54077
   260  C   4.0   -0.02    4.27    4.14   101.74771    72.22252    45.33688
   261  C   4.0   -0.08    4.14    3.87   103.14100    70.61246    47.28701
   262  C   4.0   -0.08    4.12    3.85   100.28409    70.47503    43.58295
   263  H   1.0    0.09    1.02    1.43    98.56932    75.31423    43.11543
   264  H   1.0    0.04    1.05    1.44    98.80113    73.08893    48.05595
   265  H   1.0    0.06    1.06    1.44   103.11712    73.32109    44.25268
   266  H   1.0    0.04    1.00    1.43   104.38440    69.28541    46.33357
   267  H   1.0    0.05    1.00    1.43   104.26014    71.79086    48.53697
   268  H   1.0    0.04    1.00    1.43   101.79568    69.55574    48.42888
   269  H   1.0    0.04    1.00    1.43   101.59192    69.24620    42.58677
   270  H   1.0    0.04    1.01    1.43    99.03301    69.30303    44.70591
   271  H   1.0    0.04    1.00    1.43    99.18007    71.52848    42.21455
   272  N   5.0   -0.13    3.53    2.10   102.73963    77.79547    47.01048
   273  C   4.0    0.04    4.45    4.47   104.36282    79.54929    48.34681
   274  C   4.0    0.16    3.51    3.12   102.91426    80.65952    50.58622
   275  O   6.0   -0.31    1.27    1.80   103.85496    80.85404    52.69174
   276  C   4.0   -0.05    4.35    4.28   105.34719    81.69025    46.66662
   277  C   4.0   -0.02    4.18    3.95   107.15151    80.80711    44.57590
   278  C   4.0   -0.08    4.11    3.81   108.18974    83.07230    43.11792
   279  C   4.0   -0.07    4.13    3.86   109.34716    79.29981    45.66716
   280  H   1.0    0.12    1.11    1.45   102.69167    77.82786    45.09594
   281  H   1.0    0.06    1.07    1.44   105.96451    78.52164    49.16073
   282  H   1.0    0.05    1.03    1.43   103.74680    82.67090    45.81949
   283  H   1.0    0.04    1.03    1.43   106.34191    83.02349    47.89158
   284  H   1.0    0.06    1.06    1.44   106.11509    79.58974    43.26645
   285  H   1.0    0.04    1.00    1.43   109.48145    82.41796    41.65909
   286  H   1.0    0.03    1.00    1.43   106.69789    84.16568    42.23038
   287  H   1.0    0.04    1.00    1.43   109.23835    84.31015    44.37917
   288  H   1.0    0.04    1.00    1.43   110.83693    79.08150    44.27041
   289  H   1.0    0.05    1.00    1.43   110.12591    80.27377    47.29971
   290  H   1.0    0.05    1.00    1.43   108.74032    77.43965    46.28038
   291  N   5.0   -0.14    3.52    2.09   100.58705    81.46044    50.04443
   292  C   4.0    0.04    4.34    4.27    99.02049    82.64948    51.94325
   293  C   4.0    0.09    3.26    3.05    98.59393    80.80765    54.12046
   294  O   6.0   -0.29    1.12    1.80    98.96929    81.42727    56.32546
   295  C   4.0   -0.05    4.34    4.27    96.46022    83.49454    50.89231
   296  C   4.0   -0.02    4.20    4.00    96.62761    84.94944    48.39525
   297  C   4.0   -0.08    4.11    3.82    94.00873    85.89177    47.65057
   298  C   4.0   -0.08    4.11    3.83    98.50388    87.13129    48.48756
   299  H   1.0    0.11    1.11    1.44    99.90175    81.27027    48.27004
   300  H   1.0    0.05    1.05    1.44   100.04952    84.26598    52.74554
   301  H   1.0    0.04    1.03    1.43    95.27261    81.83524    50.58343
   302  H   1.0    0.04    1.03    1.43    95.55258    84.66538    52.32953
   303  H   1.0    0.06    1.07    1.44    97.25554    83.63620    46.93392
   304  H   1.0    0.04    1.00    1.43    94.13651    86.88945    45.86625
   305  H   1.0    0.04    1.00    1.43    92.69973    84.31706    47.46214
   306  H   1.0    0.04    1.00    1.43    93.25978    87.19899    49.04851
   307  H   1.0    0.04    1.00    1.43    98.40198    88.18949    46.73093
   308  H   1.0    0.04    1.00    1.43    98.06533    88.40245    50.03180
   309  H   1.0    0.04    1.00    1.43   100.41985    86.43749    48.73847
   310  N   5.0   -0.20    3.27    1.97   101.28904    74.87664    55.59453
   311  C   4.0    0.03    4.31    4.22   103.57733    74.05256    56.84773
   312  C   4.0    0.15    3.43    3.09   104.33150    76.04835    58.80502
   313  O   6.0   -0.32    1.26    1.80   105.07135    75.45493    60.91804
   314  C   4.0   -0.05    4.24    4.07   105.67594    73.49637    54.90656
   315  C   4.0   -0.03    4.27    4.14   106.94818    75.90486    53.97375
   316  C   4.0    0.15    3.24    3.04   108.75677    75.80681    51.76184
   317  O   6.0   -0.31    1.35    1.80   110.16763    77.58690    51.35566
   318  N   5.0   -0.19    3.19    1.95   108.60975    73.84144    50.15604
   319  H   1.0    0.12    1.09    1.44   101.34403    75.05345    53.68110
   320  H   1.0    0.04    1.05    1.44   103.16443    72.31551    57.91270
   321  H   1.0    0.04    1.02    1.43   107.05752    72.25374    55.79615
   322  H   1.0    0.05    1.03    1.43   104.78299    72.51245    53.32864
   323  H   1.0    0.07    1.06    1.44   105.48600    77.22438    53.35732
   324  H   1.0    0.05    1.04    1.43   107.96882    76.83631    55.50341
   325  H   1.0    0.08    1.03    1.43   107.68724    72.25540    50.63103
   326  H   1.0    0.09    1.03    1.43   109.91544    73.75881    48.76616
   327  N   5.0   -0.14    3.50    2.08   104.14864    78.43974    58.01544
   328  C   4.0    0.04    4.25    4.11   104.88865    80.54985    59.58083
   329  C   4.0    0.09    3.23    3.04   103.15248    80.74760    61.87659
   330  O   6.0   -0.29    1.12    1.80   104.06478    80.80278    64.01185
   331  C   4.0   -0.07    4.11    3.82   104.86902    82.98267    58.05414
   332  H   1.0    0.11    1.09    1.44   103.54067    78.88161    56.26030
   333  H   1.0    0.05    1.05    1.44   106.78803    80.16514    60.33704
   334  H   1.0    0.04    1.00    1.43   105.54204    84.53594    59.21277
   335  H   1.0    0.06    1.00    1.43   106.06012    82.78712    56.39342
   336  H   1.0    0.07    1.00    1.43   102.96202    83.39352    57.41771
   337  N   5.0   -0.19    3.21    1.96   104.85664    75.68847    66.49280
   338  C   4.0    0.04    4.24    4.08   107.17465    76.15336    67.86266
   339  C   4.0    0.08    3.22    3.04   106.84413    78.23686    69.81639
   340  O   6.0   -0.29    1.11    1.80   107.83313    78.06215    71.91637
   341  C   4.0   -0.04    4.37    4.33   109.32053    76.92732    66.09514
   342  C   4.0   -0.02    4.18    3.96   110.30126    74.76000    64.44630
   343  C   4.0   -0.08    4.11    3.83   112.46009    75.74544    62.80795
   344  C   4.0   -0.08    4.12    3.83   111.18081    72.54369    66.06998
   345  H   1.0    0.12    1.05    1.44   104.85582    75.95691    64.59044
   346  H   1.0    0.05    1.06    1.44   107.68204    74.44122    68.91530
   347  H   1.0    0.05    1.03    1.43   108.64248    78.47154    64.90903
   348  H   1.0    0.04    1.03    1.43   110.87577    77.63591    67.25359
   349  H   1.0    0.05    1.06    1.44   108.77306    74.12698    63.20929
   350  H   1.0    0.03    1.01    1.43   113.18867    74.27045    61.59266
   351  H   1.0    0.04    1.00    1.43   111.81720    77.30148    61.63624
   352  H   1.0    0.03    1.00    1.43   114.01322    76.40199    63.97551
   353  H   1.0    0.03    1.00    1.43   112.20142    71.18639    64.92715
   354  H   1.0    0.04    1.00    1.43   112.44033    73.18725    67.56119
   355  H   1.0    0.04    1.00    1.43   109.58310    71.56890    66.91682
   356  N   5.0   -0.22    3.25    1.97   128.04228    72.08522    77.12502
   357  C   4.0    0.02    4.40    4.38   125.53755    71.92209    76.01556
   358  C   4.0    0.14    3.43    3.09   125.01487    74.32359    74.48668
   359  O   6.0   -0.33    1.30    1.80   124.17510    74.23509    72.33136
   360  C   4.0   -0.03    4.32    4.24   123.52255    71.43385    78.05385
   361  C   4.0   -0.05    4.20    4.00   124.07696    68.89712    79.34759
   362  C   4.0   -0.08    4.13    3.86   120.89032    71.44141    76.87261
   363  C   4.0   -0.08    4.01    3.64   122.46209    68.40219    81.68040
   364  H   1.0    0.07    1.02    1.43   128.22089    72.00553    79.02913
   365  H   1.0    0.04    1.05    1.44   125.51932    70.36636    74.63658
   366  H   1.0    0.04    1.05    1.44   123.65623    72.95605    79.44943
   367  H   1.0    0.04    1.03    1.43   123.79035    67.38129    77.97917
   368  H   1.0    0.04    1.03    1.43   126.04861    68.86739    79.94277
   369  H   1.0    0.04    1.00    1.43   119.45445    71.14588    78.30653
   370  H   1.0    0.04    1.00    1.43   120.49976    73.22527    75.93588
   371  H   1.0    0.04    1.00    1.43   120.74006    69.94106    75.47803
   372  H   1.0    0.04    1.00    1.43   123.04137    66.63295    82.54869
   373  H   1.0    0.04    1.00    1.43   122.72163    69.90837    83.05261
   374  H   1.0    0.04    1.00    1.43   120.46879    68.25812    81.21665
   375  N   5.0   -0.15    3.50    2.08   125.51888    76.49112    75.67599
   376  C   4.0    0.03    4.45    4.45   124.96302    78.93209    74.57376
   377  C   4.0    0.16    3.45    3.10   126.35610    79.32445    72.08040
   378  O   6.0   -0.33    1.35    1.80   125.28776    80.32522    70.27332
   379  C   4.0   -0.05    4.33    4.25   125.65863    81.04566    76.42210
   380  C   4.0   -0.04    4.04    3.70   124.11546    81.01646    78.85562
   381  S   6.0   -0.05    2.48    3.10   120.74867    81.61477    78.37031
   382  C   4.0   -0.07    3.88    3.43   119.53425    78.41998    77.98621
   383  H   1.0    0.07    1.07    1.44   126.30261    76.49519    77.42405
   384  H   1.0    0.05    1.06    1.44   122.94407    79.03712    74.10467
   385  H   1.0    0.04    1.03    1.43   127.65172    80.84461    76.91018
   386  H   1.0    0.04    1.03    1.43   125.38931    82.86245    75.48458
   387  H   1.0    0.04    1.06    1.44   124.31963    79.24713    79.88301
   388  H   1.0    0.04    1.08    1.44   124.74112    82.56405    80.06018
   389  H   1.0    0.04    1.05    1.44   117.52505    78.52344    78.37648
   390  H   1.0    0.04    1.03    1.43   119.82020    77.77531    76.06021
   391  H   1.0    0.04    1.04    1.43   120.45595    77.16723    79.32111
   392  N   5.0   -0.14    3.48    2.06   128.75597    78.58917    71.99755
   393  C   4.0    0.03    4.39    4.37   130.23942    78.88036    69.71993
   394  C   4.0    0.16    3.49    3.11   129.30990    77.12324    67.63504
   395  O   6.0   -0.32    1.33    1.80   129.21820    77.90288    65.44752
   396  C   4.0    0.03    4.15    3.90   133.07015    78.39481    70.17224
   397  O   6.0   -0.25    2.05    1.83   133.62401    75.92148    70.90137
   398  H   1.0    0.07    1.06    1.44   129.63084    77.91909    73.57242
   399  H   1.0    0.05    1.05    1.44   130.02423    80.81543    68.99375
   400  H   1.0    0.05    1.02    1.43   134.07001    78.71229    68.39083
   401  H   1.0    0.04    1.01    1.43   133.75249    79.75784    71.57972
   402  H   1.0    0.11    1.02    1.43   132.72888    75.55297    72.46036
   403  N   5.0   -0.14    3.49    2.07   128.65394    74.78509    68.28585
   404  C   4.0    0.03    4.46    4.48   127.69986    73.12246    66.32796
   405  C   4.0    0.16    3.52    3.12   125.23257    74.20783    65.30944
   406  O   6.0   -0.32    1.33    1.80   124.80105    74.27182    63.03511
   407  C   4.0   -0.05    4.37    4.32   127.16944    70.43721    67.22901
   408  C   4.0   -0.02    4.17    3.94   129.49807    68.82707    67.83447
   409  C   4.0   -0.08    4.12    3.84   128.58412    66.17578    68.52031
   410  C   4.0   -0.07    4.11    3.81   131.34198    68.66517    65.62497
   411  H   1.0    0.09    1.06    1.44   128.90323    74.09446    70.05593
   412  H   1.0    0.06    1.06    1.44   129.02650    73.12129    64.73565
   413  H   1.0    0.05    1.03    1.43   125.97321    70.55504    68.90528
   414  H   1.0    0.04    1.03    1.43   126.09887    69.49438    65.73412
   415  H   1.0    0.04    1.05    1.44   130.46620    69.67215    69.45482
   416  H   1.0    0.04    1.00    1.43   130.16970    64.93293    68.90150
   417  H   1.0    0.04    1.00    1.43   127.38755    66.24216    70.18682
   418  H   1.0    0.04    1.00    1.43   127.51568    65.37258    66.95932
   419  H   1.0    0.04    1.00    1.43   132.90108    67.41771    66.10867
   420  H   1.0    0.04    1.00    1.43   130.41463    67.89839    63.95857
   421  H   1.0    0.04    1.00    1.43   132.11861    70.50782    65.15901
   422  N   5.0   -0.14    3.55    2.12   123.60066    75.00225    67.05220
   423  C   4.0    0.03    4.51    4.56   121.18005    76.06642    66.33313
   424  C   4.0    0.16    3.52    3.12   121.72720    78.26552    64.54121
   425  O   6.0   -0.33    1.34    1.80   120.79787    78.36145    62.42629
   426  C   4.0   -0.02    4.26    4.12   119.65765    76.78537    68.69894
   427  C   4.0   -0.08    4.13    3.86   117.36057    78.37078    67.99780
   428  C   4.0   -0.07    4.12    3.84   118.79796    74.39762    70.07864
   429  H   1.0    0.11    1.11    1.45   123.99067    74.90674    68.92782
   430  H   1.0    0.05    1.05    1.44   120.10955    74.67365    65.22616
   431  H   1.0    0.06    1.05    1.44   120.88883    77.90299    69.92952
   432  H   1.0    0.04    1.00    1.43   116.30113    78.87633    69.68261
   433  H   1.0    0.04    1.01    1.43   117.90676    80.08941    67.02902
   434  H   1.0    0.04    1.00    1.43   116.12359    77.30731    66.75084
   435  H   1.0    0.04    1.00    1.43   117.69307    74.90036    71.73734
   436  H   1.0    0.03    1.00    1.43   117.60957    73.26063    68.84803
   437  H   1.0    0.06    1.01    1.43   120.39455    73.26026    70.67870
   438  N   5.0   -0.14    3.51    2.08   123.34120    79.99966    65.41269
   439  C   4.0    0.04    4.47    4.49   124.02986    82.17110    63.90552
   440  C   4.0    0.16    3.51    3.12   125.02570    81.37102    61.32742
   441  O   6.0   -0.34    1.37    1.80   124.46450    82.59300    59.44136
   442  C   4.0    0.06    4.24    4.07   126.03313    83.83224    65.24703
   443  O   6.0   -0.26    2.12    1.84   125.13764    84.80043    67.54741
   444  C   4.0   -0.07    4.11    3.82   126.72292    86.08586    63.59272
   445  H   1.0    0.12    1.12    1.45   124.17034    79.78387    67.12682
   446  H   1.0    0.05    1.05    1.44   122.34447    83.33824    63.55271
   447  H   1.0    0.05    1.03    1.43   127.70674    82.63477    65.55866
   448  H   1.0    0.15    1.06    1.44   125.00746    83.43676    68.76568
   449  H   1.0    0.04    1.00    1.43   128.07074    87.27872    64.57650
   450  H   1.0    0.05    1.01    1.43   127.52576    85.45671    61.81700
   451  H   1.0    0.04    1.00    1.43   125.02388    87.17806    63.22249
   452  N   5.0   -0.13    3.44    2.04   126.58620    79.40054    61.26025
   453  C   4.0    0.02    4.27    4.15   127.75413    78.63990    58.91281
   454  C   4.0    0.16    3.40    3.08   125.82125    77.51708    57.10514
   455  O   6.0   -0.30    1.36    1.80   125.82664    78.04222    54.84554
   456  H   1.0    0.12    1.12    1.45   127.24679    78.61504    62.87773
   457  H   1.0    0.06    1.03    1.43   128.60702    80.27046    57.96249
   458  H   1.0    0.05    1.03    1.43   129.20165    77.22950    59.29959
   459  N   5.0   -0.14    3.54    2.11   124.17826    75.92197    58.13924
   460  C   4.0    0.04    4.53    4.57   122.08462    74.97505    56.65751
   461  C   4.0    0.16    3.53    3.13   120.66696    77.27295    55.64168
   462  O   6.0   -0.33    1.40    1.80   120.22568    77.44957    53.36448
   463  C   4.0   -0.02    4.25    4.11   120.37529    73.17623    58.16130
   464  C   4.0   -0.08    4.13    3.86   118.03860    72.50170    56.60870
   465  C   4.0   -0.07    4.11    3.83   121.79781    70.76379    58.85537
   466  H   1.0    0.12    1.12    1.45   124.21872    75.55548    60.02177
   467  H   1.0    0.05    1.06    1.44   122.82505    73.97497    54.99426
   468  H   1.0    0.05    1.05    1.44   119.80107    74.15367    59.88973
   469  H   1.0    0.03    1.00    1.43   116.82730    71.22823    57.66923
   470  H   1.0    0.05    1.00    1.43   116.95301    74.17338    56.11825
   471  H   1.0    0.04    1.00    1.43   118.58374    71.56186    54.86394
   472  H   1.0    0.04    1.00    1.43   120.56009    69.52193    59.92595
   473  H   1.0    0.04    1.00    1.43   122.39346    69.76611    57.16106
   474  H   1.0    0.06    1.00    1.43   123.44475    71.20447    59.99375
   475  N   5.0   -0.14    3.51    2.09   120.01375    79.02527    57.31328
   476  C   4.0    0.03    4.52    4.56   118.51786    81.20851    56.61583
   477  C   4.0    0.16    3.56    3.14   119.82658    82.67966    54.50129
   478  O   6.0   -0.32    1.32    1.80   118.72060    83.24211    52.53706
   479  C   4.0   -0.02    4.36    4.30   118.09022    82.98686    58.87605
   480  C   4.0   -0.05    4.18    3.96   116.39388    81.80225    60.90696
   481  C   4.0   -0.08    4.17    3.95   116.89131    85.41331    57.87219
   482  C   4.0   -0.08    4.02    3.65   116.51347    83.24996    63.39695
   483  H   1.0    0.12    1.13    1.45   120.45675    78.84067    59.17303
   484  H   1.0    0.05    1.05    1.44   116.68914    80.57086    55.85922
   485  H   1.0    0.06    1.06    1.44   119.95007    83.39233    59.68498
   486  H   1.0    0.04    1.03    1.43   114.45669    81.77099    60.20550
   487  H   1.0    0.05    1.04    1.43   116.97030    79.86072    61.27725
   488  H   1.0    0.03    1.00    1.43   116.19930    86.59573    59.39445
   489  H   1.0    0.04    1.01    1.43   118.23294    86.49153    56.75137
   490  H   1.0    0.04    1.00    1.43   115.28174    84.93860    56.68814
   491  H   1.0    0.04    1.00    1.43   115.10835    82.53032    64.70983
   492  H   1.0    0.04    1.00    1.43   118.37033    83.01679    64.24653
   493  H   1.0    0.03    1.00    1.43   116.17917    85.25442    63.13181
   494  N   5.0   -0.14    3.56    2.12   122.18773    83.36916    55.00047
   495  C   4.0    0.03    4.54    4.59   123.61473    84.86233    53.20883
   496  C   4.0    0.16    3.62    3.18   123.61057    83.41149    50.73941
   497  O   6.0   -0.32    1.38    1.80   122.90414    84.38316    48.75366
   498  C   4.0   -0.02    4.28    4.15   126.33309    85.38275    54.06949
   499  C   4.0   -0.07    4.15    3.89   127.84528    86.46351    51.86223
   500  C   4.0   -0.08    4.11    3.82   126.38040    87.20600    56.29619
   501  H   1.0    0.12    1.15    1.45   123.02845    82.88107    56.65428
   502  H   1.0    0.05    1.05    1.44   122.61212    86.64805    52.86101
   503  H   1.0    0.06    1.05    1.44   127.17022    83.57834    54.63854
   504  H   1.0    0.04    1.00    1.43   129.75370    86.93006    52.45553
   505  H   1.0    0.05    1.01    1.43   127.95705    85.10564    50.32616
   506  H   1.0    0.04    1.00    1.43   126.94753    88.17191    51.15604
   507  H   1.0    0.04    1.00    1.43   128.32121    87.49158    56.90316
   508  H   1.0    0.03    1.00    1.43   125.59137    89.02007    55.74828
   509  H   1.0    0.05    1.01    1.43   125.29250    86.44386    57.85551
   510  N   5.0   -0.13    3.57    2.13   124.37042    81.02829    50.91071
   511  C   4.0    0.05    4.50    4.54   124.36300    79.47317    48.67692
   512  C   4.0    0.16    3.55    3.14   121.82233    79.74671    47.36761
   513  O   6.0   -0.33    1.45    1.80   121.75916    80.15475    45.08696
   514  C   4.0   -0.03    4.32    4.24   124.93009    76.72372    49.28762
   515  C   4.0    0.17    3.26    3.05   127.65702    76.46297    50.18566
   516  O   6.0   -0.29    1.22    1.80   129.20742    78.15309    50.00448
   517  N   5.0   -0.19    3.18    1.95   128.22599    74.16116    51.08236
   518  H   1.0    0.12    1.13    1.45   124.93537    80.23829    52.56508
   519  H   1.0    0.06    1.06    1.44   125.80503    80.16324    47.34422
   520  H   1.0    0.06    1.03    1.43   123.62353    76.05378    50.73192
   521  H   1.0    0.04    1.03    1.43   124.70670    75.59658    47.57270
   522  H   1.0    0.09    1.03    1.43   129.97174    73.84702    51.77419
   523  H   1.0    0.08    1.03    1.43   126.88877    72.83076    51.27747
   524  N   5.0   -0.14    3.57    2.13   119.75706    79.42719    48.74096
   525  C   4.0    0.04    4.50    4.53   117.24610    79.61023    47.66895
   526  C   4.0    0.16    3.46    3.10   116.95756    82.08443    46.18326
   527  O   6.0   -0.32    1.29    1.80   116.07568    82.06938    44.03759
   528  C   4.0   -0.03    4.12    3.85   115.29976    79.32649    49.76823
   529  S   6.0   -0.03    2.51    3.10   115.03172    76.05215    50.76774
   530  H   1.0    0.12    1.14    1.45   119.89300    79.13629    50.63351
   531  H   1.0    0.05    1.07    1.44   116.97156    78.09159    46.27211
   532  H   1.0    0.07    1.08    1.44   115.80671    80.46209    51.40698
   533  H   1.0    0.06    1.08    1.44   113.42903    79.87962    49.12929
   534  H   1.0    0.07    1.01    1.43   117.39862    75.87176    51.60989
   535  N   5.0   -0.13    3.42    2.03   117.72738    84.17910    47.34583
   536  C   4.0    0.02    4.25    4.10   117.75436    86.60584    46.08592
   537  C   4.0    0.16    3.34    3.06   119.39318    86.63339    43.69524
   538  O   6.0   -0.33    1.27    1.80   118.74237    87.80655    41.80187
   539  H   1.0    0.12    1.10    1.44   118.38996    84.07985    49.14301
   540  H   1.0    0.05    1.02    1.43   115.83651    87.14870    45.52535
   541  H   1.0    0.04    1.03    1.43   118.50320    88.00854    47.39607
   542  N   5.0   -0.14    3.54    2.11   121.53779    85.34195    43.87047
   543  C   4.0    0.04    4.51    4.55   123.28514    85.10472    41.78637
   544  C   4.0    0.15    3.52    3.12   122.21748    83.38708    39.73856
   545  O   6.0   -0.33    1.38    1.80   122.73219    83.77131    37.50291
   546  C   4.0   -0.02    4.34    4.27   125.85070    84.02827    42.64177
   547  C   4.0   -0.05    4.18    3.97   127.16389    85.73085    44.58236
   548  C   4.0   -0.07    4.14    3.89   127.57643    83.53116    40.38284
   549  C   4.0   -0.08    4.02    3.65   127.67150    88.42554    43.70619
   550  H   1.0    0.12    1.14    1.45   122.03119    84.58391    45.56173
   551  H   1.0    0.05    1.06    1.44   123.54270    86.97157    40.91945
   552  H   1.0    0.06    1.06    1.44   125.44117    82.21982    43.56134
   553  H   1.0    0.06    1.04    1.43   125.99171    85.80460    46.27108
   554  H   1.0    0.04    1.03    1.43   128.95285    84.83107    45.08401
   555  H   1.0    0.04    1.00    1.43   129.41505    82.89382    41.03769
   556  H   1.0    0.05    1.01    1.43   126.78710    82.08917    39.15430
   557  H   1.0    0.05    1.00    1.43   127.83148    85.23526    39.26685
   558  H   1.0    0.04    1.00    1.43   128.75363    89.40819    45.14718
   559  H   1.0    0.04    1.00    1.43   128.74169    88.47303    41.95542
   560  H   1.0    0.04    1.00    1.43   125.90451    89.43283    43.43067
   561  N   5.0   -0.14    3.61    2.17   120.79777    81.46707    40.49491
   562  C   4.0    0.04    4.56    4.62   119.62781    79.82922    38.65962
   563  C   4.0    0.16    3.60    3.17   117.55666    81.32527    37.40842
   564  O   6.0   -0.33    1.48    1.80   116.85944    80.90550    35.24642
   565  C   4.0   -0.02    4.30    4.20   118.33766    77.46926    39.73096
   566  C   4.0   -0.07    4.15    3.90   117.57242    75.72241    37.56311
   567  C   4.0   -0.07    4.17    3.93   120.07212    76.03841    41.50000
   568  H   1.0    0.13    1.16    1.46   120.60460    81.07743    42.35841
   569  H   1.0    0.05    1.06    1.44   121.04264    79.28223    37.25046
   570  H   1.0    0.05    1.06    1.44   116.64819    78.11677    40.74060
   571  H   1.0    0.04    1.00    1.43   116.32472    74.22881    38.21757
   572  H   1.0    0.06    1.01    1.43   116.63334    76.73651    36.04765
   573  H   1.0    0.04    1.00    1.43   119.25025    74.84056    36.76774
   574  H   1.0    0.04    1.04    1.43   118.99764    74.53686    42.34734
   575  H   1.0    0.04    1.00    1.43   121.63628    75.20312    40.46608
   576  H   1.0    0.07    1.03    1.43   120.81914    77.23587    42.97311
   577  N   5.0   -0.13    3.60    2.15   116.47819    83.07975    38.85163
   578  C   4.0    0.03    4.46    4.48   114.72141    84.79945    37.68089
   579  C   4.0    0.16    3.57    3.15   116.27257    86.27072    35.69451
   580  O   6.0   -0.32    1.35    1.80   115.61192    86.22059    33.47060
   581  C   4.0   -0.05    4.33    4.25   113.26703    86.30152    39.68522
   582  C   4.0   -0.02    4.22    4.04   113.19093    89.12631    39.13555
   583  C   4.0   -0.08    4.18    3.95   112.01374    89.61343    36.54763
   584  C   4.0   -0.08    4.11    3.81   111.72208    90.56213    41.15811
   585  H   1.0    0.11    1.11    1.45   116.70255    83.08162    40.75661
   586  H   1.0    0.05    1.06    1.44   113.39956    83.67521    36.53481
   587  H   1.0    0.03    1.03    1.43   111.34780    85.56571    39.79507
   588  H   1.0    0.06    1.04    1.43   114.17984    85.98741    41.50309
   589  H   1.0    0.05    1.06    1.44   115.14489    89.78245    39.15324
   590  H   1.0    0.04    1.01    1.43   112.99239    91.14041    35.59509
   591  H   1.0    0.05    1.03    1.43   112.16191    87.97784    35.33152
   592  H   1.0    0.03    1.00    1.43   110.02673    90.09019    36.72228
   593  H   1.0    0.04    1.00    1.43   111.57831    92.54163    40.62810
   594  H   1.0    0.03    1.00    1.43   109.82399    89.80173    41.32730
   595  H   1.0    0.04    1.00    1.43   112.65634    90.44122    42.98371
   596  N   5.0   -0.14    3.49    2.07   118.39853    87.40211    36.44925
   597  C   4.0    0.04    4.45    4.46   119.98044    88.73066    34.63095
   598  C   4.0    0.18    3.52    3.13   120.35536    87.07334    32.27554
   599  O   6.0   -0.27    1.24    1.80   120.02718    87.85364    30.12191
   600  C   4.0   -0.04    4.30    4.19   122.54451    89.42726    35.80064
   601  C   4.0    0.15    3.24    3.04   124.19592    90.72058    33.81976
   602  O   6.0   -0.28    1.21    1.80   125.24576    89.56955    32.12536
   603  N   5.0   -0.19    3.18    1.95   124.49883    93.22793    34.13261
   604  H   1.0    0.11    1.10    1.44   118.79628    87.62356    38.32210
   605  H   1.0    0.05    1.06    1.44   119.00752    90.43764    33.98258
   606  H   1.0    0.04    1.03    1.43   122.22040    90.66411    37.41656
   607  H   1.0    0.07    1.04    1.43   123.49709    87.70094    36.41579
   608  H   1.0    0.09    1.03    1.43   125.33300    94.20231    32.71883
   609  H   1.0    0.07    1.03    1.43   123.36137    94.22087    35.28238
   610  N   5.0   -0.13    3.57    2.13   121.12012    84.74953    32.84148
   611  C   4.0    0.04    4.45    4.46   121.88363    82.92111    30.98258
   612  C   4.0    0.16    3.47    3.10   119.67173    82.01943    29.34354
   613  O   6.0   -0.27    1.22    1.80   119.99059    81.69300    27.06012
   614  C   4.0   -0.03    4.36    4.31   123.05099    80.65936    32.36128
   615  C   4.0   -0.01    3.60    3.17   123.47688    78.49066    30.58678
   616  C   4.0   -0.03    3.48    3.11   125.13086    78.76033    28.56586
   617  C   4.0   -0.03    3.47    3.10   122.15508    76.24337    30.86645
   618  C   4.0   -0.03    3.38    3.07   125.34353    76.87534    26.77723
   619  C   4.0   -0.03    3.38    3.07   122.43073    74.32027    29.11640
   620  C   4.0   -0.03    3.38    3.07   123.97627    74.65805    27.03902
   621  H   1.0    0.12    1.16    1.46   121.45309    84.27988    34.68029
   622  H   1.0    0.07    1.05    1.44   123.26375    83.79615    29.70114
   623  H   1.0    0.05    1.03    1.43   124.80606    81.28150    33.25188
   624  H   1.0    0.05    1.04    1.43   121.70863    80.11053    33.81962
   625  H   1.0    0.06    1.03    1.43   126.22555    80.47187    28.38272
   626  H   1.0    0.05    1.03    1.43   120.87739    75.99825    32.44058
   627  H   1.0    0.06    1.03    1.43   126.59052    77.14987    25.19118
   628  H   1.0    0.06    1.03    1.43   121.40733    72.57546    29.37151
   629  H   1.0    0.05    1.03    1.43   124.09561    73.19292    25.62935
   630  N   5.0   -0.13    3.56    2.12   117.52410    81.58609    30.54884
   631  C   4.0    0.05    4.41    4.39   115.16422    80.87951    29.36283
   632  C   4.0    0.16    3.52    3.12   114.59324    82.87088    27.35475
   633  O   6.0   -0.27    1.23    1.80   114.10026    82.36202    25.15452
   634  C   4.0   -0.03    4.32    4.23   112.94304    80.88209    31.23582
   635  C   4.0    0.06    3.74    3.27   112.60854    78.57985    32.84265
   636  N   5.0   -0.17    2.52    1.90   112.86112    76.16217    31.97537
   637  C   4.0   -0.01    3.62    3.18   111.79285    78.50785    35.30470
   638  C   4.0    0.06    3.64    3.19   112.22774    74.68590    33.85334
   639  N   5.0   -0.13    3.45    2.05   111.55551    76.01578    35.92010
   640  H   1.0    0.13    1.21    1.47   117.43301    81.72095    32.46607
   641  H   1.0    0.07    1.05    1.44   115.31358    79.04021    28.41746
   642  H   1.0    0.06    1.04    1.43   113.10777    82.53801    32.45116
   643  H   1.0    0.05    1.04    1.43   111.22926    81.11047    30.09718
   644  H   1.0    0.04    1.02    1.43   111.35991    79.96900    36.63115
   645  H   1.0    0.04    1.02    1.43   112.30387    72.66584    33.82126
   646  H   1.0    0.07    1.05    1.44   111.03222    75.33598    37.61922
   647  N   5.0   -0.14    3.52    2.09   114.61739    85.23477    28.26810
   648  C   4.0    0.05    4.33    4.26   114.05781    87.32118    26.60375
   649  C   4.0    0.11    3.34    3.06   115.94532    87.28700    24.39128
   650  O   6.0   -0.27    1.12    1.80   115.22771    87.61997    22.21043
   651  C   4.0   -0.03    4.29    4.18   113.84072    89.81640    28.08525
   652  C   4.0    0.00    3.58    3.16   116.13898    91.46378    27.92700
   653  C   4.0   -0.03    3.55    3.14   117.17251    92.09463    25.59809
   654  C   4.0   -0.03    3.50    3.11   117.23238    92.44561    30.09350
   655  C   4.0   -0.03    3.38    3.07   119.42833    93.40343    25.46327
   656  C   4.0   -0.03    3.38    3.07   119.46894    93.78979    29.96599
   657  C   4.0   -0.03    3.38    3.07   120.62880    94.17252    27.66158
   658  H   1.0    0.12    1.11    1.45   115.19127    85.57147    30.06481
   659  H   1.0    0.06    1.06    1.44   112.23186    86.93185    25.68919
   660  H   1.0    0.04    1.03    1.43   112.21731    90.86885    27.36676
   661  H   1.0    0.05    1.04    1.43   113.46982    89.33744    30.05905
   662  H   1.0    0.07    1.05    1.44   116.18645    91.61175    23.87827
   663  H   1.0    0.05    1.03    1.43   116.28404    92.13445    31.87421
   664  H   1.0    0.06    1.03    1.43   120.13253    93.94211    23.62197
   665  H   1.0    0.05    1.03    1.43   120.29551    94.59081    31.64609
   666  H   1.0    0.05    1.03    1.43   122.37370    95.21175    27.56586
   667  N   5.0   -0.21    3.21    1.96   135.92477    64.27675    50.96894
   668  C   4.0    0.03    4.30    4.20   134.25353    63.47739    52.99456
   669  C   4.0    0.08    3.25    3.04   135.42065    61.15634    54.24386
   670  O   6.0   -0.29    1.11    1.80   135.36331    60.81071    56.53685
   671  C   4.0   -0.03    4.25    4.10   131.55425    62.95463    52.07708
   672  C   4.0   -0.07    4.13    3.86   129.97948    61.77051    54.18498
   673  C   4.0   -0.08    4.12    3.84   130.32560    65.40237    51.18239
   674  H   1.0    0.08    1.02    1.43   135.33227    64.10428    49.16136
   675  H   1.0    0.05    1.05    1.44   134.22688    64.98123    54.42629
   676  H   1.0    0.04    1.05    1.44   131.66306    61.63562    50.48965
   677  H   1.0    0.04    1.00    1.43   128.08898    61.35787    53.49960
   678  H   1.0    0.05    1.00    1.43   130.82056    60.02388    54.86377
   679  H   1.0    0.04    1.00    1.43   129.82691    63.06398    55.77429
   680  H   1.0    0.04    1.00    1.43   128.42519    65.01022    50.51526
   681  H   1.0    0.04    1.00    1.43   130.22416    66.75994    52.71954
   682  H   1.0    0.04    1.00    1.43   131.39132    66.21495    49.63433
   683  H   1.0    0.09    1.07    1.44   122.18664    99.98492    70.83918
   684  H   1.0    0.05    1.05    1.44   114.25967   101.07969    66.80386
   685  H   1.0    0.09    1.07    1.44   117.86817   104.22845    64.02019
   686  H   1.0    0.07    1.05    1.44   109.38199   102.32950    48.95063
   687  H   1.0    0.09    1.07    1.44   115.58167   103.06978    43.04127
   688  H   1.0    0.07    1.04    1.43   109.64751   101.53994    41.43159
   689  H   1.0    0.09    1.07    1.44   113.62346   101.15649    33.49009
   690  H   1.0    0.06    1.04    1.43   108.41778   102.45584    29.96783
   691  H   1.0    0.09    1.07    1.44   109.70739    60.09478    58.65327
   692  H   1.0    0.05    1.05    1.44   115.40701    61.75868    56.53070
   693  H   1.0    0.09    1.07    1.44   112.44153    65.86131    49.10904
   694  H   1.0    0.05    1.04    1.43   118.13457    63.43949    46.44374
   695  H   1.0    0.09    1.07    1.44   116.12995    68.09212    39.14239
   696  H   1.0    0.06    1.05    1.44   118.33131    63.37873    35.24006
   697  H   1.0    0.09    1.07    1.44    99.16244    73.88544    36.33689
   698  H   1.0    0.05    1.05    1.44    97.75913    79.77074    42.17255
   699  H   1.0    0.09    1.07    1.44    96.73748    75.05108    45.28751
   700  H   1.0    0.06    1.05    1.44    97.99515    79.05032    53.76789
   701  H   1.0    0.09    1.07    1.44   100.03855    73.76766    55.90914
   702  H   1.0    0.07    1.04    1.43   101.27948    80.83176    61.64030
   703  H   1.0    0.09    1.07    1.44   104.38618    74.06810    66.70640
   704  H   1.0    0.07    1.04    1.44   105.81582    79.76698    69.40122
   705  H   1.0    0.09    1.07    1.44   129.00110    70.80211    76.55332
   706  H   1.0    0.08    1.05    1.44   117.78234    86.99083    24.72099
   707  H   1.0    0.09    1.07    1.44   136.28108    65.93030    51.14609
   708  H   1.0    0.06    1.05    1.44   136.27449    59.84315    53.18671

  Z AO/shell   Hii/eV     exponent
  1     Wed Apr 25 08:07:45 CEST 2018   EN: 2.200 GM2: 0.406  GM3: 0.0800  RAES: 1.40
     1s    -10.707211    1.230000
  6     Wed Apr 25 08:07:45 CEST 2018   EN: 2.550 GM2: 0.538  GM3: 0.1500  RAES: 3.00
     2s    -13.970922    2.096432
     2p    -10.063292    1.800000
  7     Wed Apr 25 08:07:45 CEST 2018   EN: 3.040 GM2: 0.461  GM3:-0.0640  RAES: 1.90
     2s    -16.686243    2.339881
     2p    -12.523956    2.014332
  8     Wed Apr 25 08:07:45 CEST 2018   EN: 3.440 GM2: 0.452  GM3:-0.0517  RAES: 1.80
     2s    -20.229985    2.439742
     2p    -15.503117    2.137023
 16     Tue Apr 24 11:44:34 CEST 2018   EN: 2.580 GM2: 0.340  GM3:-0.0502  RAES: 3.10
     3s    -20.029654    1.981333
     3p    -11.377694    2.025643
     3d     -0.420282    1.702555
 no old-style atom pair restraining (fixing) potential

molecular fragmentation (1/2 indicates fragments):
111111111111111111111111111111111222222222222222222222222222222222222222
222222222222222222222222222222222222222222222222222222222222222222222222
222222222222222222222222222222222222222222222222222222222222222222222222
222222222222222222222222222222222222222222222222222222222222222222222222
222222222222222222222222222222222222222222222222222222222222222222222222
222222222222222222222222222222222222222222222222222222222222222222222222
222222222222222222222222222222222222222222222222222222222222222222222222
222222222222222222222222222222222222222222222222222222222222222222222222
222222222222222222222222222222222222222222222222222222222222222222222222
222222222222222222222222222222222211222222222222222222222222
# atoms in fragment 1/2:    35   673
 fragment masses (1/2) :      212.29     4314.62
CMA distance (Bohr)    :  23.332
constraining FC (au)   :  0.0500
           ------------------------------------------------- 
          |        Self-Consistent Charge Iterations        |
           ------------------------------------------------- 

 Ncao       : 1671
 Nao        : 1669
 Nshell     : 1027
 Nel        : 1806
 T(el)      :   500.0
 intcut     :    35.0
 scfconv/Eh :  0.100E-06
   qconv/e  :  0.100E-04
 intneglect :  0.100E-08
 broydamp   :      0.400
 iter      E             dE          RMSdq      gap      omega  full diag
   1  -1020.6794373 -0.102068E+04  0.424E+00    2.73       0.0  T
   2  -1022.7838401 -0.210440E+01  0.200E+00    1.82       1.0  T
   3  -1022.9043619 -0.120522E+00  0.115E+00    1.80       1.0  T
   4  -1023.0625012 -0.158139E+00  0.216E-01    1.21       1.0  T
   5  -1023.0705692 -0.806798E-02  0.103E-01    1.38       1.0  T
   6  -1023.0720414 -0.147212E-02  0.449E-02    1.39       1.0  T
   7  -1023.0724983 -0.456958E-03  0.185E-02    1.37       1.0  T
   8  -1023.0725406 -0.422639E-04  0.869E-03    1.36       1.0  T
   9  -1023.0725536 -0.130479E-04  0.379E-03    1.36       1.0  T
  10  -1023.0725556 -0.200940E-05  0.170E-03    1.36       2.2  T
  11  -1023.0725560 -0.326211E-06  0.815E-04    1.36       4.6  T
  12  -1023.0725560 -0.873539E-07  0.382E-04    1.36       9.8  T
  13  -1023.0725561 -0.307242E-07  0.164E-04    1.36      22.9  T
  14  -1023.0725561 -0.255181E-08  0.898E-05    1.36      41.9  T
  15  -1023.0725561 -0.958266E-09  0.368E-05    1.36     102.1  T
speedup  1.00
cpu  time for SCC   24.82 s
wall time for SCC   24.82 s

   *** convergence criteria satisfied after 15 iterations ***

          eigenvalues
 #    :         891        892        893        894        895        896        897        898
 occ. :        2.000      2.000      2.000      2.000      2.000      2.000      2.000      2.000
 eps  :       -10.175    -10.164    -10.119    -10.047     -9.969     -9.887     -9.855     -9.667
 #    :         899        900        901        902        903        904        905        906
 occ. :        2.000      2.000      2.000      2.000      2.000      0.000      0.000      0.000
 eps  :        -9.614     -9.602     -9.487     -9.444     -9.415     -8.056     -7.863     -7.739
 #    :         907        908        909        910        911        912        913        914
 occ. :        0.000      0.000      0.000      0.000      0.000      0.000      0.000      0.000
 eps  :        -7.694     -7.674     -7.593     -7.571     -7.561     -7.522     -7.514     -7.474


   #   Z            q   n(s)   n(p)   n(d)      C6AA      α(0)
   1   7 N     -0.390  1.310  4.080  0.000    30.085     8.146
   2   6 C      0.035  1.061  2.904  0.000    20.001     6.370
   3   6 C      0.252  1.057  2.691  0.000    22.762     7.813
   4   8 O     -0.497  1.741  4.756  0.000    23.727     6.531
   5   6 C     -0.022  1.068  2.955  0.000    20.939     6.508
   6   6 C     -0.060  1.050  3.010  0.000    21.643     6.623
   7   6 C     -0.114  1.038  3.076  0.000    22.740     6.799
   8   6 C     -0.113  1.038  3.076  0.000    22.728     6.799
   9   1 H      0.165  0.835  0.000  0.000     1.306     1.790
  10   1 H      0.029  0.971  0.000  0.000     2.598     2.520
  11   1 H      0.041  0.959  0.000  0.000     2.440     2.443
  12   1 H      0.036  0.964  0.000  0.000     2.502     2.474
  13   1 H      0.033  0.967  0.000  0.000     2.545     2.495
  14   1 H      0.054  0.946  0.000  0.000     2.267     2.355
  15   1 H      0.036  0.964  0.000  0.000     2.503     2.474
  16   1 H      0.041  0.959  0.000  0.000     2.432     2.439
  17   1 H      0.039  0.961  0.000  0.000     2.461     2.453
  18   1 H      0.040  0.960  0.000  0.000     2.444     2.445
  19   1 H      0.046  0.954  0.000  0.000     2.372     2.408
  20   7 N     -0.078  1.240  3.838  0.000    22.746     7.083
  21   6 C      0.024  1.061  2.915  0.000    20.141     6.386
  22   6 C      0.205  1.084  2.711  0.000    23.649     7.964
  23   8 O     -0.353  1.734  4.619  0.000    20.763     6.109
  24   6 C     -0.070  1.054  3.016  0.000    21.826     6.649
  25   6 C     -0.078  1.053  3.025  0.000    21.972     6.671
  26   6 C     -0.019  1.053  2.966  0.000    20.956     6.526
  27   1 H      0.084  0.916  0.000  0.000     1.934     2.175
  28   1 H      0.065  0.935  0.000  0.000     2.138     2.287
  29   1 H      0.080  0.920  0.000  0.000     1.978     2.199
  30   1 H      0.069  0.931  0.000  0.000     2.101     2.267
  31   1 H      0.074  0.926  0.000  0.000     2.037     2.232
  32   1 H      0.077  0.923  0.000  0.000     2.012     2.218
  33   1 H      0.077  0.923  0.000  0.000     2.007     2.215
  34   7 N     -0.388  1.315  4.073  0.000    30.052     8.142
  35   6 C      0.027  1.062  2.911  0.000    20.140     6.392
  36   6 C      0.266  1.047  2.687  0.000    22.510     7.770
  37   8 O     -0.518  1.751  4.768  0.000    24.193     6.595
  38   6 C     -0.022  1.070  2.952  0.000    20.925     6.506
  39   6 C     -0.063  1.052  3.011  0.000    21.705     6.633
  40   6 C     -0.113  1.040  3.073  0.000    22.713     6.795
  41   6 C     -0.109  1.035  3.073  0.000    22.639     6.785
  42   1 H      0.153  0.847  0.000  0.000     1.378     1.839
  43   1 H      0.036  0.964  0.000  0.000     2.498     2.471
  44   1 H      0.042  0.958  0.000  0.000     2.420     2.433
  45   1 H      0.041  0.959  0.000  0.000     2.435     2.440
  46   1 H      0.036  0.964  0.000  0.000     2.504     2.475
  47   1 H      0.050  0.950  0.000  0.000     2.321     2.382
  48   1 H      0.035  0.965  0.000  0.000     2.511     2.478
  49   1 H      0.034  0.966  0.000  0.000     2.529     2.487
  50   1 H      0.042  0.958  0.000  0.000     2.417     2.431
  51   1 H      0.033  0.967  0.000  0.000     2.541     2.493
  52   1 H      0.043  0.957  0.000  0.000     2.405     2.425
  53   7 N     -0.178  1.248  3.930  0.000    24.857     7.405
  54   6 C      0.023  1.057  2.920  0.000    20.193     6.398
  55   6 C      0.265  1.045  2.690  0.000    22.523     7.772
  56   8 O     -0.488  1.741  4.747  0.000    23.525     6.503
  57   6 C     -0.075  1.058  3.017  0.000    21.918     6.663
  58   6 C     -0.015  1.056  2.959  0.000    20.809     6.488
  59   6 C     -0.116  1.042  3.075  0.000    22.776     6.804
  60   6 C     -0.114  1.039  3.075  0.000    22.732     6.798
  61   1 H      0.245  0.755  0.000  0.000     0.904     1.489
  62   1 H      0.068  0.932  0.000  0.000     2.108     2.270
  63   1 H      0.058  0.942  0.000  0.000     2.227     2.334
  64   1 H      0.060  0.940  0.000  0.000     2.202     2.320
  65   1 H      0.052  0.948  0.000  0.000     2.290     2.367
  66   1 H      0.046  0.954  0.000  0.000     2.372     2.408
  67   1 H      0.042  0.958  0.000  0.000     2.422     2.434
  68   1 H      0.043  0.957  0.000  0.000     2.414     2.429
  69   1 H      0.047  0.953  0.000  0.000     2.352     2.398
  70   1 H      0.037  0.963  0.000  0.000     2.489     2.467
  71   1 H      0.027  0.973  0.000  0.000     2.628     2.535
  72   7 N     -0.205  1.255  3.950  0.000    25.462     7.494
  73   6 C      0.009  1.065  2.926  0.000    20.417     6.433
  74   6 C      0.278  1.041  2.682  0.000    22.301     7.734
  75   8 O     -0.491  1.756  4.735  0.000    23.584     6.511
  76   6 C     -0.026  1.066  2.959  0.000    20.999     6.518
  77   6 C     -0.071  1.052  3.019  0.000    21.849     6.654
  78   6 C     -0.113  1.037  3.076  0.000    22.723     6.797
  79   6 C     -0.112  1.037  3.075  0.000    22.703     6.795
  80   1 H      0.254  0.746  0.000  0.000     0.869     1.460
  81   1 H      0.087  0.913  0.000  0.000     1.909     2.161
  82   1 H      0.059  0.941  0.000  0.000     2.211     2.325
  83   1 H      0.049  0.951  0.000  0.000     2.339     2.392
  84   1 H      0.054  0.946  0.000  0.000     2.276     2.359
  85   1 H      0.062  0.938  0.000  0.000     2.174     2.306
  86   1 H      0.030  0.970  0.000  0.000     2.587     2.515
  87   1 H      0.041  0.959  0.000  0.000     2.435     2.440
  88   1 H      0.049  0.951  0.000  0.000     2.331     2.388
  89   1 H      0.036  0.964  0.000  0.000     2.501     2.473
  90   1 H      0.043  0.957  0.000  0.000     2.411     2.428
  91   7 N     -0.183  1.236  3.947  0.000    24.972     7.422
  92   6 C      0.016  1.063  2.922  0.000    20.310     6.416
  93   6 C      0.276  1.043  2.681  0.000    22.342     7.741
  94   8 O     -0.512  1.755  4.757  0.000    24.055     6.576
  95   6 C      0.071  1.035  2.894  0.000    19.608     6.344
  96   8 O     -0.460  1.721  4.739  0.000    22.051     6.339
  97   1 H      0.200  0.800  0.000  0.000     1.105     1.647
  98   1 H      0.080  0.920  0.000  0.000     1.982     2.202
  99   1 H      0.049  0.951  0.000  0.000     2.335     2.390
 100   1 H      0.060  0.940  0.000  0.000     2.201     2.320
 101   1 H      0.335  0.665  0.000  0.000     0.624     1.241
 102   7 N     -0.200  1.263  3.938  0.000    25.355     7.479
 103   6 C      0.031  1.062  2.907  0.000    20.041     6.372
 104   6 C      0.282  1.041  2.677  0.000    22.228     7.721
 105   8 O     -0.491  1.738  4.753  0.000    23.591     6.512
 106   6 C     -0.013  1.066  2.947  0.000    20.776     6.483
 107   6 C     -0.062  1.053  3.009  0.000    21.686     6.629
 108   6 C     -0.127  1.039  3.088  0.000    22.989     6.837
 109   6 C     -0.110  1.037  3.073  0.000    22.670     6.790
 110   1 H      0.226  0.774  0.000  0.000     0.984     1.554
 111   1 H      0.056  0.944  0.000  0.000     2.249     2.346
 112   1 H      0.040  0.960  0.000  0.000     2.453     2.449
 113   1 H      0.043  0.957  0.000  0.000     2.414     2.430
 114   1 H      0.030  0.970  0.000  0.000     2.587     2.515
 115   1 H      0.052  0.948  0.000  0.000     2.294     2.369
 116   1 H      0.075  0.925  0.000  0.000     2.026     2.226
 117   1 H      0.031  0.969  0.000  0.000     2.569     2.507
 118   1 H      0.043  0.957  0.000  0.000     2.409     2.427
 119   1 H      0.044  0.956  0.000  0.000     2.398     2.422
 120   1 H      0.041  0.959  0.000  0.000     2.433     2.439
 121   7 N     -0.175  1.243  3.932  0.000    24.795     7.395
 122   6 C      0.039  1.054  2.907  0.000    19.925     6.356
 123   6 C      0.210  1.085  2.705  0.000    23.560     7.950
 124   8 O     -0.370  1.749  4.620  0.000    21.089     6.157
 125   6 C     -0.071  1.058  3.012  0.000    21.837     6.651
 126   6 C     -0.022  1.056  2.966  0.000    20.927     6.507
 127   6 C     -0.121  1.044  3.077  0.000    22.864     6.817
 128   6 C     -0.121  1.041  3.080  0.000    22.869     6.818
 129   1 H      0.226  0.774  0.000  0.000     0.985     1.555
 130   1 H      0.080  0.920  0.000  0.000     1.982     2.202
 131   1 H      0.051  0.949  0.000  0.000     2.303     2.373
 132   1 H      0.062  0.938  0.000  0.000     2.171     2.304
 133   1 H      0.059  0.941  0.000  0.000     2.207     2.323
 134   1 H      0.052  0.948  0.000  0.000     2.292     2.368
 135   1 H      0.037  0.963  0.000  0.000     2.484     2.465
 136   1 H      0.051  0.949  0.000  0.000     2.310     2.377
 137   1 H      0.051  0.949  0.000  0.000     2.313     2.378
 138   1 H      0.046  0.954  0.000  0.000     2.374     2.410
 139   1 H      0.035  0.965  0.000  0.000     2.516     2.481
 140   7 N     -0.417  1.326  4.091  0.000    30.862     8.251
 141   6 C      0.049  1.054  2.897  0.000    19.775     6.335
 142   6 C      0.189  1.097  2.713  0.000    23.945     8.014
 143   8 O     -0.372  1.743  4.628  0.000    21.119     6.161
 144   6 C     -0.064  1.058  3.006  0.000    21.725     6.636
 145   6 C     -0.006  1.057  2.949  0.000    20.646     6.463
 146   6 C     -0.118  1.044  3.074  0.000    22.809     6.809
 147   6 C     -0.108  1.038  3.070  0.000    22.612     6.780
 148   1 H      0.188  0.812  0.000  0.000     1.169     1.694
 149   1 H      0.047  0.953  0.000  0.000     2.355     2.400
 150   1 H      0.051  0.949  0.000  0.000     2.303     2.373
 151   1 H      0.036  0.964  0.000  0.000     2.507     2.476
 152   1 H      0.038  0.962  0.000  0.000     2.479     2.462
 153   1 H      0.036  0.964  0.000  0.000     2.505     2.475
 154   1 H      0.053  0.947  0.000  0.000     2.286     2.364
 155   1 H      0.031  0.969  0.000  0.000     2.577     2.510
 156   1 H      0.039  0.961  0.000  0.000     2.462     2.454
 157   1 H      0.035  0.965  0.000  0.000     2.522     2.483
 158   1 H      0.033  0.967  0.000  0.000     2.545     2.495
 159   7 N     -0.421  1.329  4.092  0.000    30.960     8.264
 160   6 C      0.041  1.057  2.902  0.000    19.906     6.356
 161   6 C      0.200  1.094  2.707  0.000    23.748     7.981
 162   8 O     -0.397  1.762  4.635  0.000    21.616     6.233
 163   6 C     -0.073  1.065  3.008  0.000    21.890     6.659
 164   6 C     -0.010  1.053  2.957  0.000    20.726     6.475
 165   6 C     -0.118  1.042  3.075  0.000    22.803     6.807
 166   6 C     -0.117  1.043  3.075  0.000    22.795     6.806
 167   1 H      0.209  0.791  0.000  0.000     1.060     1.613
 168   1 H      0.045  0.955  0.000  0.000     2.379     2.412
 169   1 H      0.073  0.927  0.000  0.000     2.052     2.240
 170   1 H      0.046  0.954  0.000  0.000     2.376     2.410
 171   1 H      0.025  0.975  0.000  0.000     2.654     2.548
 172   1 H      0.045  0.955  0.000  0.000     2.389     2.417
 173   1 H      0.029  0.971  0.000  0.000     2.607     2.525
 174   1 H      0.044  0.956  0.000  0.000     2.397     2.421
 175   1 H      0.048  0.952  0.000  0.000     2.350     2.397
 176   1 H      0.045  0.955  0.000  0.000     2.380     2.413
 177   1 H      0.039  0.961  0.000  0.000     2.459     2.452
 178   7 N     -0.394  1.321  4.073  0.000    30.205     8.162
 179   6 C      0.035  1.056  2.909  0.000    19.996     6.369
 180   6 C      0.201  1.092  2.708  0.000    23.732     7.978
 181   8 O     -0.372  1.745  4.627  0.000    21.139     6.164
 182   6 C     -0.020  1.068  2.953  0.000    20.900     6.502
 183   6 C     -0.060  1.049  3.011  0.000    21.652     6.624
 184   6 C     -0.120  1.037  3.083  0.000    22.845     6.815
 185   6 C     -0.106  1.037  3.069  0.000    22.590     6.778
 186   1 H      0.167  0.833  0.000  0.000     1.292     1.781
 187   1 H      0.049  0.951  0.000  0.000     2.331     2.388
 188   1 H      0.048  0.952  0.000  0.000     2.342     2.393
 189   1 H      0.040  0.960  0.000  0.000     2.455     2.450
 190   1 H      0.030  0.970  0.000  0.000     2.586     2.515
 191   1 H      0.053  0.947  0.000  0.000     2.288     2.366
 192   1 H      0.053  0.947  0.000  0.000     2.282     2.362
 193   1 H      0.041  0.959  0.000  0.000     2.441     2.443
 194   1 H      0.035  0.965  0.000  0.000     2.516     2.480
 195   1 H      0.042  0.958  0.000  0.000     2.426     2.436
 196   1 H      0.045  0.955  0.000  0.000     2.387     2.416
 197   7 N     -0.416  1.322  4.094  0.000    30.817     8.245
 198   6 C      0.044  1.053  2.903  0.000    19.849     6.346
 199   6 C      0.194  1.093  2.713  0.000    23.853     7.998
 200   8 O     -0.367  1.749  4.618  0.000    21.032     6.149
 201   6 C     -0.127  1.042  3.085  0.000    22.991     6.837
 202   1 H      0.201  0.799  0.000  0.000     1.100     1.643
 203   1 H      0.040  0.960  0.000  0.000     2.446     2.446
 204   1 H      0.048  0.952  0.000  0.000     2.351     2.398
 205   1 H      0.059  0.941  0.000  0.000     2.209     2.324
 206   1 H      0.056  0.944  0.000  0.000     2.243     2.342
 207   7 N     -0.403  1.315  4.089  0.000    30.470     8.198
 208   6 C      0.043  1.053  2.903  0.000    19.870     6.350
 209   6 C      0.198  1.096  2.707  0.000    23.784     7.987
 210   8 O     -0.387  1.759  4.628  0.000    21.416     6.205
 211   6 C     -0.067  1.054  3.013  0.000    21.780     6.643
 212   6 C      0.028  1.084  2.888  0.000    27.379     8.583
 213   6 C     -0.044  1.080  2.964  0.000    29.101     8.847
 214   6 C     -0.031  1.078  2.953  0.000    28.783     8.798
 215   6 C     -0.039  1.079  2.959  0.000    28.960     8.825
 216   6 C     -0.038  1.081  2.957  0.000    28.953     8.824
 217   6 C     -0.042  1.077  2.965  0.000    29.052     8.839
 218   1 H      0.196  0.804  0.000  0.000     1.128     1.664
 219   1 H      0.050  0.950  0.000  0.000     2.319     2.381
 220   1 H      0.055  0.945  0.000  0.000     2.259     2.351
 221   1 H      0.053  0.947  0.000  0.000     2.288     2.366
 222   1 H      0.036  0.964  0.000  0.000     2.497     2.471
 223   1 H      0.038  0.962  0.000  0.000     2.472     2.459
 224   1 H      0.046  0.954  0.000  0.000     2.371     2.408
 225   1 H      0.038  0.962  0.000  0.000     2.474     2.460
 226   1 H      0.036  0.964  0.000  0.000     2.504     2.475
 227   7 N     -0.398  1.311  4.087  0.000    30.318     8.178
 228   6 C      0.033  1.054  2.912  0.000    20.025     6.374
 229   6 C      0.264  1.047  2.688  0.000    22.543     7.775
 230   8 O     -0.485  1.739  4.746  0.000    23.446     6.492
 231   6 C     -0.121  1.041  3.080  0.000    22.872     6.819
 232   1 H      0.167  0.833  0.000  0.000     1.292     1.781
 233   1 H      0.044  0.956  0.000  0.000     2.400     2.423
 234   1 H      0.046  0.954  0.000  0.000     2.367     2.406
 235   1 H      0.059  0.941  0.000  0.000     2.212     2.326
 236   1 H      0.051  0.949  0.000  0.000     2.311     2.377
 237   7 N     -0.162  1.246  3.917  0.000    24.513     7.353
 238   6 C      0.016  1.061  2.923  0.000    20.306     6.416
 239   6 C      0.210  1.083  2.708  0.000    23.558     7.949
 240   8 O     -0.355  1.739  4.615  0.000    20.793     6.114
 241   6 C     -0.025  1.070  2.956  0.000    20.989     6.516
 242   6 C     -0.069  1.049  3.020  0.000    21.815     6.649
 243   6 C     -0.123  1.036  3.086  0.000    22.908     6.825
 244   6 C     -0.116  1.035  3.080  0.000    22.772     6.805
 245   1 H      0.220  0.780  0.000  0.000     1.011     1.575
 246   1 H      0.089  0.911  0.000  0.000     1.887     2.149
 247   1 H      0.061  0.939  0.000  0.000     2.187     2.313
 248   1 H      0.040  0.960  0.000  0.000     2.450     2.448
 249   1 H      0.053  0.947  0.000  0.000     2.280     2.361
 250   1 H      0.062  0.938  0.000  0.000     2.180     2.309
 251   1 H      0.052  0.948  0.000  0.000     2.298     2.371
 252   1 H      0.051  0.949  0.000  0.000     2.311     2.377
 253   1 H      0.041  0.959  0.000  0.000     2.430     2.438
 254   1 H      0.050  0.950  0.000  0.000     2.318     2.381
 255   1 H      0.041  0.959  0.000  0.000     2.430     2.437
 256   7 N     -0.388  1.308  4.080  0.000    30.049     8.141
 257   6 C      0.032  1.061  2.907  0.000    20.052     6.377
 258   6 C      0.267  1.051  2.682  0.000    22.496     7.767
 259   8 O     -0.515  1.743  4.773  0.000    24.129     6.586
 260   6 C     -0.024  1.062  2.962  0.000    20.960     6.511
 261   6 C     -0.116  1.041  3.075  0.000    22.766     6.802
 262   6 C     -0.109  1.037  3.072  0.000    22.634     6.783
 263   1 H      0.149  0.851  0.000  0.000     1.407     1.858
 264   1 H      0.034  0.966  0.000  0.000     2.534     2.489
 265   1 H      0.050  0.950  0.000  0.000     2.317     2.381
 266   1 H      0.047  0.953  0.000  0.000     2.353     2.399
 267   1 H      0.031  0.969  0.000  0.000     2.570     2.507
 268   1 H      0.040  0.960  0.000  0.000     2.447     2.446
 269   1 H      0.044  0.956  0.000  0.000     2.401     2.423
 270   1 H      0.042  0.958  0.000  0.000     2.416     2.431
 271   1 H      0.036  0.964  0.000  0.000     2.497     2.471
 272   7 N     -0.181  1.253  3.928  0.000    24.918     7.414
 273   6 C      0.027  1.057  2.916  0.000    20.126     6.387
 274   6 C      0.278  1.042  2.680  0.000    22.296     7.733
 275   8 O     -0.495  1.742  4.754  0.000    23.681     6.525
 276   6 C     -0.078  1.059  3.019  0.000    21.980     6.674
 277   6 C     -0.014  1.057  2.958  0.000    20.796     6.486
 278   6 C     -0.117  1.042  3.075  0.000    22.788     6.806
 279   6 C     -0.106  1.037  3.069  0.000    22.580     6.775
 280   1 H      0.239  0.761  0.000  0.000     0.928     1.509
 281   1 H      0.062  0.938  0.000  0.000     2.177     2.308
 282   1 H      0.067  0.933  0.000  0.000     2.119     2.276
 283   1 H      0.048  0.952  0.000  0.000     2.342     2.393
 284   1 H      0.045  0.955  0.000  0.000     2.389     2.417
 285   1 H      0.037  0.963  0.000  0.000     2.493     2.469
 286   1 H      0.050  0.950  0.000  0.000     2.325     2.384
 287   1 H      0.040  0.960  0.000  0.000     2.444     2.445
 288   1 H      0.036  0.964  0.000  0.000     2.499     2.472
 289   1 H      0.034  0.966  0.000  0.000     2.528     2.486
 290   1 H      0.033  0.967  0.000  0.000     2.539     2.492
[...]
 422   7 N     -0.188  1.252  3.937  0.000    25.084     7.438
 423   6 C      0.017  1.067  2.916  0.000    20.281     6.412
 424   6 C      0.280  1.042  2.678  0.000    22.256     7.726
 425   8 O     -0.482  1.731  4.750  0.000    23.380     6.483
 426   6 C     -0.017  1.061  2.956  0.000    20.844     6.494
 427   6 C     -0.119  1.038  3.081  0.000    22.834     6.813
 428   6 C     -0.122  1.041  3.081  0.000    22.884     6.820
 429   1 H      0.236  0.764  0.000  0.000     0.938     1.518
 430   1 H      0.075  0.925  0.000  0.000     2.030     2.228
 431   1 H      0.048  0.952  0.000  0.000     2.343     2.394
 432   1 H      0.054  0.946  0.000  0.000     2.276     2.359
 433   1 H      0.044  0.956  0.000  0.000     2.399     2.422
 434   1 H      0.045  0.955  0.000  0.000     2.390     2.417
 435   1 H      0.048  0.952  0.000  0.000     2.341     2.393
 436   1 H      0.046  0.954  0.000  0.000     2.372     2.408
 437   1 H      0.063  0.937  0.000  0.000     2.159     2.298
 438   7 N     -0.196  1.249  3.946  0.000    25.244     7.462
 439   6 C      0.012  1.066  2.922  0.000    20.379     6.428
 440   6 C      0.273  1.042  2.686  0.000    22.393     7.750
 441   8 O     -0.486  1.728  4.758  0.000    23.483     6.497
 442   6 C      0.118  1.044  2.837  0.000    18.744     6.181
 443   8 O     -0.466  1.714  4.752  0.000    22.168     6.356
 444   6 C     -0.128  1.041  3.087  0.000    23.008     6.840
 445   1 H      0.228  0.772  0.000  0.000     0.972     1.544
 446   1 H      0.075  0.925  0.000  0.000     2.032     2.230
 447   1 H      0.022  0.978  0.000  0.000     2.709     2.574
 448   1 H      0.335  0.665  0.000  0.000     0.626     1.243
 449   1 H      0.075  0.925  0.000  0.000     2.035     2.231
 450   1 H      0.049  0.951  0.000  0.000     2.332     2.388
 451   1 H      0.062  0.938  0.000  0.000     2.170     2.304
 452   7 N     -0.178  1.246  3.932  0.000    24.849     7.404
 453   6 C     -0.029  1.050  2.980  0.000    21.157     6.559
 454   6 C      0.274  1.038  2.688  0.000    22.360     7.744
 455   8 O     -0.500  1.740  4.759  0.000    23.782     6.538
 456   1 H      0.235  0.765  0.000  0.000     0.945     1.523
 457   1 H      0.084  0.916  0.000  0.000     1.943     2.180
 458   1 H      0.096  0.904  0.000  0.000     1.821     2.110
 459   7 N     -0.183  1.252  3.931  0.000    24.971     7.422
 460   6 C      0.021  1.065  2.914  0.000    20.223     6.402
 461   6 C      0.279  1.043  2.678  0.000    22.270     7.728
 462   8 O     -0.503  1.733  4.770  0.000    23.861     6.549
 463   6 C     -0.020  1.061  2.958  0.000    20.889     6.501
 464   6 C     -0.117  1.039  3.078  0.000    22.799     6.808
 465   6 C     -0.127  1.042  3.085  0.000    22.998     6.837
 466   1 H      0.246  0.754  0.000  0.000     0.898     1.485
 467   1 H      0.069  0.931  0.000  0.000     2.099     2.266
 468   1 H      0.053  0.947  0.000  0.000     2.282     2.362
 469   1 H      0.060  0.940  0.000  0.000     2.201     2.320
 470   1 H      0.034  0.966  0.000  0.000     2.531     2.488
 471   1 H      0.049  0.951  0.000  0.000     2.329     2.386
 472   1 H      0.058  0.942  0.000  0.000     2.227     2.334
 473   1 H      0.052  0.948  0.000  0.000     2.292     2.367
 474   1 H      0.060  0.940  0.000  0.000     2.199     2.319
 475   7 N     -0.192  1.255  3.936  0.000    25.157     7.449
 476   6 C      0.028  1.063  2.909  0.000    20.105     6.384
 477   6 C      0.282  1.040  2.678  0.000    22.232     7.722
 478   8 O     -0.509  1.741  4.769  0.000    23.990     6.567
 479   6 C     -0.027  1.067  2.959  0.000    21.009     6.519
 480   6 C     -0.068  1.050  3.018  0.000    21.796     6.647
 481   6 C     -0.115  1.039  3.076  0.000    22.753     6.800
 482   6 C     -0.110  1.038  3.072  0.000    22.667     6.789
 483   1 H      0.245  0.755  0.000  0.000     0.903     1.489
 484   1 H      0.055  0.945  0.000  0.000     2.262     2.352
 485   1 H      0.054  0.946  0.000  0.000     2.268     2.355
 486   1 H      0.041  0.959  0.000  0.000     2.435     2.440
 487   1 H      0.054  0.946  0.000  0.000     2.275     2.359
 488   1 H      0.066  0.934  0.000  0.000     2.134     2.284
 489   1 H      0.034  0.966  0.000  0.000     2.530     2.487
 490   1 H      0.042  0.958  0.000  0.000     2.424     2.435
 491   1 H      0.050  0.950  0.000  0.000     2.318     2.381
 492   1 H      0.032  0.968  0.000  0.000     2.560     2.502
 493   1 H      0.050  0.950  0.000  0.000     2.314     2.379
 494   7 N     -0.200  1.257  3.943  0.000    25.344     7.477
 495   6 C      0.025  1.061  2.914  0.000    20.150     6.390
 496   6 C      0.283  1.039  2.678  0.000    22.210     7.719
 497   8 O     -0.501  1.734  4.767  0.000    23.810     6.542
 498   6 C     -0.018  1.061  2.957  0.000    20.853     6.495
 499   6 C     -0.120  1.040  3.080  0.000    22.847     6.815
 500   6 C     -0.129  1.042  3.087  0.000    23.021     6.841
 501   1 H      0.247  0.753  0.000  0.000     0.895     1.482
 502   1 H      0.065  0.935  0.000  0.000     2.145     2.290
 503   1 H      0.042  0.958  0.000  0.000     2.426     2.436
 504   1 H      0.061  0.939  0.000  0.000     2.182     2.310
 505   1 H      0.033  0.967  0.000  0.000     2.539     2.492
 506   1 H      0.050  0.950  0.000  0.000     2.324     2.384
 507   1 H      0.056  0.944  0.000  0.000     2.245     2.343
 508   1 H      0.052  0.948  0.000  0.000     2.293     2.368
 509   1 H      0.066  0.934  0.000  0.000     2.131     2.283
 510   7 N     -0.186  1.250  3.936  0.000    25.023     7.429
 511   6 C      0.043  1.049  2.908  0.000    19.850     6.342
 512   6 C      0.278  1.040  2.682  0.000    22.292     7.732
 513   8 O     -0.499  1.731  4.769  0.000    23.764     6.536
 514   6 C     -0.108  1.061  3.047  0.000    22.559     6.761
 515   6 C      0.300  1.032  2.668  0.000    21.915     7.665
 516   8 O     -0.486  1.748  4.737  0.000    23.466     6.495
 517   7 N     -0.284  1.260  4.024  0.000    27.334     7.765
 518   1 H      0.238  0.762  0.000  0.000     0.931     1.511
 519   1 H      0.069  0.931  0.000  0.000     2.099     2.266
 520   1 H      0.088  0.912  0.000  0.000     1.901     2.156
 521   1 H      0.081  0.919  0.000  0.000     1.968     2.194
 522   1 H      0.236  0.764  0.000  0.000     0.938     1.517
 523   1 H      0.220  0.780  0.000  0.000     1.012     1.575
 524   7 N     -0.189  1.252  3.937  0.000    25.100     7.441
 525   6 C      0.035  1.059  2.906  0.000    19.969     6.358
 526   6 C      0.271  1.044  2.685  0.000    22.415     7.753
 527   8 O     -0.490  1.734  4.756  0.000    23.561     6.508
 528   6 C     -0.011  1.062  2.948  0.000    20.768     6.488
 529  16 S     -0.295  1.925  4.319  0.051   153.845    20.876
 530   1 H      0.244  0.756  0.000  0.000     0.908     1.493
 531   1 H      0.071  0.929  0.000  0.000     2.076     2.253
 532   1 H      0.063  0.937  0.000  0.000     2.161     2.299
 533   1 H      0.069  0.931  0.000  0.000     2.093     2.263
 534   1 H      0.186  0.814  0.000  0.000     1.175     1.695
 535   7 N     -0.173  1.244  3.929  0.000    24.740     7.387
 536   6 C     -0.026  1.051  2.975  0.000    21.104     6.553
 537   6 C      0.271  1.039  2.690  0.000    22.420     7.754
 538   8 O     -0.489  1.734  4.755  0.000    23.552     6.507
 539   1 H      0.235  0.765  0.000  0.000     0.946     1.523
 540   1 H      0.086  0.914  0.000  0.000     1.916     2.165
 541   1 H      0.091  0.909  0.000  0.000     1.869     2.138
 542   7 N     -0.186  1.250  3.936  0.000    25.033     7.431
 543   6 C      0.023  1.060  2.916  0.000    20.182     6.396
 544   6 C      0.274  1.043  2.683  0.000    22.376     7.747
 545   8 O     -0.508  1.739  4.768  0.000    23.958     6.563
 546   6 C     -0.021  1.064  2.956  0.000    20.906     6.503
 547   6 C     -0.068  1.051  3.017  0.000    21.803     6.648
 548   6 C     -0.114  1.038  3.076  0.000    22.737     6.799
 549   6 C     -0.116  1.036  3.079  0.000    22.780     6.807
 550   1 H      0.242  0.758  0.000  0.000     0.915     1.498
 551   1 H      0.069  0.931  0.000  0.000     2.093     2.262
 552   1 H      0.046  0.954  0.000  0.000     2.365     2.405
 553   1 H      0.050  0.950  0.000  0.000     2.320     2.382
 554   1 H      0.045  0.955  0.000  0.000     2.389     2.417
 555   1 H      0.056  0.944  0.000  0.000     2.242     2.342
 556   1 H      0.034  0.966  0.000  0.000     2.525     2.485
 557   1 H      0.047  0.953  0.000  0.000     2.363     2.404
 558   1 H      0.051  0.949  0.000  0.000     2.305     2.374
 559   1 H      0.045  0.955  0.000  0.000     2.388     2.416
 560   1 H      0.035  0.965  0.000  0.000     2.511     2.478
 561   7 N     -0.197  1.253  3.944  0.000    25.280     7.467
 562   6 C      0.026  1.055  2.919  0.000    20.131     6.386
 563   6 C      0.275  1.038  2.687  0.000    22.354     7.745
 564   8 O     -0.487  1.735  4.753  0.000    23.504     6.500
 565   6 C     -0.013  1.058  2.954  0.000    20.761     6.480
 566   6 C     -0.114  1.038  3.075  0.000    22.721     6.795
 567   6 C     -0.138  1.041  3.097  0.000    23.198     6.866
 568   1 H      0.252  0.748  0.000  0.000     0.877     1.467
 569   1 H      0.060  0.940  0.000  0.000     2.197     2.318
 570   1 H      0.041  0.959  0.000  0.000     2.441     2.443
 571   1 H      0.049  0.951  0.000  0.000     2.330     2.387
 572   1 H      0.046  0.954  0.000  0.000     2.376     2.411
 573   1 H      0.041  0.959  0.000  0.000     2.434     2.440
 574   1 H      0.070  0.930  0.000  0.000     2.090     2.261
 575   1 H      0.044  0.956  0.000  0.000     2.401     2.423
 576   1 H      0.060  0.940  0.000  0.000     2.193     2.316
 577   7 N     -0.196  1.255  3.941  0.000    25.257     7.464
 578   6 C      0.030  1.063  2.907  0.000    20.073     6.378
 579   6 C      0.284  1.046  2.670  0.000    22.184     7.713
 580   8 O     -0.497  1.741  4.756  0.000    23.724     6.530
 581   6 C     -0.082  1.060  3.022  0.000    22.060     6.686
 582   6 C     -0.019  1.055  2.964  0.000    20.878     6.499
 583   6 C     -0.125  1.042  3.082  0.000    22.939     6.828
 584   6 C     -0.115  1.042  3.073  0.000    22.756     6.801
 585   1 H      0.232  0.768  0.000  0.000     0.957     1.532
 586   1 H      0.064  0.936  0.000  0.000     2.149     2.293
 587   1 H      0.068  0.932  0.000  0.000     2.105     2.269
 588   1 H      0.063  0.937  0.000  0.000     2.167     2.302
 589   1 H      0.040  0.960  0.000  0.000     2.455     2.450
 590   1 H      0.030  0.970  0.000  0.000     2.587     2.515
 591   1 H      0.037  0.963  0.000  0.000     2.490     2.468
 592   1 H      0.062  0.938  0.000  0.000     2.172     2.305
 593   1 H      0.047  0.953  0.000  0.000     2.355     2.400
 594   1 H      0.052  0.948  0.000  0.000     2.290     2.367
 595   1 H      0.035  0.965  0.000  0.000     2.511     2.478
 596   7 N     -0.194  1.260  3.934  0.000    25.218     7.458
 597   6 C      0.032  1.060  2.907  0.000    20.028     6.371
 598   6 C      0.296  1.032  2.672  0.000    21.979     7.677
 599   8 O     -0.508  1.756  4.753  0.000    23.971     6.564
 600   6 C     -0.113  1.066  3.047  0.000    22.660     6.776
 601   6 C      0.294  1.035  2.670  0.000    22.004     7.681
 602   8 O     -0.492  1.759  4.733  0.000    23.599     6.513
 603   7 N     -0.285  1.275  4.010  0.000    27.351     7.767
 604   1 H      0.236  0.764  0.000  0.000     0.940     1.519
 605   1 H      0.064  0.936  0.000  0.000     2.153     2.295
 606   1 H      0.076  0.924  0.000  0.000     2.018     2.221
 607   1 H      0.091  0.909  0.000  0.000     1.865     2.136
 608   1 H      0.229  0.771  0.000  0.000     0.968     1.541
 609   1 H      0.229  0.771  0.000  0.000     0.972     1.544
 610   7 N     -0.212  1.258  3.954  0.000    25.614     7.517
 611   6 C      0.043  1.056  2.901  0.000    19.860     6.345
 612   6 C      0.282  1.040  2.678  0.000    22.226     7.720
 613   8 O     -0.540  1.762  4.778  0.000    24.679     6.660
 614   6 C     -0.073  1.056  3.018  0.000    21.889     6.659
 615   6 C      0.010  1.081  2.909  0.000    27.783     8.646
 616   6 C     -0.035  1.079  2.956  0.000    28.867     8.811
 617   6 C     -0.042  1.080  2.961  0.000    29.034     8.836
 618   6 C     -0.032  1.080  2.952  0.000    28.788     8.799
 619   6 C     -0.034  1.081  2.953  0.000    28.844     8.807
 620   6 C     -0.036  1.080  2.957  0.000    28.898     8.816
 621   1 H      0.240  0.760  0.000  0.000     0.923     1.505
 622   1 H      0.045  0.955  0.000  0.000     2.379     2.412
 623   1 H      0.063  0.937  0.000  0.000     2.161     2.299
 624   1 H      0.053  0.947  0.000  0.000     2.285     2.364
 625   1 H      0.027  0.973  0.000  0.000     2.636     2.539
 626   1 H      0.033  0.967  0.000  0.000     2.544     2.494
 627   1 H      0.039  0.961  0.000  0.000     2.460     2.453
 628   1 H      0.045  0.955  0.000  0.000     2.379     2.412
 629   1 H      0.043  0.957  0.000  0.000     2.404     2.425
 630   7 N     -0.205  1.257  3.948  0.000    25.448     7.492
 631   6 C      0.034  1.057  2.908  0.000    20.001     6.368
 632   6 C      0.282  1.042  2.675  0.000    22.223     7.721
 633   8 O     -0.507  1.753  4.754  0.000    23.938     6.560
 634   6 C     -0.074  1.053  3.021  0.000    21.904     6.662
 635   6 C      0.069  1.063  2.868  0.000    26.058     8.335
 636   7 N     -0.304  1.493  3.812  0.000    28.729     7.947
 637   6 C     -0.028  1.063  2.966  0.000    28.655     8.779
 638   6 C      0.084  1.060  2.855  0.000    25.870     8.321
 639   7 N     -0.092  1.238  3.854  0.000    23.030     7.127
 640   1 H      0.255  0.745  0.000  0.000     0.865     1.457
 641   1 H      0.067  0.933  0.000  0.000     2.116     2.275
 642   1 H      0.067  0.933  0.000  0.000     2.120     2.277
 643   1 H      0.058  0.942  0.000  0.000     2.225     2.333
 644   1 H      0.040  0.960  0.000  0.000     2.453     2.449
 645   1 H      0.053  0.947  0.000  0.000     2.278     2.360
 646   1 H      0.202  0.798  0.000  0.000     1.098     1.642
 647   7 N     -0.193  1.253  3.940  0.000    25.179     7.453
 648   6 C      0.038  1.058  2.904  0.000    19.944     6.359
 649   6 C      0.227  1.082  2.691  0.000    23.236     7.894
 650   8 O     -0.379  1.748  4.631  0.000    21.270     6.183
 651   6 C     -0.076  1.056  3.020  0.000    21.949     6.669
 652   6 C      0.020  1.080  2.900  0.000    27.564     8.612
 653   6 C     -0.044  1.080  2.964  0.000    29.098     8.846
 654   6 C     -0.029  1.078  2.951  0.000    28.735     8.791
 655   6 C     -0.032  1.081  2.951  0.000    28.797     8.800
 656   6 C     -0.034  1.077  2.956  0.000    28.841     8.807
 657   6 C     -0.035  1.079  2.956  0.000    28.872     8.812
 658   1 H      0.233  0.767  0.000  0.000     0.951     1.528
 659   1 H      0.081  0.919  0.000  0.000     1.968     2.194
 660   1 H      0.080  0.920  0.000  0.000     1.983     2.202
 661   1 H      0.081  0.919  0.000  0.000     1.971     2.195
 662   1 H      0.029  0.971  0.000  0.000     2.595     2.519
 663   1 H      0.034  0.966  0.000  0.000     2.527     2.486
 664   1 H      0.036  0.964  0.000  0.000     2.496     2.471
 665   1 H      0.039  0.961  0.000  0.000     2.466     2.456
 666   1 H      0.041  0.959  0.000  0.000     2.431     2.438
 667   7 N     -0.395  1.316  4.079  0.000    30.223     8.165
 668   6 C      0.035  1.060  2.905  0.000    20.000     6.370
 669   6 C      0.203  1.092  2.705  0.000    23.680     7.969
 670   8 O     -0.388  1.759  4.628  0.000    21.436     6.207
 671   6 C     -0.016  1.062  2.953  0.000    20.818     6.489
 672   6 C     -0.116  1.040  3.077  0.000    22.782     6.805
 673   6 C     -0.117  1.040  3.078  0.000    22.795     6.807
 674   1 H      0.164  0.836  0.000  0.000     1.308     1.791
 675   1 H      0.059  0.941  0.000  0.000     2.217     2.328
 676   1 H      0.040  0.960  0.000  0.000     2.446     2.446
 677   1 H      0.051  0.949  0.000  0.000     2.303     2.373
 678   1 H      0.030  0.970  0.000  0.000     2.587     2.515
 679   1 H      0.050  0.950  0.000  0.000     2.317     2.380
 680   1 H      0.050  0.950  0.000  0.000     2.321     2.382
 681   1 H      0.049  0.951  0.000  0.000     2.327     2.385
 682   1 H      0.045  0.955  0.000  0.000     2.382     2.414
 683   1 H      0.173  0.827  0.000  0.000     1.257     1.756
 684   1 H      0.078  0.922  0.000  0.000     1.996     2.209
 685   1 H      0.180  0.820  0.000  0.000     1.216     1.727
 686   1 H      0.063  0.937  0.000  0.000     2.169     2.303
 687   1 H      0.168  0.832  0.000  0.000     1.284     1.775
 688   1 H      0.068  0.932  0.000  0.000     2.104     2.268
 689   1 H      0.173  0.827  0.000  0.000     1.252     1.753
 690   1 H      0.069  0.931  0.000  0.000     2.098     2.265
 691   1 H      0.183  0.817  0.000  0.000     1.196     1.713
 692   1 H      0.077  0.923  0.000  0.000     2.007     2.215
 693   1 H      0.177  0.823  0.000  0.000     1.228     1.736
 694   1 H      0.066  0.934  0.000  0.000     2.131     2.282
 695   1 H      0.174  0.826  0.000  0.000     1.248     1.750
 696   1 H      0.074  0.926  0.000  0.000     2.041     2.234
 697   1 H      0.179  0.821  0.000  0.000     1.218     1.729
 698   1 H      0.081  0.919  0.000  0.000     1.972     2.196
 699   1 H      0.184  0.816  0.000  0.000     1.191     1.709
 700   1 H      0.069  0.931  0.000  0.000     2.094     2.263
 701   1 H      0.170  0.830  0.000  0.000     1.274     1.768
 702   1 H      0.074  0.926  0.000  0.000     2.040     2.233
 703   1 H      0.172  0.828  0.000  0.000     1.258     1.757
 704   1 H      0.070  0.930  0.000  0.000     2.087     2.259
 705   1 H      0.182  0.818  0.000  0.000     1.201     1.716
 706   1 H      0.050  0.950  0.000  0.000     2.320     2.382
 707   1 H      0.185  0.815  0.000  0.000     1.185     1.705
 708   1 H      0.069  0.931  0.000  0.000     2.093     2.262

 Mol. C6AA /au·bohr⁶  :    4383290.580257
 Mol. C8AA /au·bohr⁸  :   97372638.990766
 Mol. α(0) /au        :       3139.398364

 
molecular dipole:
                 x           y           z       tot (Debye)
 q only:        2.231      -8.893      46.919
   full:        3.926     -10.624      51.582     134.234
molecular quadrupole (traceless):
                xx          xy          yy          xz          yz          zz
 q only:     -883.278   -1271.309   -4145.519    8891.569    5355.222    5028.797
  q+dip:     -574.028   -1287.764   -4853.646    9901.996    5809.206    5427.674
   full:     -565.279   -1287.457   -4849.338    9898.872    5806.024    5414.617
speedup  1.00
cpu  time for grad   30.90 s
wall time for grad   30.90 s

SCC energy    :   -1023.1143412
rep           :      13.1040046
ES            :       2.1568570
AES           :      -0.0026679
AXC           :       0.3977543
disp          :      -0.9551356
XB            :       0.0000000
fix           :       0.0000000
Gborn         :       0.0000000
Gsasa         :       0.0000000
Ghb           :       0.0000000
Gshift        :       0.0000000
Gsolv         :      -0.3441946     -215.99
Etot ala COSMO:   -1023.1143412
grad norm     :       0.8007145
total E       :   -1009.9204363
atomizationE  :     193.0460617   121138.23
(atE without considering molecular charge,
 total energy contains solvation terms)
H-L gap (eV)  :          1.3594

------------------------------------------------------------------------
 * finished run on 2019/03/14 at 15:08:53.190     
------------------------------------------------------------------------
 total:
 * wall-time:     0 d,  0 h,  0 min, 32.609 sec
 *  cpu-time:     0 d,  0 h,  0 min, 32.429 sec
 * ratio c/w:     0.994 speedup
 SCF:
 * wall-time:     0 d,  0 h,  0 min, 31.907 sec
 *  cpu-time:     0 d,  0 h,  0 min, 31.902 sec
 * ratio c/w:     1.000 speedup

